Membrane in water
40347
    1TMC1    C1    1   1.631   3.631  11.496  0.1454 -0.0344  0.1296
    1TMC1    C2    2   1.524   3.693  11.435 -0.6063  0.2544  0.8048
    1TMC1    C3    3   1.548   3.774  11.332 -0.1469  0.1298 -0.3182
    1TMC1    C4    4   1.758   3.640  11.443  0.6235  0.2115 -0.0277
    1TMC1    C5    5   1.772   3.733  11.347 -0.9099  0.3044  0.2972
    1TMC1    C6    6   1.673   3.801  11.286 -0.7468 -0.2758  0.2337
    1TMC1     C    7   1.598   3.556  11.615 -0.5116 -0.3268 -0.0473
    1TMC1     O    8   1.485   3.506  11.617  0.0060  0.3041  1.1583
    1TMC1     H    9   1.425   3.681  11.478 -2.0365 -0.1401 -2.5980
    1TMC1    H1   10   1.845   3.599  11.493 -0.9457 -0.4125  2.1504
    1TMC1    H2   11   1.697   3.886  11.224 -0.6586 -1.2201 -1.0470
    1TMC1    C7   12   1.892   3.719  11.273  0.6883  0.2578  0.3403
    1TMC1    C8   13   1.423   3.830  11.273  0.0573  1.1260  0.2557
    1TMC1    O1   14   1.987   3.646  11.305  0.4023 -0.3141 -0.0952
    1TMC1    O2   15   1.320   3.859  11.334  0.4291  0.3954 -0.3825
    1TMC1    O3   16   1.862   3.740  11.140 -0.0902  0.4331  0.0788
    1TMC1    H3   17   1.788   3.800  11.119  0.5108  0.7439 -1.1543
    1TMC1    O5   18   1.440   3.831  11.140  0.3859  0.3321 -0.4830
    1TMC1    H5   19   1.526   3.814  11.095  0.7439  0.3748  0.1961
    2MPD2     C   20   1.717   3.350  12.071 -0.3597  0.7470 -0.5518
    2MPD2    C1   21   1.609   3.337  11.989 -0.4382  0.3496 -0.6721
    2MPD2    C2   22   1.599   3.400  11.866  1.1623 -0.6499  0.0309
    2MPD2    C3   23   1.705   3.463  11.816 -0.3291  0.3757 -0.4867
    2MPD2    C4   24   1.820   3.470  11.897  0.0480  1.0648 -0.1679
    2MPD2    C5   25   1.828   3.413  12.023  0.6373 -0.1244  0.1557
    2MPD2     H   26   1.508   3.396  11.808  0.7701  0.1316  0.5856
    2MPD2    H1   27   1.905   3.531  11.867  0.3286  0.0061 -1.5199
    2MPD2    H2   28   1.712   3.303  12.168  0.8443  0.5709 -0.5816
    2MPD2    H3   29   1.915   3.427  12.087  0.5774  2.5841 -0.3486
    2MPD2     N   30   1.708   3.538  11.697 -0.1506 -0.6528 -0.0810
    2MPD2    H5   31   1.796   3.582  11.673 -1.3035  1.6968 -0.0576
    2MPD2    N1   32   1.488   3.277  12.033 -0.1451 -0.7387  0.0093
    2MPD2    H7   33   1.410   3.274  11.968  2.8124 -0.9865 -3.5357
    3TMC1    C1   34   0.940   0.991  10.217  0.7561  0.0450  0.3448
    3TMC1    C2   35   0.902   0.958  10.086 -0.1698 -0.2051 -0.0167
    3TMC1    C3   36   0.950   1.030   9.983  0.6242 -0.5986  0.0885
    3TMC1    C4   37   1.034   1.082  10.235  0.0597 -0.2799  0.1275
    3TMC1    C5   38   1.092   1.149  10.130 -0.3126  0.6573  0.6038
    3TMC1    C6   39   1.041   1.129  10.002  0.6090 -0.6322  0.1652
    3TMC1     C   40   0.870   0.932  10.329  0.1285  0.1660 -0.0168
    3TMC1     O   41   0.920   0.943  10.439  0.2341 -0.1007  0.0437
    3TMC1     H   42   0.846   0.870  10.059 -1.5678  0.5994  0.2402
    3TMC1    H1   43   1.052   1.119  10.336  0.7052  2.0077 -0.8242
    3TMC1    H2   44   1.090   1.187   9.924 -0.1423 -0.7587 -0.4021
    3TMC1    C7   45   1.164   1.268  10.152 -0.2784 -0.0489  0.4805
    3TMC1    C8   46   0.920   0.976   9.847 -0.2962  0.4578  0.3834
    3TMC1    O1   47   1.151   1.368  10.081  1.2315 -0.2896 -0.2749
    3TMC1    O2   48   0.879   0.859   9.832  0.0157  0.3097 -0.4778
    3TMC1    O3   49   1.223   1.257  10.274 -0.1067  0.4632  0.4159
    3TMC1    H3   50   1.226   1.164  10.305 -0.0577 -0.0123 -1.0043
    3TMC1    O5   51   0.949   1.059   9.745  0.3999  0.0433 -0.0191
    3TMC1    H5   52   0.965   1.149   9.780  1.5617 -1.3779  3.0957
    4MPD2     C   53   0.509   0.660  10.547 -0.2762  0.3109 -0.6058
    4MPD2    C1   54   0.443   0.727  10.449  0.6778  0.6990 -0.4003
    4MPD2    C2   55   0.523   0.795  10.366 -0.1804  0.6029  0.7008
    4MPD2    C3   56   0.662   0.810  10.383  0.3998  0.2837  0.0600
    4MPD2    C4   57   0.723   0.745  10.488  0.1187 -0.4463  0.7500
    4MPD2    C5   58   0.647   0.666  10.565  0.0273 -0.3169  0.1428
    4MPD2     H   59   0.465   0.846  10.290 -1.3794 -1.0625  0.4749
    4MPD2    H1   60   0.830   0.747  10.507  0.3691 -0.1844 -0.6982
    4MPD2    H2   61   0.466   0.601  10.626  1.3220 -1.6813 -1.2304
    4MPD2    H3   62   0.697   0.617  10.648  1.2715 -1.3333 -1.2176
    4MPD2     N   63   0.741   0.894  10.300  0.2258 -0.1346 -0.1728
    4MPD2    H5   64   0.701   0.925  10.212 -1.0335 -0.1500  0.3868
    4MPD2    N1   65   0.304   0.727  10.437 -0.4158 -0.0120 -0.3550
    4MPD2    H7   66   0.262   0.788  10.368 -0.5460 -0.1200 -0.3714
    5TCq1    O1   67   0.492   2.142  11.703 -0.8001 -0.1091 -0.1541
    5TCq1    C1   68   0.415   2.198  11.609 -0.5396 -0.0940 -0.2947
    5TCq1    O2   69   0.416   2.316  11.570 -0.8883  0.4733  0.2552
    5TCq1    C2   70   0.340   2.097  11.523  0.2897  0.0658 -0.6839
    5TCq1    C3   71   0.299   1.973  11.576 -0.3740 -0.7902 -0.3842
    5TCq1    C4   72   0.265   1.877  11.479  0.4663  0.1931  0.6393
    5TCq1    C5   73   0.261   1.893  11.342  0.2628  0.6386 -0.0988
    5TCq1    C6   74   0.317   2.014  11.302  0.0848 -0.5680 -0.5234
    5TCq1    C7   75   0.342   2.122  11.390 -0.3392  0.3122  0.7101
    5TCq1    C8   76   0.402   2.009  11.180  0.9888  0.6961 -0.3252
    5TCq1    O4   77   0.416   1.892  11.140 -0.0264 -0.5289 -0.0003
    5TCq1    C9   78   0.230   1.743  11.520 -0.1379  0.6370 -0.1440
    5TCq1    O5   79   0.187   1.732  11.637 -0.3340 -0.4715 -0.7915
    5TCq1    O6   80   0.250   1.647  11.445 -0.4771 -0.6392 -0.6146
    5TCq1    H1   81   0.490   2.044  11.697 -3.3344 -0.0050 -1.2577
    5TCq1    H2   82   0.307   1.951  11.682  0.2871 -2.8811 -0.8581
    5TCq1    H3   83   0.254   1.806  11.278  1.0990  0.6145 -0.1604
    5TCq1    H4   84   0.382   2.217  11.355 -2.0467  0.6539 -0.2987
    6MPD2     C   85   0.683   2.223  11.086  0.1080  0.1955 -0.2681
    6MPD2    C1   86   0.596   2.124  11.077 -0.2693 -0.0576  0.0481
    6MPD2    C2   87   0.623   2.013  10.996 -0.0695  0.1578 -0.7590
    6MPD2    C3   88   0.747   1.995  10.933 -0.4207  0.0512  0.1479
    6MPD2    C4   89   0.835   2.100  10.949 -0.1846  0.0211 -0.8287
    6MPD2    C5   90   0.800   2.210  11.020  0.2014 -0.1167 -0.7236
    6MPD2     H   91   0.558   1.928  10.983 -1.8835  1.3571  0.4943
    6MPD2    H1   92   0.928   2.105  10.895  0.1575 -0.1932 -0.2568
    6MPD2    H2   93   0.668   2.301  11.160  0.4077  1.0931 -1.1511
    6MPD2    H3   94   0.862   2.299  11.022  1.2115 -0.8314 -0.1768
    6MPD2     N   95   0.777   1.870  10.880  0.0570 -0.2729  0.0161
    6MPD2    H5   96   0.710   1.799  10.907  0.3157 -0.6250 -0.2770
    6MPD2    N1   97   0.474   2.121  11.148  0.2531  0.2941 -0.2670
    6MPD2    H7   98   0.436   2.206  11.189 -0.6192 -0.2014 -0.0466
    7TCq1    O1   99   4.042   0.972  13.478  0.6624 -0.0628  0.3083
    7TCq1    C1  100   3.941   0.924  13.542 -0.4979  0.1467 -0.4977
    7TCq1    O2  101   3.951   0.841  13.636  0.5675  0.0932 -0.9363
    7TCq1    C2  102   3.848   0.896  13.435  0.2850 -0.1177 -0.1004
    7TCq1    C3  103   3.812   1.000  13.347  0.6504 -0.0659  0.2698
    7TCq1    C4  104   3.736   0.964  13.239  0.1954  0.2274  0.5482
    7TCq1    C5  105   3.719   0.839  13.198  0.2329 -0.2094  0.8908
    7TCq1    C6  106   3.768   0.740  13.284  0.4380  0.1082  0.3686
    7TCq1    C7  107   3.839   0.762  13.397 -0.2400  0.6941 -0.6160
    7TCq1    C8  108   3.738   0.603  13.259  0.0222 -0.0609  0.3713
    7TCq1    O4  109   3.718   0.538  13.360  0.3279 -0.5773  0.1826
    7TCq1    C9  110   3.682   1.059  13.145  0.3623  0.8824  0.2915
    7TCq1    O5  111   3.740   1.170  13.134 -0.5107  0.1157 -0.0686
    7TCq1    O6  112   3.574   1.025  13.076  0.0808 -0.2780  0.0201
    7TCq1    H1  113   4.018   1.036  13.408  2.4290  0.2238 -0.0474
    7TCq1    H2  114   3.829   1.106  13.364  0.3406  0.2184 -1.2462
    7TCq1    H3  115   3.667   0.805  13.109  0.7662  0.9003  0.1547
    7TCq1    H4  116   3.857   0.677  13.462 -1.0279  0.9967 -0.0114
    8MPD2     C  117   3.613   0.207  12.944  0.2984  0.3581  0.1700
    8MPD2    C1  118   3.602   0.221  13.082 -0.3410 -0.2543 -1.3337
    8MPD2    C2  119   3.643   0.335  13.150 -0.1523 -0.3219 -0.0617
    8MPD2    C3  120   3.690   0.444  13.076  0.3287  0.1218 -0.4185
    8MPD2    C4  121   3.700   0.424  12.938 -0.3748  0.3105  0.0052
    8MPD2    C5  122   3.676   0.304  12.872 -0.5370  0.6665 -0.1891
    8MPD2     H  123   3.649   0.336  13.258  0.3667 -0.9279 -0.0851
    8MPD2    H1  124   3.747   0.498  12.874 -0.4309 -0.6977 -1.2082
    8MPD2    H2  125   3.579   0.122  12.886  0.2008 -0.3668  1.2840
    8MPD2    H3  126   3.696   0.283  12.767  0.6814  0.5511  0.0649
    8MPD2     N  127   3.741   0.567  13.128 -0.1498 -0.5519 -0.0873
    8MPD2    H5  128   3.773   0.625  13.051 -1.7425  1.6897  0.9443
    8MPD2    N1  129   3.557   0.113  13.167  0.1017  0.3009 -0.1801
    8MPD2    H7  130   3.534   0.136  13.264  4.8910  0.6293  0.8766
    9TMC1    C1  131   1.215   0.242  11.351  0.2277  0.3234  0.6233
    9TMC1    C2  132   1.136   0.352  11.331 -0.1879 -0.5353 -0.7839
    9TMC1    C3  133   1.192   0.474  11.312  0.3079 -0.1987  0.4314
    9TMC1    C4  134   1.354   0.265  11.351 -0.2661 -0.4932  0.1269
    9TMC1    C5  135   1.405   0.389  11.314 -0.2521 -0.1749 -0.6166
    9TMC1    C6  136   1.325   0.491  11.284 -0.1394 -0.0858  0.7456
    9TMC1     C  137   1.162   0.106  11.330  0.2795  0.1663  0.4056
    9TMC1     O  138   1.245   0.013  11.314  0.0381  0.2637 -0.4119
    9TMC1     H  139   1.028   0.341  11.332 -0.3638  1.6098  1.8975
    9TMC1    H1  140   1.422   0.181  11.361  0.3093 -0.1001 -0.4795
    9TMC1    H2  141   1.371   0.589  11.274  0.1249 -0.0214  2.5837
    9TMC1    C7  142   1.547   0.391  11.285 -0.3240 -0.3038  0.2357
    9TMC1    C8  143   1.102   0.575  11.251  0.1410 -0.1128  0.4071
    9TMC1    O1  144   1.627   0.323  11.346  0.2027 -0.1998 -0.3730
    9TMC1    O2  145   1.056   0.660  11.327  0.3232  0.4155  0.1077
    9TMC1    O3  146   1.571   0.480  11.188  0.0115 -0.3389 -0.6739
    9TMC1    H3  147   1.500   0.487  11.121 -1.3636 -0.5397  0.7702
    9TMC1    O5  148   1.036   0.501  11.159 -0.2921  0.2399  0.4094
    9TMC1    H5  149   1.099   0.442  11.112  0.0562  1.1691 -0.2771
   10MPD2     C  150   0.805   0.024  11.377  0.1481  0.3542 -0.0982
   10MPD2    C1  151   0.939   4.733  11.355  0.2257 -0.8514  0.1136
   10MPD2    C2  152   0.990   4.606  11.375  0.5853  0.4427  0.4401
   10MPD2    C3  153   0.914   4.502  11.417  0.3480  0.1077  0.0360
   10MPD2    C4  154   0.780   4.532  11.448 -0.5007  0.6038 -1.0302
   10MPD2    C5  155   0.732   4.654  11.418  0.5470 -0.2310  0.3258
   10MPD2     H  156   1.094   4.579  11.364  0.7075  2.1603 -2.5252
   10MPD2    H1  157   0.716   4.454  11.487  1.2979  0.8260  2.3207
   10MPD2    H2  158   0.753   0.119  11.374  0.5561  0.6246  2.0211
   10MPD2    H3  159   0.625   4.669  11.427  0.1730 -2.2203 -0.8111
   10MPD2     N  160   0.963   4.370  11.450  0.7192  0.2736 -0.2453
   10MPD2    H5  161   0.894   4.296  11.460  1.1770 -0.1878 -0.5813
   10MPD2    N1  162   1.027   0.099  11.330 -0.4698  0.1203  0.0447
   10MPD2    H7  163   0.976   0.186  11.339 -0.8407 -0.0795 -0.1455
   11TCq1    O1  164   1.491   3.786  14.580 -0.6633 -0.3202  0.3079
   11TCq1    C1  165   1.365   3.802  14.536  0.7032  0.0134 -0.2685
   11TCq1    O2  166   1.306   3.906  14.518 -0.4253  0.0477  0.2572
   11TCq1    C2  167   1.347   3.698  14.441  0.0068 -0.3475  0.1457
   11TCq1    C3  168   1.409   3.578  14.467 -0.1260 -0.0656  0.2224
   11TCq1    C4  169   1.431   3.500  14.360  0.1269  0.0481 -0.0091
   11TCq1    C5  170   1.377   3.524  14.235 -0.3349 -0.3228  0.3719
   11TCq1    C6  171   1.309   3.644  14.219  0.4743 -0.3089  0.2334
   11TCq1    C7  172   1.308   3.740  14.314  0.4264 -0.9455  0.1976
   11TCq1    C8  173   1.290   3.687  14.084 -0.1128 -0.4638 -0.3438
   11TCq1    O4  174   1.188   3.752  14.064  0.2059  0.5082 -0.6494
   11TCq1    C9  175   1.509   3.379  14.380 -0.6509 -0.1214  0.3781
   11TCq1    O5  176   1.514   3.331  14.496 -0.6553 -0.0052  0.1906
   11TCq1    O6  177   1.531   3.315  14.274  0.0102  0.3048 -0.4022
   11TCq1    H1  178   1.532   3.701  14.556 -0.3768 -0.4769  1.3356
   11TCq1    H2  179   1.454   3.546  14.560 -2.8424 -1.0753  1.1715
   11TCq1    H3  180   1.371   3.450  14.156  1.8261  1.5668 -1.5546
   11TCq1    H4  181   1.255   3.834  14.303  0.1617 -1.0439  0.6454
   12MPD2     C  182   1.293   3.743  13.793 -0.8815 -0.2658  0.4109
   12MPD2    C1  183   1.369   3.643  13.855 -0.2941 -0.6645 -0.0615
   12MPD2    C2  184   1.451   3.567  13.783  0.4010 -0.2751  0.1855
   12MPD2    C3  185   1.453   3.570  13.648 -0.0408 -0.1294  0.1843
   12MPD2    C4  186   1.383   3.667  13.584 -0.0505 -0.0021 -0.1354
   12MPD2    C5  187   1.310   3.750  13.659  0.0816 -0.7102  0.5367
   12MPD2     H  188   1.514   3.496  13.837  0.3296  0.3724  1.1227
   12MPD2    H1  189   1.372   3.669  13.477  1.3644  3.3540 -0.2148
   12MPD2    H2  190   1.244   3.826  13.844 -0.5640  0.6666 -0.7829
   12MPD2    H3  191   1.254   3.825  13.605  1.5019 -0.5829 -0.7404
   12MPD2     N  192   1.529   3.486  13.577  0.0641  0.1519 -0.1352
   12MPD2    H5  193   1.517   3.483  13.477 -0.3714 -2.1588 -0.0170
   12MPD2    N1  194   1.377   3.631  13.995  0.2562  0.5176 -0.3769
   12MPD2    H7  195   1.444   3.564  14.031  2.1794  2.1006 -0.9540
   13TCq1    O1  196   1.638   4.668  11.216 -0.1339 -0.1557 -0.7731
   13TCq1    C1  197   1.642   0.031  11.126  0.7992 -0.6131 -0.2848
   13TCq1    O2  198   1.733   0.111  11.107 -0.3918  0.0999 -0.0946
   13TCq1    C2  199   1.511   0.059  11.078  0.6230  0.1351  0.7426
   13TCq1    C3  200   1.479   0.192  11.050  0.1354 -0.4453 -0.3329
   13TCq1    C4  201   1.353   0.218  11.011  0.0848 -0.4626  0.1248
   13TCq1    C5  202   1.257   0.117  10.997  0.4383  0.4198  0.3052
   13TCq1    C6  203   1.294   4.728  11.020 -0.2150 -0.0548 -0.4188
   13TCq1    C7  204   1.425   4.692  11.054 -0.5919 -0.2911  0.0949
   13TCq1    C8  205   1.186   4.630  11.027  0.3213  0.7472 -0.1456
   13TCq1    O4  206   1.071   4.670  11.011 -0.1279 -0.7630  0.1347
   13TCq1    C9  207   1.318   0.353  10.988  0.3278  0.7719 -0.5849
   13TCq1    O5  208   1.196   0.379  11.005 -0.3667  0.7161 -0.3673
   13TCq1    O6  209   1.411   0.442  10.985  0.3272 -0.5853 -0.0720
   13TCq1    H1  210   1.547   4.639  11.240 -0.6038  1.4974 -0.4724
   13TCq1    H2  211   1.552   0.272  11.056  1.0273 -1.2401 -0.4966
   13TCq1    H3  212   1.155   0.142  10.971  0.7113  0.5926 -0.5977
   13TCq1    H4  213   1.455   4.589  11.069 -1.0644 -0.8242 -2.4985
   14MPD2     C  214   1.217   4.259  11.053 -0.7157 -0.0559 -0.0687
   14MPD2    C1  215   1.155   4.379  11.062 -0.0343 -0.3063 -0.2340
   14MPD2    C2  216   1.023   4.383  11.104  0.6065  0.2474 -0.8546
   14MPD2    C3  217   0.950   4.269  11.108  0.1332  0.3114  1.2671
   14MPD2    C4  218   1.016   4.151  11.105 -0.3545 -0.5607 -0.3723
   14MPD2    C5  219   1.144   4.144  11.068  0.4337  0.1888  0.0558
   14MPD2     H  220   0.980   4.482  11.117 -0.4787 -0.3879  0.3803
   14MPD2    H1  221   0.969   4.054  11.117 -1.7134  0.0798 -0.4374
   14MPD2    H2  222   1.323   4.247  11.030 -0.8472 -1.9068  0.2359
   14MPD2    H3  223   1.192   4.047  11.072  1.2331  0.4271 -3.3175
   14MPD2     N  224   0.816   4.284  11.140 -0.5818  0.3253 -0.1700
   14MPD2    H5  225   0.778   4.377  11.127 -1.1010 -0.4113 -3.8551
   14MPD2    N1  226   1.232   4.495  11.025  0.1434 -0.2267  0.3093
   14MPD2    H7  227   1.331   4.490  11.003 -0.6386  0.7372 -3.3565
   15TCq1    O1  228   3.649   3.776   1.863 -0.3456 -0.3450  0.1696
   15TCq1    C1  229   3.585   3.655   1.849 -0.6448 -0.0961  0.3664
   15TCq1    O2  230   3.479   3.652   1.788 -0.1686  0.0431 -0.3053
   15TCq1    C2  231   3.685   3.543   1.859  0.1959  0.0215 -0.1262
   15TCq1    C3  232   3.774   3.549   1.973 -0.6387 -0.5891 -0.7619
   15TCq1    C4  233   3.807   3.429   2.019  0.3551 -0.5956  0.3290
   15TCq1    C5  234   3.779   3.314   1.951  1.2928 -0.4539 -0.1774
   15TCq1    C6  235   3.692   3.311   1.850 -0.0646 -0.3326  0.1620
   15TCq1    C7  236   3.635   3.430   1.804  0.9794 -0.2958  0.3842
   15TCq1    C8  237   3.705   3.197   1.760  0.1289 -0.0258 -0.2560
   15TCq1    O4  238   3.789   3.115   1.800  0.3240 -0.1499  0.0644
   15TCq1    C9  239   3.902   3.412   2.131  0.7616 -0.6230  0.0144
   15TCq1    O5  240   3.937   3.293   2.164  0.1056  0.7484 -0.5157
   15TCq1    O6  241   3.955   3.520   2.171  0.1613  0.0800  0.5547
   15TCq1    H1  242   3.742   3.769   1.895 -0.3864  1.2930  0.6138
   15TCq1    H2  243   3.809   3.637   2.025 -2.4379  0.5537 -1.4811
   15TCq1    H3  244   3.817   3.219   1.988  2.3293  1.2497  3.1798
   15TCq1    H4  245   3.603   3.448   1.702 -1.1664 -1.6680  0.8231
   16MPD2     C  246   3.503   3.039   1.507 -0.3477  0.5088  0.9254
   16MPD2    C1  247   3.616   3.066   1.577  0.1246 -0.4108 -0.1134
   16MPD2    C2  248   3.731   2.995   1.551  0.0144  0.5605  0.1434
   16MPD2    C3  249   3.734   2.905   1.446 -1.2094 -0.7389  0.1381
   16MPD2    C4  250   3.617   2.881   1.372  0.5167  0.0767 -0.2496
   16MPD2    C5  251   3.503   2.939   1.410  0.2065  0.1784 -0.2701
   16MPD2     H  252   3.825   3.017   1.600  1.1544 -2.5511 -0.6401
   16MPD2    H1  253   3.613   2.816   1.286 -0.3639  0.3525 -0.4113
   16MPD2    H2  254   3.409   3.091   1.523 -0.6511 -0.5208  2.4394
   16MPD2    H3  255   3.407   2.921   1.363  0.6632  1.0483 -1.5417
   16MPD2     N  256   3.860   2.852   1.418 -0.9975 -0.8615  0.4486
   16MPD2    H5  257   3.933   2.873   1.487 -1.6913  0.5704  0.7562
   16MPD2    N1  258   3.610   3.180   1.666  0.1070  0.2570 -0.2847
   16MPD2    H7  259   3.529   3.240   1.660 -0.9752 -1.0252  1.4839
   17TMC1    C1  260   1.257   2.972   9.874  0.0124  0.0988 -0.0250
   17TMC1    C2  261   1.217   2.936   9.750  0.6803 -0.3313  0.1203
   17TMC1    C3  262   1.092   2.882   9.737  0.0293  0.0093 -0.3815
   17TMC1    C4  263   1.176   2.960   9.983 -0.0612 -0.4490 -0.1442
   17TMC1    C5  264   1.054   2.912   9.962  0.1365 -1.0196 -0.0871
   17TMC1    C6  265   1.010   2.861   9.841 -0.9744 -0.0892  0.4181
   17TMC1     C  266   1.379   3.051   9.871  0.2843  0.6029 -0.6348
   17TMC1     O  267   1.443   3.059   9.763  0.0181 -0.1795  0.7605
   17TMC1     H  268   1.279   2.957   9.663 -0.1539 -0.7683 -0.5819
   17TMC1    H1  269   1.196   2.987  10.086 -2.2955 -0.2851  0.2511
   17TMC1    H2  270   0.920   2.805   9.821 -0.9290 -0.8898  2.4331
   17TMC1    C7  271   0.959   2.924  10.065  0.1129  0.1826 -1.2048
   17TMC1    C8  272   1.044   2.874   9.604 -0.0517 -0.1825  0.1717
   17TMC1    O1  273   0.991   2.940  10.181 -0.6453 -0.1923 -0.0001
   17TMC1    O2  274   1.069   2.941   9.505  0.1230  0.2353  0.5680
   17TMC1    O3  275   0.836   2.938  10.016  0.0735  0.0058  0.1193
   17TMC1    H3  276   0.821   2.935   9.919 -0.9697  0.1568  0.2699
   17TMC1    O5  277   1.027   2.741   9.598  0.1048 -0.0499  0.4576
   17TMC1    H5  278   1.045   2.690   9.680  0.5673  1.0193  1.0101
   18MPD2     C  279   1.581   3.268   9.902  0.0801  0.8564 -0.4076
   18MPD2    C1  280   1.508   3.218  10.009 -0.4980 -0.0765  0.0307
   18MPD2    C2  281   1.531   3.263  10.137 -0.0411  0.4910 -0.0219
   18MPD2    C3  282   1.636   3.348  10.163 -0.3575 -0.2080  0.0163
   18MPD2    C4  283   1.710   3.390  10.054  0.2955 -0.4146  0.1320
   18MPD2    C5  284   1.673   3.359   9.925 -0.7922  0.4615  0.0940
   18MPD2     H  285   1.467   3.219  10.214 -0.1523 -0.1242 -0.4703
   18MPD2    H1  286   1.783   3.469  10.064  0.4473 -0.5807  0.3195
   18MPD2    H2  287   1.574   3.249   9.795  0.5053  0.4769 -0.3685
   18MPD2    H3  288   1.736   3.388   9.841  0.7804  0.4048  1.2442
   18MPD2     N  289   1.678   3.397  10.292 -0.1329  0.3859 -0.6985
   18MPD2    H5  290   1.767   3.443  10.305 -1.4468  3.0779 -1.0426
   18MPD2    N1  291   1.405   3.117   9.991  0.4707  0.0653  0.5798
   18MPD2    H7  292   1.354   3.090  10.074  2.0470 -0.9977  1.1943
   19TMC2    C1  293   2.638   3.815  14.478  0.1358 -0.3725 -0.1006
   19TMC2    C2  294   2.594   3.906  14.561 -0.4206  0.8819 -0.0086
   19TMC2    C3  295   2.466   3.917  14.598  0.2000 -0.3487 -0.7451
   19TMC2    C4  296   2.549   3.726  14.422  0.2583 -0.6075  0.0082
   19TMC2    C5  297   2.424   3.714  14.485  0.9718  0.4418  0.1073
   19TMC2    C6  298   2.375   3.823  14.562  0.1016 -0.8616 -0.7053
   19TMC2     C  299   2.777   3.815  14.430  0.1415  0.2167 -0.3070
   19TMC2     O  300   2.840   3.921  14.426 -0.5758 -0.1435  0.7249
   19TMC2     H  301   2.664   3.976  14.606  0.3856  1.2199 -1.8031
   19TMC2    H1  302   2.568   3.643  14.355  0.2835 -1.2501  0.8109
   19TMC2    H2  303   2.273   3.817  14.597  0.3066  0.1741  0.0673
   19TMC2    C7  304   2.330   3.624  14.432  0.1150 -0.2436 -0.3442
   19TMC2    C8  305   2.424   4.020  14.692  0.1328  0.2590  0.1164
   19TMC2    O1  306   2.381   3.519  14.395  0.7514 -0.1107 -0.5274
   19TMC2    O2  307   2.326   4.001  14.768  0.5248  0.4205 -0.0615
   19TMC2    O5  308   2.451   4.132  14.621  0.1370 -0.3738  0.4648
   19TMC2    H5  309   2.507   4.111  14.544 -1.7033 -1.1219 -0.6832
   20MPD2     C  310   3.027   3.725  14.318  0.2996  0.1010  0.9414
   20MPD2    C1  311   2.950   3.642  14.399 -0.9081 -0.2247  0.4914
   20MPD2    C2  312   2.998   3.521  14.437  0.2113  1.2705 -0.2232
   20MPD2    C3  313   3.131   3.483  14.416 -0.0619  0.6144 -0.0426
   20MPD2    C4  314   3.209   3.569  14.345  0.2908  0.6775 -0.1433
   20MPD2    C5  315   3.160   3.690  14.297  0.3178 -0.3524 -0.1264
   20MPD2     H  316   2.937   3.456  14.498  1.5098 -2.8535 -3.3461
   20MPD2    H1  317   3.316   3.552  14.334  0.2860 -1.3639  3.1426
   20MPD2    H2  318   2.988   3.813  14.269 -0.0377 -1.0660 -0.9194
   20MPD2    H3  319   3.216   3.756  14.232  0.8533  1.0810  1.8014
   20MPD2     N  320   3.192   3.357  14.452 -0.6230 -0.2422  0.2272
   20MPD2    H5  321   3.286   3.338  14.418 -0.1670 -0.0066  1.3873
   20MPD2    N1  322   2.818   3.683  14.437  0.4379 -0.7811  0.0117
   20MPD2    H7  323   2.753   3.624  14.488  0.7753 -0.4218  0.8649
   21TMC2    C1  324   0.281   3.740  14.443 -0.6530 -0.5729 -0.2039
   21TMC2    C2  325   0.373   3.675  14.523  0.3382  0.2548  0.0276
   21TMC2    C3  326   0.337   3.647  14.649 -0.1955 -0.4600 -0.1922
   21TMC2    C4  327   0.170   3.796  14.492 -0.1745  0.3008  0.5072
   21TMC2    C5  328   0.149   3.787  14.629 -0.3033  0.1139  0.0323
   21TMC2    C6  329   0.224   3.703  14.709 -1.0679  0.1331 -0.6306
   21TMC2     C  330   0.340   3.779  14.317 -0.3346  0.2212  0.4467
   21TMC2     O  331   0.465   3.791  14.310  0.4999 -0.4465 -0.2063
   21TMC2     H  332   0.459   3.621  14.484  0.0462 -0.6479  0.6122
   21TMC2    H1  333   0.108   3.864  14.434 -1.4814 -0.2895  1.2152
   21TMC2    H2  334   0.201   3.661  14.807  1.0690 -0.7245 -0.4906
   21TMC2    C7  335   0.021   3.836  14.679  0.2177  0.4002  0.1501
   21TMC2    C8  336   0.443   3.606  14.747 -0.1598  1.0925  0.4665
   21TMC2    O1  337   4.711   3.778  14.778  0.2081  0.0133 -0.6507
   21TMC2    O2  338   0.439   3.513  14.827 -0.1176  0.3635 -0.2938
   21TMC2    O5  339   0.556   3.659  14.706  1.0873 -0.0118  0.5558
   21TMC2    H5  340   0.529   3.736  14.652  1.1405  0.1434  0.7502
   22MPD2     C  341   0.311   3.864  13.812  0.6507  0.5734 -0.5346
   22MPD2    C1  342   0.419   3.843  13.893 -0.0524  0.0966  0.5159
   22MPD2    C2  343   0.393   3.813  14.026 -0.2940  0.3250 -0.5288
   22MPD2    C3  344   0.268   3.812  14.083 -0.1173 -0.1063 -0.0790
   22MPD2    C4  345   0.165   3.836  14.002  0.2061  0.3188 -0.2077
   22MPD2    C5  346   0.184   3.857  13.867  0.8188 -0.0333 -0.9337
   22MPD2     H  347   0.487   3.804  14.080 -1.3207  0.7265  1.3025
   22MPD2    H1  348   0.068   3.865  14.041  0.8400  1.1302  0.7766
   22MPD2    H2  349   0.315   3.873  13.704  0.0352  1.7257 -0.4649
   22MPD2    H3  350   0.092   3.878  13.814  0.4262  2.7922  0.8327
   22MPD2     N  351   0.242   3.789  14.220 -0.4106 -0.2447 -0.1628
   22MPD2    H5  352   0.146   3.776  14.250 -0.4202 -0.7902 -0.4137
   22MPD2    N1  353   0.552   3.832  13.849 -0.7265  0.4579 -0.1739
   22MPD2    H7  354   0.621   3.846  13.922 -0.1534 -0.7242 -0.4962
   23TMC2    C1  355   1.489   0.319  15.247 -0.1463  0.0773 -0.0427
   23TMC2    C2  356   1.393   0.324  15.348  0.5713  0.5104  0.1419
   23TMC2    C3  357   1.265   0.301  15.317 -0.8112 -0.3273  0.0263
   23TMC2    C4  358   1.464   0.291  15.120 -0.2768  0.7052 -0.5467
   23TMC2    C5  359   1.329   0.273  15.096 -0.1961  0.2570 -0.3861
   23TMC2    C6  360   1.227   0.273  15.191 -0.2539  0.6632 -0.2688
   23TMC2     C  361   1.625   0.338  15.280  0.1822  0.1151 -0.4430
   23TMC2     O  362   1.716   0.289  15.219 -0.1865 -0.1965  0.1628
   23TMC2     H  363   1.420   0.351  15.449  0.2898  0.9020  0.1113
   23TMC2    H1  364   1.539   0.256  15.050 -0.7895  2.0069 -1.7477
   23TMC2    H2  365   1.127   0.241  15.163 -1.1017  2.3651  0.7723
   23TMC2    C7  366   1.298   0.232  14.964  0.0726  0.4896  0.4351
   23TMC2    C8  367   1.181   0.288  15.429 -0.4939  0.0607  0.1581
   23TMC2    O1  368   1.392   0.241  14.883 -0.4049 -0.2920  0.4452
   23TMC2    O2  369   1.229   0.273  15.541 -0.1057  0.1955  0.1781
   23TMC2    O5  370   1.057   0.251  15.392  0.3838 -0.2675 -0.3166
   23TMC2    H5  371   1.032   0.277  15.301 -0.8016 -1.2950 -0.2858
   24MPD2     C  372   1.957   0.473  15.652  0.5728  0.3856 -0.8847
   24MPD2    C1  373   1.950   0.355  15.578 -0.4154  0.0458 -0.1836
   24MPD2    C2  374   1.843   0.339  15.487 -0.1392 -1.0431 -0.2461
   24MPD2    C3  375   1.745   0.437  15.469 -0.7358 -0.1942 -0.4096
   24MPD2    C4  376   1.750   0.547  15.553  0.7189 -0.2688 -0.7191
   24MPD2    C5  377   1.853   0.564  15.640  0.0810 -0.0260 -0.0809
   24MPD2     H  378   1.834   0.245  15.435  1.7878 -0.5875 -1.3928
   24MPD2    H1  379   1.678   0.628  15.556  1.9147  0.7989 -1.1363
   24MPD2    H2  380   2.041   0.497  15.716  0.1960  1.4079 -0.7749
   24MPD2    H3  381   1.857   0.655  15.698  0.2269  0.9146 -1.5479
   24MPD2     N  382   1.629   0.423  15.387 -0.3430 -0.0488  0.2258
   24MPD2    H5  383   1.549   0.478  15.416  0.2179  0.5013  0.7328
   24MPD2    N1  384   2.044   0.248  15.580  0.1452  0.0636  0.2142
   24MPD2    H7  385   2.044   0.176  15.508 -0.2029  0.2289  0.0509
   25TMC2    C1  386   4.633   3.362  11.373  0.3092  0.8866  0.6100
   25TMC2    C2  387   4.561   3.478  11.388  0.3444 -0.3988 -0.7213
   25TMC2    C3  388   4.508   3.501  11.513  0.3282 -0.2216 -0.6440
   25TMC2    C4  389   4.661   3.274  11.476  0.5845 -0.6985 -0.2749
   25TMC2    C5  390   4.600   3.306  11.598  0.1039 -0.7183 -0.1424
   25TMC2    C6  391   4.518   3.411  11.609 -0.6662 -0.3419 -0.0630
   25TMC2     C  392   4.697   3.339  11.245  0.7963 -0.1283  0.2281
   25TMC2     O  393   4.707   3.433  11.166  0.3129 -0.0188 -0.2141
   25TMC2     H  394   4.543   3.549  11.308  2.9383 -0.4513 -1.3474
   25TMC2    H1  395   4.734   3.195  11.463  1.3891  0.3682 -2.1687
   25TMC2    H2  396   4.483   3.440  11.707  0.3559 -1.0662  0.5112
   25TMC2    C7  397   4.615   3.221  11.715  0.0423  0.7377 -0.1434
   25TMC2    C8  398   4.423   3.615  11.543 -1.1842  0.3424  0.6908
   25TMC2    O1  399   4.577   3.268  11.821  0.6710 -0.2366 -0.7924
   25TMC2    O2  400   4.405   3.652  11.659  0.2825  0.1733 -0.3021
   25TMC2    O5  401   4.337   3.640  11.443  0.2504 -0.3472 -0.1270
   25TMC2    H5  402   4.356   3.584  11.365 -3.2299  0.8244 -1.8165
   26MPD2     C  403   0.195   2.995  10.930  0.3388 -0.7081  0.1376
   26MPD2    C1  404   0.118   2.921  11.019 -0.3172  0.4281 -0.0449
   26MPD2    C2  405   0.049   2.999  11.117  0.7445  0.1849  0.0760
   26MPD2    C3  406   0.050   3.136  11.121 -0.1113  0.0106 -0.1643
   26MPD2    C4  407   0.130   3.206  11.028  0.2669  0.5392 -0.2333
   26MPD2    C5  408   0.206   3.131  10.934  0.1002 -0.6880  0.7514
   26MPD2     H  409   4.719   2.956  11.191 -2.2894  1.3299 -1.9601
   26MPD2    H1  410   0.125   3.314  11.027 -1.9608  0.4332 -0.5490
   26MPD2    H2  411   0.241   2.947  10.845 -2.0015 -1.9354 -0.4379
   26MPD2    H3  412   0.259   3.189  10.860  1.2493 -2.0631  0.5015
   26MPD2     N  413   4.718   3.202  11.230 -0.0319  0.0838 -0.9802
   26MPD2    H5  414   4.677   3.139  11.298 -0.4923  0.0215 -1.3153
   26MPD2    N1  415   0.116   2.783  10.997 -0.1178 -0.4542 -0.1986
   26MPD2    H7  416   0.167   2.749  10.916  1.0124 -0.3720  0.4874
   27TMC2    C1  417   4.276   0.273  12.001  0.6616 -0.3003 -0.7235
   27TMC2    C2  418   4.334   0.367  11.918 -0.0666 -0.7600 -0.1114
   27TMC2    C3  419   4.352   0.496  11.972  0.8214  1.3987 -0.7727
   27TMC2    C4  420   4.237   0.308  12.133 -0.3801 -0.4715 -0.2375
   27TMC2    C5  421   4.266   0.438  12.182 -0.2895  1.2168 -0.2361
   27TMC2    C6  422   4.312   0.530  12.099 -0.4218 -0.0386  0.0373
   27TMC2     C  423   4.231   0.141  11.955 -0.4436  0.1376 -0.2546
   27TMC2     O  424   4.256   0.119  11.836  0.0433 -0.3450  0.6539
   27TMC2     H  425   4.358   0.348  11.814 -0.6445 -0.1099 -0.3625
   27TMC2    H1  426   4.192   0.241  12.206 -1.0799 -1.5904 -1.6840
   27TMC2    H2  427   4.342   0.625  12.141  2.6608 -0.8010 -0.4117
   27TMC2    C7  428   4.219   0.491  12.315  0.3315  0.7913 -0.2644
   27TMC2    C8  429   4.395   0.603  11.888  0.1495 -0.4425 -0.3160
   27TMC2    O1  430   4.215   0.613  12.324  0.0369 -0.2234 -0.4733
   27TMC2    O2  431   4.492   0.610  11.819  0.0613  0.0133 -0.1875
   27TMC2    O5  432   4.323   0.705  11.929  0.1179 -0.7131 -0.4334
   27TMC2    H5  433   4.240   0.686  11.976 -0.0321 -1.7643 -1.1210
   28MPD2     C  434   3.804   4.580  11.925  0.0914 -0.3564  0.0987
   28MPD2    C1  435   3.823   4.621  12.056 -0.4712  0.0909 -0.4727
   28MPD2    C2  436   3.939   4.700  12.091  0.4772 -0.1640  0.0488
   28MPD2    C3  437   4.032   4.735  11.997  0.2877 -0.4526 -0.3476
   28MPD2    C4  438   4.007   4.695  11.862  0.6378  0.1875  0.1357
   28MPD2    C5  439   3.898   4.623  11.835 -0.3197 -0.7201  0.6876
   28MPD2     H  440   3.957   0.001  12.191 -0.8769 -0.9713  0.5939
   28MPD2    H1  441   4.073   4.718  11.779  1.2257  1.0118  0.8264
   28MPD2    H2  442   3.726   4.514  11.890 -1.0123 -0.6122  3.0363
   28MPD2    H3  443   3.884   4.587  11.734  1.3689  0.1920  0.1194
   28MPD2     N  444   4.132   0.092  12.034 -0.2367 -0.3533  0.6180
   28MPD2    H5  445   4.140   0.112  12.133  2.4849  2.5149 -0.1811
   28MPD2    N1  446   3.720   4.596  12.149  0.0006  0.0263  0.0071
   28MPD2    H7  447   3.631   4.557  12.120 -0.7535  1.0500  0.9329
   29TMC2    C1  448   3.265   2.314  14.361  0.5063  0.9083 -0.3187
   29TMC2    C2  449   3.235   2.283  14.493 -0.5334  0.0434 -0.3827
   29TMC2    C3  450   3.269   2.378  14.590 -0.2834  0.1344  0.3990
   29TMC2    C4  451   3.314   2.439  14.324  0.0079  0.0651  0.3300
   29TMC2    C5  452   3.342   2.519  14.423 -0.0032  0.0165 -0.3999
   29TMC2    C6  453   3.323   2.498  14.562  0.5858 -0.2373 -0.0573
   29TMC2     C  454   3.270   2.209  14.263 -0.4315  0.4064 -0.4306
   29TMC2     O  455   3.248   2.094  14.304 -0.4145 -0.4471 -0.2946
   29TMC2     H  456   3.181   2.194  14.525 -0.7023 -0.2889 -1.5915
   29TMC2    H1  457   3.344   2.467  14.224 -0.2148  1.2207  0.5805
   29TMC2    H2  458   3.334   2.577  14.635  1.5019  1.0379 -1.5853
   29TMC2    C7  459   3.427   2.637  14.383  0.1520 -0.7945 -0.2856
   29TMC2    C8  460   3.270   2.339  14.735  0.8701 -0.2871  0.5749
   29TMC2    O1  461   3.422   2.676  14.267 -0.1591  1.0570  0.1511
   29TMC2    O2  462   3.353   2.375  14.816  0.6018  0.5637  0.5709
   29TMC2    O5  463   3.136   2.332  14.762  0.5684  0.1098  0.4213
   29TMC2    H5  464   3.086   2.337  14.677 -1.1172 -1.1779  1.3292
   30MPD2     C  465   3.389   2.018  13.806 -0.5147  0.4581 -0.4593
   30MPD2    C1  466   3.410   1.971  13.931  0.2869 -0.0229 -0.2685
   30MPD2    C2  467   3.364   2.045  14.039 -0.8952 -0.2188  0.2304
   30MPD2    C3  468   3.310   2.169  14.019 -0.3014 -0.3904  1.0021
   30MPD2    C4  469   3.307   2.215  13.889  0.3497 -0.6482 -0.1270
   30MPD2    C5  470   3.344   2.142  13.781 -0.2403  0.4746 -0.1499
   30MPD2     H  471   3.379   1.994  14.133  0.8310 -0.8347 -0.3828
   30MPD2    H1  472   3.293   2.321  13.873 -1.8728 -1.0828 -1.0019
   30MPD2    H2  473   3.406   1.965  13.713  0.3903 -3.3886  1.8852
   30MPD2    H3  474   3.330   2.185  13.683 -0.0708 -0.3720 -0.5399
   30MPD2     N  475   3.277   2.252  14.133 -0.8198  0.4724  0.0987
   30MPD2    H5  476   3.271   2.350  14.111 -1.6245  0.2331 -0.7686
   30MPD2    N1  477   3.489   1.856  13.951 -0.0399 -0.0750  0.2877
   30MPD2    H7  478   3.502   1.831  14.048 -2.9894 -0.9673  0.4229
   31TMC2    C1  479   1.154   1.040  14.839 -0.3852  0.5026 -0.2159
   31TMC2    C2  480   1.049   0.985  14.772  0.4474 -0.8867  0.0590
   31TMC2    C3  481   0.960   0.919  14.852 -0.3314  0.4620 -0.1586
   31TMC2    C4  482   1.168   1.040  14.977 -0.2221  0.8194  0.3837
   31TMC2    C5  483   1.071   0.970  15.046 -0.7618 -0.5137  0.5959
   31TMC2    C6  484   0.968   0.906  14.988 -0.1841 -0.4083 -0.0509
   31TMC2     C  485   1.229   1.138  14.753  0.6879  0.7917 -0.2230
   31TMC2     O  486   1.214   1.121  14.635 -0.6219  0.0960 -0.0344
   31TMC2     H  487   1.051   0.985  14.664  2.5917 -3.3909  0.0859
   31TMC2    H1  488   1.257   1.085  15.020 -0.1284  1.0925 -0.0981
   31TMC2    H2  489   0.903   0.836  15.040  2.7516 -0.1326  3.9742
   31TMC2    C7  490   1.067   0.971  15.197 -0.9785  0.5387  0.4670
   31TMC2    C8  491   0.842   0.868  14.777  0.2798  0.7781 -0.4700
   31TMC2    O1  492   1.162   1.028  15.249  0.3886  0.2007  0.7580
   31TMC2    O2  493   0.841   0.850  14.659 -0.4979  0.1530  0.0059
   31TMC2    O5  494   0.742   0.867  14.866 -0.4155  0.3219 -0.6173
   31TMC2    H5  495   0.757   0.926  14.943 -3.5989  1.8084 -1.1408
   32MPD2     C  496   1.460   1.584  14.655 -0.1913 -0.4800 -0.2489
   32MPD2    C1  497   1.362   1.518  14.589  1.0516 -0.5091 -1.0328
   32MPD2    C2  498   1.313   1.396  14.642 -0.0109 -0.0344  0.4492
   32MPD2    C3  499   1.358   1.347  14.758 -0.3079  0.0000 -0.6782
   32MPD2    C4  500   1.450   1.424  14.833 -0.3534 -0.1287  0.3033
   32MPD2    C5  501   1.508   1.528  14.772  0.1770 -0.4835  0.7257
   32MPD2     H  502   1.239   1.346  14.580 -1.5936  2.1066  0.6081
   32MPD2    H1  503   1.488   1.402  14.932 -2.1505 -0.2025  0.9710
   32MPD2    H2  504   1.509   1.672  14.614  0.2957 -1.1346 -1.0655
   32MPD2    H3  505   1.579   1.587  14.828 -0.4773  0.2640  0.7568
   32MPD2     N  506   1.308   1.231  14.823  0.3132 -0.5415  0.4932
   32MPD2    H5  507   1.335   1.223  14.920 -1.5310  0.2046  1.0639
   32MPD2    N1  508   1.322   1.570  14.463 -0.0696  0.1634  0.7285
   32MPD2    H7  509   1.372   1.654  14.439  0.7585 -0.6314 -0.2991
   33TMC2    C1  510   1.378   4.367  10.445  0.2391 -0.3223  0.3540
   33TMC2    C2  511   1.269   4.326  10.377 -0.2148 -0.2424 -0.6181
   33TMC2    C3  512   1.255   4.374  10.248 -0.5058 -0.0711  0.0248
   33TMC2    C4  513   1.458   4.473  10.395  0.2538  0.9672 -0.2768
   33TMC2    C5  514   1.435   4.521  10.260 -0.2122 -0.0439 -0.8024
   33TMC2    C6  515   1.331   4.468  10.188 -0.2315 -0.5673 -0.1680
   33TMC2     C  516   1.446   4.263  10.521 -0.1621 -0.1523  0.4461
   33TMC2     O  517   1.414   4.146  10.506  0.5134  0.3855 -0.5577
   33TMC2     H  518   1.205   4.240  10.392 -0.6075  0.6346  2.6001
   33TMC2    H1  519   1.546   4.508  10.447  0.0183 -1.2134  1.5817
   33TMC2    H2  520   1.296   4.498  10.090 -1.5836 -0.9869  0.1885
   33TMC2    C7  521   1.533   4.610  10.196  0.1851  0.0755 -0.4573
   33TMC2    C8  522   1.132   4.334  10.191  0.7597  0.1295  0.1867
   33TMC2    O1  523   1.615   4.671  10.262  0.2917  0.3522 -0.0677
   33TMC2    O2  524   1.111   4.326  10.070 -0.0356 -0.0733 -0.2856
   33TMC2    O5  525   1.045   4.379  10.287 -0.2412 -0.7153 -0.3496
   33TMC2    H5  526   1.089   4.424  10.362 -0.2550 -0.1095 -0.7069
   34MPD2     C  527   1.861   4.073  10.764 -0.2890  0.6762  0.5344
   34MPD2    C1  528   1.774   4.002  10.684  0.3205  0.2282  0.0260
   34MPD2    C2  529   1.668   4.075  10.632  0.4384 -0.3623 -0.6636
   34MPD2    C3  530   1.658   4.216  10.631 -0.0138 -0.3506 -0.4924
   34MPD2    C4  531   1.749   4.278  10.712 -0.1848  0.3111  0.1003
   34MPD2    C5  532   1.847   4.211  10.774  0.3751 -0.1274 -1.1182
   34MPD2     H  533   1.596   4.014  10.578  0.9204  1.7910 -3.7189
   34MPD2    H1  534   1.730   4.384  10.726  3.0411  0.6254  1.9948
   34MPD2    H2  535   1.939   4.018  10.817  0.0698 -0.1385 -0.8302
   34MPD2    H3  536   1.920   4.268  10.831  0.8735 -1.1314 -0.7531
   34MPD2     N  537   1.560   4.308  10.574  0.0005  0.2801 -0.2412
   34MPD2    H5  538   1.571   4.408  10.582  1.9584  0.3020 -3.0378
   34MPD2    N1  539   1.788   3.862  10.669 -0.4666  0.2552  0.3422
   34MPD2    H7  540   1.847   3.809  10.731 -1.0176  0.6107  1.1658
   35TMC2    C1  541   2.460   0.327  11.099 -0.5691 -0.1729  0.1623
   35TMC2    C2  542   2.385   0.339  10.991 -0.7860  0.0572 -0.1937
   35TMC2    C3  543   2.258   0.288  11.004 -0.1576 -0.4407 -0.3783
   35TMC2    C4  544   2.410   0.292  11.226  0.5707 -0.4930 -0.0339
   35TMC2    C5  545   2.279   0.253  11.232  0.0197 -0.3536 -0.0303
   35TMC2    C6  546   2.204   0.242  11.119 -0.6277  0.2767  0.4392
   35TMC2     C  547   2.603   0.343  11.086 -0.0748  0.3036  0.2642
   35TMC2     O  548   2.647   0.378  10.976 -0.0065 -0.6186  0.0856
   35TMC2     H  549   2.426   0.366  10.895  2.3147 -1.7483  0.6238
   35TMC2    H1  550   2.464   0.303  11.319  0.4561 -1.0986  0.1002
   35TMC2    H2  551   2.097   0.226  11.120 -0.3711 -1.4441 -0.1845
   35TMC2    C7  552   2.230   0.208  11.361 -0.4164  0.2192 -0.9641
   35TMC2    C8  553   2.160   0.296  10.895 -0.3893  0.2877  0.0337
   35TMC2    O1  554   2.309   0.201  11.455 -0.2547  0.4745 -0.7594
   35TMC2    O2  555   2.064   0.227  10.898 -0.1114 -0.2214 -0.3500
   35TMC2    O5  556   2.160   0.435  10.881  0.2275  0.5752 -0.0316
   35TMC2    H5  557   2.249   0.474  10.888  1.6472 -2.7135  0.1527
   36MPD2     C  558   3.079   0.274  11.258  0.4732 -0.5066  0.1976
   36MPD2    C1  559   2.994   0.207  11.338 -0.6831  0.2264  0.4347
   36MPD2    C2  560   2.859   0.210  11.311  0.0633 -0.3422 -0.3567
   36MPD2    C3  561   2.804   0.291  11.217  0.3316 -0.4547 -0.0291
   36MPD2    C4  562   2.893   0.372  11.144  0.0806  0.4055 -0.2451
   36MPD2    C5  563   3.033   0.358  11.161 -0.3489 -0.0480  0.0098
   36MPD2     H  564   2.796   0.140  11.365  0.2466 -0.5615 -0.4258
   36MPD2    H1  565   2.861   0.440  11.066  0.5780 -3.2881 -3.6793
   36MPD2    H2  566   3.187   0.264  11.259  0.8347  4.0238  3.7883
   36MPD2    H3  567   3.098   0.419  11.099  2.3240 -1.5656  1.2898
   36MPD2     N  568   2.667   0.289  11.194  0.2202 -0.2590 -0.0778
   36MPD2    H5  569   2.614   0.239  11.265  0.3959  2.0020  1.6244
   36MPD2    N1  570   3.061   0.136  11.440  0.2207 -0.4910  0.3285
   36MPD2    H7  571   3.159   0.157  11.458  0.1969  0.0134 -0.1163
   37TMC2    C1  572   4.641   0.869  12.037  0.1218  0.4656 -0.0091
   37TMC2    C2  573   4.549   0.923  11.954  0.0540  0.3577  0.3405
   37TMC2    C3  574   4.581   0.925  11.822  0.5279  0.0018 -0.2767
   37TMC2    C4  575   0.033   0.836  12.003  0.5702 -0.9456  0.3980
   37TMC2    C5  576   0.059   0.840  11.869 -0.6496  0.3256  0.2698
   37TMC2    C6  577   4.702   0.887  11.778 -0.1948  0.0112 -0.2869
   37TMC2     C  578   4.593   0.819  12.168 -0.3209 -0.4177 -0.5101
   37TMC2     O  579   4.480   0.862  12.203 -0.4032  0.4116 -0.2359
   37TMC2     H  580   4.452   0.961  11.986  1.1280  2.6768  0.8857
   37TMC2    H1  581   0.103   0.794  12.075  0.0357  0.7240  1.9212
   37TMC2    H2  582   4.727   0.876  11.673  0.3882 -2.4932  0.1268
   37TMC2    C7  583   0.131   0.720  11.826  0.4566 -0.1077  0.1852
   37TMC2    C8  584   4.475   0.946  11.735 -0.9867  0.1126  0.4593
   37TMC2    O1  585   0.117   0.633  11.913 -0.0291 -0.1801  0.4770
   37TMC2    O2  586   4.396   1.035  11.757 -0.0080  0.1213  0.4903
   37TMC2    O5  587   4.504   0.894  11.614 -0.6589 -0.0847  0.2597
   37TMC2    H5  588   4.550   0.810  11.634  0.3855  0.5451  0.5177
   38MPD2     C  589   4.594   0.426  12.499  0.2692 -0.2322 -0.2011
   38MPD2    C1  590   4.685   0.396  12.402  0.2955  0.3737  0.3533
   38MPD2    C2  591   4.706   0.496  12.307 -1.1920  0.9803 -0.0115
   38MPD2    C3  592   4.630   0.618  12.302  0.3907 -0.5429  0.3102
   38MPD2    C4  593   4.548   0.648  12.407 -0.2231  0.4722 -0.3376
   38MPD2    C5  594   4.522   0.544  12.496 -0.2477  0.9004 -0.0660
   38MPD2     H  595   0.043   0.481  12.229 -1.3910  0.8269 -0.1717
   38MPD2    H1  596   4.499   0.745  12.421  1.1898  1.1970 -0.4476
   38MPD2    H2  597   4.563   0.356  12.576  2.2493 -0.7804  0.1115
   38MPD2    H3  598   4.444   0.558  12.570 -0.0954 -1.0751  0.4738
   38MPD2     N  599   4.648   0.699  12.189  0.6462  0.5673 -0.0689
   38MPD2    H5  600   4.723   0.676  12.124 -2.4542 -0.4418 -3.2843
   38MPD2    N1  601   0.020   0.278  12.403  0.1147 -0.0591  0.8392
   38MPD2    H7  602   0.096   0.270  12.337  0.9620  1.2435  1.6650
   39TMC2    C1  603   4.203   2.945   1.758  0.0973 -0.3460 -0.6234
   39TMC2    C2  604   4.158   3.068   1.717  0.2529 -0.5567 -0.1814
   39TMC2    C3  605   4.258   3.157   1.702 -0.2766  1.2678 -0.4429
   39TMC2    C4  606   4.332   2.918   1.791 -0.2889  0.6462 -0.2480
   39TMC2    C5  607   4.426   3.010   1.758  0.0703  0.0924 -1.1192
   39TMC2    C6  608   4.392   3.130   1.711 -0.4332  0.4129 -0.5667
   39TMC2     C  609   4.109   2.840   1.708  0.5083 -0.4700  0.6568
   39TMC2     O  610   4.015   2.878   1.635 -0.6915 -0.5378 -0.1787
   39TMC2     H  611   4.057   3.075   1.677  0.0666  2.1137  0.8161
   39TMC2    H1  612   4.358   2.822   1.833  0.2323  1.0676  0.4106
   39TMC2    H2  613   4.467   3.206   1.695  0.9239 -0.7338  0.3690
   39TMC2    C7  614   4.558   2.949   1.776 -0.4121  0.4103 -0.1284
   39TMC2    C8  615   4.209   3.295   1.692  0.0867 -0.3131  0.3548
   39TMC2    O1  616   4.573   2.829   1.777 -0.2998 -0.1714  0.2677
   39TMC2    O2  617   4.270   3.383   1.636 -0.1656  0.0626  0.5565
   39TMC2    O5  618   4.113   3.303   1.783  0.7454  0.0006 -0.1824
   39TMC2    H5  619   4.109   3.227   1.846  1.5883  0.1734  0.0741
   40MPD2     C  620   4.212   2.494   1.664 -0.4687  0.4333 -0.6091
   40MPD2    C1  621   4.128   2.603   1.663  0.6463 -0.3950  1.1455
   40MPD2    C2  622   4.003   2.590   1.603 -0.0948  0.5333 -0.4350
   40MPD2    C3  623   3.965   2.469   1.547  0.3931  1.2037  0.1833
   40MPD2    C4  624   4.059   2.363   1.532  0.3549  0.6358 -0.5596
   40MPD2    C5  625   4.178   2.377   1.603  0.1900  0.7520 -0.3795
   40MPD2     H  626   3.933   2.672   1.618 -1.7817 -1.3479  1.9234
   40MPD2    H1  627   4.038   2.264   1.493 -1.5244  0.4099  1.0014
   40MPD2    H2  628   4.308   2.489   1.713 -1.9861 -1.0191  2.1858
   40MPD2    H3  629   4.248   2.296   1.588 -1.0103 -0.3576  0.0069
   40MPD2     N  630   3.838   2.443   1.494 -0.2588  0.5473  0.1222
   40MPD2    H5  631   3.831   2.357   1.440 -1.1262  0.8208 -0.1937
   40MPD2    N1  632   4.159   2.715   1.739 -0.0779  0.3262 -0.0162
   40MPD2    H7  633   4.238   2.703   1.801 -1.8142  1.0941  2.3260
   41TMC2    C1  634   2.909   0.358  13.648 -0.0424 -0.6554  0.0512
   41TMC2    C2  635   2.919   0.435  13.758 -0.8414 -0.1849  0.1479
   41TMC2    C3  636   2.926   0.571  13.740 -0.1997  0.2440 -0.2434
   41TMC2    C4  637   2.922   0.414  13.523 -0.0482 -0.4502 -0.2585
   41TMC2    C5  638   2.951   0.549  13.514 -0.2399 -0.2606  0.9553
   41TMC2    C6  639   2.961   0.622  13.623  0.0284  0.0634 -0.0163
   41TMC2     C  640   2.876   0.215  13.645 -0.0705 -0.9441 -0.3092
   41TMC2     O  641   2.898   0.155  13.543 -0.3070  0.4200 -0.6269
   41TMC2     H  642   2.912   0.399  13.860  1.2270  3.8144  1.7274
   41TMC2    H1  643   2.906   0.349  13.437 -1.6976  1.1811 -1.1833
   41TMC2    H2  644   2.974   0.727  13.600 -0.1186 -0.4166 -2.2671
   41TMC2    C7  645   2.965   0.614  13.385 -0.3237  0.9000 -0.0283
   41TMC2    C8  646   2.953   0.651  13.857 -0.3703  0.0374  0.7716
   41TMC2    O1  647   2.940   0.733  13.384 -0.1169  0.2200  0.4669
   41TMC2    O2  648   2.999   0.606  13.960 -0.2290 -0.1687  0.2254
   41TMC2    O5  649   2.871   0.762  13.855 -0.0897  0.8399  0.2811
   41TMC2    H5  650   2.820   0.777  13.772 -0.8315 -0.5376  0.4881
   42MPD2     C  651   2.756   4.684  13.665 -0.0280 -0.3796  0.6531
   42MPD2    C1  652   2.723   0.056  13.747  0.8848  0.3983 -0.5153
   42MPD2    C2  653   2.622   0.047  13.842  0.4446 -0.7604  0.4455
   42MPD2    C3  654   2.543   4.670  13.835  0.2504  0.8542  0.1460
   42MPD2    C4  655   2.567   4.565  13.748  0.3704 -0.2937 -0.3651
   42MPD2    C5  656   2.686   4.566  13.671 -0.2677 -0.7044  0.4781
   42MPD2     H  657   2.604   0.137  13.898  0.5622 -0.4507 -0.0127
   42MPD2    H1  658   2.508   4.474  13.748 -1.5176  0.9163 -0.0995
   42MPD2    H2  659   2.851   4.668  13.615 -0.7788  0.9523 -1.1865
   42MPD2    H3  660   2.704   4.475  13.616 -0.6399 -0.7015  0.3561
   42MPD2     N  661   2.424   4.659  13.915 -0.4006  1.1522 -0.5188
   42MPD2    H5  662   2.352   4.597  13.878  2.1238 -1.5802 -0.8029
   42MPD2    N1  663   2.802   0.177  13.750  0.2463  0.4763  0.3374
   42MPD2    H7  664   2.786   0.247  13.821 -0.6947 -0.0197  0.6238
   43TMC2    C1  665   4.454   3.221   0.833  0.4223  0.7418  0.4673
   43TMC2    C2  666   4.334   3.293   0.821 -0.6136  0.3513 -0.9873
   43TMC2    C3  667   4.318   3.373   0.927 -0.3528  0.6304 -0.1310
   43TMC2    C4  668   4.540   3.228   0.931  0.7361  0.1262 -0.0316
   43TMC2    C5  669   4.516   3.306   1.035 -0.3465 -0.4343 -0.0194
   43TMC2    C6  670   4.402   3.381   1.035  0.0666 -0.4300  0.4021
   43TMC2     C  671   4.484   3.123   0.731 -0.2277 -0.4917 -0.7048
   43TMC2     O  672   4.597   3.090   0.742 -0.0518  0.2950 -0.1569
   43TMC2     H  673   4.262   3.297   0.740 -1.1402 -2.3358 -0.6732
   43TMC2    H1  674   4.633   3.173   0.938 -0.0068 -0.8589  2.0144
   43TMC2    H2  675   4.386   3.456   1.111 -0.6808 -0.2624  0.0743
   43TMC2    C7  676   4.609   3.307   1.150  0.2807  0.2004  0.2084
   43TMC2    C8  677   4.187   3.429   0.932 -0.3438 -0.4375 -0.2263
   43TMC2    O1  678   4.715   3.243   1.139  0.2719  0.0399 -0.0607
   43TMC2    O2  679   4.123   3.433   0.831  0.4989 -0.6742  0.1101
   43TMC2    O5  680   4.130   3.386   1.046 -0.3296 -0.2497 -0.2844
   43TMC2    H5  681   4.175   3.388   1.133 -0.0241 -1.8337 -0.4166
   44MPD2     C  682   4.489   2.861   0.305  0.3405  0.7755 -0.4884
   44MPD2    C1  683   4.560   2.847   0.422  0.1420  0.3435  0.0542
   44MPD2    C2  684   4.522   2.926   0.527 -0.1825  0.5458 -0.8228
   44MPD2    C3  685   4.421   3.017   0.523 -0.4275  0.3639  0.3385
   44MPD2    C4  686   4.358   3.025   0.406 -0.3912 -0.5919 -0.3295
   44MPD2    C5  687   4.388   2.943   0.296  0.0430 -0.6093  0.0782
   44MPD2     H  688   4.562   2.898   0.623 -1.8555  1.9447  0.2706
   44MPD2    H1  689   4.278   3.098   0.404 -0.0745 -0.2470 -0.4681
   44MPD2    H2  690   4.495   2.790   0.224  0.6455  0.5899 -0.3029
   44MPD2    H3  691   4.314   2.958   0.217 -0.1118  0.2000  0.3683
   44MPD2     N  692   4.393   3.110   0.628 -0.2416 -0.2863  0.2748
   44MPD2    H5  693   4.322   3.180   0.613  1.2204  0.9276 -0.9476
   44MPD2    N1  694   4.661   2.759   0.445 -0.2635  0.0892 -0.0035
   44MPD2    H7  695   4.703   2.761   0.538 -0.7589  0.3333  0.2168
   45TMC2    C1  696   4.607   0.395   9.907  0.7542 -0.4519  0.2082
   45TMC2    C2  697   4.667   0.340  10.016 -0.0271 -0.8920  0.8102
   45TMC2    C3  698   4.688   0.415  10.132  0.2489  0.2838 -0.5524
   45TMC2    C4  699   4.551   0.520   9.919 -0.4583 -0.0002  0.0465
   45TMC2    C5  700   4.581   0.595  10.030 -0.2581 -0.5214  0.7766
   45TMC2    C6  701   4.654   0.544  10.137  0.2916 -0.4798 -0.3773
   45TMC2     C  702   4.554   0.303   9.802 -0.3521  0.1916 -0.6245
   45TMC2     O  703   4.577   0.184   9.808  0.0662  0.2059  0.2118
   45TMC2     H  704   4.698   0.237  10.008  2.1625 -0.0371 -1.8218
   45TMC2    H1  705   4.470   0.561   9.860 -1.4329 -1.2926  0.4809
   45TMC2    H2  706   4.683   0.603  10.223 -0.9596 -0.5922  0.1245
   45TMC2    C7  707   4.566   0.739  10.022 -0.2659 -0.2971  1.0588
   45TMC2    C8  708   0.052   0.368  10.226 -0.0937 -0.2496 -0.1192
   45TMC2    O1  709   4.622   0.795  10.114 -0.7299  0.1204  0.0917
   45TMC2    O2  710   0.122   0.449  10.291 -0.4694 -0.2919  0.2897
   45TMC2    O5  711   0.049   0.228  10.243  0.0384  0.3863  0.1310
   45TMC2    H5  712   4.708   0.180  10.208  0.4451  2.2322 -3.3037
   46MPD2     C  713   4.388   0.152   9.610  0.1141  0.7368 -0.0431
   46MPD2    C1  714   4.391   0.292   9.622 -0.2777 -0.0766 -0.0001
   46MPD2    C2  715   4.300   0.358   9.541 -0.6299  0.0620 -0.1995
   46MPD2    C3  716   4.193   0.303   9.478 -0.1124 -0.5005 -0.3140
   46MPD2    C4  717   4.190   0.166   9.466  0.7295  0.1938  0.0087
   46MPD2    C5  718   4.288   0.096   9.534 -0.5108  0.1866  0.3671
   46MPD2     H  719   4.299   0.466   9.532 -0.8880  0.0366 -0.4566
   46MPD2    H1  720   4.113   0.125   9.401  2.1062  0.8643 -2.0565
   46MPD2    H2  721   4.448   0.082   9.667 -1.1269  1.1077  1.7472
   46MPD2    H3  722   4.277   4.725   9.537  3.3503 -0.2257 -0.1614
   46MPD2     N  723   4.098   0.396   9.417  0.3759 -0.2778  0.0432
   46MPD2    H5  724   4.128   0.493   9.424 -1.1211  0.1253  0.9652
   46MPD2    N1  725   4.471   0.369   9.714 -0.0488  0.1721 -0.1664
   46MPD2    H7  726   4.466   0.471   9.718  1.2839  0.1806  1.0244
   47TMC2    C1  727   1.355   1.849  10.035  0.0934  0.3015  0.0571
   47TMC2    C2  728   1.409   1.770  10.132 -0.3413 -0.2165 -0.7115
   47TMC2    C3  729   1.327   1.682  10.186 -0.0320 -0.4042  0.0316
   47TMC2    C4  730   1.223   1.842   9.992  0.0726 -0.6847  0.0313
   47TMC2    C5  731   1.149   1.740  10.045 -0.3218 -0.2411  0.4913
   47TMC2    C6  732   1.192   1.668  10.146  0.4441 -0.2276  0.7331
   47TMC2     C  733   1.443   1.913   9.940 -0.2770 -0.3924  0.1161
   47TMC2     O  734   1.393   1.980   9.847  0.2897 -0.2377 -0.0297
   47TMC2     H  735   1.506   1.791  10.177 -0.5713  0.1541 -0.3837
   47TMC2    H1  736   1.179   1.907   9.917  1.1814 -0.1149 -0.1246
   47TMC2    H2  737   1.146   1.586  10.201 -0.5613 -1.7277 -2.2916
   47TMC2    C7  738   1.013   1.722  10.003 -0.3209  0.0023  0.0831
   47TMC2    C8  739   1.380   1.593  10.287 -0.0202  0.5872  0.7997
   47TMC2    O1  740   0.967   1.805   9.926  0.7323 -0.7141 -0.0310
   47TMC2    O2  741   1.490   1.541  10.283  0.6320 -0.5714  0.1258
   47TMC2    O5  742   1.292   1.598  10.394  0.8352 -0.5882  0.4167
   47TMC2    H5  743   1.213   1.650  10.368  1.1181 -1.2177 -1.7116
   48MPD2     C  744   1.674   2.044   9.815  0.9987  0.3149 -0.6865
   48MPD2    C1  745   1.682   1.923   9.869  1.1501  0.0281  0.7055
   48MPD2    C2  746   1.795   1.839   9.850 -0.8397 -0.0626 -0.3935
   48MPD2    C3  747   1.891   1.871   9.756 -0.4110  0.5014  0.0735
   48MPD2    C4  748   1.883   2.005   9.701 -0.1970  0.1625  0.5953
   48MPD2    C5  749   1.771   2.085   9.733  0.2706 -0.1201 -0.3935
   48MPD2     H  750   1.798   1.747   9.907 -1.2267 -1.3054 -2.3823
   48MPD2    H1  751   1.953   2.049   9.631  2.4977 -1.4569  2.2596
   48MPD2    H2  752   1.590   2.111   9.827  1.1007  0.3804 -0.3422
   48MPD2    H3  753   1.752   2.179   9.682  0.5320 -0.5876 -1.3647
   48MPD2     N  754   1.992   1.780   9.721 -0.0770 -0.4045 -0.0058
   48MPD2    H5  755   1.982   1.683   9.750  0.1442 -0.2579  0.5629
   48MPD2    N1  756   1.575   1.872   9.946 -0.2762 -0.6173 -0.7536
   48MPD2    H7  757   1.582   1.790  10.005  0.1454 -0.5069 -0.6496
   49TMC2    C1  758   0.452   2.553  11.036 -0.0215  0.0742  0.3452
   49TMC2    C2  759   0.542   2.657  11.025  0.5178  0.9991 -0.3312
   49TMC2    C3  760   0.613   2.666  10.909 -0.1785  0.2021  0.3001
   49TMC2    C4  761   0.441   2.455  10.948 -0.1672  0.2347  0.2972
   49TMC2    C5  762   0.505   2.468  10.833  0.3439 -0.2033 -0.6930
   49TMC2    C6  763   0.588   2.576  10.810 -0.5555  0.5950  0.4964
   49TMC2     C  764   0.389   2.524  11.165  0.1483  0.3758 -0.1018
   49TMC2     O  765   0.349   2.409  11.179 -0.2187 -0.6109 -0.1593
   49TMC2     H  766   0.555   2.731  11.103  1.8700 -0.5554  0.9397
   49TMC2    H1  767   0.384   2.366  10.975 -0.1415  1.0303  2.9524
   49TMC2    H2  768   0.638   2.587  10.714 -1.4090 -0.9526 -0.1382
   49TMC2    C7  769   0.472   2.357  10.738  0.1348 -0.7547  0.5586
   49TMC2    C8  770   0.622   2.800  10.868  0.1393 -0.1721  0.2352
   49TMC2    O1  771   0.385   2.273  10.763  1.4201 -0.3265 -0.3106
   49TMC2    O2  772   0.559   2.829  10.766  0.3753  0.0626  0.2748
   49TMC2    O5  773   0.684   2.875  10.960 -0.3339 -0.3189 -0.2158
   49TMC2    H5  774   0.733   2.830  11.032 -0.1909 -2.1745 -1.4726
   50MPD2     C  775   0.224   2.539  11.415  0.2938 -0.1511 -0.0927
   50MPD2    C1  776   0.289   2.643  11.354 -0.0173 -0.3427  0.3882
   50MPD2    C2  777   0.272   2.774  11.414  0.2814  0.5565  0.1468
   50MPD2    C3  778   0.198   2.787  11.532  0.2752 -0.6711 -0.6122
   50MPD2    C4  779   0.150   2.676  11.596 -0.0497  0.5337  0.4037
   50MPD2    C5  780   0.160   2.558  11.531  0.6275  1.0752  0.2184
   50MPD2     H  781   0.313   2.861  11.365  3.5977 -0.5028  1.0298
   50MPD2    H1  782   0.101   2.678  11.693 -2.6115 -0.1454 -0.8781
   50MPD2    H2  783   0.231   2.439  11.372  0.1317 -0.2577  0.1247
   50MPD2    H3  784   0.114   2.473  11.578 -1.3274  2.8894  1.5768
   50MPD2     N  785   0.188   2.911  11.602  0.2568 -0.4304 -0.0465
   50MPD2    H5  786   0.173   2.896  11.701  3.4319 -4.2610 -0.1615
   50MPD2    N1  787   0.367   2.638  11.239  0.7662 -0.2419  0.4666
   50MPD2    H7  788   0.401   2.725  11.199 -0.3873  0.9579  2.0612
   51TMC2    C1  789   0.744   2.293   1.696 -0.2013 -0.4210 -0.1606
   51TMC2    C2  790   0.721   2.385   1.593 -0.3144  0.6017 -0.4350
   51TMC2    C3  791   0.809   2.488   1.573 -0.3916 -0.4761  0.9619
   51TMC2    C4  792   0.847   2.306   1.784 -0.4178 -1.0384 -0.3898
   51TMC2    C5  793   0.933   2.410   1.759  0.3271 -0.1726  0.3641
   51TMC2    C6  794   0.915   2.505   1.657 -0.2131 -0.6141  0.0329
   51TMC2     C  795   0.626   2.210   1.716 -0.6431  0.3229  0.3591
   51TMC2     O  796   0.576   2.166   1.612  0.6021 -0.4788  0.2949
   51TMC2     H  797   0.637   2.375   1.525 -1.4950  1.7735  0.8497
   51TMC2    H1  798   0.855   2.221   1.851  2.1089  0.2418  0.9410
   51TMC2    H2  799   0.982   2.590   1.653 -1.3960  0.4109  1.7851
   51TMC2    C7  800   1.031   2.444   1.866 -0.3225 -0.3601  0.4563
   51TMC2    C8  801   0.791   2.579   1.463  0.3556  0.2298 -0.3330
   51TMC2    O1  802   1.091   2.546   1.847 -0.0697 -0.4180 -0.1920
   51TMC2    O2  803   0.700   2.568   1.389 -0.7551  0.6839  0.1359
   51TMC2    O5  804   0.915   2.620   1.425 -0.4317  0.4712  0.2268
   51TMC2    H5  805   0.989   2.580   1.475 -2.6843  0.5173  3.6291
   52MPD2     C  806   0.306   1.939   2.006  0.5617  0.1019  0.1396
   52MPD2    C1  807   0.336   1.928   1.867 -0.5286  0.0042  0.3036
   52MPD2    C2  808   0.433   2.018   1.816  0.0669 -0.4814  0.2356
   52MPD2    C3  809   0.495   2.109   1.896 -0.0083 -1.2609  0.3262
   52MPD2    C4  810   0.462   2.118   2.038 -0.3827 -0.7888  0.0734
   52MPD2    C5  811   0.361   2.036   2.088  0.0412 -0.1580 -0.1442
   52MPD2     H  812   0.437   2.021   1.708  0.6313  0.1815  0.2754
   52MPD2    H1  813   0.499   2.197   2.102 -3.5838  1.1282 -0.4141
   52MPD2    H2  814   0.227   1.879   2.049 -0.5110  1.7354  0.4919
   52MPD2    H3  815   0.326   2.038   2.190 -1.1834  1.5356 -0.5877
   52MPD2     N  816   0.593   2.195   1.852  0.0705 -0.2158  0.0312
   52MPD2    H5  817   0.642   2.250   1.921 -0.2813 -1.4088  1.2230
   52MPD2    N1  818   0.288   1.832   1.780  0.1974 -0.0817  0.1813
   52MPD2    H7  819   0.327   1.846   1.688 -2.9162  0.8313 -0.9795
   53TMC2    C1  820   0.599   0.121  11.815  0.2550  0.2392 -0.1660
   53TMC2    C2  821   0.673   0.015  11.769 -0.2720 -0.4230 -0.3387
   53TMC2    C3  822   0.711   4.663  11.871 -0.2583  0.0260  0.1231
   53TMC2    C4  823   0.570   0.135  11.949  0.2251 -0.3323  0.1026
   53TMC2    C5  824   0.604   0.048  12.039 -0.2938 -0.3354 -0.2201
   53TMC2    C6  825   0.680   4.676  12.003  0.1819 -0.6161 -0.0427
   53TMC2     C  826   0.579   0.228  11.715  0.3129 -0.1362 -0.3382
   53TMC2     O  827   0.655   0.230  11.617  0.2503  0.3410  0.7289
   53TMC2     H  828   0.714   0.017  11.669  0.6253  2.6134  0.1092
   53TMC2    H1  829   0.532   0.230  11.986  2.0235  1.0359 -1.5815
   53TMC2    H2  830   0.743   4.622  12.073 -0.4304 -0.6796  0.4619
   53TMC2    C7  831   0.559   0.066  12.177  0.5013  0.7334  0.1363
   53TMC2    C8  832   0.788   4.546  11.838 -0.0786 -0.3580 -0.6655
   53TMC2    O1  833   0.507   0.171  12.211 -0.2254 -0.0514  0.2444
   53TMC2    O2  834   0.790   4.441  11.902 -0.5936 -0.4088 -0.0856
   53TMC2    O5  835   0.881   4.590  11.743  0.5099 -0.1270  0.1361
   53TMC2    H5  836   0.883   4.682  11.708  0.4286 -0.5462 -0.9401
   54MPD2     C  837   0.485   0.465  11.557 -0.0341  0.3694 -0.2120
   54MPD2    C1  838   0.432   0.430  11.679 -0.3049 -0.2621 -0.1395
   54MPD2    C2  839   0.334   0.519  11.732 -0.2341  0.3402 -0.1111
   54MPD2    C3  840   0.291   0.630  11.660  0.2565  0.8792 -0.0664
   54MPD2    C4  841   0.353   0.660  11.537  0.1624  0.1336 -0.4637
   54MPD2    C5  842   0.448   0.574  11.478 -0.2493  0.3901 -0.0355
   54MPD2     H  843   0.291   0.489  11.827 -0.6252 -2.4344 -1.1429
   54MPD2    H1  844   0.326   0.740  11.470 -1.2428  0.1979  0.1761
   54MPD2    H2  845   0.550   0.392  11.511  2.2257  1.7130  0.8346
   54MPD2    H3  846   0.498   0.597  11.385  2.5986 -1.1274  1.1081
   54MPD2     N  847   0.201   0.726  11.706  0.4698  0.0665 -0.0084
   54MPD2    H5  848   0.188   0.808  11.649 -1.2392  0.6904  1.2923
   54MPD2    N1  849   0.476   0.313  11.746 -0.2183  0.3104  0.0601
   54MPD2    H7  850   0.419   0.278  11.822  0.2904 -2.9865 -1.1032
   55TMC2    C1  851   1.542   2.331   1.543 -0.4582  0.1759  0.4550
   55TMC2    C2  852   1.623   2.328   1.652 -0.3541 -0.0500 -0.1097
   55TMC2    C3  853   1.557   2.279   1.764 -0.2201 -0.1592 -0.1606
   55TMC2    C4  854   1.413   2.282   1.545 -0.1567  0.4281 -0.3765
   55TMC2    C5  855   1.350   2.244   1.661  0.3272  0.7713  0.0814
   55TMC2    C6  856   1.426   2.235   1.772  0.2307 -0.3312  0.1050
   55TMC2     C  857   1.591   2.378   1.414 -0.1912 -0.6145 -0.5594
   55TMC2     O  858   1.509   2.372   1.324 -0.2209 -0.5503  0.0104
   55TMC2     H  859   1.721   2.375   1.658 -0.3360 -0.2765  1.4882
   55TMC2    H1  860   1.359   2.267   1.453  1.1177  2.2246 -1.4249
   55TMC2    H2  861   1.386   2.183   1.859  0.6116  2.2644  1.8407
   55TMC2    C7  862   1.208   2.202   1.652  0.5739  0.4277 -0.6545
   55TMC2    C8  863   1.636   2.261   1.884 -0.5382 -0.4553  0.0076
   55TMC2    O1  864   1.159   2.144   1.746 -0.6077  0.3468  0.0050
   55TMC2    O2  865   1.590   2.219   1.987 -0.3886  0.2799  0.3854
   55TMC2    O5  866   1.770   2.280   1.870 -0.4534 -0.0789 -0.3254
   55TMC2    H5  867   1.800   2.307   1.781 -2.5502  0.8916 -0.7525
   56MPD2     C  868   1.946   2.425   1.293  0.0535 -0.2844 -0.1779
   56MPD2    C1  869   1.809   2.421   1.290 -0.1755  0.0209 -0.0556
   56MPD2    C2  870   1.746   2.466   1.176 -0.7957 -0.7510 -0.2322
   56MPD2    C3  871   1.821   2.517   1.072  0.2459  0.1840  0.8803
   56MPD2    C4  872   1.956   2.504   1.068 -0.6364  0.3460  0.0325
   56MPD2    C5  873   2.023   2.462   1.182  0.5211 -0.5529 -0.7246
   56MPD2     H  874   1.638   2.462   1.169 -0.8375 -0.9576  0.5552
   56MPD2    H1  875   2.027   2.540   0.995 -1.0140  1.7944  0.3828
   56MPD2    H2  876   1.980   2.390   1.390 -1.2991  0.2707  0.4999
   56MPD2    H3  877   2.131   2.454   1.179  0.5723 -0.2249  0.6666
   56MPD2     N  878   1.760   2.556   0.954  0.0054 -0.3926  0.4474
   56MPD2    H5  879   1.659   2.552   0.946  0.1492 -1.7440 -0.8113
   56MPD2    N1  880   1.730   2.383   1.406  0.4774 -0.0233  0.7597
   56MPD2    H7  881   1.779   2.356   1.491  1.8021 -1.0908 -0.3367
   57TMC2    C1  882   1.313   4.074  13.998  0.5761 -0.5525 -0.3636
   57TMC2    C2  883   1.407   4.000  14.069 -0.2387  0.5918  0.3006
   57TMC2    C3  884   1.525   3.971  14.014  0.1304  0.2540  0.2396
   57TMC2    C4  885   1.332   4.099  13.867 -0.0526 -0.5017 -0.4209
   57TMC2    C5  886   1.449   4.042  13.816 -0.4725  0.1338  0.4509
   57TMC2    C6  887   1.551   3.978  13.878 -0.0827 -0.6221 -0.0493
   57TMC2     C  888   1.181   4.108  14.057 -0.0053 -0.4361  0.3349
   57TMC2     O  889   1.089   4.137  13.980  0.1260 -0.3582 -0.0650
   57TMC2     H  890   1.381   3.960  14.166  0.9194 -0.4051  0.2048
   57TMC2    H1  891   1.248   4.146  13.817 -1.5228  0.5504  3.0246
   57TMC2    H2  892   1.636   3.939  13.824  0.3503 -0.4552  0.5191
   57TMC2    C7  893   1.463   4.065  13.675  0.6628 -0.2591 -0.2072
   57TMC2    C8  894   1.603   3.894  14.105 -0.3708 -0.2049 -0.1023
   57TMC2    O1  895   1.394   4.158  13.634 -0.1468  0.3492 -0.2285
   57TMC2    O2  896   1.603   3.905  14.229 -0.0428  0.1408  0.1071
   57TMC2    O5  897   1.664   3.793  14.048  0.3148  0.1559 -0.0442
   57TMC2    H5  898   1.639   3.785  13.954  0.8480  1.0196 -0.2580
   58MPD2     C  899   0.843   4.094  14.441  0.3701 -0.1013 -0.0994
   58MPD2    C1  900   0.823   4.116  14.308  0.8287  0.2860  0.7931
   58MPD2    C2  901   0.927   4.125  14.224 -0.2182 -0.2831 -0.9058
   58MPD2    C3  902   1.055   4.105  14.271 -0.3066  0.0528  0.1214
   58MPD2    C4  903   1.075   4.084  14.404 -0.2423  0.0508  0.9705
   58MPD2    C5  904   0.969   4.070  14.487 -0.4303 -0.0585  0.0225
   58MPD2     H  905   0.908   4.145  14.120  0.6813  0.9844 -0.8243
   58MPD2    H1  906   1.175   4.075  14.444  0.3415 -0.4476 -0.6371
   58MPD2    H2  907   0.768   4.094  14.520  1.0536  1.0658  0.5337
   58MPD2    H3  908   0.986   4.070  14.594  1.0956 -0.4565 -0.2180
   58MPD2     N  909   1.178   4.092  14.195 -0.5705  0.3989 -0.4979
   58MPD2    H5  910   1.268   4.081  14.240 -0.4808 -0.1207 -0.8019
   58MPD2    N1  911   0.695   4.114  14.256  0.8345 -0.7833 -0.1037
   58MPD2    H7  912   0.704   4.140  14.158  0.9518  0.4813  0.2370
   59TMC2    C1  913   3.485   4.226  12.423 -0.5247 -0.3721 -0.2699
   59TMC2    C2  914   3.393   4.178  12.499  0.1417 -0.6515  1.0527
   59TMC2    C3  915   3.318   4.071  12.465  0.7822 -0.2223  0.1020
   59TMC2    C4  916   3.498   4.188  12.290  0.2513 -0.0854 -0.2228
   59TMC2    C5  917   3.416   4.078  12.253 -0.0705 -0.4674 -0.0976
   59TMC2    C6  918   3.335   4.010  12.342 -0.2027  0.3295  0.1097
   59TMC2     C  919   3.593   4.307  12.471 -0.6148 -0.5196 -0.4176
   59TMC2     O  920   3.667   4.345  12.383  0.6250 -0.3151 -0.4813
   59TMC2     H  921   3.360   4.235  12.585  0.8300  1.6884 -0.1981
   59TMC2    H1  922   3.578   4.225  12.228  1.7035 -0.6752  1.2984
   59TMC2    H2  923   3.275   3.923  12.317 -1.9137  1.0488  1.6948
   59TMC2    C7  924   3.397   4.051  12.115 -0.0955  0.9633  0.0209
   59TMC2    C8  925   3.205   4.016  12.545 -0.1261  0.4274 -0.5555
   59TMC2    O1  926   3.325   3.960  12.078  0.2237  0.5364 -0.4465
   59TMC2    O2  927   3.127   3.940  12.497  0.3382 -0.4095 -0.2537
   59TMC2    O5  928   3.195   4.076  12.668 -0.0217 -0.0133 -0.0861
   59TMC2    H5  929   3.282   4.112  12.695 -1.4429  1.1680  2.9216
   60MPD2     C  930   3.857   4.374  12.601  0.0948 -0.7361  0.5633
   60MPD2    C1  931   3.745   4.330  12.668  1.4694  0.0785  0.0803
   60MPD2    C2  932   3.748   4.326  12.806  0.1334 -0.3583 -0.4039
   60MPD2    C3  933   3.869   4.356  12.877  0.1560  0.0515  0.1286
   60MPD2    C4  934   3.979   4.393  12.803 -0.1363 -0.3355 -0.0263
   60MPD2    C5  935   3.974   4.402  12.667  0.1734  0.0522  0.0987
   60MPD2     H  936   3.662   4.282  12.855  2.4248 -2.2520  1.9170
   60MPD2    H1  937   4.071   4.412  12.857 -0.7452  2.3707  0.0537
   60MPD2    H2  938   3.859   4.387  12.493 -1.0613 -1.3762  0.4527
   60MPD2    H3  939   4.054   4.442  12.607  1.0025 -3.8299 -1.3203
   60MPD2     N  940   3.890   4.312  13.011  1.3148 -0.5502 -0.4548
   60MPD2    H5  941   3.987   4.313  13.041  1.1300  0.5940  0.1296
   60MPD2    N1  942   3.617   4.307  12.605 -0.3914 -0.2748  0.0757
   60MPD2    H7  943   3.548   4.269  12.669 -1.4458  0.4742 -0.6213
   61TMC2    C1  944   2.674   0.346  15.545 -0.2548  0.2412 -0.4143
   61TMC2    C2  945   2.695   0.320  15.678 -0.4461 -0.4809 -0.3057
   61TMC2    C3  946   2.680   0.422  15.765  0.3742  0.5389 -0.2886
   61TMC2    C4  947   2.633   0.475  15.507  0.4159  0.2779  0.5683
   61TMC2    C5  948   2.597   0.570  15.598 -0.0209 -0.4492  0.0126
   61TMC2    C6  949   2.628   0.542  15.732  0.0728 -0.0154  0.1666
   61TMC2     C  950   2.713   0.243  15.451  0.3743 -0.0538  0.7626
   61TMC2     O  951   2.723   0.133  15.496  0.9301 -0.0118  0.3286
   61TMC2     H  952   2.729   0.222  15.710  1.6539  0.3786  0.1049
   61TMC2    H1  953   2.590   0.493  15.410  0.3528 -0.8317  0.3988
   61TMC2    H2  954   2.613   0.616  15.808 -0.6741 -1.6279  1.5888
   61TMC2    C7  955   2.604   0.704  15.554  0.3582 -0.2071  0.6899
   61TMC2    C8  956   2.768   0.416  15.874  0.1984  0.0180 -0.3337
   61TMC2    O1  957   2.652   0.738  15.444 -0.5054  0.4896 -0.4265
   61TMC2    O2  958   2.813   0.515  15.926 -0.2409  0.3347 -0.2981
   61TMC2    O5  959   2.718   0.307  15.948 -0.7483 -0.6796 -0.5562
   61TMC2    H5  960   2.678   0.237  15.892  1.1702  0.3349 -3.1486
   62MPD2     C  961   2.765   0.080  15.209 -0.1008  0.4133 -0.2351
   62MPD2    C1  962   2.776   0.218  15.220  0.2579 -0.0419 -0.5353
   62MPD2    C2  963   2.839   0.289  15.121 -0.2095 -0.7317 -0.0445
   62MPD2    C3  964   2.896   0.226  15.008 -0.4156 -0.0543  0.5442
   62MPD2    C4  965   2.890   0.091  14.994  0.0893 -0.3272 -0.3778
   62MPD2    C5  966   2.811   0.018  15.090 -0.1834  0.2769  0.0982
   62MPD2     H  967   2.861   0.395  15.136 -1.8999 -0.3102 -0.5942
   62MPD2    H1  968   2.939   0.036  14.916 -0.7598  0.3216 -1.3737
   62MPD2    H2  969   2.710   0.020  15.280  0.4440 -1.0948 -1.1034
   62MPD2    H3  970   2.791   4.650  15.072 -0.1144 -0.0816  2.0942
   62MPD2     N  971   2.955   0.313  14.906  0.0994  0.7786  0.5001
   62MPD2    H5  972   2.937   0.412  14.916  1.6416  0.9650  1.3987
   62MPD2    N1  973   2.736   0.299  15.327  0.7668 -0.3709 -0.5053
   62MPD2    H7  974   2.752   0.399  15.324 -0.1036 -0.1724  1.3041
   63TMC2    C1  975   2.602   1.305  10.334  0.1045 -0.1342 -0.1040
   63TMC2    C2  976   2.732   1.280  10.375  0.1111 -0.4109 -0.7250
   63TMC2    C3  977   2.831   1.332  10.294 -0.4269 -0.0342  0.2701
   63TMC2    C4  978   2.572   1.377  10.222 -0.1167 -0.8790  0.3874
   63TMC2    C5  979   2.677   1.426  10.150  0.1633  0.4076 -0.2818
   63TMC2    C6  980   2.806   1.409  10.180 -0.6836 -0.2556  0.0790
   63TMC2     C  981   2.497   1.243  10.409  0.1380 -0.8469  0.3164
   63TMC2     O  982   2.529   1.151  10.482 -0.5439  0.0499  0.3150
   63TMC2     H  983   2.761   1.210  10.452  0.0427 -0.4915 -0.7729
   63TMC2    H1  984   2.471   1.404  10.195  0.5354 -0.9642 -2.1532
   63TMC2    H2  985   2.885   1.421  10.106 -0.3368  0.3709  0.5545
   63TMC2    C7  986   2.634   1.533  10.052 -0.2187  0.3916  0.7702
   63TMC2    C8  987   2.964   1.278  10.312 -0.4014 -0.1877 -0.9890
   63TMC2    O1  988   2.520   1.524  10.011  0.3121  0.1502  0.0077
   63TMC2    O2  989   2.992   1.172  10.369 -0.5299  0.1267  0.0620
   63TMC2    O5  990   3.044   1.384  10.290 -0.6459  0.7269  0.0543
   63TMC2    H5  991   3.013   1.450  10.225 -1.5357  0.3784  0.1328
   64MPD2     C  992   2.004   1.078  10.406 -0.0668 -0.5547  0.0232
   64MPD2    C1  993   2.122   1.011  10.435  0.2409  0.2399  0.0968
   64MPD2    C2  994   2.241   1.085  10.440 -0.3003  0.5454  0.7194
   64MPD2    C3  995   2.252   1.215  10.396  0.1656 -1.4198  0.8004
   64MPD2    C4  996   2.138   1.276  10.354  1.1146 -0.3380 -0.6076
   64MPD2    C5  997   2.017   1.205  10.354  0.0064  0.7995  0.4086
   64MPD2     H  998   2.326   1.033  10.481  0.3214 -0.1336 -1.4696
   64MPD2    H1  999   2.128   1.373  10.306  0.5824 -1.1829 -2.2370
   64MPD2    H2 1000   1.905   1.040  10.384 -0.4483  0.6796 -0.4386
   64MPD2    H3 1001   1.927   1.254  10.318 -0.2699 -0.4296 -0.5364
   64MPD2     N 1002   2.369   1.290  10.384 -0.0819 -0.2077  0.2800
   64MPD2    H5 1003   2.356   1.381  10.340  1.6993 -0.6090 -1.0656
   64MPD2    N1 1004   2.121   0.876  10.476 -0.5683  0.0837  0.0780
   64MPD2    H7 1005   2.210   0.827  10.476 -0.2690  0.5901 -3.1419
   65TMC2    C1 1006   3.042   0.242  15.579 -0.0460 -0.0542 -0.4984
   65TMC2    C2 1007   3.067   0.200  15.452  0.8111  0.2295  0.2634
   65TMC2    C3 1008   3.105   0.304  15.370  0.6958  0.2865 -0.1105
   65TMC2    C4 1009   3.065   0.373  15.634 -0.8842 -0.1223 -0.1640
   65TMC2    C5 1010   3.106   0.472  15.540  0.4293  1.1613  0.5215
   65TMC2    C6 1011   3.122   0.436  15.407 -0.4505  0.7016  0.4266
   65TMC2     C 1012   3.018   0.140  15.679 -0.0450 -0.1648  1.2024
   65TMC2     O 1013   2.961   0.178  15.785 -0.2114  0.4470  0.0349
   65TMC2     H 1014   3.058   0.099  15.416 -0.0809 -0.0815  1.3637
   65TMC2    H1 1015   3.055   0.392  15.740 -1.0519 -0.2589 -0.1560
   65TMC2    H2 1016   3.134   0.513  15.332  1.6725  2.4733  2.6110
   65TMC2    C7 1017   3.147   0.603  15.574 -0.0458  0.8317  1.0705
   65TMC2    C8 1018   3.164   0.270  15.242  0.2338  0.3150 -0.3783
   65TMC2    O1 1019   3.188   0.672  15.482  0.0376 -0.3002 -0.2305
   65TMC2    O2 1020   3.179   0.151  15.216  0.2374  0.0269 -0.2861
   65TMC2    O5 1021   3.189   0.378  15.158  0.1300  0.3327  0.5427
   65TMC2    H5 1022   3.154   0.465  15.187  2.3753  0.5570  2.5908
   66MPD2     C 1023   3.029   4.630  15.859  0.0117 -0.2018 -0.5334
   66MPD2    C1 1024   3.099   4.645  15.746  0.8000 -0.4660 -0.4797
   66MPD2    C2 1025   3.190   4.549  15.703  0.1443 -0.1719  0.0107
   66MPD2    C3 1026   3.227   4.450  15.793  0.9180 -0.1765 -0.0393
   66MPD2    C4 1027   3.154   4.437  15.905 -0.0626 -0.8090 -0.1553
   66MPD2    C5 1028   3.051   4.517  15.934  0.0656  0.3163  0.0262
   66MPD2     H 1029   3.241   4.562  15.608 -1.4634 -1.1423 -0.9826
   66MPD2    H1 1030   3.165   4.347  15.963  0.1905 -1.6480 -1.4994
   66MPD2    H2 1031   2.957   4.706  15.889  1.0256  0.2189  0.7886
   66MPD2    H3 1032   2.984   4.501  16.018  0.4518 -0.1093  0.2474
   66MPD2     N 1033   3.324   4.350  15.763  0.0887 -0.2853 -0.3258
   66MPD2    H5 1034   3.320   4.265  15.818 -1.8924  0.4577  0.7104
   66MPD2    N1 1035   3.082   0.022  15.660  0.6145  0.8754 -0.0093
   66MPD2    H7 1036   3.146   0.017  15.581 -0.0786  1.1268 -0.5937
   67TMC2    C1 1037   3.835   4.386  14.231 -0.6879 -0.8386  0.1443
   67TMC2    C2 1038   3.760   4.499  14.241  0.3568 -0.0322  0.2053
   67TMC2    C3 1039   3.771   4.576  14.358 -0.2165  0.1929 -0.4446
   67TMC2    C4 1040   3.898   4.339  14.342  0.3394 -0.2988 -0.3868
   67TMC2    C5 1041   3.901   4.415  14.458 -0.5104 -0.0908 -0.0927
   67TMC2    C6 1042   3.836   4.532  14.466 -1.2689  0.1267 -0.1916
   67TMC2     C 1043   3.810   4.288  14.129  0.0233 -0.2975  0.2768
   67TMC2     O 1044   3.875   4.185  14.122  0.8163  0.2497 -0.1502
   67TMC2     H 1045   3.711   4.543  14.155  0.1825  0.1686  0.4054
   67TMC2    H1 1046   3.952   4.246  14.328  2.0984  0.7280 -0.4075
   67TMC2    H2 1047   3.835   4.589  14.558 -0.8090 -0.4258  0.1542
   67TMC2    C7 1048   3.986   4.377  14.570  0.3692 -0.3639  0.5708
   67TMC2    C8 1049   3.707   4.710  14.365  0.1646  0.0414 -0.1191
   67TMC2    O1 1050   4.094   4.323  14.534 -0.0225 -0.6116  0.5845
   67TMC2    O2 1051   3.617   0.013  14.291 -0.2377  0.4023 -0.1179
   67TMC2    O5 1052   3.796   0.050  14.426 -0.6623  0.1518  0.7392
   67TMC2    H5 1053   3.880   0.008  14.456  0.7770 -0.4056 -3.9823
   68MPD2     C 1054   3.724   4.176  13.861  0.9355  0.1840  0.5087
   68MPD2    C1 1055   3.646   4.241  13.947  0.3905 -0.1003 -0.7584
   68MPD2    C2 1056   3.513   4.255  13.922  0.4951  0.0179 -0.0896
   68MPD2    C3 1057   3.453   4.205  13.813 -0.6294  0.0288 -0.3290
   68MPD2    C4 1058   3.540   4.153  13.717 -0.4413  0.0009  0.6985
   68MPD2    C5 1059   3.674   4.131  13.742 -0.1514 -0.0449 -0.0474
   68MPD2     H 1060   3.454   4.304  13.998  3.2831 -1.5783  3.1378
   68MPD2    H1 1061   3.498   4.126  13.621  1.4232 -0.9419  0.1585
   68MPD2    H2 1062   3.831   4.176  13.878  1.1590 -0.5078 -0.9879
   68MPD2    H3 1063   3.731   4.084  13.663 -1.2512 -0.4614 -0.5831
   68MPD2     N 1064   3.310   4.210  13.794 -0.4352  0.3515  0.3490
   68MPD2    H5 1065   3.273   4.178  13.705 -1.2746  2.2533 -0.0047
   68MPD2    N1 1066   3.693   4.312  14.069  0.1831 -0.7192 -0.2063
   68MPD2    H7 1067   3.636   4.384  14.112  1.2848  0.2260 -0.3185
   69TMC2    C1 1068   0.828   0.227  12.335  0.0238 -1.0806  0.1183
   69TMC2    C2 1069   0.727   0.268  12.418 -0.1458  0.2721 -0.5566
   69TMC2    C3 1070   0.682   0.393  12.389  0.2079  0.7055  0.2802
   69TMC2    C4 1071   0.883   0.304  12.236 -0.6709 -0.2204  0.3933
   69TMC2    C5 1072   0.827   0.423  12.205  0.3235  0.0714  0.5891
   69TMC2    C6 1073   0.725   0.475  12.283 -0.4526 -0.0466  1.1231
   69TMC2     C 1074   0.850   0.078  12.345  0.0919  0.6012  0.1429
   69TMC2     O 1075   0.835   0.040  12.462  0.5404  0.4240  0.1355
   69TMC2     H 1076   0.673   0.199  12.482 -0.8614 -0.9808 -2.5304
   69TMC2    H1 1077   0.967   0.266  12.178  1.5443  1.1567  2.7259
   69TMC2    H2 1078   0.689   0.576  12.272  2.8356  0.7343 -2.4429
   69TMC2    C7 1079   0.876   0.486  12.085 -0.1121  0.2562 -0.1565
   69TMC2    C8 1080   0.585   0.450  12.482 -0.2871 -0.2970  0.0498
   69TMC2    O1 1081   0.992   0.460  12.063 -0.1437 -0.5281  0.1167
   69TMC2    O2 1082   0.490   0.385  12.528  0.2264  0.2873  0.6609
   69TMC2    O5 1083   0.621   0.581  12.512  0.4831  0.2801  0.4702
   69TMC2    H5 1084   0.701   0.628  12.479  0.6423 -0.2378  0.1232
   70MPD2     C 1085   1.026   4.595  12.113 -0.1006 -0.3409  0.1129
   70MPD2    C1 1086   0.948   4.624  12.227  0.4195 -0.5971 -0.9699
   70MPD2    C2 1087   0.919   4.527  12.328 -0.6044  0.4050 -0.4608
   70MPD2    C3 1088   0.977   4.403  12.312  0.1336  0.2472 -0.4574
   70MPD2    C4 1089   1.044   4.372  12.195 -0.4447 -0.0264  0.2436
   70MPD2    C5 1090   1.061   4.467  12.092  0.3991  0.9559  0.0306
   70MPD2     H 1091   0.870   4.552  12.421  1.4328 -0.4366  0.8246
   70MPD2    H1 1092   1.094   4.277  12.177  0.5903  0.3524  1.1974
   70MPD2    H2 1093   1.047   4.676  12.044 -1.4466 -1.5213 -1.6675
   70MPD2    H3 1094   1.126   4.440  12.009 -0.1588  0.4045 -0.2273
   70MPD2     N 1095   0.961   4.300  12.414 -0.3272  0.0207 -0.0618
   70MPD2    H5 1096   1.010   4.211  12.410 -2.1597 -1.0197  0.2517
   70MPD2    N1 1097   0.905   0.022  12.235 -0.1768  0.2118  0.0554
   70MPD2    H7 1098   0.921   0.078  12.151  0.6037 -0.0244  0.0471
   71TMC2    C1 1099   4.132   1.897   2.187  0.1267  0.8340  0.4352
   71TMC2    C2 1100   4.140   2.025   2.234 -0.0811  0.0441 -0.0468
   71TMC2    C3 1101   4.127   2.050   2.363 -0.0666 -0.2222  0.1545
   71TMC2    C4 1102   4.106   1.793   2.277 -0.7196 -0.5813  0.6008
   71TMC2    C5 1103   4.100   1.822   2.411  0.0175 -0.1947  0.0059
   71TMC2    C6 1104   4.113   1.954   2.458 -0.3550  0.0132 -1.1592
   71TMC2     C 1105   4.147   1.869   2.044 -0.4225 -0.0752 -0.0458
   71TMC2     O 1106   4.230   1.932   1.976 -0.1805  0.4104  0.3687
   71TMC2     H 1107   4.143   2.108   2.164 -2.7056 -0.6521 -1.0093
   71TMC2    H1 1108   4.107   1.695   2.233 -0.0152 -0.6899  0.8644
   71TMC2    H2 1109   4.100   1.988   2.560  0.1269  0.7638 -1.3477
   71TMC2    C7 1110   4.016   1.744   2.500 -0.3756  0.6603  0.2332
   71TMC2    C8 1111   4.101   2.180   2.406  0.7261  0.6680 -0.2293
   71TMC2    O1 1112   4.009   1.777   2.614 -0.1095 -0.0422  0.0699
   71TMC2    O2 1113   4.009   2.189   2.487  0.0909  0.4478 -0.6303
   71TMC2    O5 1114   4.160   2.282   2.340  0.3519  0.0258 -0.0943
   71TMC2    H5 1115   4.228   2.252   2.277  0.7140  0.8967 -0.1186
   72MPD2     C 1116   4.085   1.499   1.673  0.0181 -0.0670  0.0142
   72MPD2    C1 1117   4.160   1.614   1.671 -0.1210 -0.5114 -0.2204
   72MPD2    C2 1118   4.155   1.700   1.785 -0.2459 -0.8830  0.5911
   72MPD2    C3 1119   4.075   1.675   1.895 -0.0349  0.0044  0.4818
   72MPD2    C4 1120   3.997   1.562   1.892  0.1037 -0.7502 -0.0016
   72MPD2    C5 1121   4.003   1.477   1.781  0.3277 -0.7619  0.4569
   72MPD2     H 1122   4.212   1.791   1.768 -1.5133 -0.1987  0.0018
   72MPD2    H1 1123   3.927   1.535   1.971 -1.0821 -0.0046 -0.7916
   72MPD2    H2 1124   4.110   1.424   1.598 -1.7994 -0.3135 -0.3533
   72MPD2    H3 1125   3.940   1.389   1.783  0.0793 -0.6623 -2.5675
   72MPD2     N 1126   4.068   1.762   2.006 -0.0602  0.0964 -0.4532
   72MPD2    H5 1127   4.010   1.738   2.086  1.0964 -0.5297  0.1927
   72MPD2    N1 1128   4.232   1.650   1.556 -0.2225  0.3609 -0.0462
   72MPD2    H7 1129   4.285   1.737   1.564 -1.8241  1.4280 -1.0637
   73TMC2    C1 1130   2.576   3.273  14.312 -0.6440  0.4882  0.4639
   73TMC2    C2 1131   2.595   3.350  14.427  0.2658 -0.4412  0.1292
   73TMC2    C3 1132   2.651   3.290  14.537 -0.2352 -0.2699 -0.6982
   73TMC2    C4 1133   2.613   3.137  14.314 -0.3456  0.0048  0.4728
   73TMC2    C5 1134   2.660   3.085  14.430  0.2855  0.0819 -0.4937
   73TMC2    C6 1135   2.671   3.155  14.546  0.5294 -0.3420 -0.7207
   73TMC2     C 1136   2.638   3.339  14.200  0.0519  0.0272  0.2460
   73TMC2     O 1137   2.726   3.271  14.155  0.1500  0.1028  0.0139
   73TMC2     H 1138   2.603   3.457  14.420  1.7027 -0.4839  1.2059
   73TMC2    H1 1139   2.604   3.080  14.223  0.0343  3.5337 -1.7595
   73TMC2    H2 1140   2.740   3.120  14.621  0.6774  0.3546 -0.5334
   73TMC2    C7 1141   2.777   3.006  14.411  0.2347  0.2313 -0.5113
   73TMC2    C8 1142   2.717   3.382  14.632  0.3455 -0.1286  0.2272
   73TMC2    O1 1143   2.835   2.952  14.505 -0.5120 -0.1768 -0.3941
   73TMC2    O2 1144   2.709   3.505  14.619  0.1511  0.4263 -0.4033
   73TMC2    O5 1145   2.754   3.320  14.745 -0.2620  0.4667 -0.3975
   73TMC2    H5 1146   2.729   3.226  14.757 -2.9106  1.5426  2.6241
   74MPD2     C 1147   2.803   3.779  13.977  0.1615 -0.2773  0.1110
   74MPD2    C1 1148   2.863   3.655  13.991  0.0111  0.6532  1.0072
   74MPD2    C2 1149   2.791   3.556  14.062 -0.0387 -0.3640  0.5961
   74MPD2    C3 1150   2.662   3.573  14.108 -0.2354  0.8685  0.1611
   74MPD2    C4 1151   2.601   3.694  14.087 -0.4235  0.7885 -0.1364
   74MPD2    C5 1152   2.675   3.798  14.024  0.2609  0.0933  0.3106
   74MPD2     H 1153   2.848   3.467  14.086  1.2412  0.1879 -0.4049
   74MPD2    H1 1154   2.502   3.718  14.122 -0.1920  2.1998 -0.4590
   74MPD2    H2 1155   2.850   3.857  13.918  0.0055  0.9113  1.5513
   74MPD2    H3 1156   2.626   3.895  14.018  1.4629  0.5208 -2.3602
   74MPD2     N 1157   2.599   3.468  14.182 -0.3570  0.4887 -0.3276
   74MPD2    H5 1158   2.516   3.498  14.233  0.0022 -0.6140  0.9222
   74MPD2    N1 1159   2.996   3.641  13.944  0.1752 -0.3938  0.3565
   74MPD2    H7 1160   3.050   3.722  13.918 -1.6522  0.8189  0.3108
   75TMC2    C1 1161   3.082   4.252  13.850 -0.6672  0.6627  0.1948
   75TMC2    C2 1162   2.988   4.238  13.942  0.5466 -0.1706 -0.5095
   75TMC2    C3 1163   2.856   4.241  13.901  0.5689 -0.3435 -1.0377
   75TMC2    C4 1164   3.060   4.277  13.715  0.6524 -0.4788 -0.1757
   75TMC2    C5 1165   2.928   4.281  13.681  0.6264 -0.7773 -0.4750
   75TMC2    C6 1166   2.823   4.263  13.768  0.5263 -0.4279  0.3363
   75TMC2     C 1167   3.221   4.239  13.895 -0.1807 -0.3702 -0.2359
   75TMC2     O 1168   3.236   4.251  14.018  0.7142  0.3950 -0.0840
   75TMC2     H 1169   3.014   4.220  14.045  0.3485 -0.7021 -0.5488
   75TMC2    H1 1170   3.141   4.286  13.643  0.9876  0.0449  0.2697
   75TMC2    H2 1171   2.719   4.272  13.739 -0.8202  0.0269  5.3620
   75TMC2    C7 1172   2.895   4.311  13.539 -0.3811 -0.6576  0.0799
   75TMC2    C8 1173   2.748   4.249  13.992 -0.3443 -0.4589  0.2031
   75TMC2    O1 1174   2.806   4.251  13.482  0.0442 -0.0045 -0.0325
   75TMC2    O2 1175   2.638   4.299  13.960  0.3186  0.2165 -0.6913
   75TMC2    O5 1176   2.756   4.139  14.071  0.1138  0.0701  0.1101
   75TMC2    H5 1177   2.845   4.108  14.098 -0.1267 -0.9517 -0.2875
   76TMC2    C1 1178   2.089   0.288  12.041 -0.3410  0.1486  0.0904
   76TMC2    C2 1179   2.070   0.332  12.172 -0.4123  0.0436  0.2148
   76TMC2    C3 1180   2.140   0.265  12.269  0.4502 -0.2385 -0.0048
   76TMC2    C4 1181   2.172   0.181  12.019 -0.1991  0.1615  0.1709
   76TMC2    C5 1182   2.249   0.131  12.120 -0.6512  0.5795 -0.7882
   76TMC2    C6 1183   2.229   0.164  12.252 -0.4778  0.2543 -0.7814
   76TMC2     C 1184   1.996   0.343  11.939 -0.0781 -0.4215  1.0161
   76TMC2     O 1185   1.896   0.397  11.978 -0.0404 -0.2464  0.0789
   76TMC2     H 1186   2.003   0.412  12.202 -0.5799 -1.1402  3.0301
   76TMC2    H1 1187   2.197   0.153  11.917 -1.0569  2.3576 -0.6450
   76TMC2    H2 1188   2.289   0.128  12.335  0.0622 -0.8454 -1.6437
   76TMC2    C7 1189   2.371   0.062  12.083  0.9127  0.2207 -0.3149
   76TMC2    C8 1190   2.085   0.288  12.405  0.1381  0.6285 -0.0208
   76TMC2    O1 1191   2.387   0.038  11.964  0.7154 -0.3786 -0.0831
   76TMC2    O2 1192   2.160   0.296  12.505  0.0025  0.0959  0.3113
   76TMC2    O5 1193   1.959   0.240  12.411  0.4675  0.0283 -0.7319
   76TMC2    H5 1194   1.914   0.214  12.327  2.1715 -0.4637 -1.4842
   77MPD2     C 1195   1.889   0.513  11.461 -0.4017  0.5694  0.1270
   77MPD2    C1 1196   1.805   0.510  11.573  0.0329  0.3950 -0.7766
   77MPD2    C2 1197   1.854   0.453  11.688  0.3685 -0.1015 -0.5265
   77MPD2    C3 1198   1.977   0.392  11.690  0.5739  0.0315  0.5896
   77MPD2    C4 1199   2.054   0.386  11.580 -0.2754  0.0655 -0.4304
   77MPD2    C5 1200   2.012   0.449  11.467 -0.1713  0.6062 -0.2850
   77MPD2     H 1201   1.780   0.451  11.768 -1.5161  1.0637 -2.2336
   77MPD2    H1 1202   2.148   0.332  11.578  1.1742  2.4630  2.8522
   77MPD2    H2 1203   1.852   0.554  11.368 -2.4610 -0.2740  0.5795
   77MPD2    H3 1204   2.071   0.457  11.377  1.4954 -1.0789  0.6576
   77MPD2     N 1205   2.043   0.340  11.807  0.3669  0.2119  0.0881
   77MPD2    H5 1206   2.139   0.315  11.786  0.1201  1.0014 -1.9266
   77MPD2    N1 1207   1.678   0.568  11.581  0.0492 -0.3170  0.4569
   77MPD2    H7 1208   1.624   0.547  11.664 -0.7888 -1.3284 -0.3436
   78TMC2    C1 1209   4.149   4.188   1.883  0.1248  0.7414 -0.1798
   78TMC2    C2 1210   4.034   4.118   1.850  0.8063 -0.2377  0.0147
   78TMC2    C3 1211   3.928   4.197   1.830 -1.3126  0.1792 -0.6138
   78TMC2    C4 1212   4.158   4.323   1.850 -0.1252  0.3254 -0.2547
   78TMC2    C5 1213   4.051   4.393   1.801  0.3137  0.2326  0.2029
   78TMC2    C6 1214   3.932   4.335   1.806 -0.3654  0.3770  0.3396
   78TMC2     C 1215   4.266   4.120   1.929 -0.2522 -0.2861 -1.1779
   78TMC2     O 1216   4.253   3.996   1.921 -0.3398  1.0358  0.0790
   78TMC2     H 1217   4.027   4.013   1.875  0.3675 -0.0529  0.6547
   78TMC2    H1 1218   4.246   4.383   1.873  0.1840 -0.7658  1.4025
   78TMC2    H2 1219   3.840   4.387   1.780  0.6272  2.0679  0.2173
   78TMC2    C7 1220   4.065   4.519   1.746 -0.3957 -0.2626  0.0585
   78TMC2    C8 1221   3.803   4.140   1.797  0.7364 -0.1979  0.0821
   78TMC2    O1 1222   3.967   4.593   1.748 -0.1685 -0.5760  0.4244
   78TMC2    O2 1223   3.712   4.213   1.767  0.0891  0.0983  0.3266
   78TMC2    O5 1224   3.826   4.018   1.748 -0.5835 -0.3121  0.1356
   78TMC2    H5 1225   3.912   3.979   1.775 -0.1348  0.1986 -0.5505
   79MPD1     C 1226   0.012   4.066   2.095  0.2208  0.5783  0.0133
   79MPD1    C1 1227   4.672   3.969   2.031  0.7290  0.1743 -0.4438
   79MPD1    C2 1228   4.543   4.014   1.988 -0.4030  0.1492  0.5634
   79MPD1    C3 1229   4.502   4.144   2.009 -0.2875  0.1295  0.1323
   79MPD1    C4 1230   4.585   4.237   2.067  0.1764  0.3044  0.0420
   79MPD1    C5 1231   4.710   4.194   2.102  0.3467 -0.5447  0.1012
   79MPD1     H 1232   4.472   3.947   1.942 -0.5049 -0.7539  2.0198
   79MPD1    H1 1233   4.556   4.340   2.088 -1.3332  0.0751 -0.9827
   79MPD1    H2 1234   0.116   4.043   2.118 -0.5010 -1.3622  1.3632
   79MPD1    H3 1235   0.051   4.261   2.137 -0.0668 -0.2628  0.4865
   79MPD1     N 1236   4.369   4.193   1.985 -0.0816  0.1062  0.5538
   79MPD1    H5 1237   4.359   4.292   2.002  1.1350  0.4166 -0.6006
   79MPD1    N1 1238   4.706   3.828   2.035 -0.0538  0.7119  0.2482
   79MPD1    H6 1239   0.071   3.818   2.038  0.0270  1.2972 -0.4755
   79MPD1    H7 1240   4.672   3.779   1.952  0.5498  1.2294 -0.3090
   80TMC2    C1 1241   0.601   4.062  11.674 -0.4367 -0.3017  0.0024
   80TMC2    C2 1242   0.668   4.002  11.569 -0.0077 -0.7168 -0.4480
   80TMC2    C3 1243   0.686   3.869  11.566  0.2177 -0.1101 -0.2379
   80TMC2    C4 1244   0.542   3.990  11.775 -0.6124  0.9220 -0.1594
   80TMC2    C5 1245   0.557   3.851  11.769 -0.0910 -0.4096  0.3839
   80TMC2    C6 1246   0.621   3.788  11.658  0.0098  0.3484  0.8132
   80TMC2     C 1247   0.572   4.201  11.673 -0.2568 -0.7464 -0.3839
   80TMC2     O 1248   0.580   4.257  11.569 -0.5196  0.6468 -0.0502
   80TMC2     H 1249   0.722   4.054  11.492  0.6312 -1.2616 -0.3682
   80TMC2    H1 1250   0.473   4.031  11.848 -0.1971  1.5047 -0.0877
   80TMC2    H2 1251   0.637   3.681  11.649  0.0744  0.4943 -0.7378
   80TMC2    C7 1252   0.487   3.769  11.866  0.1389 -0.2423 -0.1769
   80TMC2    C8 1253   0.783   3.812  11.471 -0.8628  0.5732 -0.2082
   80TMC2    O1 1254   0.439   3.667  11.818 -0.4505  0.3655 -0.0239
   80TMC2    O2 1255   0.896   3.849  11.463 -0.3077 -0.1113 -0.3894
   80TMC2    O5 1256   0.719   3.732  11.383  0.4065 -0.3682  0.0599
   80TMC2    H5 1257   0.624   3.736  11.409  0.8578 -0.3815  1.7360
   81MPD2     C 1258   0.437   4.467  11.716  0.3810 -0.0365  0.4183
   81MPD2    C1 1259   0.460   4.377  11.814  0.7082 -0.5091 -0.3623
   81MPD2    C2 1260   0.400   4.395  11.939 -0.7277  0.4664  0.5948
   81MPD2    C3 1261   0.326   4.510  11.967 -0.0966  0.7043 -0.1692
   81MPD2    C4 1262   0.309   4.599  11.862 -0.4043  0.4074 -0.2186
   81MPD2    C5 1263   0.354   4.578  11.735 -0.0461 -0.1108  0.0298
   81MPD2     H 1264   0.416   4.324  12.019  1.0530  0.1121 -0.0902
   81MPD2    H1 1265   0.267   4.698  11.872 -0.3780  0.4021 -0.0528
   81MPD2    H2 1266   0.489   4.461  11.621  0.8029  0.1117  0.6390
   81MPD2    H3 1267   0.343   4.657  11.661 -0.4688  0.0223  0.2321
   81MPD2     N 1268   0.285   4.542  12.101 -0.6040 -0.0072 -0.4491
   81MPD2    H5 1269   0.312   4.480  12.177  0.7720  0.2914 -0.6901
   81MPD2    N1 1270   0.520   4.249  11.788  0.1420 -0.4213 -0.2488
   81MPD2    H7 1271   0.534   4.192  11.870  0.2965 -0.0679 -0.0336
   82TMC2    C1 1272   4.021   4.118  11.127 -0.2537  0.2102  0.6724
   82TMC2    C2 1273   4.115   4.036  11.069  0.4961 -0.0635 -0.7888
   82TMC2    C3 1274   4.184   3.947  11.147 -0.3516  0.5696  0.5810
   82TMC2    C4 1275   3.982   4.087  11.259  0.1260 -0.4029 -0.1251
   82TMC2    C5 1276   4.047   3.991  11.330 -0.7178 -1.0216  0.1143
   82TMC2    C6 1277   4.151   3.919  11.279  0.2123 -0.4942  0.7784
   82TMC2     C 1278   3.946   4.207  11.038  0.3961 -0.4788 -0.0595
   82TMC2     O 1279   3.973   4.193  10.914  0.1641  0.1993 -0.0596
   82TMC2     H 1280   4.147   4.047  10.966  1.9698  0.3822 -0.2853
   82TMC2    H1 1281   3.901   4.142  11.307  0.7442 -0.5660  1.1158
   82TMC2    H2 1282   4.192   3.844  11.345  1.3329  0.1738  0.8350
   82TMC2    C7 1283   3.974   3.938  11.448  0.3329  0.4301  0.1369
   82TMC2    C8 1284   4.297   3.888  11.084 -0.0769  0.9901  0.0211
   82TMC2    O1 1285   3.853   3.961  11.462  0.1446 -0.1328  0.2407
   82TMC2    O2 1286   4.322   3.891  10.968 -0.1262 -0.3135 -0.4164
   82TMC2    O5 1287   4.384   3.841  11.180 -0.1478 -0.3617  0.0022
   82TMC2    H5 1288   4.386   3.881  11.269 -2.1235 -1.3814  0.5002
   83MPD2     C 1289   3.552   4.518  10.968 -0.4532 -0.0153  0.2604
   83MPD2    C1 1290   3.597   4.414  10.894  0.4761 -0.6247  0.2512
   83MPD2    C2 1291   3.711   4.349  10.931  0.4798 -0.6101  0.3271
   83MPD2    C3 1292   3.762   4.375  11.059 -0.5140 -0.1440 -0.0805
   83MPD2    C4 1293   3.724   4.484  11.127 -0.4101 -0.4909  0.1288
   83MPD2    C5 1294   3.615   4.555  11.084  1.1035  0.0720  0.1715
   83MPD2     H 1295   3.741   4.259  10.878  0.0912 -0.7218  0.2957
   83MPD2    H1 1296   3.783   4.516  11.212 -0.2318 -0.6761  0.0749
   83MPD2    H2 1297   3.453   4.556  10.948  0.0768  1.8205  1.0871
   83MPD2    H3 1298   3.583   4.642  11.140  0.1879 -0.6228  0.7213
   83MPD2     N 1299   3.867   4.295  11.109  0.0210  0.0207  0.3590
   83MPD2    H5 1300   3.889   4.313  11.207  2.2068  0.0758 -0.1320
   83MPD2    N1 1301   3.526   4.375  10.776  0.2873  0.3126  0.0324
   83MPD2    H7 1302   3.439   4.424  10.755  0.2123  0.7572  1.3549
   84TMC2    C1 1303   0.222   3.381  11.690 -0.0578  0.2524  0.5513
   84TMC2    C2 1304   0.222   3.355  11.826  0.0699  0.7443 -0.0428
   84TMC2    C3 1305   0.242   3.227  11.866  1.0040 -0.3178  0.3776
   84TMC2    C4 1306   0.218   3.283  11.596 -0.1456  0.0609  0.2428
   84TMC2    C5 1307   0.220   3.150  11.643 -0.4028 -0.2587 -0.0380
   84TMC2    C6 1308   0.253   3.125  11.779 -0.0536  0.0316 -0.1669
   84TMC2     C 1309   0.157   3.506  11.653 -0.5512 -0.0815  0.4577
   84TMC2     O 1310   0.067   3.533  11.733  0.2747  0.0100  0.4775
   84TMC2     H 1311   0.221   3.441  11.893 -0.2658  1.6775 -1.2369
   84TMC2    H1 1312   0.215   3.296  11.489  2.5820  2.8311  0.4865
   84TMC2    H2 1313   0.249   3.024  11.818 -2.4220  0.0485 -0.3595
   84TMC2    C7 1314   0.213   3.039  11.553 -0.2473  0.0959 -0.5542
   84TMC2    C8 1315   0.257   3.199  12.006 -0.6563 -0.2961 -0.3934
   84TMC2    O1 1316   0.228   3.078  11.439 -0.0817 -0.6877 -0.6240
   84TMC2    O2 1317   0.194   3.115  12.070 -0.2221 -0.4736 -0.4313
   84TMC2    O5 1318   0.388   3.229  12.028 -0.2930  0.4102  0.1041
   84TMC2    H5 1319   0.405   3.271  11.940  1.0133  1.4785  0.8581
   85TMC2    C1 1320   0.059   1.629  16.030 -0.2483  0.1177 -0.2484
   85TMC2    C2 1321   0.073   1.543  15.919  0.0852 -0.0043  0.0883
   85TMC2    C3 1322   0.157   1.586  15.824 -0.4731 -0.0138 -0.2923
   85TMC2    C4 1323   0.117   1.755  16.033 -0.3605 -0.4825  0.6587
   85TMC2    C5 1324   0.212   1.780  15.941 -0.5022 -0.2333 -0.0544
   85TMC2    C6 1325   0.239   1.697  15.832  0.0743  0.2676 -0.1654
   85TMC2     C 1326   0.026   1.569  16.156  0.7678 -0.4712 -0.5494
   85TMC2     O 1327   4.666   1.612  16.214 -0.4041 -0.2412  0.2676
   85TMC2     H 1328   0.025   1.446  15.906  0.3587 -0.1837  0.4115
   85TMC2    H1 1329   0.101   1.815  16.122  1.9685 -0.0944  0.8143
   85TMC2    H2 1330   0.319   1.721  15.763 -1.1154 -0.8446 -1.9414
   85TMC2    C7 1331   0.281   1.903  15.938  1.2409 -0.4967 -0.3905
   85TMC2    C8 1332   0.228   1.481  15.758  1.0996  0.3662 -0.0819
   85TMC2    O1 1333   0.386   1.914  15.878  0.1988 -0.0092 -0.2595
   85TMC2    O2 1334   0.220   1.365  15.799  0.0066 -0.3449 -0.2016
   85TMC2    O5 1335   0.211   1.521  15.628  0.1643  0.3972 -0.3563
   85TMC2    H5 1336   0.180   1.610  15.602  1.8915  1.5425  1.5438
   86MPD2     C 1337   0.072   1.194  16.505 -0.0216 -0.2153  0.3320
   86MPD2    C1 1338   0.157   1.168  16.400  0.7939 -0.0047  0.3614
   86MPD2    C2 1339   0.170   1.256  16.296  0.0606  0.3820  0.0287
   86MPD2    C3 1340   0.092   1.371  16.292  0.2548  0.3233 -0.0235
   86MPD2    C4 1341   0.007   1.397  16.398 -0.2310  0.0793  0.2856
   86MPD2    C5 1342   4.734   1.303  16.497 -0.1226  0.7620  0.0344
   86MPD2     H 1343   0.244   1.243  16.218 -0.0006  1.2905 -0.1776
   86MPD2    H1 1344   4.688   1.489  16.406 -0.4507  0.0855 -1.5502
   86MPD2    H2 1345   0.064   1.130  16.592  0.2948 -2.2249 -1.1092
   86MPD2    H3 1346   4.664   1.320  16.578  0.0946  0.3469  0.3015
   86MPD2     N 1347   0.103   1.451  16.177  0.0129 -0.5684  0.2448
   86MPD2    H5 1348   0.181   1.431  16.115  0.1258 -1.0641  0.5451
   86MPD2    N1 1349   0.242   1.057  16.403 -0.1458  0.8011  0.1923
   86MPD2    H7 1350   0.300   1.042  16.321 -0.6713  1.4411 -0.2952
   87TMC2    C1 1351   3.985   4.173   0.272 -0.6628 -0.6931  0.2327
   87TMC2    C2 1352   4.066   4.273   0.279  0.1952 -1.2046 -0.5315
   87TMC2    C3 1353   4.015   4.404   0.279 -0.1808  0.3406  0.3445
   87TMC2    C4 1354   3.849   4.189   0.273 -0.4756  0.3144 -0.0758
   87TMC2    C5 1355   3.800   4.320   0.278 -0.2418  0.3434  0.1601
   87TMC2    C6 1356   3.880   4.429   0.278 -0.1287  0.7164 -0.5689
   87TMC2     C 1357   4.045   4.038   0.301  0.1538  0.2794  0.3664
   87TMC2     O 1358   4.167   4.024   0.284 -1.3846  0.0411  0.1523
   87TMC2     H 1359   4.174   4.265   0.283  0.3131  0.7539  0.3482
   87TMC2    H1 1360   3.778   4.113   0.244  2.4061 -2.4084  0.1521
   87TMC2    H2 1361   3.836   4.522   0.245 -0.4365  1.1011  0.9360
   87TMC2    C7 1362   3.667   4.352   0.306 -0.1201  0.8337  0.6072
   87TMC2    C8 1363   4.106   4.508   0.244  0.0294 -0.2777 -0.4292
   87TMC2    O1 1364   3.640   4.458   0.361 -0.2153 -0.3888 -0.3406
   87TMC2    O2 1365   4.206   4.472   0.180  0.3919  0.2266  0.3185
   87TMC2    O5 1366   4.092   4.615   0.323  0.6495 -0.4079  0.1386
   87TMC2    H5 1367   4.002   4.625   0.362  1.1081 -1.0961  1.3666
   88MPD2     C 1368   3.387   4.196   0.115 -0.0795 -0.6899  1.3255
   88MPD2    C1 1369   3.445   4.278   0.206  0.0101  0.6397 -0.3208
   88MPD2    C2 1370   3.369   4.364   0.282  0.0496 -0.5160  0.3601
   88MPD2    C3 1371   3.229   4.360   0.271 -0.0049  0.2986  0.0650
   88MPD2    C4 1372   3.182   4.270   0.177 -0.3635  0.5626 -0.3746
   88MPD2    C5 1373   3.256   4.192   0.098 -0.1757  0.1269 -0.1970
   88MPD2     H 1374   3.415   4.427   0.358  1.1631 -0.3516 -0.4533
   88MPD2    H1 1375   3.076   4.258   0.157 -0.2699 -0.1607 -0.4322
   88MPD2    H2 1376   3.450   4.135   0.051  1.4010  1.2561  0.9509
   88MPD2    H3 1377   3.200   4.127   0.031 -1.3972 -0.4659  1.3811
   88MPD2     N 1378   3.149   4.449   0.340  0.1442 -0.4755 -0.2410
   88MPD2    H5 1379   3.050   4.434   0.329 -0.0040  0.3608 -0.0237
   88MPD2    N1 1380   3.589   4.270   0.225 -0.0842  0.1837  0.6641
   88MPD2    H7 1381   3.634   4.201   0.167 -1.9301  1.5136 -2.3446
   89TMC2    C1 1382   0.426   3.457   1.843  0.0823  0.5036 -0.0131
   89TMC2    C2 1383   0.412   3.591   1.873 -0.3530  0.8368 -0.6222
   89TMC2    C3 1384   0.518   3.669   1.856 -0.0920 -0.2307 -0.5808
   89TMC2    C4 1385   0.549   3.399   1.808  0.0554 -0.0497 -0.3142
   89TMC2    C5 1386   0.657   3.484   1.811 -0.6558 -0.3619 -0.5263
   89TMC2    C6 1387   0.642   3.619   1.831 -0.2576 -0.8264  0.2405
   89TMC2     C 1388   0.303   3.378   1.847 -0.7554  0.0027  0.3111
   89TMC2     O 1389   0.195   3.428   1.869 -0.4432 -0.0510  0.8246
   89TMC2     H 1390   0.325   3.637   1.917  1.4674  2.6006  1.1315
   89TMC2    H1 1391   0.567   3.292   1.811  2.5755  0.4715  2.1938
   89TMC2    H2 1392   0.734   3.676   1.826 -0.0786 -1.1805 -0.5172
   89TMC2    C7 1393   0.786   3.416   1.793  0.7965  0.0989  0.6558
   89TMC2    C8 1394   0.498   3.808   1.878  0.3543 -0.6853  0.8046
   89TMC2    O1 1395   0.871   3.448   1.877  0.2553  0.0826 -0.1413
   89TMC2    O2 1396   0.560   3.871   1.963  0.0287 -0.0089 -0.0873
   89TMC2    O5 1397   0.393   3.850   1.808 -0.0750  0.3707  0.7029
   89TMC2    H5 1398   0.353   3.777   1.755  0.5489  0.8337 -0.4193
   90MPD2     C 1399   0.114   2.913   1.869  0.5071 -0.4305  0.2633
   90MPD2    C1 1400   0.051   3.029   1.824  0.2720 -0.1360 -0.4276
   90MPD2    C2 1401   0.126   3.145   1.810  0.8536  0.3277  0.2750
   90MPD2    C3 1402   0.257   3.136   1.848 -0.4779 -0.1603 -0.1681
   90MPD2    C4 1403   0.320   3.017   1.869 -0.2899  0.1577  0.1866
   90MPD2    C5 1404   0.250   2.904   1.876  0.7088 -0.0633  0.1057
   90MPD2     H 1405   0.071   3.236   1.790 -0.1060 -0.5932 -1.3252
   90MPD2    H1 1406   0.425   3.013   1.895 -0.6654 -2.6924  1.2411
   90MPD2    H2 1407   0.062   2.819   1.884  2.0786 -1.3407  0.0060
   90MPD2    H3 1408   0.302   2.819   1.917  0.9948  0.2392  0.3709
   90MPD2     N 1409   0.338   3.250   1.857 -0.0280  0.2083 -0.5399
   90MPD2    H5 1410   0.437   3.228   1.861  0.3097  1.9816  0.6356
   90MPD2    N1 1411   4.654   3.046   1.785  0.0634 -0.0560  1.8881
   90MPD2    H7 1412   4.627   3.143   1.797 -1.1269 -0.2976  1.1829
   91TMC2    C1 1413   0.462   2.521  16.350  0.0830 -0.0080 -0.3105
   91TMC2    C2 1414   0.494   2.400  16.401 -0.8754 -0.1342  0.5758
   91TMC2    C3 1415   0.394   2.310  16.439  0.4408  0.4901 -0.1209
   91TMC2    C4 1416   0.335   2.554  16.325 -0.6728 -0.3118 -0.4186
   91TMC2    C5 1417   0.236   2.465  16.370 -0.7202 -0.3403 -0.4023
   91TMC2    C6 1418   0.265   2.343  16.433 -0.1595  0.3118 -0.2053
   91TMC2     C 1419   0.561   2.602  16.294 -0.6918  0.7471 -0.0871
   91TMC2     O 1420   0.528   2.700  16.225  0.4415  0.2647  0.0036
   91TMC2     H 1421   0.596   2.365  16.409  0.2406  2.8697 -0.2473
   91TMC2    H1 1422   0.298   2.651  16.293 -3.2182 -1.2748 -0.3813
   91TMC2    H2 1423   0.182   2.289  16.479  0.9957  0.6190  2.2523
   91TMC2    C7 1424   0.101   2.491  16.334  0.4785  0.1657 -0.5318
   91TMC2    C8 1425   0.446   2.183  16.505 -0.5157 -0.1674 -0.0193
   91TMC2    O1 1426   0.058   2.603  16.302  0.3293 -0.2305 -0.5113
   91TMC2    O2 1427   0.565   2.162  16.524 -0.2551  0.0821 -0.1975
   91TMC2    O5 1428   0.343   2.100  16.537  0.4902  0.0289  0.6710
   91TMC2    H5 1429   0.256   2.116  16.496  1.6513  1.9499 -1.0770
   92MPD2     C 1430   0.818   2.769  16.249  0.3307  0.2613  0.2852
   92MPD2    C1 1431   0.809   2.643  16.312 -0.0227  0.3196  0.3219
   92MPD2    C2 1432   0.928   2.584  16.345  0.5287 -0.2648 -0.7192
   92MPD2    C3 1433   1.050   2.636  16.314  0.1724 -0.0515  0.7647
   92MPD2    C4 1434   1.062   2.754  16.237  0.0769 -0.1336 -0.9548
   92MPD2    C5 1435   0.945   2.814  16.209 -0.1889 -0.0389 -0.3503
   92MPD2     H 1436   0.927   2.488  16.394 -0.4391  0.9208  1.5805
   92MPD2    H1 1437   1.153   2.806  16.210  0.4352  0.3607  1.1783
   92MPD2    H2 1438   0.733   2.829  16.222  0.0505 -0.2115  0.1041
   92MPD2    H3 1439   0.943   2.907  16.154  1.2832 -0.3334 -0.8989
   92MPD2     N 1440   1.166   2.564  16.356 -0.4343  0.6712  0.1312
   92MPD2    H5 1441   1.154   2.472  16.397 -0.0568  0.5159 -0.0981
   92MPD2    N1 1442   0.688   2.568  16.341 -0.2518 -0.8637 -0.7669
   92MPD2    H7 1443   0.702   2.482  16.393  2.1705 -0.7035 -1.1368
   93TMC2    C1 1444   2.903   2.657  14.140 -0.5483  0.1878 -0.0410
   93TMC2    C2 1445   2.854   2.758  14.069  0.7730  0.3629  1.0811
   93TMC2    C3 1446   2.912   2.795  13.955  0.5855 -0.6316  0.0683
   93TMC2    C4 1447   3.020   2.600  14.096 -0.3115  0.1482 -0.1781
   93TMC2    C5 1448   3.074   2.629  13.973 -0.4438 -0.1537  0.1912
   93TMC2    C6 1449   3.015   2.730  13.905  0.3937 -0.2345  0.1037
   93TMC2     C 1450   2.821   2.573  14.226  0.9447 -0.6454 -0.7197
   93TMC2     O 1451   2.870   2.515  14.319  0.4650 -0.3998 -0.3441
   93TMC2     H 1452   2.764   2.807  14.104 -2.1363 -2.8753 -1.8176
   93TMC2    H1 1453   3.047   2.511  14.152 -1.8661 -0.1605  0.0933
   93TMC2    H2 1454   3.039   2.733  13.799 -0.6102 -2.0513 -0.1716
   93TMC2    C7 1455   3.221   2.618  13.963 -0.5248 -0.0007 -0.0407
   93TMC2    C8 1456   2.807   2.827  13.863  0.4133 -0.7137  0.5500
   93TMC2    O1 1457   3.272   2.518  14.014 -0.1315 -0.8832 -0.4255
   93TMC2    O2 1458   2.690   2.794  13.886 -0.6947 -0.3276 -0.3402
   93TMC2    O5 1459   2.857   2.859  13.740  0.3095  0.4641  0.4154
   93TMC2    H5 1460   2.950   2.890  13.741  0.5773 -0.2665 -1.5632
   94MPD2     C 1461   2.582   2.453  14.367  0.1041  0.5576 -0.6312
   94MPD2    C1 1462   2.584   2.539  14.260 -0.0041 -0.9092  0.4019
   94MPD2    C2 1463   2.466   2.581  14.205 -0.9011 -0.1753  0.1052
   94MPD2    C3 1464   2.344   2.555  14.261 -0.6013  0.3595 -0.0269
   94MPD2    C4 1465   2.341   2.463  14.367  0.3337 -0.0398  0.1418
   94MPD2    C5 1466   2.460   2.419  14.423 -0.1648  0.9468  0.4422
   94MPD2     H 1467   2.469   2.654  14.125  0.3524 -1.1880 -0.7709
   94MPD2    H1 1468   2.251   2.439  14.422 -0.8880 -1.9242 -2.6575
   94MPD2    H2 1469   2.676   2.416  14.404 -0.8520 -1.5724 -0.3300
   94MPD2    H3 1470   2.449   2.361  14.514 -4.0685  1.2908  0.1761
   94MPD2     N 1471   2.233   2.602  14.197  0.5802 -0.0384 -0.1778
   94MPD2    H5 1472   2.251   2.670  14.124 -0.7024 -1.0882 -1.4767
   94MPD2    N1 1473   2.695   2.583  14.185  0.6447  0.1049 -0.1777
   94MPD2    H7 1474   2.683   2.634  14.098  0.9070 -1.2329 -0.9998
   95TMC2    C1 1475   3.060   3.481  16.108  0.0255  0.4882 -1.1391
   95TMC2    C2 1476   3.095   3.355  16.141 -0.8426 -0.5832  0.2849
   95TMC2    C3 1477   3.091   3.327  16.270  0.2073  0.4249 -0.3338
   95TMC2    C4 1478   2.991   3.559  16.196  0.7686 -0.1088  0.2317
   95TMC2    C5 1479   2.969   3.515  16.326 -0.1793 -0.1047  0.5039
   95TMC2    C6 1480   3.023   3.395  16.363 -0.0726  0.2696  0.2688
   95TMC2     C 1481   3.134   3.551  16.002 -0.2214 -0.1575 -0.0673
   95TMC2     O 1482   3.174   3.667  16.017 -0.0124  0.2336  0.1802
   95TMC2     H 1483   3.163   3.300  16.078  1.7496 -0.7826  3.2441
   95TMC2    H1 1484   2.947   3.655  16.174 -1.3449 -1.0661  0.2612
   95TMC2    H2 1485   3.013   3.362  16.466 -1.0380 -0.2272  0.0198
   95TMC2    C7 1486   2.943   3.606  16.433 -0.2019  0.0468  0.1892
   95TMC2    C8 1487   3.099   3.184  16.297 -0.1539 -0.2651  0.0278
   95TMC2    O1 1488   2.991   3.573  16.537 -0.0004 -0.3274  0.2478
   95TMC2    O2 1489   3.112   3.135  16.408  0.0276 -0.1376  1.0362
   95TMC2    O5 1490   3.033   3.127  16.192 -0.2634  0.0034  0.1623
   95TMC2    H5 1491   3.004   3.198  16.131  0.8542 -1.0096 -1.5455
   96MPD2     C 1492   3.342   3.570  15.531 -0.5740 -0.1646  0.4838
   96MPD2    C1 1493   3.333   3.669  15.628  0.0116  0.5208 -1.0107
   96MPD2    C2 1494   3.262   3.640  15.743 -0.0990 -0.0612 -0.0673
   96MPD2    C3 1495   3.210   3.515  15.768  0.5004 -0.7890  0.1804
   96MPD2    C4 1496   3.209   3.424  15.672 -0.1278  0.0573 -0.0814
   96MPD2    C5 1497   3.268   3.452  15.547 -0.2032 -0.2622 -0.4593
   96MPD2     H 1498   3.241   3.716  15.818  2.1780  0.7540 -0.2666
   96MPD2    H1 1499   3.165   3.325  15.677 -2.0263  1.0278  2.1325
   96MPD2    H2 1500   3.382   3.584  15.431 -2.6454 -1.0929 -0.4717
   96MPD2    H3 1501   3.267   3.380  15.466  0.3608 -0.1456 -0.5748
   96MPD2     N 1502   3.150   3.472  15.891 -0.5139  0.4247  0.6099
   96MPD2    H5 1503   3.099   3.384  15.890  2.1855 -1.1522  1.0526
   96MPD2    N1 1504   3.386   3.797  15.592  0.1513 -0.2572 -0.0336
   96MPD2    H7 1505   3.444   3.815  15.511 -0.1506 -1.0571 -0.4308
   97TMC2    C1 1506   0.148   1.238   1.195  0.6469 -0.6063  0.1287
   97TMC2    C2 1507   0.164   1.104   1.157 -1.0470  0.2123 -0.8928
   97TMC2    C3 1508   0.205   1.079   1.027  0.0882  0.1209  0.1152
   97TMC2    C4 1509   0.169   1.342   1.104 -0.2179  0.4450 -0.1649
   97TMC2    C5 1510   0.215   1.309   0.985 -0.2550 -0.9268  0.5518
   97TMC2    C6 1511   0.226   1.178   0.938  0.2037 -0.4628 -0.1254
   97TMC2     C 1512   0.054   1.274   1.294  0.1102  0.0030 -0.6473
   97TMC2     O 1513   0.045   1.393   1.318  0.2254  0.6628 -0.0496
   97TMC2     H 1514   0.146   1.019   1.223  0.4792  1.0412  0.5892
   97TMC2    H1 1515   0.176   1.447   1.126  1.2595  0.3424 -0.1562
   97TMC2    H2 1516   0.263   1.163   0.837  1.2422  3.8305 -0.3688
   97TMC2    C7 1517   0.284   1.413   0.907  0.4256 -0.6312  0.6616
   97TMC2    C8 1518   0.183   0.943   0.984 -0.2799  0.4530  0.1153
   97TMC2    O1 1519   0.334   1.506   0.972  0.0872  0.0347  0.2650
   97TMC2    O2 1520   0.099   0.872   1.041  0.2606  0.6693  0.0214
   97TMC2    O5 1521   0.218   0.932   0.856  0.1493  0.1409 -0.3137
   97TMC2    H5 1522   0.311   0.955   0.835  0.4794 -0.2762  0.6931
   98MPD2     C 1523   4.414   1.161   1.624  0.3160 -0.3972 -0.7628
   98MPD2    C1 1524   4.472   1.281   1.593  0.1614 -0.1469  0.2030
   98MPD2    C2 1525   4.574   1.291   1.498 -0.7810  0.5734 -0.4700
   98MPD2    C3 1526   4.612   1.173   1.432 -0.4833 -0.8255  0.1232
   98MPD2    C4 1527   4.545   1.059   1.458  0.4892 -0.5389  0.2343
   98MPD2    C5 1528   4.456   1.045   1.559  0.1727  0.2195 -0.1681
   98MPD2     H 1529   4.618   1.383   1.462 -0.2341 -0.1959 -1.7747
   98MPD2    H1 1530   4.559   0.968   1.400 -0.9981 -1.1822  0.8695
   98MPD2    H2 1531   4.341   1.158   1.704  1.3966 -1.2084  0.1923
   98MPD2    H3 1532   4.411   0.951   1.588  0.2493  0.3717  0.4396
   98MPD2     N 1533   4.710   1.167   1.331 -0.5475 -0.2404 -0.0539
   98MPD2    H5 1534   4.725   1.074   1.292  1.0927  0.2518 -0.6039
   98MPD2    N1 1535   4.449   1.389   1.681  0.4424  0.4067 -0.2815
   98MPD2    H7 1536   4.382   1.367   1.755  0.8027 -0.3458 -0.1788
   99TMC2    C1 1537   4.384   3.631   1.873 -0.2710 -0.1160 -0.8062
   99TMC2    C2 1538   4.387   3.630   2.009 -0.0739 -0.0076 -0.7662
   99TMC2    C3 1539   4.273   3.647   2.077 -1.0596 -0.3452 -0.1489
   99TMC2    C4 1540   4.271   3.658   1.798 -0.3839  0.1914  0.0673
   99TMC2    C5 1541   4.153   3.674   1.875  0.6097 -0.5328  0.8254
   99TMC2    C6 1542   4.155   3.674   2.011 -0.0216  0.1476  0.1881
   99TMC2     C 1543   4.509   3.588   1.805  0.4697 -0.3469  0.1756
   99TMC2     O 1544   4.615   3.587   1.865 -0.2322  0.0526 -0.0544
   99TMC2     H 1545   4.479   3.606   2.061  0.0350  2.5825  0.2412
   99TMC2    H1 1546   4.265   3.651   1.690  0.5686  0.3799 -0.0024
   99TMC2    H2 1547   4.067   3.710   2.064  1.0085  2.6761  0.1702
   99TMC2    C7 1548   4.026   3.708   1.808  0.1803  0.3225 -0.3885
   99TMC2    C8 1549   4.288   3.680   2.219  0.4540  0.6434 -0.5418
   99TMC2    O1 1550   3.953   3.803   1.843  0.2389 -0.5071 -0.0111
   99TMC2    O2 1551   4.402   3.694   2.268 -0.3901  0.0759  0.0327
   99TMC2    O5 1552   4.190   3.610   2.281 -0.9936  0.5740  0.1722
   99TMC2    H5 1553   4.116   3.583   2.223  0.2361 -2.0907 -0.1681
  100MPD2     C 1554   4.715   3.485   1.618 -0.4413 -0.0812  0.1566
  100MPD2    C1 1555   4.575   3.497   1.585  0.3249  0.8945  0.8813
  100MPD2    C2 1556   4.522   3.457   1.465 -0.4600 -0.3242  0.8166
  100MPD2    C3 1557   4.610   3.395   1.376  0.4554  0.1572 -0.2852
  100MPD2    C4 1558   0.008   3.380   1.401 -0.4554 -0.4798  0.0403
  100MPD2    C5 1559   0.060   3.430   1.525 -0.0817 -0.1954 -0.5129
  100MPD2     H 1560   4.417   3.470   1.442  0.2199  1.3774 -1.3985
  100MPD2    H1 1561   0.077   3.341   1.327 -0.9776  0.1716 -0.7936
  100MPD2    H2 1562   0.029   3.519   1.707 -1.7654  0.1381  0.8336
  100MPD2    H3 1563   0.166   3.422   1.550 -0.7225  0.9500  2.6502
  100MPD2     N 1564   4.548   3.366   1.256  0.0636  0.0576 -0.0776
  100MPD2    H5 1565   4.449   3.387   1.249 -0.2556 -0.2445  3.6289
  100MPD2    N1 1566   4.485   3.557   1.675 -0.7226  0.8039  0.1027
  100MPD2    H7 1567   4.388   3.542   1.649 -0.8162  0.3407  0.7160
  101TMC2    C1 1568   4.622   4.491  13.706  0.2201 -0.2161 -0.6634
  101TMC2    C2 1569   4.569   4.541  13.824 -1.0315 -0.7298  0.1774
  101TMC2    C3 1570   4.570   4.672  13.841  0.3861 -0.1118 -0.1501
  101TMC2    C4 1571   4.660   4.580  13.609 -0.1631  0.4313 -0.7684
  101TMC2    C5 1572   4.639   4.715  13.626  0.3622 -0.3634 -0.0069
  101TMC2    C6 1573   4.593   0.022  13.741 -0.4181 -1.2370  0.4090
  101TMC2     C 1574   4.551   4.370  13.654  0.2516 -0.3372  0.3912
  101TMC2     O 1575   4.436   4.362  13.697 -0.4443 -0.5942  0.1858
  101TMC2     H 1576   4.529   4.466  13.891 -1.1518  0.1906  1.1359
  101TMC2    H1 1577   4.678   4.550  13.506  1.3717 -1.0459 -0.0665
  101TMC2    H2 1578   4.574   0.128  13.757 -1.4308 -1.5088  0.9474
  101TMC2    C7 1579   4.622   0.053  13.504 -0.0069 -0.2980 -0.8359
  101TMC2    C8 1580   4.500   4.733  13.960 -0.0085 -0.7057  0.2322
  101TMC2    O1 1581   4.690   0.013  13.408  0.3058  0.2761  0.0561
  101TMC2    O2 1582   4.474   0.113  13.973 -0.2285  0.1900  0.0861
  101TMC2    O5 1583   4.503   4.652  14.066 -0.1213  0.0614  0.2226
  101TMC2    H5 1584   4.564   4.578  14.047 -0.4103  0.5167 -2.5028
  102MPD2     C 1585   4.635   4.172  13.352 -0.3806  0.2176  1.3274
  102MPD2    C1 1586   4.555   4.224  13.459  0.4309 -0.1770  0.1885
  102MPD2    C2 1587   4.417   4.200  13.452 -0.3163  0.0276 -0.5089
  102MPD2    C3 1588   4.362   4.129  13.344  0.7347  0.1048  0.1567
  102MPD2    C4 1589   4.445   4.071  13.252  0.7077 -0.1560 -0.2144
  102MPD2    C5 1590   4.579   4.095  13.256  0.0223 -0.9725 -0.0376
  102MPD2     H 1591   4.361   4.257  13.526  0.3420  0.5783 -0.4306
  102MPD2    H1 1592   4.415   4.001  13.175  3.5490 -0.2442 -1.2686
  102MPD2    H2 1593   0.004   4.193  13.360 -0.1974  0.0419 -0.6318
  102MPD2    H3 1594   4.646   4.047  13.187  1.8774  1.1427  0.3059
  102MPD2     N 1595   4.222   4.115  13.349 -0.3906 -0.7437  0.8038
  102MPD2    H5 1596   4.166   4.154  13.424  0.5235 -0.9780  1.5920
  102MPD2    N1 1597   4.617   4.314  13.548  0.6338  0.3102  0.1044
  102MPD2    H7 1598   4.717   4.328  13.542  0.8866 -0.3749  2.7540
  103TMC2    C1 1599   2.963   0.023  12.608 -1.0527 -0.2908  0.2283
  103TMC2    C2 1600   3.036   4.645  12.616  0.2933  0.5827 -0.9190
  103TMC2    C3 1601   3.156   4.654  12.684 -0.4842 -0.3157 -0.0832
  103TMC2    C4 1602   2.988   0.138  12.673  0.6624  0.0432  0.5110
  103TMC2    C5 1603   3.106   0.145  12.741  0.2908 -0.2390 -0.3763
  103TMC2    C6 1604   3.189   0.033  12.753  0.4306  0.7880 -0.0812
  103TMC2     C 1605   2.853   0.027  12.520 -0.3115 -0.6291 -0.1378
  103TMC2     O 1606   2.767   0.113  12.532  0.5527 -0.1517  0.2206
  103TMC2     H 1607   3.007   4.549  12.576  1.5543  0.2962 -1.1263
  103TMC2    H1 1608   2.920   0.223  12.678 -0.7968 -0.9198 -3.1726
  103TMC2    H2 1609   3.281   0.051  12.806  0.5023  1.8894 -0.5689
  103TMC2    C7 1610   3.116   0.247  12.852  0.3118 -0.1662 -0.1319
  103TMC2    C8 1611   3.252   4.546  12.696  1.0277 -1.2571  0.4392
  103TMC2    O1 1612   3.154   0.205  12.962  0.3701 -0.3279  0.0333
  103TMC2    O2 1613   3.373   4.549  12.681  0.7062  0.4617 -0.0196
  103TMC2    O5 1614   3.164   4.447  12.685  0.6022  0.0535 -0.5861
  103TMC2    H5 1615   3.091   4.469  12.747  1.6171  1.9839 -0.0964
  104MPD2     C 1616   2.823   4.589  12.203  0.2423 -0.4876 -0.2268
  104MPD2    C1 1617   2.775   4.648  12.316 -0.0369  0.1009  0.1765
  104MPD2    C2 1618   2.651   4.700  12.311 -0.2932  0.0318 -0.1649
  104MPD2    C3 1619   2.580   4.707  12.190  0.4971  0.5374  0.0141
  104MPD2    C4 1620   2.643   4.671  12.073  0.4114 -0.6409 -0.4432
  104MPD2    C5 1621   2.761   4.611  12.082  0.3410 -0.4722  0.5272
  104MPD2     H 1622   2.602   0.006  12.397  0.2534 -0.8589  0.5858
  104MPD2    H1 1623   2.595   4.682  11.976  1.3034 -0.1260 -0.8247
  104MPD2    H2 1624   2.924   4.552  12.193 -0.2529 -1.7349 -0.5096
  104MPD2    H3 1625   2.813   4.566  11.998 -2.0215 -0.3659 -0.9806
  104MPD2     N 1626   2.445   0.026  12.197 -0.3543  0.2264 -0.3736
  104MPD2    H5 1627   2.409   0.053  12.288  3.6074  2.6975  0.4359
  104MPD2    N1 1628   2.868   4.666  12.421  0.5464 -0.2037 -0.0642
  104MPD2    H7 1629   2.963   4.631  12.418  0.4101 -0.4908 -1.3240
  105TMC2    C1 1630   4.650   3.448   0.310 -0.4286 -0.2598  0.1110
  105TMC2    C2 1631   4.719   3.420   0.418 -0.5453 -0.2899 -0.7723
  105TMC2    C3 1632   4.647   3.406   0.537 -0.4510  0.3985  0.0490
  105TMC2    C4 1633   4.517   3.470   0.308  0.4555  0.5962  0.5346
  105TMC2    C5 1634   4.455   3.453   0.424  0.1105 -0.0080 -0.0918
  105TMC2    C6 1635   4.517   3.430   0.540  0.7619  0.0052  1.3406
  105TMC2     C 1636   4.719   3.431   0.183  0.4967  0.9702 -0.1134
  105TMC2     O 1637   0.083   3.371   0.188 -0.2887 -0.4154  0.6470
  105TMC2     H 1638   0.088   3.397   0.409 -0.7862 -0.8746 -2.0779
  105TMC2    H1 1639   4.463   3.476   0.214  0.2698  1.6881  0.7068
  105TMC2    H2 1640   4.467   3.433   0.636 -0.8841 -0.0788  0.4757
  105TMC2    C7 1641   4.313   3.460   0.437 -0.2602  0.4789 -0.2042
  105TMC2    C8 1642   4.715   3.438   0.664 -0.1515  0.8433 -0.4389
  105TMC2    O1 1643   4.257   3.370   0.494 -0.3846 -0.8744  0.0642
  105TMC2    O2 1644   4.647   3.496   0.743  0.1513 -0.0677 -0.0977
  105TMC2    O5 1645   0.107   3.434   0.646  0.3070  0.1852 -0.9217
  105TMC2    H5 1646   0.127   3.351   0.598  1.6268  1.2401 -2.2000
  106MPD2     C 1647   0.104   3.541  17.438 -0.3809  0.1988  0.0866
  106MPD2    C1 1648   0.009   3.632  17.483 -0.0322 -0.9467  0.7974
  106MPD2    C2 1649   4.686   3.621  17.610  0.6372  0.5371  0.7255
  106MPD2    C3 1650   4.727   3.516  17.690 -0.2137 -0.1533 -0.1718
  106MPD2    C4 1651   0.084   3.427  17.650 -0.5093 -0.5502  0.1480
  106MPD2    C5 1652   0.150   3.447  17.527  0.8499  0.0329  0.1655
  106MPD2     H 1653   4.624   3.705  17.640 -0.2643 -0.3355  1.3036
  106MPD2    H1 1654   0.129   3.351  17.713 -0.2959 -1.2319 -0.8186
  106MPD2    H2 1655   0.155   3.553  17.343  1.1839  1.5216  1.0861
  106MPD2    H3 1656   0.225   3.381  17.483  0.3784 -1.1799  1.1751
  106MPD2     N 1657   4.680   3.517   0.080 -0.4920 -0.5660  0.4263
  106MPD2    H5 1658   4.622   3.596   0.106 -1.5552 -1.8896  2.0558
  106MPD2    N1 1659   4.702   3.744  17.401 -0.8142  0.0075  0.3736
  106MPD2    H7 1660   4.653   3.822  17.445  4.1960  2.3905  1.6902
  107TMC2    C1 1661   4.384   4.095  11.834 -0.1704  1.1756  0.2712
  107TMC2    C2 1662   4.271   4.169  11.806  0.2732 -0.3038  0.0328
  107TMC2    C3 1663   4.241   4.198  11.670 -0.5418  0.3795  0.2127
  107TMC2    C4 1664   4.473   4.057  11.736 -0.7980 -0.3138 -0.1090
  107TMC2    C5 1665   4.421   4.063  11.611  0.1538  0.4041  0.5793
  107TMC2    C6 1666   4.311   4.136  11.571  0.2192  0.5126  0.0758
  107TMC2     C 1667   4.401   4.089  11.981 -0.6143  0.5033  0.4949
  107TMC2     O 1668   4.344   4.176  12.047  0.8791 -0.3751 -0.0057
  107TMC2     H 1669   4.221   4.231  11.879 -0.4610  0.5769 -1.2208
  107TMC2    H1 1670   4.568   4.011  11.760 -0.3707  0.8945  0.5195
  107TMC2    H2 1671   4.275   4.147  11.470  1.7283 -1.0384 -0.6444
  107TMC2    C7 1672   4.482   3.980  11.505  0.2419  0.3905 -0.2054
  107TMC2    C8 1673   4.121   4.272  11.633  0.1503  0.5894  0.8831
  107TMC2    O1 1674   4.432   3.984  11.393 -0.2102 -0.5183 -0.0673
  107TMC2    O2 1675   4.099   4.277  11.515  0.4604  0.0736  0.1218
  107TMC2    O5 1676   4.032   4.258  11.732  0.3415  0.7974  0.0489
  107TMC2    H5 1677   4.068   4.241  11.822 -1.8859 -1.5369  0.4760
  108MPD2     C 1678   4.631   3.895  12.162 -0.4806 -0.1032 -0.5058
  108MPD2    C1 1679   4.511   3.953  12.153  0.3442  0.4442 -0.5939
  108MPD2    C2 1680   4.429   3.982  12.263  0.7483 -0.6458 -0.0409
  108MPD2    C3 1681   4.470   3.942  12.390  0.0507 -0.6367  0.1612
  108MPD2    C4 1682   4.592   3.878  12.403  0.7967  0.2977  0.6886
  108MPD2    C5 1683   4.672   3.861  12.291 -0.5556 -0.2607 -0.1321
  108MPD2     H 1684   4.324   4.006  12.250  0.7296 -0.1336  1.1022
  108MPD2    H1 1685   4.633   3.845  12.498 -1.1823 -1.4301  0.9219
  108MPD2    H2 1686   4.697   3.880  12.077  0.2948 -1.9943  0.4441
  108MPD2    H3 1687   0.037   3.823  12.294 -0.6575 -0.4605  0.6652
  108MPD2     N 1688   4.384   3.941  12.501 -0.3097  0.0692 -0.9557
  108MPD2    H5 1689   4.422   3.885  12.577 -0.4666 -0.0066 -0.9334
  108MPD2    N1 1690   4.478   3.980  12.022  0.2893 -0.1088 -0.2161
  108MPD2    H7 1691   4.515   3.917  11.951 -0.6724 -0.4683 -0.4068
  109TMC2    C1 1692   3.986   1.020   2.602  0.6144  0.6756  0.0230
  109TMC2    C2 1693   4.010   1.018   2.738 -0.3698 -0.1902  0.3316
  109TMC2    C3 1694   4.048   1.136   2.797 -0.5602 -0.3320  0.7017
  109TMC2    C4 1695   4.039   1.121   2.529 -0.5546 -0.5484  0.6398
  109TMC2    C5 1696   4.088   1.235   2.590  0.0574 -0.4241  0.4357
  109TMC2    C6 1697   4.093   1.244   2.725 -0.5987  0.1553 -0.5865
  109TMC2     C 1698   3.915   0.908   2.544 -0.1479 -0.0084  0.0442
  109TMC2     O 1699   3.847   0.843   2.626  0.4179  0.3946 -0.5230
  109TMC2     H 1700   3.972   0.933   2.794  1.6493 -1.7318 -0.6142
  109TMC2    H1 1701   4.022   1.118   2.422  3.6690  2.0077 -0.1030
  109TMC2    H2 1702   4.115   1.339   2.774  2.6096  0.0399 -1.8050
  109TMC2    C7 1703   4.172   1.325   2.512 -0.0622  0.7159  0.5713
  109TMC2    C8 1704   4.050   1.135   2.944  0.4521 -0.0846 -0.4263
  109TMC2    O1 1705   4.161   1.311   2.391 -0.4518  0.6165  0.1356
  109TMC2    O2 1706   3.981   1.049   3.004 -0.1794 -0.0342 -0.1963
  109TMC2    O5 1707   4.155   1.204   2.996 -0.0676 -0.2454 -0.2259
  109TMC2    H5 1708   4.209   1.250   2.928 -0.6019  0.3356 -0.2664
  110MPD2     C 1709   3.786   0.568   2.169  0.7792 -0.0242 -0.3906
  110MPD2    C1 1710   3.864   0.664   2.122  0.2154  0.3447 -0.5457
  110MPD2    C2 1711   3.918   0.770   2.196  0.5386  0.5460 -0.0228
  110MPD2    C3 1712   3.884   0.773   2.329  0.0026 -0.0953 -0.0624
  110MPD2    C4 1713   3.795   0.681   2.374 -0.1162 -0.0990  0.7633
  110MPD2    C5 1714   3.747   0.581   2.299  0.1558  0.2429 -0.3079
  110MPD2     H 1715   3.995   0.837   2.159 -0.5784  0.8936 -1.7554
  110MPD2    H1 1716   3.758   0.670   2.475  0.5170 -1.2221  0.8698
  110MPD2    H2 1717   3.765   0.479   2.110 -3.1531  0.0498  0.8752
  110MPD2    H3 1718   3.684   0.504   2.341 -0.2887 -0.8435 -2.9731
  110MPD2     N 1719   3.943   0.879   2.409 -0.3247  0.7173 -0.3093
  110MPD2    H5 1720   4.020   0.926   2.363  0.2984  0.5614  0.5771
  110MPD2    N1 1721   3.905   0.633   1.989  0.4778  0.6030 -0.4215
  110MPD2    H7 1722   3.867   0.550   1.945  2.2968  0.3349 -1.4749
  111TMC2    C1 1723   4.552   1.295  12.178  0.5200  0.7470 -0.4548
  111TMC2    C2 1724   4.454   1.357  12.253 -0.1492 -0.5664  0.3325
  111TMC2    C3 1725   4.441   1.324  12.385 -0.3452 -0.3429  0.0511
  111TMC2    C4 1726   4.637   1.202  12.233 -0.1593 -0.1632 -0.3551
  111TMC2    C5 1727   4.626   1.186  12.372 -0.0360  0.2784 -0.1889
  111TMC2    C6 1728   4.535   1.245  12.452 -0.6323 -0.8881  0.3283
  111TMC2     C 1729   4.553   1.315  12.034 -0.3461 -0.7429 -0.7858
  111TMC2     O 1730   4.450   1.339  11.976  0.5502 -0.0684 -0.2130
  111TMC2     H 1731   4.386   1.434  12.219  2.5641  2.3105  1.4832
  111TMC2    H1 1732   4.690   1.134  12.167  0.4285 -0.8632  0.8347
  111TMC2    H2 1733   4.538   1.229  12.559 -0.8429  0.3958  0.5281
  111TMC2    C7 1734   4.697   1.070  12.423  0.4312  0.2622  0.3423
  111TMC2    C8 1735   4.328   1.381  12.451 -0.3280  0.3932  0.0651
  111TMC2    O1 1736   4.666   1.037  12.536  0.1307  0.6746 -0.8903
  111TMC2    O2 1737   4.293   1.492  12.426  0.2321  0.3381  0.8918
  111TMC2    O5 1738   4.295   1.307  12.555  0.3167  0.3036  0.1160
  111TMC2    H5 1739   4.325   1.214  12.556  1.3491  0.6255 -0.3694
  112MPD2     C 1740   0.071   1.226  11.592 -0.4870 -0.5852 -0.2481
  112MPD2    C1 1741   4.675   1.230  11.610 -0.2875  0.0674  0.0792
  112MPD2    C2 1742   4.627   1.259  11.737  1.0891  0.2465  0.2580
  112MPD2    C3 1743   4.717   1.267  11.847  0.0145  0.0445 -1.2464
  112MPD2    C4 1744   0.120   1.259  11.817 -0.2019  0.1462 -0.0800
  112MPD2    C5 1745   0.156   1.241  11.688  0.7933 -0.4154  0.2956
  112MPD2     H 1746   4.521   1.266  11.758  0.4480 -2.7812 -2.0654
  112MPD2    H1 1747   0.199   1.255  11.890 -0.3260 -1.4808 -0.0360
  112MPD2    H2 1748   0.117   1.205  11.496  0.7350 -2.3210  0.7101
  112MPD2    H3 1749   0.260   1.247  11.661  0.4160  0.1140 -1.0325
  112MPD2     N 1750   4.676   1.281  11.983 -0.7312  0.7264  0.0625
  112MPD2    H5 1751   0.015   1.284  12.051 -1.0355 -0.6192  0.4640
  112MPD2    N1 1752   4.577   1.192  11.515  0.3680 -0.1600  0.4991
  112MPD2    H7 1753   4.484   1.230  11.528  0.6777  0.8417 -0.2380
  113TMC2    C1 1754   2.780   3.402   0.408  0.6748  0.3973 -0.7088
  113TMC2    C2 1755   2.649   3.439   0.398 -0.8857  0.4604 -0.4074
  113TMC2    C3 1756   2.559   3.343   0.415 -0.4507 -0.3831  0.0893
  113TMC2    C4 1757   2.818   3.270   0.417 -0.4365  0.6149  1.2263
  113TMC2    C5 1758   2.714   3.173   0.416  0.1497  0.3532  0.0855
  113TMC2    C6 1759   2.583   3.214   0.426  0.0717  0.0274  0.0704
  113TMC2     C 1760   2.868   3.506   0.458  0.9046 -0.1866  0.1181
  113TMC2     O 1761   2.813   3.602   0.512 -0.0636 -0.3683  0.3025
  113TMC2     H 1762   2.617   3.543   0.389  0.8969  0.8209 -2.5864
  113TMC2    H1 1763   2.919   3.232   0.425  0.4347  2.5698 -0.6662
  113TMC2    H2 1764   2.498   3.148   0.425 -1.1446  1.6230 -2.9098
  113TMC2    C7 1765   2.755   3.042   0.460  0.2983  0.4020 -0.1054
  113TMC2    C8 1766   2.426   3.396   0.415 -0.5675 -0.4258  0.0564
  113TMC2    O1 1767   2.857   2.999   0.413 -0.0424 -0.2250 -0.0421
  113TMC2    O2 1768   2.373   3.476   0.343  0.1714  0.5959 -0.1114
  113TMC2    O5 1769   2.359   3.352   0.522  0.1170  0.5275 -0.0085
  113TMC2    H5 1770   2.409   3.306   0.592  1.7930  0.5595 -1.2047
  114MPD2     C 1771   3.272   3.610   0.743  0.3518 -0.4663 -0.3551
  114MPD2    C1 1772   3.200   3.697   0.660  0.3677  0.4075 -0.0190
  114MPD2    C2 1773   3.102   3.648   0.585  0.0252 -0.1139  0.4160
  114MPD2    C3 1774   3.087   3.512   0.580 -0.3386 -0.1086 -0.6138
  114MPD2    C4 1775   3.162   3.421   0.654 -0.2655 -0.4169 -0.1053
  114MPD2    C5 1776   3.262   3.473   0.732  0.3539 -0.2253 -0.0650
  114MPD2     H 1777   3.025   3.707   0.538 -0.2850  0.3088  1.4625
  114MPD2    H1 1778   3.142   3.315   0.647 -0.4461 -0.3971  0.1289
  114MPD2    H2 1779   3.331   3.646   0.827 -0.7919  1.1632 -0.2584
  114MPD2    H3 1780   3.317   3.403   0.793 -0.8049  0.8340  2.2129
  114MPD2     N 1781   2.995   3.450   0.497 -0.1733  0.2981 -0.0125
  114MPD2    H5 1782   3.023   3.359   0.463 -1.7275 -0.7317  1.4797
  114MPD2    N1 1783   3.217   3.839   0.661  0.2943 -0.3275  0.2168
  114MPD2    H7 1784   3.156   3.893   0.601  0.5862 -0.8275 -0.5322
  115TMC2    C1 1785   3.586   0.752   0.178 -0.1909  0.0760  0.2879
  115TMC2    C2 1786   3.688   0.659   0.204  0.2035  0.0578 -0.1956
  115TMC2    C3 1787   3.793   0.702   0.286  0.1789 -0.3483  0.2153
  115TMC2    C4 1788   3.594   0.887   0.211  0.2068 -1.3659 -0.3308
  115TMC2    C5 1789   3.691   0.920   0.300  0.0498  0.2741 -0.2199
  115TMC2    C6 1790   3.796   0.837   0.333 -0.5643 -0.3707 -0.3063
  115TMC2     C 1791   3.470   0.695   0.120  0.2205 -0.4519 -0.0456
  115TMC2     O 1792   3.471   0.572   0.141 -0.3079  0.3248 -0.3495
  115TMC2     H 1793   3.693   0.567   0.148  0.6397  0.1872 -0.3672
  115TMC2    H1 1794   3.516   0.961   0.195  1.6955  0.2159 -0.2038
  115TMC2    H2 1795   3.874   0.870   0.401  1.1402  0.7691 -2.8031
  115TMC2    C7 1796   3.714   1.058   0.339  0.4267 -0.1151  0.0970
  115TMC2    C8 1797   3.913   0.628   0.259  0.4511 -0.3197 -0.4775
  115TMC2    O1 1798   3.750   1.079   0.452  0.2034 -0.4885  0.2632
  115TMC2    O2 1799   3.948   0.619   0.141  0.1993  0.0490 -0.6384
  115TMC2    O5 1800   3.997   0.666   0.357  0.9452 -0.0323  0.1311
  115TMC2    H5 1801   3.965   0.645   0.447 -2.3979 -1.9685 -1.5224
  116MPD2     C 1802   3.034   0.697  17.598 -0.0512 -0.3444  0.5265
  116MPD2    C1 1803   3.119   0.599  17.628 -0.3564  0.9684  0.7663
  116MPD2    C2 1804   3.239   0.630  17.701 -0.2011  0.4905  0.8478
  116MPD2    C3 1805   3.261   0.760  17.741 -0.1716  0.4333 -0.1108
  116MPD2    C4 1806   3.177   0.860  17.708  0.0038 -0.1505 -0.3841
  116MPD2    C5 1807   3.062   0.825  17.636 -1.2479  0.4092 -0.5037
  116MPD2     H 1808   3.316   0.553  17.709 -0.6156  0.1931  2.0048
  116MPD2    H1 1809   3.188   0.964  17.738 -1.3151  0.6542 -2.6094
  116MPD2    H2 1810   2.939   0.682  17.549 -0.3419  1.5900  0.5376
  116MPD2    H3 1811   2.995   0.904  17.605 -2.1127  0.3938  1.3578
  116MPD2     N 1812   3.383   0.788   0.061  0.0120 -0.4397 -0.0530
  116MPD2    H5 1813   3.397   0.889   0.063  0.0609 -0.4045 -2.4530
  116MPD2    N1 1814   3.083   0.473  17.582 -0.7935 -0.5980  0.0787
  116MPD2    H7 1815   3.008   0.475  17.514 -0.7874 -1.7397  0.0404
  117TMC2    C1 1816   1.852   2.885  14.312 -0.4741 -0.0855  0.6454
  117TMC2    C2 1817   1.864   2.826  14.428 -0.5496 -0.8340  0.3155
  117TMC2    C3 1818   1.969   2.847  14.509  0.4149 -0.1485  0.4305
  117TMC2    C4 1819   1.943   2.984  14.274  0.2374 -0.1080 -0.1300
  117TMC2    C5 1820   2.030   3.025  14.369 -0.9276  0.1205 -0.0544
  117TMC2    C6 1821   2.053   2.952  14.481  0.7150 -0.3697 -0.3104
  117TMC2     C 1822   1.774   2.822  14.202  0.6550 -0.8538  0.0163
  117TMC2     O 1823   1.729   2.714  14.233 -0.1933 -0.4635 -0.0637
  117TMC2     H 1824   1.789   2.752  14.454 -0.5261 -0.6146  1.0148
  117TMC2    H1 1825   1.936   3.047  14.186 -1.9838  1.8720  1.4673
  117TMC2    H2 1826   2.126   2.981  14.555  0.0168 -1.5179  0.8201
  117TMC2    C7 1827   2.076   3.161  14.374 -0.2444  0.3165 -0.3141
  117TMC2    C8 1828   1.987   2.784  14.639  0.1389  0.2496 -0.1062
  117TMC2    O1 1829   2.182   3.185  14.424  0.4851 -0.7216 -0.4202
  117TMC2    O2 1830   2.069   2.823  14.720  0.8927  0.4284  0.1717
  117TMC2    O5 1831   1.955   2.652  14.626 -0.2181 -0.2000 -0.4150
  117TMC2    H5 1832   1.898   2.630  14.549 -0.3610  2.2378 -0.9842
  118MPD2     C 1833   1.878   3.455  14.276 -0.3321  0.4766  0.0142
  118MPD2    C1 1834   1.988   3.386  14.330 -0.1554 -0.1961  0.4656
  118MPD2    C2 1835   2.092   3.460  14.374 -0.3766 -0.8923  0.3082
  118MPD2    C3 1836   2.091   3.598  14.371 -0.5152  0.9993 -0.2037
  118MPD2    C4 1837   1.979   3.662  14.318  0.3362  0.0386  0.2304
  118MPD2    C5 1838   1.874   3.591  14.267 -0.4642 -0.1845 -0.3024
  118MPD2     H 1839   2.181   3.413  14.416 -0.0125 -1.0092 -0.6008
  118MPD2    H1 1840   1.985   3.770  14.306  0.9111 -0.0980 -0.7855
  118MPD2    H2 1841   1.788   3.405  14.244  0.5139 -0.4201 -0.9541
  118MPD2    H3 1842   1.802   3.638  14.201  0.5027  1.5712 -0.0972
  118MPD2     N 1843   2.206   3.675  14.404 -0.3969  0.2622 -0.8430
  118MPD2    H5 1844   2.186   3.773  14.416  1.1937  0.7520 -2.2760
  118MPD2    N1 1845   1.981   3.248  14.321 -0.2456  0.5227  0.0942
  118MPD2    H7 1846   1.904   3.212  14.265  1.1715  1.1478 -2.2530
  119TMC2    C1 1847   0.189   3.870  13.385  0.0372  0.9002  0.0155
  119TMC2    C2 1848   0.186   3.866  13.251 -0.0517 -0.8451 -0.1936
  119TMC2    C3 1849   0.084   3.807  13.192  0.2475 -0.5282  0.4348
  119TMC2    C4 1850   0.089   3.817  13.463  0.2030 -0.7902 -0.4540
  119TMC2    C5 1851   4.716   3.766  13.398  0.1209 -0.1179 -0.3537
  119TMC2    C6 1852   4.711   3.765  13.260  0.0232  0.6850 -0.5635
  119TMC2     C 1853   0.245   3.981  13.451  0.0318  0.3241 -0.1874
  119TMC2     O 1854   0.175   4.023  13.541 -0.2265 -0.2321  0.3113
  119TMC2     H 1855   0.255   3.933  13.200  0.9248 -1.4904  0.2693
  119TMC2    H1 1856   0.089   3.793  13.569  1.0395  1.2553 -0.0097
  119TMC2    H2 1857   4.627   3.720  13.209  0.5619  0.4803 -1.2681
  119TMC2    C7 1858   4.593   3.726  13.460  0.1893 -0.2450 -0.3706
  119TMC2    C8 1859   0.072   3.803  13.048  0.8716 -0.3383 -0.4782
  119TMC2    O1 1860   4.490   3.734  13.397 -0.2569  0.3976 -0.1107
  119TMC2    O2 1861   4.711   3.829  12.977 -0.1443  0.3751 -0.0010
  119TMC2    O5 1862   0.197   3.806  13.001  0.2377  0.0344 -0.0405
  119TMC2    H5 1863   0.270   3.783  13.063  0.6650 -0.7023 -0.8092
  120MPD2     C 1864   0.654   4.204  13.630 -0.1962  0.1987  0.6943
  120MPD2    C1 1865   0.527   4.190  13.685  0.6513 -0.5156  0.2333
  120MPD2    C2 1866   0.434   4.136  13.603 -0.7992  0.4363  0.2433
  120MPD2    C3 1867   0.465   4.093  13.481 -0.1979  0.2173 -0.4476
  120MPD2    C4 1868   0.591   4.111  13.428 -0.2311 -0.5876  0.1056
  120MPD2    C5 1869   0.695   4.163  13.504  0.1088 -0.3527  0.1062
  120MPD2     H 1870   0.337   4.123  13.649 -0.9225 -1.5162 -0.5703
  120MPD2    H1 1871   0.621   4.084  13.328 -1.4178 -3.5245  0.5511
  120MPD2    H2 1872   0.734   4.239  13.693  0.9206 -1.4681  0.2072
  120MPD2    H3 1873   0.798   4.168  13.472  0.9085  1.5670  2.9360
  120MPD2     N 1874   0.370   4.020  13.404 -0.2803  0.3908 -0.1770
  120MPD2    H5 1875   0.413   3.976  13.323  0.0394  1.2346 -0.4637
  120MPD2    N1 1876   0.504   4.216  13.821 -0.3401  0.0055 -0.1644
  120MPD2    H7 1877   0.580   4.241  13.883 -1.4770 -0.5661  1.4565
  121TMC2    C1 1878   1.550   0.980  13.945 -0.4424 -0.2986  0.0173
  121TMC2    C2 1879   1.663   0.908  13.955 -0.0556 -0.4756 -0.1288
  121TMC2    C3 1880   1.660   0.773  13.936 -0.0228  0.1504  0.4558
  121TMC2    C4 1881   1.432   0.916  13.904  0.3171  0.4698 -0.0092
  121TMC2    C5 1882   1.439   0.791  13.858 -0.2715 -0.0538  0.4760
  121TMC2    C6 1883   1.547   0.712  13.893  0.3603 -0.3976  0.2448
  121TMC2     C 1884   1.561   1.132  13.949  0.3235  0.1302 -0.1128
  121TMC2     O 1885   1.462   1.200  13.983 -0.4275 -0.4927  0.4934
  121TMC2     H 1886   1.757   0.951  13.986  0.8161 -1.9469 -0.7410
  121TMC2    H1 1887   1.341   0.974  13.897  0.6830  1.2773  2.0063
  121TMC2    H2 1888   1.535   0.608  13.864 -4.6090  0.0035  0.9129
  121TMC2    C7 1889   1.310   0.736  13.822 -0.1543 -0.0539  0.4583
  121TMC2    C8 1890   1.775   0.692  13.959  0.4458  0.0811 -0.3081
  121TMC2    O1 1891   1.289   0.625  13.869 -0.7237  0.0237  0.5155
  121TMC2    O2 1892   1.770   0.567  13.963 -0.0982  0.2805 -0.6713
  121TMC2    O5 1893   1.889   0.759  13.941 -0.4008 -0.2235  0.6331
  121TMC2    H5 1894   1.861   0.852  13.928 -2.0192 -0.8407 -0.3041
  122MPD2     C 1895   1.662   1.423  13.968 -0.0094 -0.1643  0.9334
  122MPD2    C1 1896   1.720   1.314  13.899 -0.1413  0.4092  0.1700
  122MPD2    C2 1897   1.833   1.339  13.831 -0.1040 -0.3539 -0.4631
  122MPD2    C3 1898   1.880   1.466  13.821 -0.1773  0.4893 -0.5054
  122MPD2    C4 1899   1.814   1.572  13.873 -0.1487 -0.2371  0.7748
  122MPD2    C5 1900   1.705   1.549  13.950  0.3485  0.7655  0.0136
  122MPD2     H 1901   1.876   1.259  13.773  0.5754  0.2323 -0.7649
  122MPD2    H1 1902   1.859   1.670  13.883  0.3096 -0.2381 -1.4420
  122MPD2    H2 1903   1.573   1.413  14.028  1.4223  0.6546  3.1658
  122MPD2    H3 1904   1.663   1.628  14.012 -1.9901 -0.7816  0.3978
  122MPD2     N 1905   2.003   1.498  13.749  0.1875  0.3006  0.7503
  122MPD2    H5 1906   2.031   1.595  13.755  1.6469 -0.1120  0.8903
  122MPD2    N1 1907   1.675   1.181  13.895  0.4771 -0.2002  0.3245
  122MPD2    H7 1908   1.742   1.108  13.873  2.3775  1.5009  0.4041
  123TMC2    C1 1909   4.726   0.030  11.104 -0.1659  0.2023  0.1009
  123TMC2    C2 1910   4.694   0.157  11.144  0.3033 -0.1275  0.1710
  123TMC2    C3 1911   0.050   0.262  11.133  0.7489 -0.3106  0.6147
  123TMC2    C4 1912   0.119   0.003  11.054 -0.1145 -0.1203 -0.1592
  123TMC2    C5 1913   0.205   0.109  11.030  0.5000 -0.5037 -0.3134
  123TMC2    C6 1914   0.171   0.240  11.065  0.2295 -0.3094 -0.9020
  123TMC2     C 1915   4.683   4.676  11.204 -0.1162 -0.2688 -0.7606
  123TMC2     O 1916   4.647   4.719  11.311  0.3143  0.2027 -0.2146
  123TMC2     H 1917   4.603   0.174  11.201 -0.1124  0.2848 -0.6148
  123TMC2    H1 1918   0.161   4.643  11.029 -2.3435 -1.1813  0.1772
  123TMC2    H2 1919   0.238   0.325  11.050 -0.7748  0.5728 -0.4044
  123TMC2    C7 1920   0.302   0.084  10.926  0.4620 -0.5296  0.2521
  123TMC2    C8 1921   0.050   0.392  11.212 -0.7485  0.2342 -0.6765
  123TMC2    O1 1922   0.301   4.715  10.871 -0.0234  0.1849 -0.5333
  123TMC2    O2 1923   0.152   0.439  11.259 -0.1582  0.9106  0.2980
  123TMC2    O5 1924   4.666   0.411  11.264  0.2469 -0.8560 -0.0958
  123TMC2    H5 1925   4.602   0.368  11.204  0.2081 -1.7570  0.5959
  124MPD2     C 1926   4.711   4.185  11.351  0.1357  0.8468  0.0977
  124MPD2    C1 1927   0.022   4.191  11.220 -0.7707  0.2562  0.2152
  124MPD2    C2 1928   0.011   4.314  11.154 -0.2377 -0.0651 -0.5665
  124MPD2    C3 1929   4.692   4.424  11.220 -0.0355 -0.3333 -0.2018
  124MPD2    C4 1930   4.641   4.422  11.350 -0.6140  0.2723 -0.2719
  124MPD2    C5 1931   4.655   4.300  11.412 -0.0075 -0.3739 -0.5109
  124MPD2     H 1932   0.052   4.334  11.055  0.1668  0.4541 -0.2943
  124MPD2    H1 1933   4.592   4.507  11.396 -0.7851  0.2290 -0.3736
  124MPD2    H2 1934   4.716   4.096  11.412 -2.0001 -0.0510 -1.0623
  124MPD2    H3 1935   4.606   4.294  11.508  1.3637 -0.7536  0.1539
  124MPD2     N 1936   4.694   4.545  11.150 -0.4141  0.3462 -0.3639
  124MPD2    H5 1937   4.732   4.544  11.055 -0.5306  1.0568 -0.4206
  124MPD2    N1 1938   0.077   4.078  11.161 -0.1945 -0.0159  0.3806
  124MPD2    H7 1939   0.083   3.998  11.223  0.1423 -0.0224  0.3407
  125TMC2    C1 1940   0.300   1.724   9.526 -0.4653  1.0964 -0.2747
  125TMC2    C2 1941   0.163   1.736   9.522  0.2764  0.0738  0.3939
  125TMC2    C3 1942   0.102   1.707   9.642  0.0240 -0.1548  0.0156
  125TMC2    C4 1943   0.377   1.679   9.627 -0.0229  0.5491 -1.2137
  125TMC2    C5 1944   0.307   1.638   9.737 -0.1688  0.1292  0.4024
  125TMC2    C6 1945   0.172   1.671   9.754  0.5918 -0.5050  0.0734
  125TMC2     C 1946   0.363   1.766   9.400 -0.5440  0.1969  0.0746
  125TMC2     O 1947   0.292   1.789   9.304  0.5803  0.2127  0.2255
  125TMC2     H 1948   0.104   1.771   9.438  0.2020  1.4157  1.0111
  125TMC2    H1 1949   0.481   1.651   9.615  0.2086  0.8088  0.2030
  125TMC2    H2 1950   0.124   1.630   9.842  1.8410 -1.1128  0.4735
  125TMC2    C7 1951   0.374   1.570   9.851 -0.4544  0.1878 -0.1803
  125TMC2    C8 1952   4.700   1.748   9.644  0.4027  0.2357  0.6547
  125TMC2    O1 1953   0.300   1.517   9.933 -0.0240 -0.3060  0.0619
  125TMC2    O2 1954   4.632   1.762   9.543  0.0030  0.1466  0.5497
  125TMC2    O5 1955   4.668   1.779   9.771 -0.1574 -0.1365  0.2472
  125TMC2    H5 1956   0.013   1.796   9.822  0.4448 -0.9153 -0.4456
  126MPD1     C 1957   0.764   1.890   9.123 -0.0321 -0.0055  0.8288
  126MPD1    C1 1958   0.812   1.878   9.249 -0.4276 -0.0633  0.1721
  126MPD1    C2 1959   0.724   1.837   9.347 -0.4574  0.5982  0.0975
  126MPD1    C3 1960   0.591   1.803   9.311 -0.6325  0.0456 -0.4741
  126MPD1    C4 1961   0.552   1.812   9.181 -0.4808  0.7833  0.2603
  126MPD1    C5 1962   0.637   1.855   9.086  0.1171 -0.0484 -0.0731
  126MPD1     H 1963   0.750   1.815   9.450 -0.7751 -1.1249 -0.1899
  126MPD1    H1 1964   0.451   1.788   9.150 -1.0257  2.2950  0.8973
  126MPD1    H2 1965   0.831   1.923   9.044 -2.2516  0.7749 -0.7302
  126MPD1    H3 1966   0.611   1.866   8.981  1.2488  0.0990 -0.3327
  126MPD1     N 1967   0.499   1.774   9.414  1.1724  0.3329  0.2836
  126MPD1    H5 1968   0.537   1.774   9.509  0.3053 -2.3052  0.6273
  126MPD1    N1 1969   0.950   1.883   9.279  0.1053 -0.4632  0.2943
  126MPD1    H6 1970   1.004   1.934   9.209 -2.2550 -0.0435 -1.2160
  126MPD1    H7 1971   0.972   1.921   9.371  1.3480 -0.2975 -0.0659
  127TMC2    C1 1972   2.074   0.616   9.851  0.8519 -0.4790  0.8059
  127TMC2    C2 1973   2.147   0.599   9.966 -0.0157  0.2516 -0.7515
  127TMC2    C3 1974   2.119   0.482  10.028  0.3351  0.6074  0.1515
  127TMC2    C4 1975   1.976   0.532   9.812  0.7186  0.1705 -0.3472
  127TMC2    C5 1976   1.944   0.434   9.893  0.0951  0.7228 -0.4026
  127TMC2    C6 1977   2.015   0.400   9.995  0.2138 -0.5420 -0.2981
  127TMC2     C 1978   2.105   0.736   9.780  0.2484 -0.5887  0.5486
  127TMC2     O 1979   2.169   0.814   9.853  0.4576  0.1952  0.0921
  127TMC2     H 1980   2.208   0.673  10.015 -0.2661 -0.4113  0.5744
  127TMC2    H1 1981   1.905   0.555   9.733 -1.4755  0.1043  1.5945
  127TMC2    H2 1982   2.006   0.300  10.036  1.7050  0.1518  1.7451
  127TMC2    C7 1983   1.869   0.328   9.830  0.4486  0.7520  0.4705
  127TMC2    C8 1984   2.167   0.485  10.170 -0.0286  0.0702  0.5214
  127TMC2    O1 1985   1.854   0.340   9.708  0.4149 -0.4111 -0.2049
  127TMC2    O2 1986   2.268   0.544  10.210 -0.5235  0.6855 -0.1100
  127TMC2    O5 1987   2.117   0.377  10.226  0.7936 -0.0215 -0.5622
  127TMC2    H5 1988   2.031   0.348  10.189  1.1228  0.5027 -1.7530
  128MPD2     C 1989   1.990   0.860   9.461 -0.0398  0.1289  0.0358
  128MPD2    C1 1990   2.052   0.865   9.582 -0.8073 -0.6756 -0.5733
  128MPD2    C2 1991   2.108   0.985   9.619  0.0980  0.2752 -0.0647
  128MPD2    C3 1992   2.090   1.096   9.540 -0.1854 -0.1753  0.1893
  128MPD2    C4 1993   2.033   1.089   9.418 -0.4359 -0.0038 -0.9182
  128MPD2    C5 1994   1.984   0.969   9.381  0.2740  1.1630 -0.0762
  128MPD2     H 1995   2.160   0.995   9.714 -0.2822  1.6140 -0.0003
  128MPD2    H1 1996   2.015   1.173   9.352  0.9619  1.3292  0.3925
  128MPD2    H2 1997   1.967   0.764   9.417 -0.1525  0.7987 -1.3789
  128MPD2    H3 1998   1.929   0.960   9.287  0.0059  0.4286  0.1548
  128MPD2     N 1999   2.125   1.215   9.599  0.7338 -0.2749  0.2845
  128MPD2    H5 2000   2.170   1.218   9.690  3.0996 -0.6586 -0.8755
  128MPD2    N1 2001   2.046   0.741   9.654 -0.5395 -0.1213 -0.3665
  128MPD2    H7 2002   1.995   0.658   9.624 -0.6889 -0.0565 -0.2930
  129TMC2    C1 2003   0.214   0.476   1.690  0.3373 -0.4731  0.2959
  129TMC2    C2 2004   0.346   0.515   1.695 -0.2107  0.0558  0.1413
  129TMC2    C3 2005   0.433   0.415   1.733 -0.0128 -0.3549 -0.2891
  129TMC2    C4 2006   0.169   0.350   1.706  0.1660  1.3497 -0.9190
  129TMC2    C5 2007   0.267   0.261   1.753  0.1021  0.0157 -0.4707
  129TMC2    C6 2008   0.397   0.283   1.743  0.1497  0.9348 -0.6827
  129TMC2     C 2009   0.132   0.569   1.760  0.0067 -0.2205 -0.0188
  129TMC2     O 2010   0.069   0.527   1.855  0.1774 -0.2258 -0.0344
  129TMC2     H 2011   0.372   0.620   1.706 -0.4492  0.1190  0.1029
  129TMC2    H1 2012   0.063   0.332   1.691  0.3566 -0.3154 -0.2221
  129TMC2    H2 2013   0.477   0.214   1.768 -2.2465 -1.3732  0.6173
  129TMC2    C7 2014   0.229   0.117   1.763 -0.4060  0.2565  0.8110
  129TMC2    C8 2015   0.572   0.436   1.778 -0.0308  0.4759 -0.1614
  129TMC2    O1 2016   0.129   0.079   1.711 -0.5695 -0.0353  0.1359
  129TMC2    O2 2017   0.611   0.389   1.882 -0.3802 -0.7376  0.2255
  129TMC2    O5 2018   0.586   0.561   1.734 -0.0273 -0.2610  0.2931
  129TMC2    H5 2019   0.543   0.568   1.646 -2.3069  2.5354  1.6341
  130MPD2     C 2020   4.721   0.800   1.893  0.0273 -0.6922  0.0458
  130MPD2    C1 2021   0.082   0.808   1.793  0.1537 -0.3249  0.3764
  130MPD2    C2 2022   0.119   0.933   1.750  0.4750  0.0003 -0.4548
  130MPD2    C3 2023   0.066   1.040   1.802  0.5543  0.6366  0.2579
  130MPD2    C4 2024   4.706   1.035   1.902 -0.3287  0.2408 -0.1342
  130MPD2    C5 2025   4.656   0.916   1.935 -0.2182  0.4592  0.1581
  130MPD2     H 2026   0.202   0.938   1.681  1.0678  1.4320  0.3703
  130MPD2    H1 2027   4.651   1.120   1.942  1.0894  1.0983 -0.0252
  130MPD2    H2 2028   4.690   0.707   1.939 -0.6668 -1.1656 -1.3527
  130MPD2    H3 2029   4.580   0.914   2.012  1.1211  2.7006  1.5318
  130MPD2     N 2030   0.109   1.164   1.752  0.1918 -0.0712 -0.0363
  130MPD2    H5 2031   0.185   1.162   1.684 -2.3532  2.4464 -2.9313
  130MPD2    N1 2032   0.150   0.699   1.727 -0.1358  0.4276 -0.5960
  130MPD2    H7 2033   0.217   0.719   1.653  0.7623  3.2892  0.9953
  131TMC2    C1 2034   0.247   4.700  10.484 -0.9557  0.1660  0.2708
  131TMC2    C2 2035   0.169   0.044  10.563 -0.1591 -0.0721  0.4394
  131TMC2    C3 2036   0.187   0.179  10.554  0.6477 -0.2042 -0.1792
  131TMC2    C4 2037   0.352   0.016  10.408 -0.8520 -1.2362 -0.1811
  131TMC2    C5 2038   0.369   0.148  10.410 -0.4715 -0.5798  0.7758
  131TMC2    C6 2039   0.286   0.231  10.478  0.4477 -0.7934  0.3147
  131TMC2     C 2040   0.233   4.556  10.515  0.6974  0.5238  0.4555
  131TMC2     O 2041   0.177   4.521  10.621  0.2080  0.4569 -0.4255
  131TMC2     H 2042   0.101   0.000  10.636 -0.9264  1.3214  0.5511
  131TMC2    H1 2043   0.422   4.686  10.360 -1.5262 -1.5673 -0.7159
  131TMC2    H2 2044   0.298   0.338  10.466  1.8717 -0.9162  0.6185
  131TMC2    C7 2045   0.433   0.200  10.293  0.8407 -0.5817  0.5369
  131TMC2    C8 2046   0.085   0.261  10.630 -0.2138  0.2214  0.1619
  131TMC2    O1 2047   0.515   0.129  10.237 -0.0014  0.3001  0.3352
  131TMC2    O2 2048   0.021   0.202  10.715  0.7012 -0.2116 -0.3584
  131TMC2    O5 2049   0.028   0.330  10.528 -0.1554  0.6108  0.4229
  131TMC2    H5 2050   0.089   0.361  10.457  0.4531  2.2881  1.6605
  132MPD2     C 2051   0.372   4.285  10.304  0.5308 -0.1499  0.1256
  132MPD2    C1 2052   0.332   4.340  10.426 -0.3879 -0.3728 -0.0175
  132MPD2    C2 2053   0.310   4.256  10.539  0.6195  0.2528  0.2150
  132MPD2    C3 2054   0.326   4.118  10.529 -1.2286  0.5682  0.4674
  132MPD2    C4 2055   0.378   4.074  10.411  0.3063  0.1408  0.3651
  132MPD2    C5 2056   0.394   4.151  10.299  0.1552 -0.0841  0.1212
  132MPD2     H 2057   0.282   4.308  10.630 -2.0245 -1.1057  0.1700
  132MPD2    H1 2058   0.385   3.968  10.391  0.4732  0.5528 -1.8263
  132MPD2    H2 2059   0.393   4.348  10.219 -0.4619  2.4137  1.7619
  132MPD2    H3 2060   0.415   4.112  10.200 -0.0712  0.8760 -0.3063
  132MPD2     N 2061   0.304   4.048  10.647  0.3637 -0.7008  0.3419
  132MPD2    H5 2062   0.268   4.098  10.727 -1.1752 -0.4531 -0.5058
  132MPD2    N1 2063   0.311   4.481  10.427  0.0147  0.9009 -0.5404
  132MPD2    H7 2064   0.336   4.529  10.341 -2.2843  2.4138 -0.3498
  133TMC2    C1 2065   4.474   1.282   9.408  0.1420  0.6995 -0.2932
  133TMC2    C2 2066   4.562   1.257   9.509  0.2507  0.0221  0.2384
  133TMC2    C3 2067   4.693   1.311   9.507 -0.2410 -0.1335  0.0959
  133TMC2    C4 2068   4.504   1.373   9.303 -0.3372 -0.2261  0.4922
  133TMC2    C5 2069   4.638   1.417   9.308 -0.5426 -0.1825 -0.1997
  133TMC2    C6 2070   4.726   1.392   9.406 -0.0970  0.5571 -0.1709
  133TMC2     C 2071   4.343   1.211   9.400  0.3882  0.2845 -0.0293
  133TMC2     O 2072   4.334   1.098   9.446  0.4684  0.7819 -0.1451
  133TMC2     H 2073   4.536   1.193   9.592  1.5924 -1.3727 -0.4125
  133TMC2    H1 2074   4.448   1.380   9.210 -2.0539 -2.6925  1.3363
  133TMC2    H2 2075   0.084   1.445   9.409 -0.1566  0.6474  0.1695
  133TMC2    C7 2076   4.674   1.530   9.230  0.3540  0.4841  0.1587
  133TMC2    C8 2077   0.040   1.305   9.623  0.3501 -0.2352 -0.4851
  133TMC2    O1 2078   0.051   1.560   9.211  0.2238  0.3703 -0.4562
  133TMC2    O2 2079   0.160   1.283   9.621  0.1895  0.0328 -0.1852
  133TMC2    O5 2080   4.718   1.382   9.707  0.3676  0.3327 -0.5788
  133TMC2    H5 2081   4.634   1.416   9.670  0.4145  0.9947 -0.0900
  134MPD2     C 2082   4.049   1.341   9.216 -0.5857 -0.9496 -0.7370
  134MPD2    C1 2083   4.122   1.253   9.285 -1.1822  0.1402 -0.4162
  134MPD2    C2 2084   4.076   1.120   9.293 -0.3140  0.0020  0.5547
  134MPD2    C3 2085   3.953   1.079   9.236 -0.2198  0.7679  0.5734
  134MPD2    C4 2086   3.878   1.174   9.170 -0.1354 -0.3156 -0.0116
  134MPD2    C5 2087   3.930   1.300   9.159  0.3281  0.1811 -0.3499
  134MPD2     H 2088   4.141   1.040   9.327  2.0673  1.7295  0.0787
  134MPD2    H1 2089   3.786   1.155   9.116  0.2435 -2.0855 -0.0374
  134MPD2    H2 2090   4.087   1.442   9.206 -2.0989 -0.0447  2.7124
  134MPD2    H3 2091   3.874   1.374   9.104  0.1768 -0.6170 -1.2630
  134MPD2     N 2092   3.917   0.940   9.237  0.5022  0.3784 -0.3220
  134MPD2    H5 2093   3.839   0.913   9.179 -0.3636  0.2784  0.9035
  134MPD2    N1 2094   4.249   1.283   9.334 -0.4579 -0.3876  0.0944
  134MPD2    H7 2095   4.276   1.378   9.312  2.3689 -1.2654 -0.2872
  135TMC2    C1 2096   1.751   2.493   9.944 -0.4498  1.0273  0.1543
  135TMC2    C2 2097   1.779   2.505  10.082  0.3749 -0.2981  0.5005
  135TMC2    C3 2098   1.684   2.443  10.162 -0.4983 -0.4086  0.4830
  135TMC2    C4 2099   1.645   2.421   9.893  0.5730  0.7617 -0.0764
  135TMC2    C5 2100   1.556   2.353   9.982 -0.3395 -0.4332  0.3363
  135TMC2    C6 2101   1.578   2.362  10.122  0.4466 -0.5708  0.1726
  135TMC2     C 2102   1.882   2.487   9.877  0.3114 -0.1599 -1.2976
  135TMC2     O 2103   1.982   2.533   9.929 -0.2553 -0.8066  0.8216
  135TMC2     H 2104   1.834   2.586  10.128 -1.8038  0.3463  1.9602
  135TMC2    H1 2105   1.634   2.429   9.786  0.7805 -1.4149 -0.2763
  135TMC2    H2 2106   1.520   2.334  10.209  0.8236  1.8041  1.1804
  135TMC2    C7 2107   1.429   2.328   9.920 -0.1514  0.2558  0.5539
  135TMC2    C8 2108   1.689   2.473  10.303 -0.2857  0.4567 -0.0249
  135TMC2    O1 2109   1.420   2.381   9.811 -0.0612  0.3478 -0.0209
  135TMC2    O2 2110   1.611   2.550  10.352  0.1874  0.0028  0.8501
  135TMC2    O5 2111   1.822   2.466  10.326 -0.1100 -0.4943 -0.6008
  135TMC2    H5 2112   1.853   2.382  10.287 -0.5208 -0.3988 -1.1318
  136MPD2     C 2113   2.106   2.453   9.684  0.4747  0.1756  0.2257
  136MPD2    C1 2114   1.979   2.407   9.661 -0.0095 -0.0259 -0.3025
  136MPD2    C2 2115   1.958   2.324   9.553  0.0245 -0.1782  0.4968
  136MPD2    C3 2116   2.063   2.267   9.485  0.0603 -0.3324 -0.7267
  136MPD2    C4 2117   2.188   2.320   9.506 -0.8454  0.1145  0.2193
  136MPD2    C5 2118   2.206   2.411   9.603 -0.1189 -0.3130  0.1195
  136MPD2     H 2119   1.857   2.286   9.544 -0.2836  1.0259 -1.2233
  136MPD2    H1 2120   2.272   2.278   9.452 -0.6133  4.0659 -2.5490
  136MPD2    H2 2121   2.132   2.530   9.756  0.6280  0.0268  0.3295
  136MPD2    H3 2122   2.307   2.443   9.626  0.0313  0.7979 -2.1444
  136MPD2     N 2123   2.051   2.172   9.378  0.0204 -0.4836 -0.1597
  136MPD2    H5 2124   2.132   2.157   9.318  0.0860 -1.5596  0.1975
  136MPD2    N1 2125   1.872   2.433   9.751 -0.1200  0.0628  0.2560
  136MPD2    H7 2126   1.781   2.410   9.711  1.4888 -0.6055 -3.0132
  137TMC2    C1 2127   1.306   1.486   9.761  0.2073  0.0852 -0.5909
  137TMC2    C2 2128   1.315   1.617   9.728  0.0144 -0.3868  1.0129
  137TMC2    C3 2129   1.203   1.679   9.677 -0.4134  0.5328  0.6355
  137TMC2    C4 2130   1.184   1.432   9.756  0.6125  0.2494 -0.0778
  137TMC2    C5 2131   1.070   1.493   9.705  0.3219  0.0125 -0.0906
  137TMC2    C6 2132   1.084   1.615   9.650 -0.0300  0.0441 -0.4594
  137TMC2     C 2133   1.405   1.429   9.849  0.2973  0.3993 -0.5951
  137TMC2     O 2134   1.462   1.508   9.925  0.3747 -0.2904 -0.3652
  137TMC2     H 2135   1.407   1.671   9.748  0.9356 -1.6079  0.1642
  137TMC2    H1 2136   1.183   1.331   9.794  0.9633 -0.2964 -1.5310
  137TMC2    H2 2137   1.003   1.676   9.611 -1.0362  0.8772  2.9476
  137TMC2    C7 2138   0.951   1.411   9.702 -0.4908  0.5564  0.9273
  137TMC2    C8 2139   1.215   1.810   9.624 -0.2239  0.6611 -0.4133
  137TMC2    O1 2140   0.929   1.330   9.787  0.0691 -0.3192  0.6184
  137TMC2    O2 2141   1.115   1.877   9.596 -0.2157 -0.2676  0.4212
  137TMC2    O5 2142   1.331   1.816   9.558  0.2373 -0.9142 -0.6542
  137TMC2    H5 2143   1.398   1.751   9.587 -1.8945 -1.1450  3.7425
  138MPD2     C 2144   1.478   1.084   9.918 -0.9666 -0.2933 -0.5019
  138MPD2    C1 2145   1.476   1.218   9.943 -0.0736  0.0555  0.6460
  138MPD2    C2 2146   1.521   1.263  10.067 -0.3145 -0.9723  0.6058
  138MPD2    C3 2147   1.568   1.182  10.166 -0.1551 -0.3822 -0.5146
  138MPD2    C4 2148   1.582   1.045  10.136  0.0650 -0.4969  0.7131
  138MPD2    C5 2149   1.527   0.999  10.018 -0.0912 -0.3943  0.1642
  138MPD2     H 2150   1.525   1.369  10.092  0.5846 -0.1185 -3.1374
  138MPD2    H1 2151   1.613   0.967  10.205  1.5968 -0.8884 -0.4273
  138MPD2    H2 2152   1.440   1.043   9.824  0.8186  0.8836 -1.7347
  138MPD2    H3 2153   1.517   0.891  10.018 -0.2341 -0.3794 -0.3271
  138MPD2     N 2154   1.591   1.237  10.296  0.2656  0.1059  0.0192
  138MPD2    H5 2155   1.576   1.337  10.305 -0.3318  0.2014 -1.9497
  138MPD2    N1 2156   1.413   1.295   9.843 -0.2483 -0.1774 -0.6927
  138MPD2    H7 2157   1.363   1.257   9.763 -0.8360 -1.3527  0.2451
  139TMC2    C1 2158   2.174   3.948  13.757  0.5800 -0.0497  0.2597
  139TMC2    C2 2159   2.217   4.019  13.648 -0.8953  0.0485 -0.2514
  139TMC2    C3 2160   2.159   4.135  13.613  0.2299  0.4918 -0.2053
  139TMC2    C4 2161   2.073   3.998  13.835  0.0683  0.7308  0.6615
  139TMC2    C5 2162   2.011   4.113  13.796 -0.8450  0.4379  0.4263
  139TMC2    C6 2163   2.060   4.191  13.687  0.7623  0.1212  0.1181
  139TMC2     C 2164   2.259   3.837  13.796  0.3741 -0.7268  0.6101
  139TMC2     O 2165   2.363   3.839  13.730  0.1998 -0.2384  0.3620
  139TMC2     H 2166   2.278   3.974  13.570 -0.9433 -0.3388 -0.0667
  139TMC2    H1 2167   2.033   3.938  13.915 -2.1554  1.0941 -0.1803
  139TMC2    H2 2168   2.049   4.298  13.678  2.5743  0.2470 -0.5574
  139TMC2    C7 2169   1.902   4.178  13.876  0.5894 -0.3762 -0.3356
  139TMC2    C8 2170   2.213   4.208  13.493 -0.1349  0.2511  0.0500
  139TMC2    O1 2171   1.822   4.247  13.813 -0.2676  0.0035 -0.1191
  139TMC2    O2 2172   2.304   4.158  13.437 -0.0900  0.8063 -0.4062
  139TMC2    O5 2173   2.113   4.284  13.440  0.2410 -0.3710 -0.0398
  139TMC2    H5 2174   2.032   4.294  13.494  0.9385 -0.3655  1.0132
  140MPD2     C 2175   2.233   3.544  14.027 -0.3184 -0.0511  0.0065
  140MPD2    C1 2176   2.280   3.627  13.923  0.2361 -0.3945 -0.0734
  140MPD2    C2 2177   2.376   3.571  13.839 -0.1885  0.5183 -0.3237
  140MPD2    C3 2178   2.417   3.442  13.845  0.6661  0.3584  0.2031
  140MPD2    C4 2179   2.374   3.367  13.950 -0.0904 -0.4563 -0.4480
  140MPD2    C5 2180   2.283   3.417  14.039 -0.3313 -0.2653 -0.4094
  140MPD2     H 2181   2.430   3.633  13.768  2.0112  0.5038  1.3433
  140MPD2    H1 2182   2.413   3.267  13.964  2.0782  0.6601  1.5243
  140MPD2    H2 2183   2.163   3.574  14.104 -0.5194 -1.7044  0.4689
  140MPD2    H3 2184   2.246   3.364  14.126  2.5129  1.3542  1.7646
  140MPD2     N 2185   2.521   3.403  13.757 -0.5220  0.5767  0.0877
  140MPD2    H5 2186   2.576   3.478  13.715 -0.4969  1.6463  2.0360
  140MPD2    N1 2187   2.213   3.751  13.896 -0.0110  0.0908 -0.1704
  140MPD2    H7 2188   2.125   3.771  13.942  0.6752  0.8044  0.8288
  141TMC2    C1 2189   2.274   4.731  14.080  0.2084  0.4584  0.2219
  141TMC2    C2 2190   2.170   0.017  13.992  0.2085 -0.6142  0.0188
  141TMC2    C3 2191   2.057   0.086  14.028 -0.0183  0.3173  0.4234
  141TMC2    C4 2192   2.272   0.064  14.196 -0.7512 -0.8032  0.4576
  141TMC2    C5 2193   2.175   0.151  14.217  0.3636  0.1663 -0.1704
  141TMC2    C6 2194   2.060   0.157  14.146 -0.3524  0.1717 -0.2683
  141TMC2     C 2195   2.409   4.726  14.027  0.0402  0.4398  0.9252
  141TMC2     O 2196   2.496   0.037  14.099 -0.2406  0.3061 -0.4061
  141TMC2     H 2197   2.183   4.725  13.888  1.9918 -0.2733  0.1358
  141TMC2    H1 2198   2.344   0.043  14.275 -0.8985 -1.2336  0.4770
  141TMC2    H2 2199   1.994   0.241  14.160 -0.4217 -0.1968  1.5101
  141TMC2    C7 2200   2.225   0.280  14.245 -0.4338 -0.1104 -1.1025
  141TMC2    C8 2201   1.977   0.143  13.917  0.4377  0.1570  0.5447
  141TMC2    O1 2202   2.146   0.365  14.271 -0.3509 -0.5859  0.7750
  141TMC2    O2 2203   1.859   0.180  13.933 -0.2332  0.5299 -0.6218
  141TMC2    O5 2204   2.062   0.200  13.824 -1.1762 -0.1645  0.0966
  141TMC2    H5 2205   2.156   0.195  13.852 -0.8623 -1.3786 -1.2018
  142TMC2    C1 2206   0.692   4.187  10.521 -0.0383  0.3135 -0.1324
  142TMC2    C2 2207   0.726   4.202  10.396  0.0997  0.4882  0.2362
  142TMC2    C3 2208   0.722   4.329  10.342  0.1927  0.5718 -0.0685
  142TMC2    C4 2209   0.668   4.295  10.605  0.5472  0.1577  0.6012
  142TMC2    C5 2210   0.671   4.421  10.553  0.4632  0.3355  0.1661
  142TMC2    C6 2211   0.688   4.441  10.417 -0.1580 -0.4774 -0.1178
  142TMC2     C 2212   0.727   4.057  10.578 -0.4767  0.2072 -0.1972
  142TMC2     O 2213   0.777   3.970  10.509 -0.0025 -0.3101 -0.4053
  142TMC2     H 2214   0.754   4.116  10.337  0.0349  0.8135 -0.2741
  142TMC2    H1 2215   0.653   4.292  10.712 -0.4049  0.5581  0.4851
  142TMC2    H2 2216   0.659   4.533  10.368  1.6761 -0.2028 -0.6889
  142TMC2    C7 2217   0.633   4.536  10.632 -0.7640 -0.7520  0.7956
  142TMC2    C8 2218   0.721   4.327  10.195 -0.1672  0.3814 -0.1700
  142TMC2    O1 2219   0.574   4.507  10.734  0.3171 -0.2890 -0.1540
  142TMC2    O2 2220   0.706   4.228  10.122 -0.8230 -0.0924 -0.3570
  142TMC2    O5 2221   0.717   4.453  10.151 -0.6066 -0.1047 -0.1459
  142TMC2    H5 2222   0.759   4.519  10.210  1.7725 -0.8564 -1.0024
  143MPD2     C 2223   0.762   3.724  10.964  0.3040 -0.2696  0.0454
  143MPD2    C1 2224   0.742   3.694  10.834 -0.4742  0.4359  0.5745
  143MPD2    C2 2225   0.718   3.791  10.742 -0.6294 -0.4363  0.2228
  143MPD2    C3 2226   0.696   3.925  10.790 -0.3515  0.8405  0.3307
  143MPD2    C4 2227   0.684   3.941  10.925 -0.2611 -0.4348  0.0547
  143MPD2    C5 2228   0.731   3.841  11.008  0.9314 -0.5101 -0.2201
  143MPD2     H 2229   0.716   3.769  10.636 -1.3344  0.7544 -0.0108
  143MPD2    H1 2230   0.655   4.038  10.963 -1.3932 -0.5805 -0.4569
  143MPD2    H2 2231   0.774   3.643  11.035 -1.7195 -0.2770  0.3853
  143MPD2    H3 2232   0.734   3.857  11.115  0.0860 -1.4111 -0.0654
  143MPD2     N 2233   0.697   4.045  10.709  0.3372 -0.2253  0.7557
  143MPD2    H5 2234   0.662   4.129  10.756 -0.9338  1.0634 -2.4686
  143MPD2    N1 2235   0.750   3.550  10.794  0.0726 -0.0977  0.9746
  143MPD2    H7 2236   0.781   3.482  10.862  1.3963 -0.9835 -0.5238
  144TMC2    C1 2237   4.234   2.214   0.693  0.0236 -0.3364  0.1472
  144TMC2    C2 2238   4.341   2.133   0.677 -0.2711 -0.1736  0.3052
  144TMC2    C3 2239   4.458   2.199   0.662 -0.2032 -0.0986  0.4701
  144TMC2    C4 2240   4.245   2.347   0.713 -0.1074 -0.5312 -0.7149
  144TMC2    C5 2241   4.368   2.408   0.691 -0.1694 -0.2412  0.1771
  144TMC2    C6 2242   4.474   2.332   0.658  0.5183 -0.4958  0.3181
  144TMC2     C 2243   4.103   2.159   0.684  0.3322 -0.1881 -0.0473
  144TMC2     O 2244   4.009   2.237   0.675  0.0114 -0.8974 -0.0030
  144TMC2     H 2245   4.319   2.033   0.642 -1.8289  0.1367  0.3960
  144TMC2    H1 2246   4.153   2.400   0.733 -0.0309 -0.3522 -0.8379
  144TMC2    H2 2247   4.565   2.381   0.627 -1.6190  2.4099 -1.3607
  144TMC2    C7 2248   4.382   2.549   0.715  0.4253  0.0490  0.3066
  144TMC2    C8 2249   4.566   2.122   0.619  0.3132  0.2656  1.0573
  144TMC2    O1 2250   4.484   2.603   0.673  0.2976  0.1590  0.4905
  144TMC2    O2 2251   4.664   2.172   0.564 -0.1352  0.0151  0.0523
  144TMC2    O5 2252   4.578   2.019   0.701 -0.1276 -0.1629  0.7061
  144TMC2    H5 2253   4.497   1.983   0.743 -0.3311  0.1375  0.5628
  145MPD2     C 2254   3.781   1.783   0.585 -0.3089  0.1229  0.4615
  145MPD2    C1 2255   3.774   1.914   0.563  0.0494  0.0048 -0.3103
  145MPD2    C2 2256   3.878   1.990   0.605 -0.0443 -0.3543 -0.5940
  145MPD2    C3 2257   3.994   1.941   0.663  0.8009 -0.3276  0.0000
  145MPD2    C4 2258   3.997   1.806   0.671 -0.0777 -0.5094 -0.0345
  145MPD2    C5 2259   3.887   1.730   0.644  0.8745  0.2641 -0.1610
  145MPD2     H 2260   3.868   2.095   0.582 -0.2191 -0.1603  0.4111
  145MPD2    H1 2261   4.087   1.754   0.699  0.9532  0.1528 -2.1728
  145MPD2    H2 2262   3.718   1.709   0.538 -1.7967  1.5161  0.2614
  145MPD2    H3 2263   3.905   1.623   0.644  1.0086  0.2891  2.1748
  145MPD2     N 2264   4.101   2.021   0.697 -0.3399 -0.4981  0.1635
  145MPD2    H5 2265   4.184   1.973   0.730 -0.4702 -1.5145 -0.9887
  145MPD2    N1 2266   3.675   1.964   0.485 -0.2024 -0.4429  0.8270
  145MPD2    H7 2267   3.668   2.064   0.470  1.8744 -0.3560  0.4531
  146TMC2    C1 2268   4.642   1.595  12.523 -0.4167  0.3752  0.3246
  146TMC2    C2 2269   4.621   1.678  12.420  0.2481  0.4272  0.0851
  146TMC2    C3 2270   4.715   1.685  12.318 -0.2680  0.5360  0.4920
  146TMC2    C4 2271   0.020   1.525  12.528 -0.9756 -0.0545 -0.1737
  146TMC2    C5 2272   0.109   1.525  12.421  0.1396 -0.2474 -0.0428
  146TMC2    C6 2273   0.090   1.612  12.320 -0.1430 -0.7534 -0.1648
  146TMC2     C 2274   4.546   1.596  12.633  0.7694  0.0763 -0.3264
  146TMC2     O 2275   4.458   1.683  12.627 -0.2779  0.2621  0.6966
  146TMC2     H 2276   4.529   1.734  12.411 -0.5736 -1.0747 -0.8555
  146TMC2    H1 2277   0.038   1.451  12.605  1.5982 -0.4369 -1.1461
  146TMC2    H2 2278   0.161   1.600  12.238  0.6384  1.1058  0.2352
  146TMC2    C7 2279   0.229   1.437  12.426 -0.7138 -0.2130  0.4854
  146TMC2    C8 2280   4.699   1.790  12.217  1.1623 -0.4010  0.5367
  146TMC2    O1 2281   0.307   1.452  12.333 -0.5244 -0.2051  0.5168
  146TMC2    O2 2282   4.644   1.895  12.255  0.5357 -0.2850 -0.0246
  146TMC2    O5 2283   0.055   1.780  12.119  0.2396  0.2263 -0.2035
  146TMC2    H5 2284   0.074   1.687  12.094  0.6131 -0.0606  1.1706
  147MPD2     C 2285   0.564   1.054  12.558 -0.3635  0.3112 -0.4284
  147MPD2    C1 2286   0.441   1.028  12.613 -0.2291  0.1018  0.1451
  147MPD2    C2 2287   0.333   1.118  12.596 -0.4523 -0.9411 -0.2561
  147MPD2    C3 2288   0.337   1.233  12.518 -0.0219  0.0414  0.4717
  147MPD2    C4 2289   0.465   1.256  12.468 -0.5548  0.1179 -0.1722
  147MPD2    C5 2290   0.570   1.166  12.477 -0.0907 -0.8142 -1.0317
  147MPD2     H 2291   0.241   1.104  12.651 -0.3523 -1.0100 -0.1054
  147MPD2    H1 2292   0.493   1.342  12.407  1.2198 -1.0615 -1.0217
  147MPD2    H2 2293   0.651   0.996  12.585  0.5832  1.6587 -0.5974
  147MPD2    H3 2294   0.671   1.192  12.448 -0.7681  0.0096 -2.6510
  147MPD2     N 2295   0.233   1.337  12.517 -0.4609  0.8417 -0.2777
  147MPD2    H5 2296   0.158   1.317  12.583  0.4648  1.3848  0.9203
  147MPD2    N1 2297   0.438   0.906  12.692  0.3126 -0.0676 -0.3991
  147MPD2    H7 2298   0.526   0.857  12.698  0.8217  1.0896  1.8972
  148TMC2    C1 2299   4.198   0.254  10.718  0.5798 -0.2501 -0.8867
  148TMC2    C2 2300   4.267   0.337  10.805  0.4013 -0.1584 -0.2326
  148TMC2    C3 2301   4.338   0.277  10.906  0.0840 -0.0711 -0.3752
  148TMC2    C4 2302   4.192   0.118  10.744 -0.1332  0.4054  0.0121
  148TMC2    C5 2303   4.253   0.070  10.864 -0.0779 -0.3269  0.0659
  148TMC2    C6 2304   4.343   0.147  10.935  0.1512 -0.0469  0.4583
  148TMC2     C 2305   4.134   0.310  10.601 -0.4865  0.0344 -0.6576
  148TMC2     O 2306   4.081   0.421  10.608 -0.4708  0.1711 -0.5832
  148TMC2     H 2307   4.280   0.441  10.779  3.1821 -0.4820 -0.0747
  148TMC2    H1 2308   4.119   0.057  10.692  0.9930  0.7176 -1.9439
  148TMC2    H2 2309   4.415   0.112  11.009 -0.3541 -1.4357  0.3056
  148TMC2    C7 2310   4.268   4.665  10.860  0.0941 -0.1337 -0.0352
  148TMC2    C8 2311   4.436   0.360  10.957  0.2236 -0.1768 -0.1415
  148TMC2    O1 2312   4.243   4.613  10.754 -0.1099 -0.4213 -0.1086
  148TMC2    O2 2313   4.464   0.366  11.077 -0.2781 -0.2891  0.3303
  148TMC2    O5 2314   4.543   0.363  10.870 -0.1114 -0.0358  0.4104
  148TMC2    H5 2315   4.517   0.342  10.778 -0.3480  1.5105  0.1215
  149MPD2     C 2316   3.998   0.359  10.339  0.2678  0.0793 -0.3581
  149MPD2    C1 2317   4.042   0.238  10.378 -0.2194  0.0448 -0.0577
  149MPD2    C2 2318   4.007   0.131  10.304 -0.4413 -0.2149 -1.4347
  149MPD2    C3 2319   3.945   0.150  10.181  0.2275  0.2455  0.8002
  149MPD2    C4 2320   3.894   0.272  10.145  0.7784  0.3486  0.1500
  149MPD2    C5 2321   3.924   0.375  10.223 -0.2064 -0.6327 -0.0319
  149MPD2     H 2322   4.024   0.030  10.338  0.7959  0.4008 -0.2265
  149MPD2    H1 2323   3.825   0.279  10.062 -1.1561  0.6067  1.7730
  149MPD2    H2 2324   4.027   0.450  10.389 -0.1718 -0.1047  0.2304
  149MPD2    H3 2325   3.887   0.473  10.193 -1.9847 -0.7769  1.6851
  149MPD2     N 2326   3.906   0.051  10.093 -0.2675 -0.2240  0.1369
  149MPD2    H5 2327   3.855   0.084  10.012  2.1264 -0.7390 -1.5993
  149MPD2    N1 2328   4.111   0.219  10.499  0.6217  0.1342 -0.1500
  149MPD2    H7 2329   4.141   0.128  10.534 -0.7606  0.1286  1.0569
  150TMC2    C1 2330   1.824   4.358  12.167 -0.8876 -0.6618 -0.1046
  150TMC2    C2 2331   1.831   4.438  12.050 -0.0649 -0.1733  1.2381
  150TMC2    C3 2332   1.917   4.543  12.048 -0.5906 -0.0712  0.1871
  150TMC2    C4 2333   1.900   4.390  12.267  1.0520 -0.2670 -0.4253
  150TMC2    C5 2334   1.979   4.503  12.273  0.4187  0.3407  0.8515
  150TMC2    C6 2335   1.989   4.580  12.156 -0.3163 -0.7518 -0.8445
  150TMC2     C 2336   1.796   4.217  12.160 -0.6310 -0.3073 -0.3347
  150TMC2     O 2337   1.833   4.143  12.246  0.2496 -0.3362  0.1091
  150TMC2     H 2338   1.801   4.393  11.956 -2.4336  0.5140  1.6565
  150TMC2    H1 2339   1.886   4.341  12.362  0.7016 -1.5334 -1.1266
  150TMC2    H2 2340   2.050   4.669  12.166 -0.6539 -0.6535  0.3188
  150TMC2    C7 2341   2.111   4.490  12.330 -0.2848  0.2047 -0.2975
  150TMC2    C8 2342   1.872   4.661  11.980 -0.4721  0.1426 -0.6372
  150TMC2    O1 2343   2.177   4.593  12.337 -0.3335 -0.8189  0.3322
  150TMC2    O2 2344   1.938   0.025  11.971 -0.0399 -0.2044  0.1060
  150TMC2    O5 2345   1.743   4.645  11.961  0.2648  0.0149 -0.2796
  150TMC2    H5 2346   1.697   4.562  11.983 -1.6498  0.8554 -1.1327
  151MPD2     C 2347   1.544   3.839  11.910 -0.1234 -0.7869  0.4689
  151MPD2    C1 2348   1.525   3.964  11.852  1.4405 -1.0116 -0.3536
  151MPD2    C2 2349   1.585   4.074  11.903  0.4421  0.6097 -0.7685
  151MPD2    C3 2350   1.675   4.058  12.008  0.3879 -0.7071  0.6022
  151MPD2    C4 2351   1.694   3.939  12.069 -0.1665  0.1598  0.5966
  151MPD2    C5 2352   1.629   3.828  12.019  0.4797 -0.5599 -0.1439
  151MPD2     H 2353   1.568   4.171  11.858  0.2986  0.3040 -1.3728
  151MPD2    H1 2354   1.745   3.927  12.164  1.7342 -0.2768 -0.4934
  151MPD2    H2 2355   1.492   3.750  11.875 -0.7665 -1.1980  2.4690
  151MPD2    H3 2356   1.651   3.736  12.071  0.7216 -0.0954  0.5658
  151MPD2     N 2357   1.722   4.189  12.049  0.5525  0.0877  0.0332
  151MPD2    H5 2358   1.677   4.261  11.994  0.0982 -2.1113 -2.4223
  151MPD2    N1 2359   1.435   3.973  11.745 -0.1679  0.0883  0.0467
  151MPD2    H7 2360   1.370   3.896  11.743  0.3730 -0.3484 -0.4925
  152TMC2    C1 2361   1.670   3.650  12.729 -0.3230  0.4147 -0.2843
  152TMC2    C2 2362   1.653   3.717  12.614  0.4664 -0.6212 -0.6221
  152TMC2    C3 2363   1.757   3.785  12.568  0.4064  0.1495  0.2223
  152TMC2    C4 2364   1.791   3.653  12.798  0.1526 -0.5438 -0.0825
  152TMC2    C5 2365   1.895   3.731  12.760 -0.2900  0.2182 -0.0186
  152TMC2    C6 2366   1.878   3.796  12.636  1.0359  0.0200  0.1000
  152TMC2     C 2367   1.555   3.610  12.809  0.3832 -0.6092  0.1330
  152TMC2     O 2368   1.586   3.536  12.899 -0.0344  0.0930 -0.2507
  152TMC2     H 2369   1.564   3.700  12.553 -0.1852 -0.1963  0.2023
  152TMC2    H1 2370   1.797   3.608  12.896 -2.5802  0.5885  0.6162
  152TMC2    H2 2371   1.949   3.868  12.596  1.6036  0.3946  1.7914
  152TMC2    C7 2372   1.942   3.821  12.864 -1.0765 -0.4387  0.0816
  152TMC2    C8 2373   1.735   3.863  12.438  0.4417  0.2963 -0.3701
  152TMC2    O1 2374   1.875   3.816  12.969 -0.0866 -0.8397 -0.6502
  152TMC2    O2 2375   1.630   3.876  12.387  0.4090  0.1069 -0.1242
  152TMC2    O5 2376   1.853   3.933  12.415 -0.6611 -0.0426  0.3030
  152TMC2    H5 2377   1.846   4.008  12.352 -1.8030 -0.4178 -0.0324
  153MPD2     C 2378   1.293   3.574  12.947  0.1258 -0.4744 -0.1397
  153MPD2    C1 2379   1.306   3.661  12.839 -0.4732 -0.0485  0.5952
  153MPD2    C2 2380   1.197   3.736  12.806  0.0223 -0.0604  0.1135
  153MPD2    C3 2381   1.072   3.725  12.875  0.9245 -0.2544 -0.4814
  153MPD2    C4 2382   1.067   3.637  12.981 -0.3221 -0.5795  1.0826
  153MPD2    C5 2383   1.177   3.563  13.016 -0.6122 -0.0505 -0.3000
  153MPD2     H 2384   1.201   3.813  12.729  0.0917  0.3307  0.5096
  153MPD2    H1 2385   0.979   3.619  13.041 -1.7213  1.8955 -0.2033
  153MPD2    H2 2386   1.375   3.520  12.993 -0.1430 -1.3052 -0.6227
  153MPD2    H3 2387   1.165   3.494  13.098 -1.1611 -0.8704 -1.0646
  153MPD2     N 2388   0.951   3.786  12.832 -0.4153 -0.8461  0.1775
  153MPD2    H5 2389   0.943   3.842  12.748 -0.4976  3.1843  2.8358
  153MPD2    N1 2390   1.431   3.673  12.766 -0.4968  0.3268 -0.1511
  153MPD2    H7 2391   1.448   3.750  12.702 -1.0902 -0.2503 -0.9895
  154TMC2    C1 2392   3.255   3.758   0.280  0.2514 -0.9348  0.1674
  154TMC2    C2 2393   3.324   3.868   0.305 -0.0031  0.3690 -0.4369
  154TMC2    C3 2394   3.448   3.855   0.372 -0.0612  0.0930  0.9090
  154TMC2    C4 2395   3.301   3.632   0.312 -0.3209 -0.2689  0.6433
  154TMC2    C5 2396   3.417   3.613   0.381  0.5222 -0.0722 -0.3021
  154TMC2    C6 2397   3.488   3.728   0.419  0.1985  0.0295 -0.3529
  154TMC2     C 2398   3.114   3.778   0.240  0.1962 -0.2898 -0.3830
  154TMC2     O 2399   3.068   3.893   0.248  0.5877 -0.1219 -0.0347
  154TMC2     H 2400   3.290   3.968   0.281 -3.4702 -0.5577  0.5692
  154TMC2    H1 2401   3.242   3.543   0.291 -2.2761  0.1905  3.9916
  154TMC2    H2 2402   3.584   3.727   0.470  0.7428 -1.0369 -1.3785
  154TMC2    C7 2403   3.452   3.481   0.422 -0.2380 -0.1549  1.3076
  154TMC2    C8 2404   3.541   3.969   0.366  0.4894  0.0182 -0.0326
  154TMC2    O1 2405   3.402   3.389   0.357  0.3561 -0.2250  0.7289
  154TMC2    O2 2406   3.623   3.996   0.452  0.2664  0.3094 -0.2821
  154TMC2    O5 2407   3.565   3.967   0.232 -0.6706  0.3519  0.0385
  154TMC2    H5 2408   3.510   3.913   0.171  0.2107  0.6331 -1.0061
  155MPD2     C 2409   2.908   3.564   0.030 -0.0108 -0.3629  0.0071
  155MPD2    C1 2410   2.933   3.660   0.124 -0.0231  0.1881 -0.5002
  155MPD2    C2 2411   2.829   3.726   0.181  0.5406 -0.0553  0.3418
  155MPD2    C3 2412   2.705   3.712   0.126  0.7039 -0.7612  0.3202
  155MPD2    C4 2413   2.685   3.625   0.017 -0.1476 -0.2553  0.0365
  155MPD2    C5 2414   2.788   3.546  17.724  0.0111 -0.2033 -0.8056
  155MPD2     H 2415   2.841   3.792   0.266 -0.6368 -0.6732  0.9872
  155MPD2    H1 2416   2.586   3.616  17.721  0.8601  0.5454 -2.4698
  155MPD2    H2 2417   2.994   3.504   0.001  0.7861  0.4841  0.5863
  155MPD2    H3 2418   2.780   3.469  17.648  0.2093  0.2102 -1.2431
  155MPD2     N 2419   2.601   3.779   0.184 -0.6979 -0.2443  0.3850
  155MPD2    H5 2420   2.627   3.863   0.234  1.2928  1.2229 -3.1224
  155MPD2    N1 2421   3.062   3.675   0.173  0.4392 -0.1195  0.0813
  155MPD2    H7 2422   3.130   3.608   0.141 -0.2909 -0.4514 -0.7687
  156TMC2    C1 2423   1.461   1.892  11.384  0.4777 -0.3948  0.1593
  156TMC2    C2 2424   1.372   1.828  11.295 -0.2863  0.2552 -0.1306
  156TMC2    C3 2425   1.274   1.910  11.238  1.4611 -0.3522  0.1604
  156TMC2    C4 2426   1.454   2.028  11.421  1.2344  0.7482 -0.1357
  156TMC2    C5 2427   1.342   2.089  11.375 -0.7201 -0.1495  0.1040
  156TMC2    C6 2428   1.252   2.037  11.280  0.4917 -0.4272 -0.3898
  156TMC2     C 2429   1.554   1.797  11.445  0.0671 -0.3013  0.1691
  156TMC2     O 2430   1.535   1.675  11.433 -0.2150 -0.0614 -0.3795
  156TMC2     H 2431   1.399   1.734  11.249 -1.0791  0.1461 -0.3791
  156TMC2    H1 2432   1.517   2.067  11.500  1.6584 -0.5911  0.1825
  156TMC2    H2 2433   1.177   2.097  11.228  2.7106  1.3403 -1.5430
  156TMC2    C7 2434   1.341   2.230  11.403  0.5234 -0.3366 -0.2370
  156TMC2    C8 2435   1.182   1.848  11.139  0.6112 -0.2809 -0.1907
  156TMC2    O1 2436   1.448   2.282  11.435 -0.0906  0.8222 -0.5200
  156TMC2    O2 2437   1.141   1.735  11.153 -0.4302 -0.1943  0.0461
  156TMC2    O5 2438   1.121   1.943  11.077  0.4189 -0.3992 -0.0340
  156TMC2    H5 2439   1.175   2.025  11.071  0.9683 -0.8617 -1.5713
  157MPD2     C 2440   1.760   1.651  11.617 -0.3013  0.1651 -0.3287
  157MPD2    C1 2441   1.757   1.786  11.596  0.6893  0.4799 -0.2915
  157MPD2    C2 2442   1.854   1.870  11.658  0.0452 -0.2013 -0.0683
  157MPD2    C3 2443   1.949   1.816  11.744  0.5045 -0.3728  0.2303
  157MPD2    C4 2444   1.950   1.679  11.757  0.2711  0.3941 -0.1791
  157MPD2    C5 2445   1.860   1.602  11.692  0.0366  0.3560 -0.1656
  157MPD2     H 2446   1.851   1.978  11.644  0.7450 -0.2496 -0.5959
  157MPD2    H1 2447   2.022   1.625  11.817 -0.7967 -1.2046 -0.3265
  157MPD2    H2 2448   1.691   1.584  11.567  2.1692 -1.3683 -1.7002
  157MPD2    H3 2449   1.868   1.495  11.707 -1.5226  0.2020 -0.5094
  157MPD2     N 2450   2.048   1.900  11.808  0.6147 -0.6126  0.4123
  157MPD2    H5 2451   2.039   1.999  11.788 -0.5238 -1.2727 -2.4225
  157MPD2    N1 2452   1.652   1.854  11.528 -0.1920 -0.1057 -0.3476
  157MPD2    H7 2453   1.660   1.955  11.521 -2.1563  0.0805  0.0791
  158TMC2    C1 2454   1.407   0.202  13.120 -0.0151 -0.3288 -0.3292
  158TMC2    C2 2455   1.417   0.230  12.988  0.8558  0.1399 -0.5189
  158TMC2    C3 2456   1.358   0.146  12.900 -0.2278  0.3921 -0.4323
  158TMC2    C4 2457   1.336   0.094  13.170  0.0701  0.2109 -0.2909
  158TMC2    C5 2458   1.279   0.010  13.078 -0.2970  0.4445  0.1419
  158TMC2    C6 2459   1.292   0.033  12.944  0.0189 -0.4581 -0.4866
  158TMC2     C 2460   1.528   0.237  13.195 -0.2484 -1.0490  0.0656
  158TMC2     O 2461   1.633   0.255  13.137  0.4595  0.4591  0.0610
  158TMC2     H 2462   1.467   0.321  12.954 -0.6066  2.0941  2.5311
  158TMC2    H1 2463   1.338   0.080  13.277  0.8781 -0.5927 -0.4043
  158TMC2    H2 2464   1.237   4.700  12.882 -2.0497 -2.0159  3.1019
  158TMC2    C7 2465   1.179   4.654  13.122  0.5917  1.0325  0.1785
  158TMC2    C8 2466   1.349   0.189  12.760  0.6951  0.2372  0.1623
  158TMC2    O1 2467   1.103   4.590  13.050 -0.8336  0.0408 -0.1040
  158TMC2    O2 2468   1.412   0.292  12.732 -0.3473  0.6978  0.4472
  158TMC2    O5 2469   1.370   0.076  12.691 -0.6445 -0.4225  0.4542
  158TMC2    H5 2470   1.329   4.728  12.717 -0.9740 -0.1551  0.8096
  159MPD2     C 2471   1.774   0.325  13.634  1.0934  0.8115 -0.2161
  159MPD2    C1 2472   1.645   0.319  13.659  0.6663 -0.2800 -0.8105
  159MPD2    C2 2473   1.556   0.284  13.560 -0.4141 -0.2292  0.3645
  159MPD2    C3 2474   1.608   0.271  13.429  0.3781 -0.2149  0.1441
  159MPD2    C4 2475   1.739   0.282  13.403  0.3382 -0.5335  0.1387
  159MPD2    C5 2476   1.822   0.309  13.510  0.1093 -0.5240 -0.3786
  159MPD2     H 2477   1.448   0.278  13.568 -0.4925  1.1329  0.3358
  159MPD2    H1 2478   1.782   0.271  13.305 -0.2287 -1.5025 -0.0068
  159MPD2    H2 2479   1.840   0.354  13.714  0.7963  1.2721 -0.1365
  159MPD2    H3 2480   1.926   0.329  13.489 -0.1337 -0.1374 -1.2158
  159MPD2     N 2481   1.506   0.257  13.328 -0.0501 -0.7959  0.1438
  159MPD2    H5 2482   1.414   0.241  13.369  0.2812 -1.3698  0.6591
  159MPD2    N1 2483   1.612   0.337  13.798  0.1712  0.7473 -0.3161
  159MPD2    H7 2484   1.687   0.355  13.865  2.6007 -0.0713 -2.8158
  160TMC2    C1 2485   1.919   3.485   1.547 -0.0157  0.7366  0.5004
  160TMC2    C2 2486   1.863   3.556   1.652 -0.2393  0.0469  0.2638
  160TMC2    C3 2487   1.926   3.546   1.774  0.3418 -0.5420 -0.2916
  160TMC2    C4 2488   2.037   3.422   1.558 -0.8890 -1.0305 -0.2615
  160TMC2    C5 2489   2.098   3.419   1.674  0.1261 -0.0589 -0.3712
  160TMC2    C6 2490   2.043   3.479   1.785 -0.9238 -0.0200 -0.2701
  160TMC2     C 2491   1.837   3.466   1.423 -0.3151  0.4485  0.0257
  160TMC2     O 2492   1.892   3.427   1.323  0.3860  0.1527 -0.1656
  160TMC2     H 2493   1.774   3.618   1.643  0.1874  0.0736 -3.9115
  160TMC2    H1 2494   2.065   3.372   1.467  0.3937 -2.7455  1.0815
  160TMC2    H2 2495   2.096   3.473   1.879 -0.3355  1.0168 -0.5359
  160TMC2    C7 2496   2.217   3.354   1.694  0.0584 -0.0602  0.6558
  160TMC2    C8 2497   1.882   3.630   1.882  0.1318 -0.2405  0.1232
  160TMC2    O1 2498   2.254   3.311   1.801 -0.0868 -0.4240  0.2155
  160TMC2    O2 2499   1.803   3.725   1.854  0.5028  0.2821  0.2030
  160TMC2    O5 2500   1.939   3.608   2.005 -0.2641 -0.7073 -0.1046
  160TMC2    H5 2501   1.971   3.516   2.009  2.0594  0.1643  1.0760
  161MPD2     C 2502   1.635   3.488   1.202  0.0391 -0.4628  0.1223
  161MPD2    C1 2503   1.612   3.518   1.334 -0.0722 -0.3065  0.7675
  161MPD2    C2 2504   1.479   3.536   1.368  0.1649  0.3657  0.0450
  161MPD2    C3 2505   1.376   3.531   1.274 -0.5946  0.0142 -0.3674
  161MPD2    C4 2506   1.405   3.487   1.147  0.1757 -0.7291 -0.5827
  161MPD2    C5 2507   1.533   3.465   1.114  0.4622  0.4620  0.3696
  161MPD2     H 2508   1.446   3.556   1.469 -1.2505 -1.4823 -0.0478
  161MPD2    H1 2509   1.328   3.486   1.070 -0.4361 -0.6095  0.0356
  161MPD2    H2 2510   1.739   3.476   1.172  0.3312  1.5016  0.3358
  161MPD2    H3 2511   1.561   3.432   1.014 -0.3639  1.6773 -0.2515
  161MPD2     N 2512   1.243   3.559   1.302 -0.5759  0.6064 -0.0252
  161MPD2    H5 2513   1.175   3.548   1.228  0.2523  0.1988 -0.7338
  161MPD2    N1 2514   1.709   3.514   1.435 -0.3298  0.4302 -0.5184
  161MPD2    H7 2515   1.664   3.526   1.526 -0.3535  0.2669 -0.5092
  162TMC2    C1 2516   3.901   0.033   1.331  0.5150  1.3345 -0.7071
  162TMC2    C2 2517   3.851   0.106   1.438 -0.2262 -0.4083  0.6171
  162TMC2    C3 2518   3.792   0.030   1.534  0.2474 -0.2997 -0.2107
  162TMC2    C4 2519   3.894   4.633   1.316 -0.1365  0.0034 -0.2211
  162TMC2    C5 2520   3.823   4.564   1.414 -0.0332  0.1887 -0.5804
  162TMC2    C6 2521   3.775   4.627   1.523 -0.5241 -0.6330  0.4236
  162TMC2     C 2522   3.982   0.107   1.231 -0.3202 -0.5879  0.3961
  162TMC2     O 2523   4.043   0.038   1.149  0.3113 -0.7904 -0.1452
  162TMC2     H 2524   3.862   0.213   1.451 -2.3588 -0.4557  2.8702
  162TMC2    H1 2525   3.938   4.586   1.229  1.8866  1.3433  0.0881
  162TMC2    H2 2526   3.728   4.569   1.602 -0.7916 -2.2724 -0.9416
  162TMC2    C7 2527   3.840   4.420   1.422 -0.7665 -0.4795 -0.6775
  162TMC2    C8 2528   3.739   0.107   1.642  0.1978  0.3677 -0.3124
  162TMC2    O1 2529   3.737   4.359   1.449 -0.2502  0.1573 -0.4419
  162TMC2    O2 2530   3.729   0.228   1.637  0.4909  0.3120 -0.4429
  162TMC2    O5 2531   3.791   0.042   1.748 -0.2330  0.5961 -0.6587
  162TMC2    H5 2532   3.847   4.701   1.729 -0.9949  0.3375 -1.9108
  163MPD2     C 2533   4.110   0.529   0.970 -0.8204  0.0710  0.2796
  163MPD2    C1 2534   4.166   0.400   0.980  0.4835 -0.4713  0.2789
  163MPD2    C2 2535   4.115   0.309   1.062  0.4430  0.6057 -0.2785
  163MPD2    C3 2536   4.014   0.340   1.147 -0.0143 -0.9236  0.2424
  163MPD2    C4 2537   3.956   0.462   1.145 -0.0014  0.0925 -0.5337
  163MPD2    C5 2538   4.010   0.560   1.061 -0.5762  0.6001  0.5515
  163MPD2     H 2539   4.145   0.205   1.057  1.2344  0.9087 -1.7651
  163MPD2    H1 2540   3.876   0.484   1.214  2.0676 -3.2523  2.9755
  163MPD2    H2 2541   4.144   0.600   0.894 -0.9429  0.9103  1.0087
  163MPD2    H3 2542   3.966   0.658   1.078  1.3611  1.0641  2.9042
  163MPD2     N 2543   3.966   0.246   1.240 -0.2554 -0.4030 -0.1918
  163MPD2    H5 2544   3.882   0.268   1.292 -1.1442 -2.3824 -0.7757
  163MPD2    N1 2545   4.280   0.388   0.897  0.0494  0.1221  0.3361
  163MPD2    H7 2546   4.283   0.443   0.812 -1.3663  0.8869  0.7869
  164TMC2    C1 2547   0.078   0.683  10.505  0.0348  0.0182 -0.3136
  164TMC2    C2 2548   0.021   0.771  10.414  0.4362  0.1247  0.2506
  164TMC2    C3 2549   4.637   0.825  10.444 -0.2038  0.4780  0.0222
  164TMC2    C4 2550   0.003   0.642  10.611 -0.4145 -1.0618 -0.4637
  164TMC2    C5 2551   4.614   0.700  10.634  0.3020  1.1591 -0.1695
  164TMC2    C6 2552   4.558   0.792  10.553 -0.1374  0.1450  0.6735
  164TMC2     C 2553   0.220   0.639  10.508 -0.2288 -0.4206  0.3081
  164TMC2     O 2554   0.250   0.554  10.594  0.3168  0.4040  0.2950
  164TMC2     H 2555   0.073   0.801  10.324  0.6123  0.6247  0.5215
  164TMC2    H1 2556   0.043   0.564  10.674  0.9047 -0.4196 -0.5222
  164TMC2    H2 2557   4.460   0.835  10.566  1.4301  3.3367  1.9753
  164TMC2    C7 2558   4.535   0.678  10.753  0.5296  0.5601 -0.6100
  164TMC2    C8 2559   4.609   0.962  10.396  0.0316 -0.1462 -0.1885
  164TMC2    O1 2560   4.418   0.666  10.725 -0.0164 -0.0293 -0.4020
  164TMC2    O2 2561   4.488   0.985  10.388  0.2187  0.5020 -0.1896
  164TMC2    O5 2562   4.683   1.035  10.483 -0.2991 -0.1662  0.5051
  164TMC2    H5 2563   0.038   1.005  10.470 -0.4460  1.5928 -4.2911
  165TMC2    C1 2564   1.683   2.595   2.080 -0.3747 -0.3049  0.6989
  165TMC2    C2 2565   1.762   2.520   2.166  0.0120  0.0252 -0.0645
  165TMC2    C3 2566   1.887   2.547   2.191 -0.5429  0.0659  0.4184
  165TMC2    C4 2567   1.727   2.707   2.021  0.6039  0.0452 -1.0385
  165TMC2    C5 2568   1.860   2.748   2.057  0.3141  0.9621  0.1730
  165TMC2    C6 2569   1.939   2.669   2.142 -0.5952  0.3748  0.4306
  165TMC2     C 2570   1.536   2.564   2.061 -0.0161  0.3064 -0.2644
  165TMC2     O 2571   1.479   2.608   1.962 -0.9249  0.1060 -0.0068
  165TMC2     H 2572   1.728   2.434   2.223 -1.7036  1.1217  0.5748
  165TMC2    H1 2573   1.656   2.752   1.953 -0.4663  1.6686  1.1253
  165TMC2    H2 2574   2.042   2.694   2.166  0.5676 -1.1856 -2.9160
  165TMC2    C7 2575   1.932   2.851   1.983  0.0722 -0.2547  0.1506
  165TMC2    C8 2576   1.949   2.471   2.300 -0.7019 -0.4938 -0.3592
  165TMC2    O1 2577   2.054   2.847   1.990 -0.2827 -0.2698 -0.8110
  165TMC2    O2 2578   1.888   2.399   2.376 -0.2519 -0.4612  0.5900
  165TMC2    O5 2579   2.083   2.476   2.304 -0.3071  0.3631  0.4886
  165TMC2    H5 2580   2.100   2.526   2.221  1.5601  1.7543  1.6976
  166MPD2     C 2581   1.106   2.298   2.198 -0.8107  0.2220  0.7155
  166MPD2    C1 2582   1.128   2.363   2.081 -0.3038  0.0752  0.5727
  166MPD2    C2 2583   1.249   2.433   2.064  0.7730 -0.1294 -0.6262
  166MPD2    C3 2584   1.347   2.432   2.165 -0.1796  1.0564  0.6938
  166MPD2    C4 2585   1.314   2.367   2.282  0.4298 -0.5619  0.1093
  166MPD2    C5 2586   1.197   2.303   2.299 -0.4913 -0.1161 -0.3800
  166MPD2     H 2587   1.271   2.478   1.968 -2.1374 -0.6231 -1.5446
  166MPD2    H1 2588   1.385   2.371   2.363  3.2185 -0.0284 -2.3507
  166MPD2    H2 2589   1.011   2.248   2.210 -0.9730  1.1549  3.2778
  166MPD2    H3 2590   1.170   2.257   2.393  0.6042  0.0323  0.0144
  166MPD2     N 2591   1.481   2.485   2.158  0.1825  0.0309 -0.3839
  166MPD2    H5 2592   1.535   2.474   2.243 -0.7730  0.2238  0.2355
  166MPD2    N1 2593   1.022   2.372   1.982 -0.0919  0.9236  0.7076
  166MPD2    H7 2594   0.946   2.307   1.997 -0.2387  0.6886 -0.9993
  167TMC2    C1 2595   4.063   0.111  13.053  0.6832  0.1918 -0.1651
  167TMC2    C2 2596   3.962   0.101  13.148 -0.1778  0.3000  1.0555
  167TMC2    C3 2597   3.957   4.723  13.225  0.8840  0.1746  0.0791
  167TMC2    C4 2598   4.159   0.003  13.048 -0.6659 -0.5053  0.7812
  167TMC2    C5 2599   4.138   4.626  13.126  0.0992  0.3846  0.8490
  167TMC2    C6 2600   4.039   4.616  13.216  0.3145 -0.0105  0.2812
  167TMC2     C 2601   4.074   0.231  12.974 -0.0774  0.2114 -0.6801
  167TMC2     O 2602   4.034   0.327  13.034  0.3438  0.1378  0.0392
  167TMC2     H 2603   3.887   0.180  13.155  0.5289  1.0944 -0.4156
  167TMC2    H1 2604   4.239   0.016  12.975 -0.3762 -0.1117  1.1679
  167TMC2    H2 2605   4.041   4.535  13.287 -1.6861 -1.2210 -1.0626
  167TMC2    C7 2606   4.192   4.498  13.091  0.2275 -0.0411 -0.8960
  167TMC2    C8 2607   3.844   4.710  13.320  0.7238  0.5948 -0.0479
  167TMC2    O1 2608   4.132   4.404  13.138 -0.3541  1.1320 -0.5444
  167TMC2    O2 2609   3.806   4.604  13.365 -0.2651  0.3606  0.7016
  167TMC2    O5 2610   3.812   0.094  13.364  0.1407 -0.3216 -0.1339
  167TMC2    H5 2611   3.868   0.167  13.332 -1.7538  1.0959 -0.1949
  168MPD2     C 2612   4.118   0.460  12.809 -0.2719  0.3354  0.8329
  168MPD2    C1 2613   4.145   0.330  12.767 -0.0949  0.1245  0.3678
  168MPD2    C2 2614   4.176   0.308  12.631 -0.0909 -0.3339  0.0360
  168MPD2    C3 2615   4.164   0.418  12.545 -0.0810 -0.0197  0.4264
  168MPD2    C4 2616   4.141   0.546  12.588 -0.1159 -0.1750 -0.3454
  168MPD2    C5 2617   4.129   0.566  12.719 -0.5159  0.5215 -0.4445
  168MPD2     H 2618   4.205   0.213  12.587  0.4056 -0.1512 -0.0287
  168MPD2    H1 2619   4.156   0.634  12.526  2.6409 -0.9463 -0.7995
  168MPD2    H2 2620   4.107   0.487  12.914  1.2753 -0.1027  1.1069
  168MPD2    H3 2621   4.131   0.670  12.751 -0.4332  0.6441 -0.8526
  168MPD2     N 2622   4.213   0.393  12.411  0.3802 -0.1223 -0.6872
  168MPD2    H5 2623   4.237   0.299  12.381  0.8835 -0.3873  0.5728
  168MPD2    N1 2624   4.138   0.221  12.855 -0.0179  0.8342  0.1590
  168MPD2    H7 2625   4.172   0.129  12.826  0.4882  1.2569 -0.5790
  169MPD1     C 2626   1.321   0.827   9.196  0.1035 -0.9358  0.0884
  169MPD1    C1 2627   1.454   0.852   9.170  0.3135 -0.3985  0.0098
  169MPD1    C2 2628   1.551   0.758   9.192 -0.0783  0.2547 -0.0473
  169MPD1    C3 2629   1.516   0.627   9.227  0.4105  0.2871 -0.3029
  169MPD1    C4 2630   1.384   0.596   9.227 -0.1197  0.6627 -0.3321
  169MPD1    C5 2631   1.293   0.699   9.216  0.7383  0.2574 -0.4952
  169MPD1     H 2632   1.655   0.780   9.174 -0.7093  2.0232 -1.4946
  169MPD1    H1 2633   1.333   0.501   9.237  1.7194 -0.2679  0.2985
  169MPD1    H2 2634   1.241   0.898   9.177  2.4943  1.6495 -0.2464
  169MPD1    H3 2635   1.189   0.670   9.218  0.6841  0.5271  0.6044
  169MPD1     N 2636   1.610   0.528   9.247  0.5364  0.1967 -0.4111
  169MPD1    H5 2637   1.709   0.550   9.233  0.2364  1.5493 -0.4240
  169MPD1    N1 2638   1.478   0.988   9.148 -0.1586 -0.1678  0.5558
  169MPD1    H6 2639   1.399   1.031   9.100  0.2282  0.5870  0.5835
  169MPD1    H7 2640   1.562   0.998   9.092 -0.0820 -0.3870  0.6323
  170MPD1     C 2641   0.265   2.067  12.979  0.5157  0.8614  0.1645
  170MPD1    C1 2642   0.359   2.017  13.075  0.6305  0.1572  0.0822
  170MPD1    C2 2643   0.358   2.065  13.202  0.6537 -0.0210 -0.2782
  170MPD1    C3 2644   0.268   2.159  13.230 -0.5374  0.5011 -0.0684
  170MPD1    C4 2645   0.177   2.203  13.139  0.2153  0.1364  0.0061
  170MPD1    C5 2646   0.168   2.159  13.015  0.5661 -0.3531  0.3136
  170MPD1     H 2647   0.439   2.025  13.261 -1.1266 -1.6939  1.0085
  170MPD1    H1 2648   0.111   2.283  13.169  1.1933  1.8355 -2.3439
  170MPD1    H2 2649   0.269   2.036  12.875 -0.3097  2.0533 -0.2227
  170MPD1    H3 2650   0.090   2.193  12.948  0.2634 -1.0301  0.3257
  170MPD1     N 2651   0.261   2.223  13.358 -0.2805 -0.4404 -0.7602
  170MPD1    H5 2652   0.199   2.303  13.366 -0.5320 -0.5334 -1.7891
  170MPD1    N1 2653   0.429   1.903  13.038 -0.6584 -0.7140  0.2584
  170MPD1    H6 2654   0.498   1.865  13.102  1.5935 -0.2217 -1.8592
  170MPD1    H7 2655   0.473   1.889  12.947 -0.6507  1.7915 -0.1319
  171MPD1     C 2656   3.608   3.067  15.797  0.3094 -1.0744 -0.0039
  171MPD1    C1 2657   3.624   2.954  15.720 -0.8341  0.6100  0.3176
  171MPD1    C2 2658   3.754   2.904  15.708  0.6150 -0.6228 -0.0192
  171MPD1    C3 2659   3.864   2.966  15.774  0.2014  0.0436  0.2129
  171MPD1    C4 2660   3.837   3.078  15.846 -0.4924  0.0854 -0.4226
  171MPD1    C5 2661   3.712   3.137  15.842  0.1613  0.9335  0.0481
  171MPD1     H 2662   3.767   2.813  15.650 -2.8049  0.3511 -2.3036
  171MPD1    H1 2663   3.915   3.129  15.901 -0.2932 -1.4575  0.7229
  171MPD1    H2 2664   3.510   3.110  15.817  1.2212  1.5252 -1.0758
  171MPD1    H3 2665   3.701   3.232  15.893 -1.3231  0.7117  0.1197
  171MPD1     N 2666   3.985   2.905  15.788 -0.5096 -0.7164  0.1220
  171MPD1    H5 2667   4.054   2.944  15.851  1.1593  0.1456 -2.2584
  171MPD1    N1 2668   3.513   2.904  15.654  0.2989 -0.0033  0.4922
  171MPD1    H6 2669   3.510   2.822  15.593 -2.2471  1.1298 -0.9292
  171MPD1    H7 2670   3.434   2.896  15.717 -0.0618  3.6012  0.4904
  172MPD1     C 2671   4.597   2.057   0.152  0.0838 -0.3272  0.0636
  172MPD1    C1 2672   4.482   1.990   0.147  0.4523  0.0347  1.3402
  172MPD1    C2 2673   4.366   2.051   0.196  0.2535  0.3863  0.0142
  172MPD1    C3 2674   4.375   2.182   0.235 -0.8968 -0.2321 -0.5043
  172MPD1    C4 2675   4.485   2.249   0.226 -0.4712  0.0684 -0.3126
  172MPD1    C5 2676   4.596   2.190   0.182  0.0598  0.1133  1.0456
  172MPD1     H 2677   4.274   1.993   0.193  1.9946 -2.3954  0.8526
  172MPD1    H1 2678   4.492   2.351   0.263 -0.7522 -0.5136  1.3177
  172MPD1    H2 2679   4.688   2.014   0.111 -0.5755 -2.9579  1.3758
  172MPD1    H3 2680   4.691   2.241   0.198 -0.9399  1.1940  3.4674
  172MPD1     N 2681   4.266   2.254   0.299  0.0987 -0.2664  0.3192
  172MPD1    H5 2682   4.291   2.348   0.330  1.8982 -0.7079  0.2254
  172MPD1    N1 2683   4.486   1.855   0.103  0.2377  0.0753  0.1798
  172MPD1    H6 2684   4.560   1.858   0.033 -0.8412 -1.2399 -1.0162
  172MPD1    H7 2685   4.396   1.837   0.060 -0.5982  0.9399  1.5991
  173MPD1     C 2686   3.644   2.321  14.201 -0.0896  0.5176  0.7164
  173MPD1    C1 2687   3.710   2.423  14.274 -0.2770 -0.6900  0.4805
  173MPD1    C2 2688   3.823   2.377  14.341  0.4988 -0.0842  0.2998
  173MPD1    C3 2689   3.843   2.237  14.360 -0.4096 -0.2993 -0.3177
  173MPD1    C4 2690   3.766   2.141  14.306 -0.1807 -0.4517 -0.0597
  173MPD1    C5 2691   3.665   2.185  14.219  0.0519  0.2630  0.0204
  173MPD1     H 2692   3.893   2.450  14.381  0.3918  0.2661 -0.1507
  173MPD1    H1 2693   3.800   2.038  14.301  0.9638 -0.0580 -0.4990
  173MPD1    H2 2694   3.569   2.346  14.127 -0.2754  0.8650  1.0262
  173MPD1    H3 2695   3.604   2.118  14.159  0.4363  1.6185 -1.8985
  173MPD1     N 2696   3.962   2.203  14.428 -0.6544  0.3674 -0.0941
  173MPD1    H5 2697   4.027   2.278  14.450 -0.8130  0.2022  0.9624
  173MPD1    N1 2698   3.699   2.561  14.251  0.2650 -0.2225  0.2175
  173MPD1    H6 2699   3.602   2.590  14.250  0.2647 -0.1940  1.5358
  173MPD1    H7 2700   3.735   2.614  14.330  0.4605  0.4614 -0.3388
  174MPD1     C 2701   4.726   2.194  14.118  0.3221 -0.4175  0.5165
  174MPD1    C1 2702   0.032   2.181  14.253  0.2937 -0.3274 -0.1722
  174MPD1    C2 2703   4.679   2.138  14.352 -0.6651 -0.5412 -0.4679
  174MPD1    C3 2704   4.545   2.133  14.313 -0.2216 -0.3630 -0.9540
  174MPD1    C4 2705   4.506   2.148  14.184  0.0154  0.3569  0.5109
  174MPD1    C5 2706   4.591   2.184  14.085 -0.5853  0.2797  0.1485
  174MPD1     H 2707   4.709   2.121  14.455 -0.7642 -3.0536 -0.8515
  174MPD1    H1 2708   4.400   2.136  14.161  0.9330 -0.5522 -3.2184
  174MPD1    H2 2709   0.061   2.203  14.037  0.0615  0.1917  0.3584
  174MPD1    H3 2710   4.567   2.192  13.980  0.3891  0.6235 -0.0538
  174MPD1     N 2711   4.442   2.117  14.405  0.0688  0.1914  0.1858
  174MPD1    H5 2712   4.348   2.107  14.368 -0.0773 -1.9532  1.1223
  174MPD1    N1 2713   0.171   2.179  14.280  0.3042  0.1314  0.8580
  174MPD1    H6 2714   0.214   2.238  14.210  0.7689 -0.2971  0.7832
  174MPD1    H7 2715   0.194   2.226  14.367 -0.1199 -0.9056  1.5303
  175MPD1     C 2716   2.590   2.885  15.785 -1.0320 -0.6659  0.3541
  175MPD1    C1 2717   2.633   2.758  15.811 -0.0264  0.2535 -0.5160
  175MPD1    C2 2718   2.678   2.732  15.940 -0.1252  0.2113  0.1114
  175MPD1    C3 2719   2.676   2.838  16.033 -0.3101 -0.0715 -0.4436
  175MPD1    C4 2720   2.633   2.968  15.996  0.0486 -0.5836  0.4480
  175MPD1    C5 2721   2.585   2.990  15.873  0.1980  0.8039 -0.4755
  175MPD1     H 2722   2.716   2.632  15.955  0.1403  0.0375 -1.7440
  175MPD1    H1 2723   2.638   3.052  16.064 -1.9690 -0.2212  0.1620
  175MPD1    H2 2724   2.577   2.904  15.679  0.7849  0.8551  0.4064
  175MPD1    H3 2725   2.569   3.091  15.836 -1.7614  0.7680  0.3032
  175MPD1     N 2726   2.735   2.828  16.160  0.4566  0.9041 -0.8205
  175MPD1    H5 2727   2.719   2.908  16.221  1.1495 -0.2273  0.8300
  175MPD1    N1 2728   2.660   2.661  15.715 -0.2143 -0.6310  0.4121
  175MPD1    H6 2729   2.596   2.676  15.637 -2.7913 -1.2937  2.3950
  175MPD1    H7 2730   2.642   2.571  15.760 -2.7516  0.0005  0.6996
  176MPD1     C 2731   3.728   0.146  16.778  0.4226 -0.5068 -0.5879
  176MPD1    C1 2732   3.854   0.159  16.829  0.7119 -0.1278 -0.3941
  176MPD1    C2 2733   3.864   0.200  16.964  0.5917 -0.1241  0.8815
  176MPD1    C3 2734   3.755   0.200  17.051 -0.1624 -0.1112  0.2488
  176MPD1    C4 2735   3.632   0.178  17.000  0.1554 -0.4759 -0.2645
  176MPD1    C5 2736   3.623   0.150  16.863 -0.7342 -0.3361 -0.0505
  176MPD1     H 2737   3.962   0.232  16.996  1.1807 -1.3560  0.3255
  176MPD1    H1 2738   3.546   0.193  17.064  1.0329 -0.8097  1.0015
  176MPD1    H2 2739   3.709   0.135  16.672  1.9921 -2.3538 -0.6633
  176MPD1    H3 2740   3.521   0.152  16.826 -0.6357  2.7805 -0.1057
  176MPD1     N 2741   3.768   0.240  17.188  0.3810  0.0301  0.2056
  176MPD1    H5 2742   3.864   0.262  17.213  0.3441  2.0146 -1.3998
  176MPD1    N1 2743   3.964   0.169  16.740 -0.2303 -0.3432 -0.0892
  176MPD1    H6 2744   4.046   0.135  16.789  0.3456  0.9882 -0.1146
  176MPD1    H7 2745   3.954   0.111  16.658 -1.5637 -0.9606  0.5018
  177MPD1     C 2746   2.963   1.335   9.749 -0.1178  0.2037  0.1019
  177MPD1    C1 2747   2.881   1.228   9.729 -0.4211 -0.4731  0.0097
  177MPD1    C2 2748   2.742   1.261   9.718  0.1508  0.4313  0.2413
  177MPD1    C3 2749   2.697   1.393   9.717 -0.7712 -0.3400  0.0506
  177MPD1    C4 2750   2.788   1.501   9.743  0.2288 -0.1975 -0.5750
  177MPD1    C5 2751   2.921   1.462   9.771 -0.5033  0.1330  0.5685
  177MPD1     H 2752   2.669   1.184   9.700  1.4433 -0.1455 -2.5693
  177MPD1    H1 2753   2.768   1.606   9.726 -2.0727 -1.1212 -3.4641
  177MPD1    H2 2754   3.070   1.315   9.753 -0.7329 -3.4013 -1.4885
  177MPD1    H3 2755   2.998   1.537   9.788  0.9685 -1.4554  0.8066
  177MPD1     N 2756   2.555   1.414   9.701  0.3576 -0.0903  0.1973
  177MPD1    H5 2757   2.499   1.330   9.690  0.6056 -0.2005 -0.2074
  177MPD1    N1 2758   2.932   1.104   9.693 -0.4337  0.0539 -0.7284
  177MPD1    H6 2759   3.027   1.086   9.724 -0.5369  1.3039  0.2954
  177MPD1    H7 2760   2.870   1.026   9.717 -3.5581  3.0408  0.9966
  178MPD1     C 2761   0.734   2.016  17.075 -0.3751  0.2278 -0.6247
  178MPD1    C1 2762   0.620   1.994  16.999 -0.3352 -0.4439 -0.4619
  178MPD1    C2 2763   0.536   1.891  17.037 -0.2184 -0.4579 -0.4586
  178MPD1    C3 2764   0.559   1.819  17.155 -0.3657  0.6949  0.3803
  178MPD1    C4 2765   0.663   1.851  17.237 -0.2660 -0.2308  0.0958
  178MPD1    C5 2766   0.751   1.949  17.198 -0.2577  0.4499  0.0967
  178MPD1     H 2767   0.453   1.859  16.975 -0.7156  0.5508 -0.3016
  178MPD1    H1 2768   0.685   1.800  17.329  1.1716 -0.4253 -0.3604
  178MPD1    H2 2769   0.805   2.096  17.058 -2.6916  3.2299  3.5968
  178MPD1    H3 2770   0.833   1.973  17.265 -0.4448 -0.6075  0.7037
  178MPD1     N 2771   0.488   1.706  17.186 -0.4244 -0.5683  0.1242
  178MPD1    H5 2772   0.511   1.667  17.277 -3.5052  0.3581  1.2940
  178MPD1    N1 2773   0.601   2.061  16.878 -0.0505  0.5016 -0.3376
  178MPD1    H6 2774   0.644   2.153  16.886  2.3601 -0.6514  0.0491
  178MPD1    H7 2775   0.501   2.068  16.861  0.1617  0.1171 -1.7162
  179MPD1     C 2776   4.600   4.615  15.465 -0.0509  0.1992  0.0881
  179MPD1    C1 2777   4.733   4.586  15.486 -0.0980 -0.0051 -0.0232
  179MPD1    C2 2778   0.030   4.447  15.470 -0.0408  0.7873 -0.3446
  179MPD1    C3 2779   4.679   4.359  15.416 -0.1515 -0.2396  0.2457
  179MPD1    C4 2780   4.545   4.397  15.395 -0.0445 -0.1154 -0.4477
  179MPD1    C5 2781   4.509   4.527  15.415 -0.6076  0.1678 -0.1160
  179MPD1     H 2782   0.133   4.412  15.464 -0.3536 -0.6234  2.3650
  179MPD1    H1 2783   4.481   4.325  15.345 -2.7441  1.9531 -0.0344
  179MPD1    H2 2784   4.567   4.717  15.481 -0.4961 -0.4013  2.8452
  179MPD1    H3 2785   4.409   4.564  15.392 -1.5926 -1.2582  1.8575
  179MPD1     N 2786   4.706   4.220  15.390  0.1836  0.5425  0.4288
  179MPD1    H5 2787   4.626   4.164  15.362  2.2605 -2.2857  0.1000
  179MPD1    N1 2788   0.072   4.682  15.543  0.5726  0.3685 -0.3569
  179MPD1    H6 2789   0.171   4.657  15.537  0.9533  1.9470 -0.9020
  179MPD1    H7 2790   0.070   0.034  15.493 -1.0646  0.8560  0.5907
  180MPD1     C 2791   4.120   0.474  15.561  0.0238  0.4033  0.1322
  180MPD1    C1 2792   4.151   0.602  15.524  0.5618 -0.4784  0.2252
  180MPD1    C2 2793   4.162   0.620  15.388 -0.5807 -0.7936 -0.4210
  180MPD1    C3 2794   4.132   0.518  15.293 -0.4149 -0.2603 -0.4924
  180MPD1    C4 2795   4.091   0.397  15.338  0.7154  0.5765 -0.2704
  180MPD1    C5 2796   4.085   0.373  15.472 -0.3072 -0.5039  0.7124
  180MPD1     H 2797   4.212   0.709  15.353 -2.2470  1.4748  3.0004
  180MPD1    H1 2798   4.060   0.315  15.273 -1.3950 -0.5558  2.1713
  180MPD1    H2 2799   4.105   0.443  15.664  1.3259 -0.9987 -0.1028
  180MPD1    H3 2800   4.060   0.275  15.510  1.7773 -1.5379 -0.5955
  180MPD1     N 2801   4.144   0.552  15.158 -0.8052 -0.0798 -0.7074
  180MPD1    H5 2802   4.183   0.644  15.141 -1.7975  0.3671 -0.5921
  180MPD1    N1 2803   4.200   0.708  15.607 -0.0434  0.4028 -0.0955
  180MPD1    H6 2804   4.156   0.800  15.597  0.7468  0.5990 -1.6824
  180MPD1    H7 2805   4.191   0.681  15.705  2.9548 -0.0038  0.0780
  181MPD1     C 2806   1.786   4.067  10.166  0.1931 -0.4035  0.0575
  181MPD1    C1 2807   1.862   4.001  10.072  0.0134 -0.4508  0.2352
  181MPD1    C2 2808   1.969   3.926  10.113  0.2785 -0.0114 -0.8226
  181MPD1    C3 2809   2.004   3.916  10.248 -0.3655  0.1435 -0.8920
  181MPD1    C4 2810   1.924   3.986  10.342 -0.1441 -0.2182 -0.4722
  181MPD1    C5 2811   1.817   4.063  10.299 -0.0269 -0.0004  0.6940
  181MPD1     H 2812   2.023   3.863  10.044 -1.2214  0.9387 -2.8862
  181MPD1    H1 2813   1.948   3.978  10.447 -0.8736 -1.2078 -0.3751
  181MPD1    H2 2814   1.700   4.121  10.130 -0.2068 -1.5549 -0.6982
  181MPD1    H3 2815   1.766   4.124  10.372 -1.6665 -0.3065 -0.2100
  181MPD1     N 2816   2.112   3.843  10.300  0.8936 -0.4124  0.1333
  181MPD1    H5 2817   2.132   3.847  10.399 -1.0351  2.3560  0.3890
  181MPD1    N1 2818   1.814   3.990   9.942  0.1900  0.6069  0.3614
  181MPD1    H6 2819   1.888   3.971   9.875  1.0435 -1.2939  1.8362
  181MPD1    H7 2820   1.771   4.077   9.912 -0.1711  0.7604  1.3242
  182MPD1     C 2821   3.346   1.232   2.190 -0.3029 -0.3527  0.2120
  182MPD1    C1 2822   3.393   1.313   2.091  0.1000  0.4980 -0.1871
  182MPD1    C2 2823   3.387   1.263   1.963  0.0513 -0.0498  0.3084
  182MPD1    C3 2824   3.334   1.136   1.933  0.1400 -0.3769  0.9052
  182MPD1    C4 2825   3.290   1.061   2.035 -0.7100  0.5947 -0.9156
  182MPD1    C5 2826   3.290   1.110   2.157 -0.6043  0.4032 -0.1197
  182MPD1     H 2827   3.426   1.322   1.881  1.1390 -1.0747  0.0882
  182MPD1    H1 2828   3.227   0.976   2.014 -1.1334  0.8770 -0.7918
  182MPD1    H2 2829   3.344   1.265   2.293 -1.9345 -1.4234  0.5165
  182MPD1    H3 2830   3.256   1.054   2.243 -1.1455  2.4437  1.0039
  182MPD1     N 2831   3.326   1.087   1.801  0.7048 -0.1544  0.4049
  182MPD1    H5 2832   3.289   0.993   1.798 -1.6580  0.7518  0.6925
  182MPD1    N1 2833   3.418   1.446   2.114 -0.6424  0.3266 -0.1274
  182MPD1    H6 2834   3.475   1.495   2.044 -2.4171  1.0573 -1.0668
  182MPD1    H7 2835   3.460   1.468   2.204 -1.2799 -1.1198  0.5149
  183MPD1     C 2836   2.483   3.066   9.186 -0.5444  0.7198 -0.1149
  183MPD1    C1 2837   2.478   3.181   9.260 -0.0334  0.0446 -0.2096
  183MPD1    C2 2838   2.522   3.185   9.391 -0.4503 -0.3081  0.0850
  183MPD1    C3 2839   2.569   3.071   9.460 -0.3360  0.4803 -0.4347
  183MPD1    C4 2840   2.568   2.954   9.381  0.0033  0.3167  0.6615
  183MPD1    C5 2841   2.524   2.951   9.250  0.4829 -0.3608 -0.0606
  183MPD1     H 2842   2.506   3.276   9.446 -0.1287 -0.2828  0.1388
  183MPD1    H1 2843   2.601   2.858   9.419 -3.1795 -1.3523 -0.7369
  183MPD1    H2 2844   2.440   3.058   9.087  0.0610 -0.3240 -0.2886
  183MPD1    H3 2845   2.514   2.854   9.202 -0.7456 -0.3451  0.1675
  183MPD1     N 2846   2.619   3.084   9.594  0.3487 -0.1980 -0.2922
  183MPD1    H5 2847   2.598   3.174   9.635  1.6586 -1.8590  4.0501
  183MPD1    N1 2848   2.455   3.300   9.189  0.2623 -0.3998  0.3307
  183MPD1    H6 2849   2.406   3.366   9.249 -1.1186  0.1167 -1.3454
  183MPD1    H7 2850   2.381   3.289   9.119  1.3930  2.5941 -1.3616
  184MPD1     C 2851   1.540   0.538   9.728  0.9575  0.3580 -0.0865
  184MPD1    C1 2852   1.569   0.563   9.861 -0.3628 -0.5500  0.0240
  184MPD1    C2 2853   1.643   0.678   9.893  0.4373  0.2908  0.0962
  184MPD1    C3 2854   1.698   0.760   9.797  0.2511  0.6011  0.5128
  184MPD1    C4 2855   1.672   0.735   9.666 -0.9645 -0.0018  0.4439
  184MPD1    C5 2856   1.590   0.634   9.630  0.5229  0.0176 -1.3059
  184MPD1     H 2857   1.646   0.709   9.997  2.2944  0.5113 -0.0282
  184MPD1    H1 2858   1.688   0.812   9.591  0.6550  1.1682  1.9777
  184MPD1    H2 2859   1.471   0.463   9.692  0.9662 -0.6645  2.0281
  184MPD1    H3 2860   1.562   0.619   9.526  1.0882  0.2542 -1.4893
  184MPD1     N 2861   1.772   0.874   9.831 -0.7961 -0.3594  0.5073
  184MPD1    H5 2862   1.792   0.946   9.763  0.3826 -0.0657  1.1658
  184MPD1    N1 2863   1.507   0.475   9.959  0.4143  0.5795 -0.2804
  184MPD1    H6 2864   1.558   0.468  10.047 -1.6280 -1.1107  0.7528
  184MPD1    H7 2865   1.475   0.383   9.929 -1.1700  0.6661  1.2016
  185MPD1     C 2866   1.564   1.566   9.459 -0.0926 -0.1753 -0.5103
  185MPD1    C1 2867   1.644   1.628   9.553  0.6599 -0.1796 -0.9900
  185MPD1    C2 2868   1.708   1.546   9.650  0.0679  0.0606  0.1551
  185MPD1    C3 2869   1.703   1.410   9.642  0.3925 -0.3938  0.0875
  185MPD1    C4 2870   1.622   1.349   9.548 -0.1213  0.2375 -0.1345
  185MPD1    C5 2871   1.554   1.429   9.466  0.6773  0.8220  0.3662
  185MPD1     H 2872   1.763   1.597   9.728  0.4242  0.2730 -0.2369
  185MPD1    H1 2873   1.621   1.241   9.538 -0.2675  0.3817 -1.5988
  185MPD1    H2 2874   1.513   1.621   9.380  0.8571 -1.0960 -1.7704
  185MPD1    H3 2875   1.492   1.385   9.388  0.1721  0.3846  1.0189
  185MPD1     N 2876   1.780   1.327   9.721  0.1563 -0.4649  0.4482
  185MPD1    H5 2877   1.774   1.227   9.701  1.1645 -0.5781  0.7172
  185MPD1    N1 2878   1.625   1.765   9.572 -0.1461 -0.3584 -0.1638
  185MPD1    H6 2879   1.697   1.818   9.622 -2.7165 -0.1661  3.3078
  185MPD1    H7 2880   1.595   1.817   9.490  0.0782  1.4022  0.8810
  186MPD1     C 2881   4.614   0.309  15.774 -0.0550  0.3023 -0.0915
  186MPD1    C1 2882   4.598   0.403  15.867  0.2128  0.0935  0.2867
  186MPD1    C2 2883   4.670   0.393  15.983 -0.7474 -0.0363  0.1916
  186MPD1    C3 2884   0.026   0.292  16.004 -0.8969 -1.0493 -0.1199
  186MPD1    C4 2885   0.039   0.194  15.906 -0.2096 -0.6230 -0.0233
  186MPD1    C5 2886   4.712   0.211  15.790  0.1334 -0.7935  0.1861
  186MPD1     H 2887   4.648   0.471  16.056 -1.1160  0.6072 -0.6022
  186MPD1    H1 2888   0.103   0.108  15.921  0.0815 -0.7425 -1.8449
  186MPD1    H2 2889   4.539   0.300  15.697 -1.1664  0.2784  0.9969
  186MPD1    H3 2890   4.712   0.131  15.717  0.2629 -1.3996  0.8461
  186MPD1     N 2891   0.086   0.263  16.126 -0.1683  0.5915 -0.0492
  186MPD1    H5 2892   0.154   0.188  16.125 -0.0986  0.6410  0.6930
  186MPD1    N1 2893   4.501   0.504  15.849 -0.4628  0.1923  0.0708
  186MPD1    H6 2894   4.499   0.539  15.753  0.9800 -1.3509 -0.5356
  186MPD1    H7 2895   4.542   0.579  15.904  1.1890  0.5203 -1.5847
  187MPD1     C 2896   0.068   0.725  17.659 -0.1541 -0.0234 -0.0803
  187MPD1    C1 2897   4.683   0.724  17.721  0.5289  0.3890  0.5028
  187MPD1    C2 2898   4.586   0.824  17.681 -0.3898 -0.4651  0.0936
  187MPD1    C3 2899   4.601   0.891  17.565 -0.0772 -0.0365 -0.1424
  187MPD1    C4 2900   4.727   0.899  17.512  0.6993 -0.6424  0.2265
  187MPD1    C5 2901   0.092   0.816  17.558 -0.1654  0.0292  0.2133
  187MPD1     H 2902   4.500   0.836  17.745 -1.6429 -4.0450 -0.9494
  187MPD1    H1 2903   0.011   0.970  17.433  0.1278  0.4567  1.0612
  187MPD1    H2 2904   0.140   0.655  17.701  0.8786  2.3326  2.0637
  187MPD1    H3 2905   0.193   0.823  17.519  0.3552  0.0258  1.5773
  187MPD1     N 2906   4.503   0.980  17.515 -0.2002  0.3145  0.7114
  187MPD1    H5 2907   4.534   1.049  17.447 -1.6891  0.4848  0.2060
  187MPD1    N1 2908   4.663   0.651   0.098  0.3252  0.2835  0.5667
  187MPD1    H6 2909   4.566   0.623   0.107  0.2199  0.6794  0.6682
  187MPD1    H7 2910   4.714   0.564   0.114 -1.1192 -0.9670 -1.6164
  188MPD1     C 2911   3.871   1.368  10.744 -0.7248 -0.0154 -0.5193
  188MPD1    C1 2912   3.943   1.253  10.736  0.1532  0.5185 -0.3526
  188MPD1    C2 2913   3.928   1.173  10.628  0.2967 -0.3758 -0.3345
  188MPD1    C3 2914   3.873   1.215  10.509 -0.1618 -0.8582 -0.4428
  188MPD1    C4 2915   3.810   1.334  10.515  0.1791  1.3837 -0.0991
  188MPD1    C5 2916   3.818   1.413  10.628 -0.3233  0.1209  0.2232
  188MPD1     H 2917   3.980   1.079  10.628  0.6970 -0.1538 -1.7875
  188MPD1    H1 2918   3.775   1.382  10.424  0.6150  0.0830 -0.9447
  188MPD1    H2 2919   3.891   1.443  10.819  1.0990 -0.8943 -0.1326
  188MPD1    H3 2920   3.784   1.516  10.620 -1.7193 -0.0729  3.3888
  188MPD1     N 2921   3.884   1.137  10.389  0.3916  0.2976 -0.0025
  188MPD1    H5 2922   3.939   1.052  10.390 -0.4339 -0.2386  0.0453
  188MPD1    N1 2923   3.983   1.202  10.863  0.2299  0.1573  0.2729
  188MPD1    H6 2924   4.015   1.276  10.925 -0.1333  1.3793 -0.9834
  188MPD1    H7 2925   4.062   1.138  10.854  1.3643  1.8098 -1.6839
  189MPD1     C 2926   1.174   1.774   1.332 -0.0819 -0.2797  0.1937
  189MPD1    C1 2927   1.042   1.733   1.318  0.2061  0.1237 -0.1404
  189MPD1    C2 2928   0.968   1.805   1.224 -0.1078  0.0914  0.2812
  189MPD1    C3 2929   1.013   1.906   1.145  1.3108  0.1228 -0.0845
  189MPD1    C4 2930   1.148   1.930   1.147 -0.5420  0.3541 -0.2493
  189MPD1    C5 2931   1.228   1.869   1.244 -0.5665  0.8406 -0.5706
  189MPD1     H 2932   0.861   1.791   1.232 -0.2337  0.3395 -1.0050
  189MPD1    H1 2933   1.196   1.995   1.075  2.9577 -0.8860  0.9837
  189MPD1    H2 2934   1.224   1.735   1.420  1.4830  0.5805 -0.3057
  189MPD1    H3 2935   1.336   1.876   1.244 -0.4975 -0.1486 -2.2931
  189MPD1     N 2936   0.926   1.956   1.050 -0.1945 -0.3856  0.0347
  189MPD1    H5 2937   0.827   1.934   1.059 -0.0841 -0.5529  0.8513
  189MPD1    N1 2938   0.982   1.633   1.397  0.1217  0.1148  0.1996
  189MPD1    H6 2939   0.881   1.621   1.395 -0.3197  4.0511 -2.9771
  189MPD1    H7 2940   1.023   1.625   1.489  0.3192 -1.3810 -0.0157
  190MPD1     C 2941   4.551   0.156  15.257  0.7391 -0.3439  0.4149
  190MPD1    C1 2942   4.470   0.264  15.284 -0.0879 -0.0395 -0.4775
  190MPD1    C2 2943   4.519   0.367  15.361  0.1190 -0.3319 -0.1446
  190MPD1    C3 2944   4.647   0.362  15.408  0.1057 -0.2060  0.1031
  190MPD1    C4 2945   4.727   0.260  15.380 -0.6379  0.0373 -0.5533
  190MPD1    C5 2946   4.675   0.151  15.308  0.1578 -0.6665 -0.2571
  190MPD1     H 2947   4.467   0.459  15.383  0.6227  0.4344 -2.1532
  190MPD1    H1 2948   0.090   0.251  15.420 -1.0322  0.4061  0.5307
  190MPD1    H2 2949   4.521   0.070  15.197  0.7882  0.4997 -0.8197
  190MPD1    H3 2950   4.730   0.059  15.292  1.5739  0.1560 -0.1546
  190MPD1     N 2951   4.689   0.468  15.500  0.0990 -0.2893  0.2060
  190MPD1    H5 2952   4.623   0.542  15.522 -0.1882 -1.0833  2.0510
  190MPD1    N1 2953   4.355   0.264  15.209  0.0604  0.3455  0.2469
  190MPD1    H6 2954   4.285   0.331  15.243 -0.1419  0.2628 -0.0065
  190MPD1    H7 2955   4.325   0.167  15.208 -0.5638  0.5305  0.6529
  191MPD1     C 2956   4.459   2.241  13.715  0.1313  0.2075  0.0857
  191MPD1    C1 2957   4.453   2.285  13.582 -0.1154  0.1871  0.1395
  191MPD1    C2 2958   4.335   2.348  13.539  0.1703 -0.0739 -0.1987
  191MPD1    C3 2959   4.216   2.350  13.612 -0.3388  0.5229  0.4822
  191MPD1    C4 2960   4.231   2.304  13.744  0.3498 -0.4483  0.4071
  191MPD1    C5 2961   4.344   2.241  13.793  0.1225 -0.5761 -0.0867
  191MPD1     H 2962   4.339   2.400  13.444 -2.0958 -0.0070 -0.2676
  191MPD1    H1 2963   4.147   2.313  13.812 -0.0032 -0.0634 -0.0712
  191MPD1    H2 2964   4.543   2.188  13.760 -0.4815  0.6152  1.7006
  191MPD1    H3 2965   4.358   2.207  13.895  0.0977 -0.2300  0.0295
  191MPD1     N 2966   4.098   2.407  13.564  0.2456 -0.5881  0.1331
  191MPD1    H5 2967   4.090   2.433  13.466  2.3097 -1.2969 -0.2103
  191MPD1    N1 2968   4.564   2.277  13.499 -0.2237 -0.1819  0.0988
  191MPD1    H6 2969   4.538   2.278  13.401 -1.3456  2.7250  0.4325
  191MPD1    H7 2970   4.619   2.192  13.506  1.2600  0.8207  0.6561
  192MPD1     C 2971   3.024   2.645  13.532  0.0368 -0.2136  0.3109
  192MPD1    C1 2972   3.071   2.523  13.576  0.2074 -0.3213  0.0305
  192MPD1    C2 2973   3.211   2.506  13.564 -0.0897  0.0043  0.3687
  192MPD1    C3 2974   3.284   2.593  13.495  0.0256 -0.1799 -0.2950
  192MPD1    C4 2975   3.229   2.708  13.443 -0.4570 -0.6394  0.0338
  192MPD1    C5 2976   3.098   2.731  13.454  0.2277 -0.2301  0.5959
  192MPD1     H 2977   3.254   2.426  13.622 -2.4766 -1.3965  0.2283
  192MPD1    H1 2978   3.299   2.778  13.398 -0.6626 -0.2517  0.3237
  192MPD1    H2 2979   2.920   2.674  13.538  0.0719  0.5041 -2.3502
  192MPD1    H3 2980   3.049   2.822  13.422 -2.3723 -2.1705 -1.0402
  192MPD1     N 2981   3.421   2.558  13.464 -0.0015 -0.0808 -0.2792
  192MPD1    H5 2982   3.465   2.621  13.398  2.8745  0.3422  2.0295
  192MPD1    N1 2983   2.995   2.449  13.674  0.0130 -0.4503 -0.1244
  192MPD1    H6 2984   2.896   2.440  13.652  0.2725 -1.3210 -0.9552
  192MPD1    H7 2985   3.017   2.349  13.682 -0.5051 -0.7671 -2.6979
  193MPD1     C 2986   4.252   2.743  16.400 -0.7288  0.5685 -0.2109
  193MPD1    C1 2987   4.170   2.830  16.466  0.3152  0.0804 -0.5672
  193MPD1    C2 2988   4.219   2.952  16.513 -0.4524  0.9208  0.9118
  193MPD1    C3 2989   4.339   3.006  16.461 -0.3280 -0.7693  0.4769
  193MPD1    C4 2990   4.416   2.920  16.388  0.2378  0.3810  0.3826
  193MPD1    C5 2991   4.374   2.796  16.353 -0.0652 -0.1978 -0.1713
  193MPD1     H 2992   4.148   3.009  16.572 -1.6427 -0.7760  1.1211
  193MPD1    H1 2993   4.517   2.952  16.365 -1.4642  1.7426 -5.0976
  193MPD1    H2 2994   4.219   2.644  16.373  0.2435 -0.0072  0.7495
  193MPD1    H3 2995   4.438   2.732  16.294  0.0349 -0.4259  0.1821
  193MPD1     N 2996   4.384   3.136  16.487 -0.0081 -0.0699 -0.0948
  193MPD1    H5 2997   4.465   3.162  16.433  0.4050 -0.5056  0.3153
  193MPD1    N1 2998   4.048   2.781  16.520  0.2179 -0.3797  0.2820
  193MPD1    H6 2999   3.971   2.846  16.535 -0.0366 -0.9429  1.4554
  193MPD1    H7 3000   4.019   2.705  16.458 -0.3121  0.2489 -0.2322
  194MPD1     C 3001   1.388   4.730  17.177  0.1564  0.1592 -0.8741
  194MPD1    C1 3002   1.520   0.007  17.158 -0.2400  0.4315  0.2391
  194MPD1    C2 3003   1.616   4.674  17.232 -0.3663  0.5467 -0.3041
  194MPD1    C3 3004   1.568   4.589  17.336  0.1000  0.9482 -0.2058
  194MPD1    C4 3005   1.429   4.579  17.359 -0.3438 -0.0439  0.5313
  194MPD1    C5 3006   1.343   4.649  17.281  0.3347  0.1263  0.0126
  194MPD1     H 3007   1.719   4.694  17.205 -0.6443 -0.1967 -1.9328
  194MPD1    H1 3008   1.382   4.504  17.421 -0.4502 -0.3689  0.0569
  194MPD1    H2 3009   1.316   0.047  17.116  0.4967  1.0173 -0.5177
  194MPD1    H3 3010   1.237   4.649  17.303  1.2116 -2.6519  4.2061
  194MPD1     N 3011   1.652   4.514  17.423 -0.1288  0.1634  0.3479
  194MPD1    H5 3012   1.612   4.461  17.500  1.1960 -0.4583  0.6096
  194MPD1    N1 3013   1.580   0.086  17.051 -0.2465  0.5205 -0.8731
  194MPD1    H6 3014   1.524   0.167  17.028 -0.7623 -0.1961 -2.1447
  194MPD1    H7 3015   1.680   0.105  17.055 -0.4382  1.0460  1.2846
  195MPD1     C 3016   4.194   2.031  17.501 -0.3750  0.1241  0.1840
  195MPD1    C1 3017   4.126   2.026  17.622  0.3407 -0.0408  0.3259
  195MPD1    C2 3018   4.143   1.915  17.703 -0.5545 -0.3821 -0.2381
  195MPD1    C3 3019   4.195   1.796  17.657 -0.1735 -0.3412 -0.6378
  195MPD1    C4 3020   4.246   1.803  17.530 -0.3009  0.1841 -0.4874
  195MPD1    C5 3021   4.250   1.919  17.454 -0.6642  0.3984 -0.2689
  195MPD1     H 3022   4.096   1.919   0.054  0.5339 -1.5618  0.3262
  195MPD1    H1 3023   4.287   1.709  17.496  0.4254  0.5281 -0.5676
  195MPD1    H2 3024   4.179   2.120  17.442  0.9129  0.3717  0.2301
  195MPD1    H3 3025   4.272   1.913  17.348 -0.9297 -1.2607 -0.2376
  195MPD1     N 3026   4.211   1.676  17.730  0.3014  0.6519 -0.1290
  195MPD1    H5 3027   4.258   1.609  17.671  0.9714  0.2967  0.8156
  195MPD1    N1 3028   4.079   2.137  17.682 -0.1899  1.0113  0.0981
  195MPD1    H6 3029   4.023   2.117   0.018  1.4390  1.5236  1.3392
  195MPD1    H7 3030   4.021   2.201  17.627 -0.5520 -0.7386 -1.5288
  196MPD1     C 3031   4.667   1.092   0.808 -0.9068 -0.0774  0.7828
  196MPD1    C1 3032   4.688   1.228   0.783 -0.6532  0.4100  0.0834
  196MPD1    C2 3033   4.650   1.326   0.873 -0.6479 -0.0341  0.1930
  196MPD1    C3 3034   4.579   1.287   0.993 -0.6833 -0.1971  0.0631
  196MPD1    C4 3035   4.546   1.154   1.006 -0.0856  0.5929 -0.1491
  196MPD1    C5 3036   4.602   1.059   0.923  0.2510 -0.4194  0.5256
  196MPD1     H 3037   4.663   1.431   0.852  0.5094 -0.2285 -0.0660
  196MPD1    H1 3038   4.495   1.125   1.097 -0.5259  0.8351 -0.3180
  196MPD1    H2 3039   4.717   1.010   0.758 -0.1313  0.9493 -0.1196
  196MPD1    H3 3040   4.601   0.955   0.955  1.2960 -0.2195  1.2084
  196MPD1     N 3041   4.538   1.384   1.084  0.1036 -0.8427 -0.0079
  196MPD1    H5 3042   4.473   1.340   1.148 -0.2804 -1.4908 -0.8564
  196MPD1    N1 3043   0.036   1.261   0.676 -0.0211  0.0467  0.0553
  196MPD1    H6 3044   0.016   1.356   0.648 -0.1624 -1.1687 -4.0442
  196MPD1    H7 3045   0.024   1.203   0.593 -2.4167 -0.0482  0.4684
  197MPD1     C 3046   3.048   3.155   0.151 -0.0165  0.0119 -1.1636
  197MPD1    C1 3047   3.137   3.252   0.186 -0.3635  0.6263 -0.2360
  197MPD1    C2 3048   3.203   3.326   0.090 -0.0453 -0.1253  0.0707
  197MPD1    C3 3049   3.175   3.301  17.697  0.4779 -0.1583  0.8319
  197MPD1    C4 3050   3.075   3.208  17.664 -0.2837  0.5150  0.1344
  197MPD1    C5 3051   3.010   3.141   0.019  0.3599  0.5899 -0.1465
  197MPD1     H 3052   3.279   3.395   0.123 -1.6269  1.8538 -0.4321
  197MPD1    H1 3053   3.071   3.185  17.558  0.0417  0.1799  0.1947
  197MPD1    H2 3054   3.001   3.088   0.222 -1.9509  1.8096 -0.7370
  197MPD1    H3 3055   2.946   3.055   0.006  0.2011  0.5104  1.1774
  197MPD1     N 3056   3.233   3.374  17.590 -0.7071  0.1135  0.3267
  197MPD1    H5 3057   3.213   3.350  17.493 -0.2072  2.0074 -0.2375
  197MPD1    N1 3058   3.162   3.278   0.322  0.8291  0.3009  0.5111
  197MPD1    H6 3059   3.244   3.336   0.340  0.0259  0.9654  2.0170
  197MPD1    H7 3060   3.182   3.196   0.379 -0.0283  0.7302  1.4416
  198MPD1     C 3061   4.267   1.293  16.160 -0.1022 -0.3991  0.0447
  198MPD1    C1 3062   4.284   1.416  16.218  0.4222  0.1437  0.0419
  198MPD1    C2 3063   4.345   1.518  16.148 -0.0597 -0.0247 -0.4464
  198MPD1    C3 3064   4.372   1.504  16.014  0.0019  0.3802  0.2194
  198MPD1    C4 3065   4.339   1.389  15.952  0.1640  0.2742  1.0865
  198MPD1    C5 3066   4.289   1.280  16.026  0.1044  1.2820  0.4322
  198MPD1     H 3067   4.374   1.608  16.201 -0.0736 -0.4299  0.2565
  198MPD1    H1 3068   4.341   1.373  15.845 -1.8580 -0.0487  1.1052
  198MPD1    H2 3069   4.243   1.206  16.221  1.7294  1.0711  2.8245
  198MPD1    H3 3070   4.259   1.185  15.984  1.9836  1.9985 -2.5287
  198MPD1     N 3071   4.427   1.615  15.943 -0.0018 -0.4691 -0.1540
  198MPD1    H5 3072   4.447   1.703  15.991  0.5985 -0.7502  0.1104
  198MPD1    N1 3073   4.257   1.425  16.352 -0.1902  0.7601 -0.5111
  198MPD1    H6 3074   4.209   1.511  16.377  0.3533 -0.2783  4.0496
  198MPD1    H7 3075   4.194   1.352  16.383  1.3046  0.0381  0.7993
  199MPD1     C 3076   2.155   4.236  10.633  0.3707  0.0719 -0.4479
  199MPD1    C1 3077   2.252   4.144  10.588 -0.5382  0.4973  0.8840
  199MPD1    C2 3078   2.264   4.135  10.452 -0.1252 -0.1954  0.2796
  199MPD1    C3 3079   2.201   4.225  10.364 -0.1725 -0.2307  0.2913
  199MPD1    C4 3080   2.118   4.323  10.414 -0.3778  0.3724 -0.6663
  199MPD1    C5 3081   2.097   4.324  10.543  0.2659  0.3111 -0.2290
  199MPD1     H 3082   2.323   4.054  10.410  0.0709  1.4180 -2.5448
  199MPD1    H1 3083   2.064   4.380  10.339 -0.0553  3.2238  1.3194
  199MPD1    H2 3084   2.138   4.244  10.740 -3.2392  0.3650 -1.0514
  199MPD1    H3 3085   2.018   4.388  10.582  1.3380  1.7784 -0.4765
  199MPD1     N 3086   2.225   4.220  10.223  0.2362  0.6582  0.4762
  199MPD1    H5 3087   2.163   4.280  10.169  2.6518  1.1224 -1.7521
  199MPD1    N1 3088   2.305   4.044  10.672  0.1586 -0.4850 -0.6296
  199MPD1    H6 3089   2.396   4.008  10.644  1.3529  1.7545  0.3386
  199MPD1    H7 3090   2.310   4.073  10.770  1.4293 -0.6175 -0.6490
  200MPD1     C 3091   0.463   2.927  14.720  0.2910  0.2483 -0.2862
  200MPD1    C1 3092   0.548   2.983  14.806  0.3024 -1.3025 -0.0861
  200MPD1    C2 3093   0.675   3.008  14.758 -0.8295 -0.3672  0.1516
  200MPD1    C3 3094   0.713   2.988  14.629 -0.4906  0.0449  0.1599
  200MPD1    C4 3095   0.614   2.935  14.542 -0.4278 -0.1343 -0.3894
  200MPD1    C5 3096   0.487   2.908  14.591  0.0939  0.8101 -0.7386
  200MPD1     H 3097   0.743   3.047  14.834  1.0484 -0.7655 -1.3304
  200MPD1    H1 3098   0.635   2.905  14.440  0.9487  1.1983 -0.4984
  200MPD1    H2 3099   0.364   2.892  14.748  1.6310 -3.0521  0.3131
  200MPD1    H3 3100   0.411   2.869  14.523 -0.0679  1.1404 -0.7446
  200MPD1     N 3101   0.847   3.017  14.589 -0.4428 -0.4733  0.6284
  200MPD1    H5 3102   0.910   3.054  14.660  1.0260 -0.3119 -0.7689
  200MPD1    N1 3103   0.501   2.995  14.939 -0.5329 -0.4412 -0.4885
  200MPD1    H6 3104   0.402   3.016  14.945 -0.2917  0.4739  0.2918
  200MPD1    H7 3105   0.556   3.057  14.999 -0.4922  0.3231 -1.3223
  201MPD1     C 3106   3.198   2.407  13.047  0.0594 -0.1744 -0.1685
  201MPD1    C1 3107   3.181   2.295  12.970  0.1084  1.0532  0.6519
  201MPD1    C2 3108   3.247   2.185  13.018 -0.0688  0.0501  0.7436
  201MPD1    C3 3109   3.308   2.182  13.142 -0.7425  0.0023 -0.2087
  201MPD1    C4 3110   3.299   2.292  13.229 -0.2737 -0.3682  0.5443
  201MPD1    C5 3111   3.247   2.404  13.174 -0.3396 -0.1706 -0.1636
  201MPD1     H 3112   3.258   2.102  12.949 -1.9351  1.3565 -1.1312
  201MPD1    H1 3113   3.348   2.305  13.325  0.2897 -1.3355  0.3909
  201MPD1    H2 3114   3.143   2.496  13.017 -2.5973 -1.8658 -0.2846
  201MPD1    H3 3115   3.245   2.493  13.235 -0.9943  0.2743 -0.8306
  201MPD1     N 3116   3.363   2.059  13.185 -0.3984  0.3851 -0.6495
  201MPD1    H5 3117   3.372   1.989  13.112  3.0027 -0.2856  0.4365
  201MPD1    N1 3118   3.125   2.308  12.841 -0.4825 -0.4830 -0.2181
  201MPD1    H6 3119   3.072   2.228  12.807 -2.2818  0.4044  0.5553
  201MPD1    H7 3120   3.064   2.389  12.838  1.0816  0.8109  2.7884
  202MPD1     C 3121   2.945   2.264   9.135 -0.8315  0.4324 -1.0064
  202MPD1    C1 3122   3.030   2.155   9.130 -0.1227 -0.4374  0.2538
  202MPD1    C2 3123   3.126   2.159   9.232 -0.0849 -0.3489  0.0982
  202MPD1    C3 3124   3.105   2.227   9.355  0.3474  0.0843  0.3717
  202MPD1    C4 3125   2.998   2.316   9.357 -0.2196 -0.2568  0.0709
  202MPD1    C5 3126   2.923   2.334   9.245  0.4529  0.3534 -0.1890
  202MPD1     H 3127   3.201   2.080   9.231 -1.1734 -1.4016  1.3664
  202MPD1    H1 3128   2.976   2.377   9.443  3.1140 -2.5286  2.5424
  202MPD1    H2 3129   2.884   2.298   9.052 -0.1340  0.3004 -1.5797
  202MPD1    H3 3130   2.837   2.400   9.255 -0.4204 -0.5361 -2.0188
  202MPD1     N 3131   3.176   2.208   9.475  0.0290 -0.1851 -0.5733
  202MPD1    H5 3132   3.152   2.267   9.554  1.9369  1.0494 -0.9200
  202MPD1    N1 3133   3.069   2.100   9.008  0.1429  0.4501 -0.4799
  202MPD1    H6 3134   3.126   2.018   9.022  1.1086  1.0190 -1.0927
  202MPD1    H7 3135   2.988   2.077   8.952 -0.3039 -0.9797  0.7685
  203MPD1     C 3136   2.048   2.865  12.458 -0.0750 -0.8923  0.4695
  203MPD1    C1 3137   2.126   2.776  12.390 -0.4931 -0.2223  0.2237
  203MPD1    C2 3138   2.181   2.673  12.465 -0.1001 -0.6452  0.1136
  203MPD1    C3 3139   2.151   2.651  12.596  0.5295 -1.1637 -0.6304
  203MPD1    C4 3140   2.062   2.735  12.660 -0.5769  0.9115  0.2021
  203MPD1    C5 3141   2.014   2.838  12.586 -0.0490 -0.0673  0.9298
  203MPD1     H 3142   2.250   2.608  12.413 -0.7437 -0.5977 -0.8038
  203MPD1    H1 3143   2.021   2.730  12.761  2.8871  0.8530  1.6050
  203MPD1    H2 3144   1.985   2.939  12.409  1.5588 -0.3845 -0.8400
  203MPD1    H3 3145   1.939   2.898  12.635  0.4329 -0.2866  1.9380
  203MPD1     N 3146   2.228   2.544  12.653 -0.6235 -0.0026  0.5830
  203MPD1    H5 3147   2.267   2.478  12.587 -3.1506 -0.6064 -0.3028
  203MPD1    N1 3148   2.188   2.824  12.270  0.4338  0.0363 -0.2916
  203MPD1    H6 3149   2.113   2.851  12.206 -0.5883 -1.6950  0.1500
  203MPD1    H7 3150   2.234   2.750  12.218 -0.0186 -0.9003  0.6400
  204MPD1     C 3151   2.078   3.866   0.644  0.5291 -0.8495  0.1488
  204MPD1    C1 3152   2.198   3.798   0.632 -0.0705  0.0884 -0.6746
  204MPD1    C2 3153   2.216   3.729   0.516  0.2769 -0.3178 -0.1530
  204MPD1    C3 3154   2.128   3.732   0.412 -0.0245  0.0646 -0.8696
  204MPD1    C4 3155   2.007   3.803   0.425 -0.1073  0.1157  0.3902
  204MPD1    C5 3156   1.982   3.856   0.544 -0.6457  0.8065  0.5546
  204MPD1     H 3157   2.308   3.677   0.494  1.9621  2.8089 -0.3739
  204MPD1    H1 3158   1.934   3.800   0.345  0.4411 -1.5236 -0.0536
  204MPD1    H2 3159   2.052   3.915   0.737  2.3873  0.4861 -0.0368
  204MPD1    H3 3160   1.886   3.905   0.539 -0.6478  0.8849  1.3769
  204MPD1     N 3161   2.156   3.652   0.298  0.1714 -0.1414  0.2489
  204MPD1    H5 3162   2.237   3.592   0.312  1.6784  2.2100  1.5434
  204MPD1    N1 3163   2.284   3.783   0.739 -0.1626 -0.0498  0.5922
  204MPD1    H6 3164   2.380   3.769   0.708  0.3769  1.1207  1.7240
  204MPD1    H7 3165   2.280   3.862   0.804 -0.9770  0.8714 -0.5774
  205MPD1     C 3166   2.078   2.047  17.713 -0.5762 -0.8086 -0.3774
  205MPD1    C1 3167   2.149   2.004   0.069  0.0356  0.2397  0.4305
  205MPD1    C2 3168   2.251   2.072   0.113 -0.7797 -0.0355  0.0284
  205MPD1    C3 3169   2.292   2.188   0.047  0.7621  0.0249 -1.1725
  205MPD1    C4 3170   2.220   2.239  17.692 -0.1847  0.1780 -0.2297
  205MPD1    C5 3171   2.109   2.169  17.656  0.1802 -0.4287 -0.5223
  205MPD1     H 3172   2.306   2.034   0.198 -0.2862 -1.5433 -0.9638
  205MPD1    H1 3173   2.250   2.334  17.650  0.2612  0.4022  0.6049
  205MPD1    H2 3174   1.990   1.994  17.678 -0.4321 -2.7045  2.1407
  205MPD1    H3 3175   2.049   2.214  17.578 -0.3434 -1.8842 -0.9672
  205MPD1     N 3176   2.402   2.262   0.091  0.2694 -0.1898  0.0189
  205MPD1    H5 3177   2.416   2.349   0.039 -0.3280 -0.4654 -0.6010
  205MPD1    N1 3178   2.100   1.895   0.147 -0.1068 -1.0177  0.0933
  205MPD1    H6 3179   2.030   1.839   0.099 -0.0121 -1.8816  0.9655
  205MPD1    H7 3180   2.173   1.842   0.194  0.3236 -0.7300 -0.2504
  206MPD1     C 3181   1.144   1.366  16.594  0.0217  0.0874 -0.1129
  206MPD1    C1 3182   1.266   1.347  16.543 -0.5853 -0.0383 -0.1242
  206MPD1    C2 3183   1.279   1.255  16.442  0.2036 -0.0918 -0.2306
  206MPD1    C3 3184   1.172   1.186  16.387 -1.0239 -0.4044  0.6779
  206MPD1    C4 3185   1.045   1.229  16.425 -1.0652 -0.2676  0.2812
  206MPD1    C5 3186   1.032   1.324  16.530 -0.6329  0.3209 -0.9988
  206MPD1     H 3187   1.382   1.237  16.414  0.8526 -0.5747  2.4209
  206MPD1    H1 3188   0.952   1.190  16.383 -0.3159 -1.6797 -0.0772
  206MPD1    H2 3189   1.130   1.437  16.675  1.3163 -1.1554  1.2143
  206MPD1    H3 3190   0.934   1.356  16.563  0.3003  0.0335  2.0628
  206MPD1     N 3191   1.182   1.085  16.285 -0.2249  0.8968  0.0034
  206MPD1    H5 3192   1.099   1.041  16.245 -0.1513  0.3252  0.4769
  206MPD1    N1 3193   1.377   1.380  16.625 -0.7097  0.2258 -0.1867
  206MPD1    H6 3194   1.348   1.461  16.679 -0.0723  0.3791 -0.0792
  206MPD1    H7 3195   1.465   1.387  16.573 -0.3388 -2.3912  0.0656
  207MPD1     C 3196   1.249   2.999  11.162 -0.2310  0.2985 -0.5809
  207MPD1    C1 3197   1.199   2.909  11.072 -0.0910 -0.0917 -0.2445
  207MPD1    C2 3198   1.090   2.951  10.992  0.5288  0.4226  0.5157
  207MPD1    C3 3199   1.047   3.084  11.002  1.1148  0.7612 -0.4596
  207MPD1    C4 3200   1.104   3.166  11.095 -0.0731 -0.5039  0.9840
  207MPD1    C5 3201   1.205   3.123  11.177  0.1305  0.0155  0.2237
  207MPD1     H 3202   1.048   2.875  10.927 -1.5060  2.7403 -0.8883
  207MPD1    H1 3203   1.068   3.267  11.105 -1.0844 -0.9343  1.6253
  207MPD1    H2 3204   1.327   2.966  11.230  1.3515 -0.0089 -2.5611
  207MPD1    H3 3205   1.244   3.191  11.251 -0.2927  0.0372  0.4312
  207MPD1     N 3206   0.954   3.142  10.908 -0.0738  0.0892  0.1127
  207MPD1    H5 3207   0.945   3.243  10.912  2.2026  0.2873 -0.2304
  207MPD1    N1 3208   1.238   2.770  11.056 -0.1028 -0.4133 -0.3314
  207MPD1    H6 3209   1.244   2.739  10.959  0.4628 -0.0539 -0.4077
  207MPD1    H7 3210   1.325   2.756  11.106  0.5602  0.1906 -1.3267
  208MPD1     C 3211   2.899   1.213  17.655  0.1506  0.7071  0.8150
  208MPD1    C1 3212   2.903   1.133   0.022 -0.4653  0.1535  0.0068
  208MPD1    C2 3213   2.972   1.196   0.132 -0.4506  0.2550 -0.4355
  208MPD1    C3 3214   3.044   1.314   0.127  0.4671  0.5052 -0.3813
  208MPD1    C4 3215   3.040   1.380   0.009  0.0480  0.0823  0.1375
  208MPD1    C5 3216   2.963   1.333  17.650 -0.4761  0.1910 -0.2212
  208MPD1     H 3217   2.970   1.143   0.226  0.4296  1.3471  0.1956
  208MPD1    H1 3218   3.087   1.477  17.744  2.2796 -0.7676  2.1395
  208MPD1    H2 3219   2.844   1.174  17.569  1.6844 -0.8818  0.5567
  208MPD1    H3 3220   2.940   1.406  17.573 -0.3347 -0.3404 -0.7720
  208MPD1     N 3221   3.088   1.357   0.255 -0.3216 -0.5964 -0.2028
  208MPD1    H5 3222   3.049   1.311   0.337  2.1836 -0.4996  1.0513
  208MPD1    N1 3223   2.824   1.016   0.038 -0.1537  0.0846  0.3374
  208MPD1    H6 3224   2.852   0.944   0.104 -3.5770 -0.8804  0.7053
  208MPD1    H7 3225   2.799   0.970  17.697  2.2456  0.5494 -0.6120
  209MPD1     C 3226   4.338   2.091  10.669 -0.1935  0.3317 -0.3075
  209MPD1    C1 3227   4.383   2.170  10.560 -0.2622 -0.4857  0.4893
  209MPD1    C2 3228   4.409   2.304  10.594  0.7050  0.1840 -0.0324
  209MPD1    C3 3229   4.417   2.347  10.721 -0.4267  0.1417  0.0271
  209MPD1    C4 3230   4.379   2.269  10.827  0.2149 -0.3013 -0.4520
  209MPD1    C5 3231   4.341   2.140  10.799 -0.6100  0.0163 -0.2884
  209MPD1     H 3232   4.433   2.372  10.513  0.2157  0.1517 -0.2066
  209MPD1    H1 3233   4.373   2.299  10.931 -0.6837  0.5677 -0.7461
  209MPD1    H2 3234   4.299   1.991  10.656  0.4541  0.2099 -1.3074
  209MPD1    H3 3235   4.310   2.066  10.873 -0.5494 -0.7335 -1.0224
  209MPD1     N 3236   4.456   2.480  10.735 -0.0779  0.3804  0.4993
  209MPD1    H5 3237   4.479   2.533  10.652 -1.4226 -1.0226 -0.7603
  209MPD1    N1 3238   4.397   2.119  10.432 -0.7128  0.1228  0.0920
  209MPD1    H6 3239   4.408   2.018  10.429  2.8577  0.5311  0.3466
  209MPD1    H7 3240   4.488   2.145  10.395 -1.1098  2.0123  0.4310
  210MPD1     C 3241   4.338   3.519  11.070  0.5327  0.9745 -0.4421
  210MPD1    C1 3242   4.297   3.413  11.149 -0.1171  0.4662  0.1018
  210MPD1    C2 3243   4.353   3.289  11.124  0.3548  0.1381 -0.1929
  210MPD1    C3 3244   4.444   3.272  11.019  0.0141  0.3016  0.1070
  210MPD1    C4 3245   4.487   3.380  10.948 -0.4026 -0.1555  0.1058
  210MPD1    C5 3246   4.426   3.504  10.968  0.8202  0.4359  0.1336
  210MPD1     H 3247   4.335   3.205  11.190  0.7533  1.3836  1.4912
  210MPD1    H1 3248   4.559   3.364  10.868 -1.0748  0.5396 -0.6341
  210MPD1    H2 3249   4.308   3.621  11.094  0.5022  0.4477  1.8036
  210MPD1    H3 3250   4.455   3.592  10.913 -1.5730 -0.3372 -2.3888
  210MPD1     N 3251   4.489   3.148  10.967  0.0599 -0.2459  0.0979
  210MPD1    H5 3252   4.548   3.151  10.885 -0.8727 -0.3182 -0.5818
  210MPD1    N1 3253   4.219   3.434  11.261  0.0460 -0.4354  0.3809
  210MPD1    H6 3254   4.179   3.351  11.305  0.9454 -1.0750 -0.0183
  210MPD1    H7 3255   4.146   3.505  11.249  2.1970  2.1187  2.5695
  211MPD1     C 3256   1.511   1.950  17.038  1.0554  0.3913  0.6885
  211MPD1    C1 3257   1.621   2.031  17.023  0.1802 -0.2143 -0.0378
  211MPD1    C2 3258   1.619   2.133  16.933 -0.0885  0.4326  0.3077
  211MPD1    C3 3259   1.519   2.131  16.836  0.2246  0.7189 -0.5225
  211MPD1    C4 3260   1.409   2.046  16.852  0.3719  0.6731 -0.3269
  211MPD1    C5 3261   1.407   1.961  16.958 -0.2201  0.1775 -0.0045
  211MPD1     H 3262   1.704   2.201  16.929 -1.7017  2.3743 -1.2325
  211MPD1    H1 3263   1.326   2.054  16.783  1.8306  1.5750 -1.9711
  211MPD1    H2 3264   1.507   1.863  17.102  0.0861  0.4873  0.7626
  211MPD1    H3 3265   1.318   1.902  16.979  1.9932 -3.4900 -0.9504
  211MPD1     N 3266   1.532   2.228  16.730  0.0905  0.3161  0.3474
  211MPD1    H5 3267   1.609   2.294  16.732 -0.3716  0.8674 -0.0894
  211MPD1    N1 3268   1.729   2.012  17.113 -0.7978  0.4352  0.0248
  211MPD1    H6 3269   1.731   1.917  17.150  3.8444  0.5352 -0.0120
  211MPD1    H7 3270   1.812   2.040  17.062 -2.2127 -0.2746 -2.6276
  212MPD1     C 3271   1.743   4.139  17.222  0.3776 -0.7860 -0.8049
  212MPD1    C1 3272   1.615   4.100  17.219 -0.3775  0.4733 -0.3039
  212MPD1    C2 3273   1.524   4.186  17.158 -0.3560 -0.3991 -0.0474
  212MPD1    C3 3274   1.572   4.286  17.080 -0.0058 -0.5735  0.1392
  212MPD1    C4 3275   1.707   4.307  17.069  0.5761 -0.4302  0.3994
  212MPD1    C5 3276   1.795   4.244  17.145 -0.6362  0.4627  0.4411
  212MPD1     H 3277   1.420   4.156  17.165 -0.5452 -0.2477 -2.0389
  212MPD1    H1 3278   1.738   4.385  17.000  1.5009 -1.2604 -0.1291
  212MPD1    H2 3279   1.819   4.090  17.282  0.0643 -2.0518 -1.4541
  212MPD1    H3 3280   1.901   4.267  17.153 -1.0091  1.8387  1.4491
  212MPD1     N 3281   1.487   4.368  17.002 -0.0548 -0.4422 -0.0769
  212MPD1    H5 3282   1.528   4.449  16.957 -3.2025  1.0166 -0.3485
  212MPD1    N1 3283   1.570   4.002  17.309 -0.0484 -0.0087 -0.4554
  212MPD1    H6 3284   1.646   3.946  17.347  0.2912  1.3577  0.8939
  212MPD1    H7 3285   1.505   3.944  17.256 -0.2492 -0.5750  0.4050
  213MPD1     C 3286   3.914   1.145  16.122 -0.1421  0.3498  0.1212
  213MPD1    C1 3287   3.891   1.026  16.057 -0.9971  0.1264 -0.4612
  213MPD1    C2 3288   3.905   1.042  15.918  1.0202 -1.2603  0.1181
  213MPD1    C3 3289   3.913   1.169  15.848 -0.5026 -0.1438 -0.7612
  213MPD1    C4 3290   3.936   1.279  15.933  0.3545 -0.2919  0.4201
  213MPD1    C5 3291   3.924   1.266  16.063  0.2691  0.3043  0.7549
  213MPD1     H 3292   3.890   0.952  15.859 -0.2809  0.7252 -2.5525
  213MPD1    H1 3293   3.963   1.377  15.896  0.6389 -0.7568 -0.6061
  213MPD1    H2 3294   3.939   1.144  16.227 -1.2809 -1.6967  0.3686
  213MPD1    H3 3295   3.957   1.346  16.129 -0.2325  1.3255 -0.2182
  213MPD1     N 3296   3.907   1.178  15.711 -0.6635 -0.1235 -0.0284
  213MPD1    H5 3297   3.892   1.091  15.662 -1.6603 -0.1309  0.2997
  213MPD1    N1 3298   3.916   0.907  16.124 -0.0558  0.3287  0.7298
  213MPD1    H6 3299   3.876   0.891  16.216  2.0519  0.6185  1.6988
  213MPD1    H7 3300   3.899   0.832  16.058  0.3616 -0.4680  1.5373
  214MPD1     C 3301   3.374   0.759  14.999  0.0647  0.1860  0.0779
  214MPD1    C1 3302   3.343   0.793  15.128  0.1621 -0.0386 -0.0725
  214MPD1    C2 3303   3.429   0.870  15.202  0.0782  0.7612  0.1433
  214MPD1    C3 3304   3.547   0.925  15.143  1.0008  0.3362  0.2341
  214MPD1    C4 3305   3.577   0.876  15.017  0.1306  0.0236  0.3183
  214MPD1    C5 3306   3.495   0.798  14.945  0.4990  0.5229  0.5415
  214MPD1     H 3307   3.406   0.883  15.307 -0.2980 -1.0613  0.2916
  214MPD1    H1 3308   3.659   0.915  14.957 -1.6214  0.9096 -1.5183
  214MPD1    H2 3309   3.311   0.685  14.953 -0.5845  0.6980  0.1514
  214MPD1    H3 3310   3.518   0.762  14.845 -0.5141 -0.4607  0.6576
  214MPD1     N 3311   3.642   1.001  15.198  0.3187  0.1577 -0.5058
  214MPD1    H5 3312   3.716   1.035  15.138 -0.2980 -1.6604 -2.3140
  214MPD1    N1 3313   3.242   0.722  15.199 -0.7514  0.0604 -0.8039
  214MPD1    H6 3314   3.215   0.757  15.291 -2.0826 -1.2197 -0.7083
  214MPD1    H7 3315   3.159   0.691  15.149 -0.3653  1.6524 -2.4111
  215MPD1     C 3316   3.854   1.734  10.939 -0.2229 -0.2715 -0.3591
  215MPD1    C1 3317   3.929   1.785  11.039 -0.2888  0.0557 -0.0273
  215MPD1    C2 3318   3.989   1.913  11.021 -0.1251  0.6510  0.1303
  215MPD1    C3 3319   3.946   1.986  10.911 -0.6547 -0.1754 -0.1186
  215MPD1    C4 3320   3.836   1.948  10.833 -0.0825  0.8479  0.2353
  215MPD1    C5 3321   3.798   1.817  10.843  0.1100  0.0460  0.4030
  215MPD1     H 3322   4.059   1.945  11.097  0.4057 -1.2009  0.4208
  215MPD1    H1 3323   3.787   2.012  10.761  0.9835  1.0521 -0.3130
  215MPD1    H2 3324   3.814   1.633  10.951  1.1230 -0.8420 -0.6625
  215MPD1    H3 3325   3.737   1.774  10.765  1.6833  0.5802 -1.1286
  215MPD1     N 3326   4.012   2.111  10.888 -0.6241 -0.0955  0.2226
  215MPD1    H5 3327   4.075   2.152  10.956 -0.2443 -1.5084  0.7320
  215MPD1    N1 3328   3.964   1.717  11.155  0.2658 -0.2527 -0.4373
  215MPD1    H6 3329   3.893   1.651  11.186  1.7128 -0.9106  1.4559
  215MPD1    H7 3330   4.010   1.778  11.222 -1.5030  0.0929  0.4621
  216MPD1     C 3331   0.865   3.259   0.543 -0.2233  0.0578 -0.0187
  216MPD1    C1 3332   0.972   3.216   0.466  0.1765 -0.1702 -0.1282
  216MPD1    C2 3333   1.099   3.266   0.496  0.2893 -0.1777  0.9448
  216MPD1    C3 3334   1.112   3.361   0.597  0.8392  0.0368  0.7027
  216MPD1    C4 3335   1.000   3.407   0.658 -0.0504  0.0316  0.0364
  216MPD1    C5 3336   0.874   3.356   0.642  0.1522 -0.1015  0.0866
  216MPD1     H 3337   1.186   3.240   0.437  0.1394 -2.2254  1.6470
  216MPD1    H1 3338   1.006   3.491   0.727 -2.8272  1.7296 -1.7974
  216MPD1    H2 3339   0.765   3.216   0.536  0.2001 -0.7834 -0.9553
  216MPD1    H3 3340   0.795   3.404   0.697 -0.2283 -0.5451 -0.0740
  216MPD1     N 3341   1.234   3.420   0.619 -0.1018 -0.6344  0.5710
  216MPD1    H5 3342   1.310   3.395   0.557 -1.1654  0.1370 -1.0170
  216MPD1    N1 3343   0.965   3.095   0.392 -0.4910  0.3850 -0.1945
  216MPD1    H6 3344   0.870   3.072   0.362 -0.8300 -0.2575  1.3971
  216MPD1    H7 3345   1.032   3.108   0.317 -0.6234  1.1042 -0.1889
  217MPD1     C 3346   1.387   1.402   8.982 -0.1191  0.2367  0.1653
  217MPD1    C1 3347   1.388   1.537   8.948 -0.2215 -0.2527 -1.1159
  217MPD1    C2 3348   1.489   1.614   8.993  0.1408 -0.5921  0.5651
  217MPD1    C3 3349   1.589   1.560   9.073 -0.4073  0.1566 -0.2816
  217MPD1    C4 3350   1.577   1.432   9.114 -0.2435  0.1893 -0.4074
  217MPD1    C5 3351   1.481   1.354   9.061  0.9806 -0.1788  0.9835
  217MPD1     H 3352   1.503   1.716   8.957 -2.1559 -0.3947  0.2382
  217MPD1    H1 3353   1.641   1.383   9.187  1.4527  0.9557 -1.3606
  217MPD1    H2 3354   1.324   1.334   8.926 -0.1120  1.4440 -1.3319
  217MPD1    H3 3355   1.486   1.250   9.089 -0.8259 -0.9317 -1.4872
  217MPD1     N 3356   1.699   1.631   9.114 -0.0242  0.1482 -0.1119
  217MPD1    H5 3357   1.773   1.579   9.161 -2.9780 -3.3954  0.5678
  217MPD1    N1 3358   1.304   1.577   8.843  0.1810 -0.8265 -0.1537
  217MPD1    H6 3359   1.290   1.676   8.826 -0.6540 -0.8318  0.5098
  217MPD1    H7 3360   1.215   1.528   8.849 -0.3765 -0.0373 -1.9678
  218MPD1     C 3361   3.285   2.827  12.808 -0.5035 -0.2764  0.4021
  218MPD1    C1 3362   3.393   2.907  12.831  0.6662 -0.3008  0.7637
  218MPD1    C2 3363   3.515   2.852  12.847  0.9052 -0.0059  0.0773
  218MPD1    C3 3364   3.533   2.712  12.842 -0.6394 -0.0601  0.2522
  218MPD1    C4 3365   3.426   2.633  12.803 -0.9756 -0.1611  0.0171
  218MPD1    C5 3366   3.300   2.692  12.787  0.5562 -0.3805 -0.6461
  218MPD1     H 3367   3.602   2.916  12.857  2.0135 -1.4349 -0.4277
  218MPD1    H1 3368   3.441   2.530  12.771  0.5432 -0.4856  1.7309
  218MPD1    H2 3369   3.186   2.867  12.789 -2.1276 -4.2997  0.5259
  218MPD1    H3 3370   3.219   2.625  12.762 -0.7462  0.8485  0.2617
  218MPD1     N 3371   3.664   2.661  12.848  0.4214 -0.6920 -0.3021
  218MPD1    H5 3372   3.740   2.724  12.872 -0.7363  0.9867 -1.1101
  218MPD1    N1 3373   3.388   3.043  12.813  0.5690 -0.2828 -0.1836
  218MPD1    H6 3374   3.458   3.085  12.873  1.0644  0.6224 -1.3939
  218MPD1    H7 3375   3.294   3.079  12.828  0.1563 -1.3533 -0.1930
  219MPD1     C 3376   4.083   3.116  12.365 -1.1336  0.5110 -0.2056
  219MPD1    C1 3377   4.180   3.061  12.448  0.4155  0.0743  0.1495
  219MPD1    C2 3378   4.157   2.932  12.497  0.0672 -0.7648 -0.1044
  219MPD1    C3 3379   4.052   2.857  12.455 -0.0497 -0.4287  0.4781
  219MPD1    C4 3380   3.958   2.915  12.373 -0.1645  0.5511  0.0085
  219MPD1    C5 3381   3.980   3.044  12.317 -0.2828 -0.6820  0.2684
  219MPD1     H 3382   4.230   2.890  12.565  1.5530  2.4501  0.3065
  219MPD1    H1 3383   3.865   2.863  12.354 -0.0817  0.9636 -1.5258
  219MPD1    H2 3384   4.104   3.209  12.313 -0.9152  0.7028  0.2283
  219MPD1    H3 3385   3.904   3.089  12.253  0.3658 -0.1538 -0.1256
  219MPD1     N 3386   4.022   2.729  12.513  0.5367 -0.0936  0.1337
  219MPD1    H5 3387   3.932   2.691  12.487  0.0779  0.1752  1.3063
  219MPD1    N1 3388   4.286   3.135  12.494 -0.1226  0.0940 -0.2986
  219MPD1    H6 3389   4.368   3.087  12.530  0.1098  0.4835 -0.3113
  219MPD1    H7 3390   4.317   3.194  12.417  1.6947 -1.0192 -0.4111
  220MPD1     C 3391   3.070   3.061   9.556 -0.3099  0.5453  0.0086
  220MPD1    C1 3392   3.182   2.981   9.571  0.6713  0.3320  0.4197
  220MPD1    C2 3393   3.256   2.983   9.690 -0.1877  0.0493  0.1453
  220MPD1    C3 3394   3.225   3.072   9.791 -0.6514 -0.3171 -0.2969
  220MPD1    C4 3395   3.126   3.165   9.768  0.4676  0.1152  0.4976
  220MPD1    C5 3396   3.048   3.154   9.654  0.7308 -0.0609 -0.1613
  220MPD1     H 3397   3.329   2.909   9.721 -0.4279 -0.0904  0.3800
  220MPD1    H1 3398   3.088   3.236   9.840  0.4807  1.0782 -0.4512
  220MPD1    H2 3399   3.016   3.075   9.463  0.5365  0.4597 -0.4956
  220MPD1    H3 3400   2.960   3.214   9.632 -1.0367 -2.3497  0.6731
  220MPD1     N 3401   3.308   3.077   9.907 -0.5660  0.6273 -0.2503
  220MPD1    H5 3402   3.384   3.010   9.908  0.8733  2.2352 -0.5690
  220MPD1    N1 3403   3.211   2.876   9.482  0.7204 -0.6973 -0.0028
  220MPD1    H6 3404   3.181   2.899   9.388  0.4713  1.0230  0.4972
  220MPD1    H7 3405   3.312   2.862   9.488  0.6323 -0.7642  1.3482
  221MPD1     C 3406   2.165   2.377  16.384  0.2736 -0.4293 -0.6601
  221MPD1    C1 3407   2.035   2.355  16.342 -0.0636  0.2498  0.2381
  221MPD1    C2 3408   1.962   2.266  16.412  0.7919 -0.5573 -0.5389
  221MPD1    C3 3409   2.012   2.192  16.517  1.0729 -0.2807 -0.8611
  221MPD1    C4 3410   2.139   2.219  16.554 -1.2680 -0.9951 -0.6209
  221MPD1    C5 3411   2.220   2.307  16.489 -0.6175 -0.1784 -0.2097
  221MPD1     H 3412   1.861   2.245  16.377  0.0693  1.7552  0.1550
  221MPD1    H1 3413   2.172   2.175  16.648  2.4824  0.0675 -1.4395
  221MPD1    H2 3414   2.240   2.444  16.342  0.0572 -1.0533 -2.0306
  221MPD1    H3 3415   2.314   2.330  16.538  0.3805 -0.7315 -1.8977
  221MPD1     N 3416   1.928   2.096  16.584 -0.3065  0.5578  0.1482
  221MPD1    H5 3417   1.973   2.051  16.664  0.7984  0.4959 -0.5031
  221MPD1    N1 3418   1.988   2.400  16.223  0.2465  0.2916 -0.0907
  221MPD1    H6 3419   2.048   2.477  16.193 -0.3782 -0.0266 -2.1551
  221MPD1    H7 3420   1.893   2.435  16.221  0.2974  0.4264 -0.0946
  222MPD1     C 3421   1.025   0.130  17.339 -0.1680  0.0557 -0.2275
  222MPD1    C1 3422   0.941   0.047  17.405  0.1304 -0.1601 -0.9759
  222MPD1    C2 3423   0.893   0.088  17.532 -0.2765 -0.1739 -0.4215
  222MPD1    C3 3424   0.905   0.225  17.569  0.3273 -0.1383  0.0828
  222MPD1    C4 3425   0.975   0.307  17.488 -1.0493 -0.5319  0.7125
  222MPD1    C5 3426   1.029   0.267  17.371  0.5258 -0.0766 -0.3649
  222MPD1     H 3427   0.833   0.017  17.586 -0.6442 -0.8071 -1.6620
  222MPD1    H1 3428   0.970   0.413  17.511 -2.6748 -0.4081 -0.2350
  222MPD1    H2 3429   1.073   0.087  17.251 -0.0494 -2.5283  1.1095
  222MPD1    H3 3430   1.094   0.337  17.319  2.0948 -2.0135 -0.9770
  222MPD1     N 3431   0.852   0.279  17.690 -0.0865  0.4566  0.5803
  222MPD1    H5 3432   0.877   0.377  17.702  0.5046  0.5922 -1.6951
  222MPD1    N1 3433   0.925   4.647  17.369  0.3006  1.2218  0.1666
  222MPD1    H6 3434   0.961   4.626  17.276 -0.7215 -1.0598  0.2883
  222MPD1    H7 3435   0.831   4.610  17.377  1.2591 -1.1849  0.4541
  223MPD1     C 3436   0.283   4.540   0.643  0.5203 -0.2440  0.4481
  223MPD1    C1 3437   0.340   4.644   0.712 -0.5950  0.4069  0.6520
  223MPD1    C2 3438   0.424   4.729   0.641 -0.5401  0.2725 -0.1951
  223MPD1    C3 3439   0.421   4.725   0.502 -0.0433 -0.1924  0.3295
  223MPD1    C4 3440   0.362   4.629   0.437 -0.3450  0.0501  0.8584
  223MPD1    C5 3441   0.295   4.532   0.507  0.3465 -0.3449 -0.1142
  223MPD1     H 3442   0.476   0.071   0.695 -0.4686 -0.9062  1.4589
  223MPD1    H1 3443   0.368   4.618   0.330 -1.9804  0.2582  0.7350
  223MPD1    H2 3444   0.231   4.456   0.688 -1.2356  0.8613  0.4616
  223MPD1    H3 3445   0.233   4.458   0.457  1.4950  0.2874 -2.4702
  223MPD1     N 3446   0.495   0.076   0.424  1.2450  0.0502  0.0563
  223MPD1    H5 3447   0.492   0.060   0.323 -1.3086 -1.2817  0.3495
  223MPD1    N1 3448   0.349   4.645   0.850  0.5988 -0.2449  0.4000
  223MPD1    H6 3449   0.262   4.599   0.877 -0.4012  0.1606 -2.1997
  223MPD1    H7 3450   0.358   0.001   0.889 -0.1187  0.2611 -0.6625
  224MPD1     C 3451   1.960   2.846   9.350  0.4679 -0.1028  0.9540
  224MPD1    C1 3452   2.079   2.823   9.294  0.0887 -0.4996 -0.2911
  224MPD1    C2 3453   2.186   2.794   9.378  0.3468  0.4684  0.2898
  224MPD1    C3 3454   2.168   2.780   9.516  0.1546 -1.2296 -0.2227
  224MPD1    C4 3455   2.041   2.804   9.568 -0.1715 -0.9356  0.6786
  224MPD1    C5 3456   1.942   2.839   9.486 -0.0816 -0.1505 -0.7246
  224MPD1     H 3457   2.287   2.796   9.338  0.1277  3.1985 -0.1434
  224MPD1    H1 3458   2.020   2.803   9.674  1.4329  0.6356  1.0079
  224MPD1    H2 3459   1.870   2.857   9.290  0.2345 -0.6801  1.2004
  224MPD1    H3 3460   1.849   2.857   9.538  0.6857  1.1984  0.1765
  224MPD1     N 3461   2.273   2.774   9.610  0.2941  0.3116 -0.1227
  224MPD1    H5 3462   2.236   2.766   9.704  0.7167  1.0348  0.1006
  224MPD1    N1 3463   2.102   2.869   9.168  0.7307 -0.5253  0.0264
  224MPD1    H6 3464   2.028   2.856   9.100 -0.9274  3.3523  1.0720
  224MPD1    H7 3465   2.184   2.824   9.128 -0.4779 -0.4989 -2.5090
  225MPD1     C 3466   4.155   3.511  12.540 -0.2087 -0.9620 -0.3395
  225MPD1    C1 3467   4.099   3.479  12.417  0.2709 -0.2733  0.1740
  225MPD1    C2 3468   3.964   3.470  12.414 -0.0467 -0.0817  0.1634
  225MPD1    C3 3469   3.881   3.455  12.526 -0.7431 -1.1441 -0.4716
  225MPD1    C4 3470   3.949   3.477  12.650  0.3108 -0.3490  0.8214
  225MPD1    C5 3471   4.081   3.518  12.652  0.1654 -0.2447 -0.1985
  225MPD1     H 3472   3.918   3.458  12.316 -0.3834  1.5935  0.1120
  225MPD1    H1 3473   3.892   3.474  12.742 -0.3840 -1.0002  0.3744
  225MPD1    H2 3474   4.263   3.523  12.543 -0.3189 -0.5622  1.7389
  225MPD1    H3 3475   4.124   3.539  12.750  1.7204 -2.1855 -0.4690
  225MPD1     N 3476   3.739   3.423  12.524 -0.1307 -0.6825 -0.4049
  225MPD1    H5 3477   3.699   3.403  12.615  2.7829 -0.6517  0.8884
  225MPD1    N1 3478   4.175   3.491  12.302  0.2694 -0.1215  0.2752
  225MPD1    H6 3479   4.151   3.438  12.219  0.7194  1.2002 -0.7136
  225MPD1    H7 3480   4.275   3.474  12.311  0.5023  2.4975  2.7557
  226MPD1     C 3481   2.542   3.634   9.212 -0.2456 -0.1325 -1.1017
  226MPD1    C1 3482   2.620   3.598   9.318 -0.7867 -0.7711 -0.1972
  226MPD1    C2 3483   2.656   3.697   9.406  0.0052  0.3249 -0.6156
  226MPD1    C3 3484   2.607   3.826   9.398 -0.1533  0.9930 -0.6242
  226MPD1    C4 3485   2.513   3.848   9.301  0.2549 -0.9568  0.2847
  226MPD1    C5 3486   2.485   3.755   9.207 -0.0377  0.5220 -0.6917
  226MPD1     H 3487   2.733   3.681   9.480 -0.4962  0.3625 -0.0777
  226MPD1    H1 3488   2.466   3.945   9.290  0.7480 -0.6127  1.1796
  226MPD1    H2 3489   2.523   3.564   9.131  1.0346 -1.0859 -0.5720
  226MPD1    H3 3490   2.414   3.766   9.126  1.6805  1.5763 -2.0607
  226MPD1     N 3491   2.645   3.915   9.504  0.1756  0.1915 -0.3543
  226MPD1    H5 3492   2.680   3.869   9.587 -2.4302  0.2288  0.7674
  226MPD1    N1 3493   2.683   3.477   9.313 -0.0679  0.5303  0.6992
  226MPD1    H6 3494   2.719   3.443   9.402 -1.8717 -2.7887  0.1570
  226MPD1    H7 3495   2.628   3.404   9.269  0.7717  1.5282 -2.0197
  227MPD1     C 3496   2.643   0.192   9.654  0.2290  0.1858 -0.9980
  227MPD1    C1 3497   2.560   0.110   9.582  0.1498 -0.1701  0.0020
  227MPD1    C2 3498   2.568   4.712   9.588  0.3473  0.6102  0.0422
  227MPD1    C3 3499   2.648   4.652   9.680 -0.3581 -0.8146 -0.3585
  227MPD1    C4 3500   2.732   4.733   9.756  0.1926 -0.0909 -0.1006
  227MPD1    C5 3501   2.720   0.136   9.749  0.2353  0.0388  0.2785
  227MPD1     H 3502   2.505   4.657   9.519  1.8904 -0.5889 -0.4045
  227MPD1    H1 3503   2.814   4.693   9.815  0.0009  0.6560  0.6698
  227MPD1    H2 3504   2.657   0.298   9.636 -1.6403  0.6679  0.4216
  227MPD1    H3 3505   2.793   0.198   9.800  0.3748 -1.5861  2.0444
  227MPD1     N 3506   2.647   4.510   9.690 -0.0613  0.3370 -0.3303
  227MPD1    H5 3507   2.588   4.462   9.623  1.1302 -1.7578  0.1387
  227MPD1    N1 3508   2.477   0.166   9.482 -0.3943  0.5016 -0.1781
  227MPD1    H6 3509   2.450   0.262   9.504  3.1074  0.7509  2.9317
  227MPD1    H7 3510   2.396   0.112   9.450  1.8532 -3.1273  0.2326
  228MPD1     C 3511   1.003   0.268  12.736 -0.5536 -0.0056 -0.5093
  228MPD1    C1 3512   0.994   0.387  12.671 -0.2988  0.0228  0.0103
  228MPD1    C2 3513   0.880   0.458  12.697 -0.3129  0.4877  0.8401
  228MPD1    C3 3514   0.774   0.407  12.777  0.2840  0.2707 -1.2435
  228MPD1    C4 3515   0.782   0.275  12.821  0.0990  1.0967 -0.5951
  228MPD1    C5 3516   0.899   0.208  12.805  0.0181  0.2321 -0.8558
  228MPD1     H 3517   0.870   0.560  12.663 -2.9574 -0.4689 -1.2958
  228MPD1    H1 3518   0.709   0.229  12.887 -2.1205  2.7002 -1.9337
  228MPD1    H2 3519   1.093   0.208  12.726 -0.2383  0.9074 -3.1868
  228MPD1    H3 3520   0.919   0.113  12.854  0.4211  0.0309 -1.4122
  228MPD1     N 3521   0.666   0.487  12.802  0.0597  0.0793 -0.6048
  228MPD1    H5 3522   0.674   0.585  12.777  2.2695 -0.1666 -0.7964
  228MPD1    N1 3523   1.108   0.455  12.622 -0.7960 -0.4941  0.0466
  228MPD1    H6 3524   1.091   0.539  12.566 -0.0167  0.0039  0.5529
  228MPD1    H7 3525   1.168   0.395  12.566 -0.0352 -1.4466  1.8824
  229MPD1     C 3526   4.620   4.486  14.943 -0.1140 -0.5654  0.7371
  229MPD1    C1 3527   4.684   4.393  14.863 -0.2741  0.1316 -0.0101
  229MPD1    C2 3528   0.062   4.336  14.915  0.1953  0.6299 -0.1993
  229MPD1    C3 3529   0.119   4.388  15.029 -0.1937 -0.7445  0.1119
  229MPD1    C4 3530   0.050   4.480  15.108  0.2310  0.2855  0.7909
  229MPD1    C5 3531   4.669   4.530  15.058  0.4964 -0.3480 -0.0104
  229MPD1     H 3532   0.098   4.249  14.860  2.5086  2.8310 -2.1526
  229MPD1    H1 3533   0.080   4.511  15.207 -0.1488  1.0321  0.6682
  229MPD1    H2 3534   4.521   4.514  14.908  0.3410  0.5541  0.3579
  229MPD1    H3 3535   4.603   4.600  15.109  1.8857  1.0627 -0.1671
  229MPD1     N 3536   0.248   4.341  15.076  0.1155 -0.0414  0.3653
  229MPD1    H5 3537   0.294   4.384  15.156 -0.9611  0.2076  0.8484
  229MPD1    N1 3538   4.630   4.346  14.734  0.3372  0.1513 -0.2513
  229MPD1    H6 3539   4.614   4.426  14.673  3.2857  1.6655  0.9922
  229MPD1    H7 3540   4.698   4.289  14.686 -1.1048 -1.9468  0.1795
  230MPD1     C 3541   0.703   3.907  15.832  0.1835  0.2039 -0.3030
  230MPD1    C1 3542   0.692   3.811  15.736  0.2676  0.2788 -0.2584
  230MPD1    C2 3543   0.695   3.858  15.603  0.7235  0.0784 -0.3291
  230MPD1    C3 3544   0.654   3.985  15.565 -0.1789 -0.2924 -0.1289
  230MPD1    C4 3545   0.654   4.075  15.668  0.7455 -0.4166  0.4171
  230MPD1    C5 3546   0.674   4.038  15.800 -0.3586  0.5446 -0.0025
  230MPD1     H 3547   0.711   3.782  15.528  1.9094  1.3293 -1.3491
  230MPD1    H1 3548   0.630   4.180  15.656  2.1879 -0.3464 -1.7922
  230MPD1    H2 3549   0.711   3.886  15.938  1.5106  1.0105 -0.2413
  230MPD1    H3 3550   0.665   4.117  15.873  1.6868  0.2199  0.5793
  230MPD1     N 3551   0.634   4.015  15.427  0.4090 -0.6617  0.0028
  230MPD1    H5 3552   0.635   3.942  15.356  1.1294 -3.7964  3.2379
  230MPD1    N1 3553   0.700   3.679  15.761 -0.4815  0.0570 -0.0836
  230MPD1    H6 3554   0.629   3.667  15.833 -0.4251 -1.4971 -0.2798
  230MPD1    H7 3555   0.667   3.634  15.676  0.3080 -4.6323  2.1000
  231MPD1     C 3556   2.878   0.925  15.291  0.2566 -0.4048 -0.2069
  231MPD1    C1 3557   2.893   0.943  15.154 -0.5578  0.4343 -0.5455
  231MPD1    C2 3558   3.006   1.014  15.111  0.4972  0.0107 -0.0363
  231MPD1    C3 3559   3.107   1.050  15.200  0.0268 -0.1429 -0.4172
  231MPD1    C4 3560   3.099   1.016  15.336 -0.2488  0.4318 -0.1455
  231MPD1    C5 3561   2.976   0.969  15.379  0.2985  0.0122  0.0490
  231MPD1     H 3562   3.012   1.039  15.006 -2.0660 -0.7394 -0.3756
  231MPD1    H1 3563   3.172   1.051  15.407  0.0975 -1.8371  0.6136
  231MPD1    H2 3564   2.788   0.882  15.334  0.3777 -1.3686 -0.9414
  231MPD1    H3 3565   2.965   0.971  15.486 -0.6929 -0.3176 -0.0431
  231MPD1     N 3566   3.207   1.135  15.153 -1.0482 -0.2469 -0.3174
  231MPD1    H5 3567   3.198   1.158  15.055  1.6086 -1.7800 -0.9031
  231MPD1    N1 3568   2.784   0.902  15.074  0.5656 -0.4099  0.1326
  231MPD1    H6 3569   2.738   0.823  15.119 -2.4342  2.0392  1.3943
  231MPD1    H7 3570   2.821   0.869  14.985 -0.4447 -0.3417 -0.3163
  232MPD1     C 3571   1.377   3.128  17.703 -0.1788 -0.3249 -0.1745
  232MPD1    C1 3572   1.314   3.097  17.587 -1.2283  0.1822 -0.5065
  232MPD1    C2 3573   1.183   3.051  17.594 -0.6129  0.4468  0.4857
  232MPD1    C3 3574   1.120   3.023  17.711  0.4959  0.4342  0.1213
  232MPD1    C4 3575   1.191   3.051   0.079 -0.0110 -0.3261  0.5261
  232MPD1    C5 3576   1.317   3.107   0.075 -0.4240  0.4856  0.4379
  232MPD1     H 3577   1.130   3.030  17.502  0.0976 -0.7100  0.3346
  232MPD1    H1 3578   1.146   3.030   0.176 -0.3108  1.0204  0.6844
  232MPD1    H2 3579   1.476   3.173  17.706 -0.8859  1.2532 -0.2350
  232MPD1    H3 3580   1.366   3.130   0.169  0.4314 -2.4345  0.6976
  232MPD1     N 3581   0.986   2.978  17.713 -0.7452 -0.2169  0.3597
  232MPD1    H5 3582   0.945   2.973  17.620 -1.9679  1.2397  0.8240
  232MPD1    N1 3583   1.378   3.103  17.461  0.4598  0.6320 -0.2503
  232MPD1    H6 3584   1.434   3.187  17.455  0.4512  0.8130  2.2280
  232MPD1    H7 3585   1.304   3.096  17.392  1.8207  1.5234 -1.8019
  233MPD1     C 3586   3.804   4.253   2.268  0.2104 -0.3174 -0.1193
  233MPD1    C1 3587   3.768   4.344   2.364  0.1667 -1.0532 -0.4719
  233MPD1    C2 3588   3.687   4.445   2.331 -0.0238 -0.0569  0.7717
  233MPD1    C3 3589   3.634   4.459   2.200  0.4821 -0.0028 -1.5708
  233MPD1    C4 3590   3.661   4.355   2.106 -0.2439 -0.0756  0.3471
  233MPD1    C5 3591   3.748   4.255   2.145  0.0562  0.1463 -0.0905
  233MPD1     H 3592   3.677   4.531   2.397  1.1910 -0.3691  1.3718
  233MPD1    H1 3593   3.624   4.348   2.004  0.9175  1.2307 -0.1739
  233MPD1    H2 3594   3.876   4.175   2.289 -0.1264 -0.8783 -1.0627
  233MPD1    H3 3595   3.763   4.182   2.067 -0.1328 -0.2548  0.2473
  233MPD1     N 3596   3.557   4.578   2.181  0.6282 -0.7125 -0.0417
  233MPD1    H5 3597   3.527   4.630   2.262  4.0402  2.8883 -1.0953
  233MPD1    N1 3598   3.819   4.337   2.491  0.0098 -0.3106  0.1753
  233MPD1    H6 3599   3.851   4.244   2.515  0.0348 -1.2300 -3.4469
  233MPD1    H7 3600   3.862   4.418   2.536  0.3883 -0.9166  0.8976
  234MPD1     C 3601   3.511   1.204   9.656 -0.2521 -0.3163 -0.7447
  234MPD1    C1 3602   3.510   1.332   9.706 -0.8176  0.4170  0.1073
  234MPD1    C2 3603   3.417   1.422   9.659  0.9031 -0.1499 -0.3660
  234MPD1    C3 3604   3.336   1.390   9.548  0.4716 -0.4121 -0.1321
  234MPD1    C4 3605   3.340   1.260   9.495  0.0090  0.3597 -0.0265
  234MPD1    C5 3606   3.421   1.168   9.556 -0.3900 -0.1387 -0.1616
  234MPD1     H 3607   3.397   1.518   9.705 -0.2705  0.4597 -2.1321
  234MPD1    H1 3608   3.293   1.228   9.404 -0.4953 -0.6627  0.5925
  234MPD1    H2 3609   3.573   1.123   9.694  0.2433  0.4753  0.1142
  234MPD1    H3 3610   3.418   1.067   9.516 -4.0130 -0.5018  1.0409
  234MPD1     N 3611   3.236   1.482   9.507  0.2978 -0.1535  0.1984
  234MPD1    H5 3612   3.254   1.578   9.535 -0.1616 -0.5675  1.8747
  234MPD1    N1 3613   3.614   1.381   9.781  0.4022 -0.1079  0.4135
  234MPD1    H6 3614   3.668   1.321   9.843 -0.9629 -2.0327 -0.2984
  234MPD1    H7 3615   3.588   1.458   9.843  3.2400  0.1880  1.2434
  235MPD1     C 3616   0.644   3.240  11.087  0.0749  0.1191  0.8021
  235MPD1    C1 3617   0.564   3.235  10.980  0.3845  0.2295 -0.5974
  235MPD1    C2 3618   0.485   3.345  10.953  0.9334  0.3541 -0.1588
  235MPD1    C3 3619   0.499   3.458  11.030  0.0467  0.6004 -0.4879
  235MPD1    C4 3620   0.586   3.467  11.136 -0.2872 -0.4051  0.0830
  235MPD1    C5 3621   0.667   3.355  11.161  0.6016 -0.4621  0.1136
  235MPD1     H 3622   0.411   3.339  10.874  2.0640 -3.5236 -0.9447
  235MPD1    H1 3623   0.605   3.551  11.201 -0.9401 -0.1686 -0.0304
  235MPD1    H2 3624   0.715   3.161  11.105  0.0273  0.1351  1.0618
  235MPD1    H3 3625   0.725   3.348  11.252  2.2287 -0.1629 -0.9119
  235MPD1     N 3626   0.415   3.568  10.994  0.3136  1.3224 -0.3741
  235MPD1    H5 3627   0.362   3.568  10.907  0.3327  2.4793 -0.3889
  235MPD1    N1 3628   0.525   3.105  10.922 -0.2497 -0.3073 -0.4574
  235MPD1    H6 3629   0.494   3.116  10.826  2.4516 -2.7634 -1.5892
  235MPD1    H7 3630   0.598   3.035  10.934  0.7518  0.4498 -2.2138
  236MPD1     C 3631   3.310   0.235   9.543  0.9498  0.6097  0.1049
  236MPD1    C1 3632   3.278   0.102   9.584 -0.4221 -0.2898  0.5591
  236MPD1    C2 3633   3.370   0.023   9.641 -0.2236  0.0118 -0.5418
  236MPD1    C3 3634   3.489   0.071   9.672 -0.1255  0.0539 -0.0326
  236MPD1    C4 3635   3.523   0.202   9.641 -0.4326 -0.1809  0.4641
  236MPD1    C5 3636   3.434   0.287   9.582  0.6379  0.5601  0.0250
  236MPD1     H 3637   3.343   4.657   9.663  1.5758 -1.1329 -3.7239
  236MPD1    H1 3638   3.626   0.230   9.661 -0.1261  1.0103 -2.7361
  236MPD1    H2 3639   3.237   0.291   9.485  1.0261  0.1031 -0.4863
  236MPD1    H3 3640   3.456   0.390   9.556 -0.2605  0.9030  0.6504
  236MPD1     N 3641   3.594   0.002   9.737  0.1391 -0.4406  0.0775
  236MPD1    H5 3642   3.683   0.048   9.753  0.4190 -0.1163 -2.3509
  236MPD1    N1 3643   3.156   0.049   9.555  0.4355 -0.5458 -0.2616
  236MPD1    H6 3644   3.084   0.121   9.554 -1.7355 -2.6990  0.6347
  236MPD1    H7 3645   3.122   4.713   9.618  0.1982  1.3000  1.7565
  237MPD1     C 3646   3.702   2.009  14.907  0.2320  0.2186  0.4291
  237MPD1    C1 3647   3.605   2.002  14.821  0.3275  0.0827  0.4710
  237MPD1    C2 3648   3.475   2.029  14.859  0.1277 -0.1888 -0.5214
  237MPD1    C3 3649   3.446   2.057  14.995 -0.5349 -0.6648 -0.3132
  237MPD1    C4 3650   3.550   2.063  15.085  0.1802  0.2707  0.2074
  237MPD1    C5 3651   3.670   2.038  15.035 -0.7740  0.7943 -0.0827
  237MPD1     H 3652   3.402   2.028  14.780 -0.6091  1.4696  0.1330
  237MPD1    H1 3653   3.533   2.079  15.191  2.5822 -0.8804  0.7706
  237MPD1    H2 3654   3.805   1.991  14.878  0.5039  0.2230  1.3824
  237MPD1    H3 3655   3.752   2.050  15.105 -0.1495  1.5743 -0.9504
  237MPD1     N 3656   3.315   2.072  15.041  0.6308  0.0071  0.1708
  237MPD1    H5 3657   3.314   2.091  15.141  1.2854  2.7531 -0.3510
  237MPD1    N1 3658   3.634   1.942  14.702 -0.1024 -0.3807 -0.0882
  237MPD1    H6 3659   3.726   1.960  14.662 -1.0467  3.4858 -0.5539
  237MPD1    H7 3660   3.580   1.991  14.630  0.8562 -1.4389 -1.5398
  238MPD1     C 3661   0.709   1.383  15.379 -0.2857 -0.6492 -0.1174
  238MPD1    C1 3662   0.603   1.347  15.455 -0.2617 -0.0022 -0.1468
  238MPD1    C2 3663   0.483   1.339  15.399  0.1459  0.2164  0.4900
  238MPD1    C3 3664   0.465   1.337  15.258 -0.0958 -0.1187 -0.4598
  238MPD1    C4 3665   0.565   1.372  15.174 -0.5481  0.1468 -0.6630
  238MPD1    C5 3666   0.686   1.399  15.238  0.3556 -0.0038  0.2533
  238MPD1     H 3667   0.395   1.305  15.452  0.4392  1.3363  1.7196
  238MPD1    H1 3668   0.559   1.371  15.066  1.6704 -0.9170 -0.7664
  238MPD1    H2 3669   0.806   1.404  15.422  0.0493 -1.8832 -0.2833
  238MPD1    H3 3670   0.763   1.432  15.169 -1.5444 -0.5670 -2.1255
  238MPD1     N 3671   0.350   1.309  15.188 -0.1191  0.9987  0.0300
  238MPD1    H5 3672   0.341   1.348  15.095  0.0033  2.9420  0.8116
  238MPD1    N1 3673   0.605   1.331  15.594 -0.9377  0.2247 -0.5345
  238MPD1    H6 3674   0.538   1.268  15.636 -1.4112  0.9025 -0.2720
  238MPD1    H7 3675   0.698   1.322  15.634 -1.3302 -1.2011  0.0512
  239MPD1     C 3676   1.030   2.363  14.960 -0.4618  0.8182  0.1007
  239MPD1    C1 3677   1.064   2.275  14.860 -0.0331 -0.1421 -0.2488
  239MPD1    C2 3678   0.980   2.256  14.753 -0.3412 -0.3606 -0.2416
  239MPD1    C3 3679   0.869   2.338  14.740  0.2825  0.1073  0.3172
  239MPD1    C4 3680   0.831   2.425  14.836  0.0431 -0.5144 -0.0649
  239MPD1    C5 3681   0.911   2.439  14.950 -0.1287  0.1658  0.2480
  239MPD1     H 3682   1.011   2.185  14.677 -0.5225 -0.6774 -0.0186
  239MPD1    H1 3683   0.746   2.491  14.826 -0.8739 -1.0828  3.9397
  239MPD1    H2 3684   1.093   2.380  15.047  0.9366 -2.3401 -0.3077
  239MPD1    H3 3685   0.881   2.512  15.024  0.3099  1.0543 -0.4578
  239MPD1     N 3686   0.780   2.332  14.635 -0.6206 -0.2687  0.4183
  239MPD1    H5 3687   0.708   2.404  14.647  0.6466  1.2125 -0.8815
  239MPD1    N1 3688   1.186   2.206  14.870  0.3245  0.1574  0.0097
  239MPD1    H6 3689   1.190   2.108  14.843 -0.7797  0.4249 -1.1250
  239MPD1    H7 3690   1.237   2.221  14.957 -2.8023  1.4626  1.6009
  240MPD1     C 3691   4.653   1.980  13.357  0.7834 -0.8841 -0.1624
  240MPD1    C1 3692   4.529   1.955  13.413  0.0400 -0.8764  0.0912
  240MPD1    C2 3693   4.525   1.917  13.544 -0.6893  0.0501 -0.4551
  240MPD1    C3 3694   4.637   1.908  13.626  0.0641 -0.1083 -0.4776
  240MPD1    C4 3695   0.025   1.937  13.566 -0.4991  0.3417  0.2885
  240MPD1    C5 3696   0.031   1.967  13.431  0.0134 -0.5441 -0.2670
  240MPD1     H 3697   4.427   1.887  13.581  0.5985 -2.0044  1.2471
  240MPD1    H1 3698   0.124   1.937  13.611 -1.2014 -0.2867  1.8317
  240MPD1    H2 3699   4.662   2.025  13.259 -0.5473  1.8129  0.9482
  240MPD1    H3 3700   0.125   2.002  13.390 -0.4312  0.8220 -0.1038
  240MPD1     N 3701   4.619   1.887  13.763 -0.0609 -0.4407 -0.7581
  240MPD1    H5 3702   4.526   1.870  13.799 -1.6056  1.0000 -4.1589
  240MPD1    N1 3703   4.412   1.962  13.332  0.2409 -0.4101  0.9274
  240MPD1    H6 3704   4.328   1.974  13.387 -1.6269 -1.6609 -1.6433
  240MPD1    H7 3705   4.418   2.033  13.260 -4.5635 -0.3969  0.5541
  241MPD1     C 3706   0.531   1.796  14.518 -0.1520 -0.8330 -0.3760
  241MPD1    C1 3707   0.443   1.694  14.516 -0.4018  0.4360  0.4572
  241MPD1    C2 3708   0.330   1.705  14.439 -0.5176  0.3758  0.2045
  241MPD1    C3 3709   0.305   1.823  14.374  0.0087  0.9593 -0.6433
  241MPD1    C4 3710   0.399   1.921  14.374  0.3246  0.1939 -0.0777
  241MPD1    C5 3711   0.517   1.905  14.444 -0.1005 -0.5735  0.2189
  241MPD1     H 3712   0.260   1.621  14.434  0.4242 -0.3526 -0.7103
  241MPD1    H1 3713   0.390   2.019  14.329 -0.7222  0.5849  0.9788
  241MPD1    H2 3714   0.627   1.789  14.568  0.2914  1.9635 -0.8221
  241MPD1    H3 3715   0.594   1.981  14.432 -1.0121  0.0460 -1.7068
  241MPD1     N 3716   0.176   1.856  14.313 -0.1502 -0.0829 -0.0826
  241MPD1    H5 3717   0.161   1.946  14.268 -4.1667  0.4339  2.2881
  241MPD1    N1 3718   0.467   1.581  14.594 -0.0802  0.4372  0.1883
  241MPD1    H6 3719   0.434   1.499  14.544  0.2690  0.6721 -0.4234
  241MPD1    H7 3720   0.568   1.574  14.599 -0.1634 -0.5854  0.5069
  242MPD1     C 3721   4.687   0.972  15.513  0.0026  0.0953  0.2321
  242MPD1    C1 3722   4.569   0.909  15.473  0.0046 -0.8204  0.6183
  242MPD1    C2 3723   4.584   0.816  15.369  0.0661  0.2409  0.5606
  242MPD1    C3 3724   4.698   0.804  15.295  0.6967  0.1940  0.2629
  242MPD1    C4 3725   0.067   0.891  15.326 -0.1909 -0.6076  0.1473
  242MPD1    C5 3726   0.065   0.967  15.437  0.0100  0.3685  0.2771
  242MPD1     H 3727   4.506   0.746  15.342  0.4435 -1.1513  3.0174
  242MPD1    H1 3728   0.153   0.896  15.260 -1.1934  0.4998 -1.0850
  242MPD1    H2 3729   4.679   1.052  15.586 -0.3787 -1.5186  1.9318
  242MPD1    H3 3730   0.146   1.027  15.476  1.1411 -1.2117  0.3813
  242MPD1     N 3731   4.715   0.704  15.198 -1.0071 -0.5266 -0.5819
  242MPD1    H5 3732   0.075   0.694  15.170 -0.3424  0.5239  1.3393
  242MPD1    N1 3733   4.467   0.896  15.570 -0.3966  0.3008 -0.2773
  242MPD1    H6 3734   4.467   0.975  15.633  0.7934 -1.4603  1.9095
  242MPD1    H7 3735   4.374   0.872  15.534 -0.9359  0.1620  1.1971
  243MPD1     C 3736   0.797   3.308  17.693  0.8406  0.0520  0.4183
  243MPD1    C1 3737   0.846   3.368   0.062  0.4446 -0.4383  0.0357
  243MPD1    C2 3738   0.978   3.390   0.074 -0.2759 -0.6380 -0.1859
  243MPD1    C3 3739   1.061   3.386  17.709  0.2481  0.5782 -0.5642
  243MPD1    C4 3740   1.007   3.345  17.587 -0.1945 -0.8601  0.2308
  243MPD1    C5 3741   0.877   3.303  17.578  1.4398  1.0861 -0.1634
  243MPD1     H 3742   1.017   3.426   0.169  0.6432 -1.3075 -0.3134
  243MPD1    H1 3743   1.056   3.343  17.491 -1.5247 -0.5700 -0.4441
  243MPD1    H2 3744   0.701   3.258  17.697 -0.5753  2.6851 -0.2895
  243MPD1    H3 3745   0.840   3.262  17.484  2.9470 -0.3309 -0.1461
  243MPD1     N 3746   1.193   3.430  17.724  0.9257  0.5662 -0.6882
  243MPD1    H5 3747   1.225   3.440   0.073 -6.1600 -0.3601  1.7525
  243MPD1    N1 3748   0.754   3.354   0.164 -0.0608 -0.2246  0.5463
  243MPD1    H6 3749   0.763   3.425   0.237 -0.1214 -0.3992  0.7237
  243MPD1    H7 3750   0.667   3.382   0.120  0.8624  0.7101 -0.7102
  244MPD1     C 3751   1.928   3.305   0.566 -0.2724  0.2408 -0.1921
  244MPD1    C1 3752   1.918   3.442   0.553  0.7756 -0.0369 -0.4408
  244MPD1    C2 3753   1.842   3.482   0.446  0.3826 -0.3487 -0.3290
  244MPD1    C3 3754   1.792   3.394   0.350  0.3226  0.1354  0.1373
  244MPD1    C4 3755   1.810   3.260   0.358 -0.1069  0.7855 -0.0907
  244MPD1    C5 3756   1.871   3.213   0.472  0.2760 -0.5059 -0.6398
  244MPD1     H 3757   1.824   3.589   0.447  0.2921 -0.3711  0.4038
  244MPD1    H1 3758   1.767   3.191   0.286  3.2826 -1.5026  0.0634
  244MPD1    H2 3759   1.974   3.262   0.654  0.1836  0.2861 -0.4104
  244MPD1    H3 3760   1.879   3.106   0.490  0.1151 -0.4851 -0.4445
  244MPD1     N 3761   1.725   3.459   0.248  0.3339  0.2134 -0.2887
  244MPD1    H5 3762   1.736   3.559   0.234  1.2576  0.3569  1.5607
  244MPD1    N1 3763   1.937   3.520   0.669 -0.4796  0.0093 -0.0624
  244MPD1    H6 3764   1.963   3.617   0.655 -1.5130  0.4664  1.1537
  244MPD1    H7 3765   2.012   3.470   0.716 -0.9545  0.9245  1.6777
  245MPD1     C 3766   2.964   3.956  13.084 -0.1469  0.3474 -0.2716
  245MPD1    C1 3767   2.964   4.000  13.215 -0.4738  0.3503  0.0911
  245MPD1    C2 3768   3.049   4.097  13.260 -0.3384  0.1034 -0.2674
  245MPD1    C3 3769   3.142   4.148  13.173 -0.8719 -0.0119 -0.1928
  245MPD1    C4 3770   3.140   4.107  13.039 -0.6579  0.3578  0.1408
  245MPD1    C5 3771   3.053   4.005  12.998  0.0563  0.3614  0.4714
  245MPD1     H 3772   3.034   4.138  13.360 -1.4863 -0.1501 -0.3346
  245MPD1    H1 3773   3.204   4.150  12.964  1.3772  0.5025  1.9794
  245MPD1    H2 3774   2.896   3.885  13.039  0.9378 -0.2608 -0.9757
  245MPD1    H3 3775   3.053   3.969  12.895 -0.2915 -0.2777  0.6968
  245MPD1     N 3776   3.227   4.244  13.219 -0.6070  0.0544  0.2118
  245MPD1    H5 3777   3.218   4.278  13.313  0.6299  0.3101  0.2443
  245MPD1    N1 3778   2.848   3.981  13.291  0.6549 -0.0913  0.2840
  245MPD1    H6 3779   2.847   3.991  13.393  0.2999  1.2080  0.1457
  245MPD1    H7 3780   2.808   3.888  13.284 -1.6966  0.8397  1.2918
  246MPD1     C 3781   4.520   1.932   8.953  0.3550 -0.5207  0.6488
  246MPD1    C1 3782   4.410   1.849   8.975 -0.3307  0.8482  0.3679
  246MPD1    C2 3783   4.426   1.744   9.068 -0.6991  0.0887  0.4557
  246MPD1    C3 3784   4.556   1.714   9.114  0.5962  0.2399  0.0645
  246MPD1    C4 3785   4.664   1.780   9.069  0.7714  0.3291  0.6397
  246MPD1    C5 3786   4.645   1.892   8.991 -0.2183 -0.0792 -0.7296
  246MPD1     H 3787   4.343   1.677   9.088  0.0899 -0.5955  1.5141
  246MPD1    H1 3788   0.024   1.767   9.116  0.0550 -1.7367  1.5123
  246MPD1    H2 3789   4.507   2.022   8.894 -0.2968 -1.3817 -0.5040
  246MPD1    H3 3790   4.731   1.958   8.982  0.7920 -1.4481 -1.1908
  246MPD1     N 3791   4.559   1.597   9.203  0.8398 -0.1190 -0.1936
  246MPD1    H5 3792   4.471   1.570   9.244  1.2675 -1.0399  0.1148
  246MPD1    N1 3793   4.284   1.893   8.935 -0.2209  0.5493 -0.2363
  246MPD1    H6 3794   4.226   1.810   8.931  2.5531 -1.4124  0.5965
  246MPD1    H7 3795   4.276   1.929   8.840  1.5843 -0.3579 -0.7301
  247MPD1     C 3796   2.919   4.071  16.624 -0.1127  0.5357  0.4065
  247MPD1    C1 3797   2.902   3.955  16.691  0.4968 -0.3504 -0.0722
  247MPD1    C2 3798   2.902   3.834  16.618  0.0897 -0.3146 -0.2512
  247MPD1    C3 3799   2.879   3.838  16.481  0.1820 -0.1988  0.0569
  247MPD1    C4 3800   2.870   3.958  16.416  0.4422 -0.0102 -0.2525
  247MPD1    C5 3801   2.912   4.072  16.486  0.3334 -0.2473 -0.5859
  247MPD1     H 3802   2.919   3.742  16.672  0.9856  0.1149  0.1992
  247MPD1    H1 3803   2.862   3.964  16.308  0.7847  1.1684 -0.2163
  247MPD1    H2 3804   2.936   4.166  16.673 -0.8112  0.9067 -0.0691
  247MPD1    H3 3805   2.946   4.161  16.435  0.4902 -0.4717 -0.8712
  247MPD1     N 3806   2.875   3.719  16.400 -0.3073 -0.1755 -0.2152
  247MPD1    H5 3807   2.839   3.733  16.306 -0.7050 -1.1958 -0.2193
  247MPD1    N1 3808   2.916   3.955  16.833 -0.0713  0.2065 -0.2723
  247MPD1    H6 3809   2.866   3.873  16.867 -0.0260  0.7488  1.1021
  247MPD1    H7 3810   2.886   4.041  16.878  1.3468  0.2391  0.6076
  248MPD1     C 3811   3.737   3.125   0.661  0.0991 -0.1358  0.2328
  248MPD1    C1 3812   3.788   3.246   0.697  0.5053 -0.1121 -0.2445
  248MPD1    C2 3813   3.716   3.352   0.648  0.2178 -0.0370 -0.3877
  248MPD1    C3 3814   3.604   3.345   0.566  0.4457  0.2763  0.2065
  248MPD1    C4 3815   3.564   3.220   0.523  0.2150 -0.2587  0.1619
  248MPD1    C5 3816   3.628   3.114   0.573  0.4429  0.6003 -0.1639
  248MPD1     H 3817   3.736   3.453   0.681 -0.0385  0.9289 -3.2310
  248MPD1    H1 3818   3.483   3.198   0.454  0.0494  0.2150  0.2070
  248MPD1    H2 3819   3.769   3.028   0.697 -1.1303 -0.1486  1.2957
  248MPD1    H3 3820   3.580   3.016   0.568  0.9606  0.4294 -1.6518
  248MPD1     N 3821   3.542   3.468   0.527 -1.0988 -0.0895  0.3213
  248MPD1    H5 3822   3.568   3.553   0.576  2.0910 -0.1246 -1.3371
  248MPD1    N1 3823   3.886   3.260   0.797 -0.4287 -0.2123  0.0180
  248MPD1    H6 3824   3.938   3.348   0.796  0.6516 -0.8709 -1.1459
  248MPD1    H7 3825   3.963   3.198   0.775  0.2752  0.9234 -0.7560
  249MPD1     C 3826   0.420   2.205  10.240  0.2920 -0.1447  0.2342
  249MPD1    C1 3827   0.527   2.295  10.245  0.3774 -0.9903 -0.2960
  249MPD1    C2 3828   0.553   2.350  10.375  0.3093 -0.5015  0.4881
  249MPD1    C3 3829   0.486   2.315  10.489 -0.2293  0.2144 -0.5106
  249MPD1    C4 3830   0.384   2.223  10.478 -0.3871  0.6456  0.4512
  249MPD1    C5 3831   0.360   2.167  10.358 -0.0960 -0.2959  0.7951
  249MPD1     H 3832   0.627   2.427  10.393 -1.5931  1.2807  0.6685
  249MPD1    H1 3833   0.326   2.203  10.567  0.1365  0.5414  0.7724
  249MPD1    H2 3834   0.372   2.170  10.150  2.9691 -0.9587 -0.8856
  249MPD1    H3 3835   0.284   2.090  10.361 -1.5229  1.1601  2.1160
  249MPD1     N 3836   0.526   2.377  10.612 -0.3517 -0.3419  0.1664
  249MPD1    H5 3837   0.612   2.431  10.604  0.2706 -1.7615 -2.6565
  249MPD1    N1 3838   0.583   2.345  10.125 -0.3504 -0.3145  0.0919
  249MPD1    H6 3839   0.679   2.370  10.147 -0.0635  0.9344 -2.5642
  249MPD1    H7 3840   0.585   2.268  10.058  0.8325 -1.3662  1.3558
  250MPD2     C 3841   2.089   2.922  13.240 -0.5071 -0.1558 -0.1587
  250MPD2    C1 3842   1.977   2.981  13.179  0.3698  1.3104 -0.0869
  250MPD2    C2 3843   1.894   2.895  13.101 -0.1219  0.0071 -0.5710
  250MPD2    C3 3844   1.928   2.762  13.085  0.0499  0.2677  0.5176
  250MPD2    C4 3845   2.049   2.717  13.136  0.0238 -0.2059 -0.1178
  250MPD2    C5 3846   2.121   2.790  13.222 -0.4980 -0.1214 -0.6088
  250MPD2     H 3847   1.812   2.945  13.051 -2.1864 -2.7556  0.0462
  250MPD2    H1 3848   2.084   2.615  13.133 -1.8721 -0.8677  0.3080
  250MPD2    H2 3849   2.158   2.989  13.291 -0.6604  0.1331 -0.3335
  250MPD2    H3 3850   2.206   2.750  13.276 -0.8616  1.4167  1.0670
  250MPD2     N 3851   1.869   2.665  12.998 -0.2905 -0.3216  0.4854
  250MPD2    H5 3852   1.900   2.568  13.003 -0.0086 -0.1611  1.8448
  250MPD2    N1 3853   1.958   3.124  13.184  0.6033 -0.0106 -0.4982
  250MPD2    H7 3854   2.029   3.183  13.227 -0.3504  0.3705  0.5497
  251TMC3    C1 3855   1.911   3.341  13.126  0.8245  0.0763  0.1471
  251TMC3    C2 3856   1.812   3.430  13.152  0.1703 -0.6543  0.4191
  251TMC3    C3 3857   1.851   3.565  13.170  0.2818 -0.0473 -0.0873
  251TMC3    C4 3858   2.037   3.378  13.105  0.7392  0.3264  0.1725
  251TMC3    C5 3859   2.076   3.507  13.127 -0.2952 -0.7310 -0.4982
  251TMC3    C6 3860   1.987   3.602  13.168  0.0140  0.3852 -0.2360
  251TMC3     C 3861   1.870   3.198  13.117 -0.5040 -0.0434  0.4210
  251TMC3     O 3862   1.759   3.167  13.072  0.1155 -0.1196  0.5024
  251TMC3     H 3863   1.706   3.408  13.157 -0.1538  0.0278 -3.2617
  251TMC3    H1 3864   2.112   3.306  13.072  2.1693  2.4875 -1.2802
  251TMC3    H2 3865   2.013   3.706  13.152  1.2228  0.3943  1.7196
  251TMC3    C7 3866   2.218   3.534  13.136 -0.2295  0.8504  0.1384
  251TMC3    C8 3867   1.768   3.629  13.263  0.4345 -0.5920 -0.5432
  251TMC3    O1 3868   2.296   3.454  13.085  0.0588 -0.2701 -0.5421
  251TMC3    O2 3869   1.694   3.571  13.336  0.0176  0.3737 -0.0821
  252TMC3    C1 3870   1.704   0.330   9.311 -0.1593  0.2371 -0.0614
  252TMC3    C2 3871   1.809   0.401   9.352 -0.3168 -0.1984 -0.8866
  252TMC3    C3 3872   1.908   0.327   9.408  0.3863 -0.0807  0.3464
  252TMC3    C4 3873   1.697   0.194   9.299 -0.4825  0.5682 -0.7153
  252TMC3    C5 3874   1.803   0.122   9.351  0.1255 -0.4852 -0.1840
  252TMC3    C6 3875   1.913   0.190   9.403  0.3013  0.4672  0.1718
  252TMC3     C 3876   1.583   0.400   9.281 -0.3247  0.1752 -0.3119
  252TMC3     O 3877   1.479   0.328   9.296 -0.0292 -0.3587  0.8605
  252TMC3     H 3878   1.801   0.509   9.365 -2.0593 -0.2978 -1.1904
  252TMC3    H1 3879   1.606   0.151   9.259 -0.3789  1.6913 -2.1595
  252TMC3    H2 3880   1.999   0.135   9.438 -2.0798 -0.2554  4.9953
  252TMC3    C7 3881   1.786   4.710   9.342  0.8470 -0.6541  0.0300
  252TMC3    C8 3882   2.022   0.412   9.462  0.4346  0.5129 -0.0633
  252TMC3    O1 3883   1.693   4.670   9.273 -0.3326 -0.7018 -0.5067
  252TMC3    O2 3884   2.021   0.526   9.432  1.0053  0.3162  0.3005
  253MPD2     C 3885   3.044   2.400  15.534  0.8563  0.2693  0.3142
  253MPD2    C1 3886   2.915   2.424  15.552 -0.1457 -0.1746  0.3474
  253MPD2    C2 3887   2.852   2.393  15.672  0.6569  0.3804  0.1715
  253MPD2    C3 3888   2.925   2.339  15.776  1.0588  0.0741  1.3816
  253MPD2    C4 3889   3.062   2.305  15.752  0.0650  0.1624  0.3706
  253MPD2    C5 3890   3.115   2.340  15.632 -0.4094  0.6171 -0.1267
  253MPD2     H 3891   2.750   2.426  15.686  1.0544  1.4652  0.5402
  253MPD2    H1 3892   3.131   2.266  15.826  1.4359  1.4301 -0.2155
  253MPD2    H2 3893   3.104   2.421  15.446  1.4222 -1.4436  0.2988
  253MPD2    H3 3894   3.220   2.333  15.606 -0.3985 -0.3005  0.1715
  253MPD2     N 3895   2.871   2.318  15.905 -0.2616  0.3931  0.5210
  253MPD2    H5 3896   2.940   2.296  15.975  0.7456 -2.9886 -1.5455
  253MPD2    N1 3897   2.826   2.476  15.460 -0.5171 -0.2175 -0.3063
  253MPD2    H7 3898   2.730   2.501  15.482 -0.7997 -0.1730 -1.6077
  254TMC3    C1 3899   2.705   2.325  16.080 -0.5557  0.7837  0.2731
  254TMC3    C2 3900   2.602   2.398  16.129  0.4066 -0.5570  0.1624
  254TMC3    C3 3901   2.588   2.412  16.263  0.1316 -0.4953 -0.7566
  254TMC3    C4 3902   2.790   2.259  16.164 -0.2812  0.1329 -0.5169
  254TMC3    C5 3903   2.775   2.263  16.298 -0.2764  0.1946  0.2770
  254TMC3    C6 3904   2.674   2.342  16.346  0.8095  0.2264  0.7454
  254TMC3     C 3905   2.737   2.335  15.938  0.1853 -0.1276 -0.3321
  254TMC3     O 3906   2.642   2.357  15.862  0.1247  0.2319  0.1632
  254TMC3     H 3907   2.531   2.444  16.062 -1.0455  0.2008  2.1983
  254TMC3    H1 3908   2.861   2.191  16.118  0.2988  0.6172 -0.3323
  254TMC3    H2 3909   2.656   2.335  16.453  0.9056  0.1114  0.7536
  254TMC3    C7 3910   2.882   2.241  16.395  0.3874  0.0575 -0.4103
  254TMC3    C8 3911   2.528   2.525  16.336 -0.2786 -0.6333  0.0790
  254TMC3    O1 3912   2.848   2.230  16.508 -0.3089  0.1762 -0.1386
  254TMC3    O2 3913   2.576   2.554  16.444 -0.0041 -0.0362 -0.2571
  255MPD2     C 3914   0.841   1.337  10.587  0.5085  1.0557  0.1350
  255MPD2    C1 3915   0.910   1.448  10.550 -0.1101  0.2201 -0.4955
  255MPD2    C2 3916   1.048   1.448  10.568  0.5184  0.2500  0.5824
  255MPD2    C3 3917   1.122   1.342  10.619  0.3244 -0.4355 -0.1391
  255MPD2    C4 3918   1.045   1.227  10.640  0.5724 -0.2563 -0.1362
  255MPD2    C5 3919   0.908   1.224  10.632  0.1590  0.2352 -0.1218
  255MPD2     H 3920   1.111   1.536  10.557  0.4167  0.2913  0.3288
  255MPD2    H1 3921   1.094   1.141  10.684  1.2215 -0.6794 -1.7035
  255MPD2    H2 3922   0.733   1.335  10.580  0.6271  0.2968 -1.4496
  255MPD2    H3 3923   0.849   1.136  10.652  0.2442 -0.3290 -2.3992
  255MPD2     N 3924   1.254   1.348  10.652 -0.7173  0.3651 -0.3379
  255MPD2    H5 3925   1.292   1.438  10.624  0.5313  0.2233  0.8673
  255MPD2    N1 3926   0.837   1.563  10.499  0.0295  0.2306 -0.0314
  255MPD2    H7 3927   0.736   1.555  10.504 -0.1025  1.8677 -0.2789
  256TMC3    C1 3928   0.796   1.756  10.372  0.4933 -0.3886 -0.3685
  256TMC3    C2 3929   0.845   1.862  10.296  0.0474 -0.7860 -0.1600
  256TMC3    C3 3930   0.747   1.943  10.238 -0.0007 -0.4457  0.4946
  256TMC3    C4 3931   0.661   1.722  10.379 -0.0724  0.0678 -0.1503
  256TMC3    C5 3932   0.563   1.808  10.332  0.6875 -0.5361 -0.1918
  256TMC3    C6 3933   0.611   1.917  10.263  0.4212  0.9474  0.0777
  256TMC3     C 3934   0.894   1.666  10.432 -0.1288  0.3645  0.0550
  256TMC3     O 3935   1.012   1.684  10.408  0.2946  0.3154  0.6078
  256TMC3     H 3936   0.949   1.890  10.283 -0.2099  0.9725  1.5720
  256TMC3    H1 3937   0.617   1.632  10.421  0.5849  0.1069  0.6178
  256TMC3    H2 3938   0.534   1.977  10.215 -0.9143 -1.3610 -0.6868
  256TMC3    C7 3939   0.422   1.769  10.304  0.5644  0.2430  0.6265
  256TMC3    C8 3940   0.778   2.034  10.131  0.2473  0.9061 -0.2953
  256TMC3    O1 3941   0.375   1.806  10.196 -0.2945 -0.0753 -0.2626
  256TMC3    O2 3942   0.691   2.061  10.050 -0.6500 -0.0777 -0.1055
  257MPD2     C 3943   0.173   3.031  13.478  0.0415 -0.3531 -0.1946
  257MPD2    C1 3944   0.104   2.937  13.411  0.5915  0.5535  0.4324
  257MPD2    C2 3945   0.101   2.809  13.458  0.5848  0.1311  0.1060
  257MPD2    C3 3946   0.159   2.771  13.578  0.3520 -0.0736 -0.1447
  257MPD2    C4 3947   0.223   2.874  13.648 -0.5476  0.2418  0.0901
  257MPD2    C5 3948   0.220   3.001  13.603  0.4755 -0.2824 -0.1501
  257MPD2     H 3949   0.065   2.721  13.405 -1.2956  1.4068 -0.7486
  257MPD2    H1 3950   0.266   2.857  13.746  2.0259 -1.9260 -1.4101
  257MPD2    H2 3951   0.191   3.132  13.442  0.6757 -0.1665  0.6396
  257MPD2    H3 3952   0.274   3.076  13.660  0.0497 -0.2436  0.2049
  257MPD2     N 3953   0.177   2.635  13.602  0.4052 -0.8618  0.0005
  257MPD2    H5 3954   0.140   2.576  13.528  0.0968 -1.4468  0.6239
  257MPD2    N1 3955   0.055   2.960  13.280  0.1108 -0.3960  0.7684
  257MPD2    H7 3956   0.073   3.049  13.234  0.3378 -0.8876 -0.1041
  258TMC3    C1 3957   0.282   2.450  13.702 -0.9332 -0.1058 -0.1104
  258TMC3    C2 3958   0.301   2.387  13.584  0.2702 -0.1532 -0.0768
  258TMC3    C3 3959   0.319   2.251  13.588 -0.2774  0.3560  0.1533
  258TMC3    C4 3960   0.292   2.383  13.822  0.1077 -0.2024 -0.5344
  258TMC3    C5 3961   0.306   2.247  13.823  0.5000 -0.6457 -0.3051
  258TMC3    C6 3962   0.318   2.180  13.702 -0.1386  0.2963 -0.3424
  258TMC3     C 3963   0.248   2.590  13.713 -0.0609 -0.6774 -0.9324
  258TMC3     O 3964   0.270   2.639  13.822  0.1607 -0.0428 -0.0552
  258TMC3     H 3965   0.313   2.444  13.492 -1.1255  0.5266  0.1749
  258TMC3    H1 3966   0.283   2.429  13.920 -2.2476 -1.2694 -0.2389
  258TMC3    H2 3967   0.322   2.073  13.692  4.3441  0.2328  2.3342
  258TMC3    C7 3968   0.348   2.188  13.945  0.4314 -0.6873 -0.9879
  258TMC3    C8 3969   0.326   2.174  13.472 -0.8846 -0.5433 -0.4077
  258TMC3    O1 3970   0.395   2.254  14.041  0.4174 -0.4464 -0.1247
  258TMC3    O2 3971   0.393   2.071  13.483  0.4482  0.2992 -0.1136
  259MPD2     C 3972   4.463   4.050   0.167 -0.3087 -0.1746  0.8447
  259MPD2    C1 3973   4.523   3.969   0.263 -0.2241  0.9237 -0.2893
  259MPD2    C2 3974   4.643   3.911   0.228  0.3035 -0.0776  0.3005
  259MPD2    C3 3975   4.702   3.932   0.105  0.0263  0.1252  0.4663
  259MPD2    C4 3976   4.643   4.022   0.017  0.1776  0.3050 -0.0229
  259MPD2    C5 3977   4.526   4.075   0.043  0.1521  0.3244  0.0739
  259MPD2     H 3978   4.699   3.850   0.299 -0.9275 -3.8104 -1.9247
  259MPD2    H1 3979   4.686   4.050  17.668 -0.8560 -0.0122 -0.5759
  259MPD2    H2 3980   4.375   4.108   0.194 -0.0495  0.3919  0.4793
  259MPD2    H3 3981   4.487   4.145  17.716  3.1980  1.7911 -0.1535
  259MPD2     N 3982   0.097   3.872   0.084 -0.1198 -0.1809 -0.4893
  259MPD2    H5 3983   0.132   3.820   0.165  3.8873  2.2347 -0.6515
  259MPD2    N1 3984   4.457   3.946   0.390 -0.5428 -0.4342  0.4206
  259MPD2    H7 3985   4.366   3.989   0.394 -0.0829  0.6664 -0.9968
  260TMC3    C1 3986   0.284   3.803  17.712  0.2508 -0.8710 -0.2660
  260TMC3    C2 3987   0.354   3.812  17.594  1.1706 -0.1277 -0.1951
  260TMC3    C3 3988   0.473   3.751  17.590  0.1241  0.4362 -0.0987
  260TMC3    C4 3989   0.322   3.741   0.079  0.9145  0.1667 -0.0190
  260TMC3    C5 3990   0.451   3.685   0.072 -0.7696 -0.3812 -0.0046
  260TMC3    C6 3991   0.522   3.689  17.704  0.2989 -0.4265  0.8587
  260TMC3     C 3992   0.170   3.886  17.713 -0.0938  0.0483  0.8748
  260TMC3     O 3993   0.153   3.962  17.618  0.5946 -0.6982  0.0155
  260TMC3     H 3994   0.308   3.846  17.502  0.1879  1.5863  0.9244
  260TMC3    H1 3995   0.267   3.729   0.171  0.6929 -1.5120 -0.3759
  260TMC3    H2 3996   0.622   3.645  17.707  1.5170  2.3535  0.9972
  260TMC3    C7 3997   0.454   3.553   0.124 -0.4675 -0.1437 -0.3904
  260TMC3    C8 3998   0.477   3.665  17.478 -0.1236  0.2382  0.4656
  260TMC3    O1 3999   0.487   3.463   0.048  0.3416 -0.3272 -0.5768
  260TMC3    O2 4000   0.453   3.706  17.367 -0.5420  0.4208 -0.3512
  261MPD2     C 4001   1.114   2.639  12.635  0.3696 -0.8981  0.2754
  261MPD2    C1 4002   1.237   2.700  12.635 -0.1509 -0.1035 -0.2147
  261MPD2    C2 4003   1.242   2.827  12.589 -0.0021 -0.2358 -0.1358
  261MPD2    C3 4004   1.131   2.894  12.537  0.6858 -0.7889 -0.9354
  261MPD2    C4 4005   1.010   2.829  12.530  0.2925  0.4381 -0.5940
  261MPD2    C5 4006   1.000   2.700  12.585 -0.1171 -0.0378 -0.1132
  261MPD2     H 4007   1.332   2.888  12.592 -0.4414  0.5419 -2.4514
  261MPD2    H1 4008   0.929   2.870  12.470 -0.6563  0.7065  0.8591
  261MPD2    H2 4009   1.096   2.538  12.669  0.8306 -0.9521  0.3567
  261MPD2    H3 4010   0.910   2.640  12.580 -0.3551  0.4373 -1.4288
  261MPD2     N 4011   1.154   3.015  12.477  0.2262  0.5599 -0.0360
  261MPD2    H5 4012   1.253   3.033  12.471  0.8877 -2.7752  1.2807
  261MPD2    N1 4013   1.356   2.637  12.690 -0.1469 -0.0767  0.3511
  261MPD2    H7 4014   1.436   2.699  12.679 -1.8780  2.1399  0.2732
  262TMC3    C1 4015   1.128   3.179  12.322 -0.3524 -0.9033  0.3949
  262TMC3    C2 4016   1.048   3.268  12.251 -0.1980  0.3297 -0.1074
  262TMC3    C3 4017   1.112   3.339  12.152 -0.0222 -0.1973  0.4173
  262TMC3    C4 4018   1.265   3.170  12.297 -0.2564 -0.1808 -0.0913
  262TMC3    C5 4019   1.317   3.241  12.188  0.5546 -0.2704  0.8136
  262TMC3    C6 4020   1.240   3.329  12.118  0.0134  0.4111 -0.3548
  262TMC3     C 4021   1.059   3.093  12.419  0.0460 -0.1063  0.0431
  262TMC3     O 4022   0.934   3.100  12.422  0.2829  0.1849  0.3688
  262TMC3     H 4023   0.941   3.268  12.269  0.0222  2.8681  1.2002
  262TMC3    H1 4024   1.331   3.093  12.335  0.3835  0.3810 -0.0595
  262TMC3    H2 4025   1.273   3.394  12.038  1.5436  1.0546  0.7861
  262TMC3    C7 4026   1.457   3.224  12.159 -0.3978  0.0423  0.0814
  262TMC3    C8 4027   1.050   3.433  12.056  0.3176  0.0762  0.1084
  262TMC3    O1 4028   1.533   3.175  12.242 -0.0838 -0.3980  0.3299
  262TMC3    O2 4029   1.075   3.435  11.935 -0.4932 -0.3000  0.3606
  263MPD2     C 4030   2.544   2.187  12.236  0.3582 -0.4027 -0.0251
  263MPD2    C1 4031   2.618   2.208  12.119 -0.8853  0.5295 -0.3199
  263MPD2    C2 4032   2.577   2.296  12.026 -0.3471  0.6772  0.5478
  263MPD2    C3 4033   2.475   2.389  12.063 -0.2220 -0.3653  0.1785
  263MPD2    C4 4034   2.402   2.366  12.175 -0.6211  0.5492 -0.9032
  263MPD2    C5 4035   2.438   2.271  12.268 -0.2789 -0.1178 -0.4121
  263MPD2     H 4036   2.629   2.311  11.932 -1.1714  1.7781  0.2681
  263MPD2    H1 4037   2.319   2.432  12.199 -0.0648  1.2039 -0.7726
  263MPD2    H2 4038   2.576   2.120  12.315  0.6870 -0.0795  0.1143
  263MPD2    H3 4039   2.379   2.258  12.357 -0.0353  1.4480 -0.0190
  263MPD2     N 4040   2.428   2.490  11.970  0.0143 -0.0774 -1.1554
  263MPD2    H5 4041   2.490   2.506  11.891  0.4909 -2.7965 -1.3171
  263MPD2    N1 4042   2.729   2.119  12.103  0.3090  0.1050  0.2207
  263MPD2    H7 4043   2.759   2.083  12.194 -0.4457  1.5751  1.0540
  264TMC3    C1 4044   2.303   2.659  11.858 -0.2324  0.1967 -0.3041
  264TMC3    C2 4045   2.331   2.790  11.876 -0.4665 -0.0341  0.2746
  264TMC3    C3 4046   2.389   2.855  11.771 -0.6811  0.4970  0.2585
  264TMC3    C4 4047   2.326   2.595  11.739  0.4263  0.3779 -0.0633
  264TMC3    C5 4048   2.387   2.668  11.645 -0.0335 -0.3624 -0.0440
  264TMC3    C6 4049   2.415   2.796  11.651 -0.1452  0.5919 -0.6183
  264TMC3     C 4050   2.316   2.571  11.970 -0.1221  0.5236  0.7488
  264TMC3     O 4051   2.231   2.589  12.056 -0.3189 -0.5480  0.4747
  264TMC3     H 4052   2.321   2.835  11.974 -1.1035  2.2123 -0.8377
  264TMC3    H1 4053   2.294   2.492  11.734  2.0655 -0.1753  0.8657
  264TMC3    H2 4054   2.456   2.860  11.574 -0.1477 -2.6451 -3.2533
  264TMC3    C7 4055   2.410   2.624  11.510 -0.4377 -0.0006 -0.8245
  264TMC3    C8 4056   2.431   2.993  11.779  0.0117 -0.4990 -0.9732
  264TMC3    O1 4057   2.488   2.681  11.435 -0.3915  0.4561 -0.3752
  264TMC3    O2 4058   2.523   3.037  11.707  0.2589  0.1271 -0.3401
  265MPD2     C 4059   4.264   2.179  15.690  0.0033  0.3626  0.2741
  265MPD2    C1 4060   4.369   2.259  15.653  0.0059  1.0822 -0.2560
  265MPD2    C2 4061   4.449   2.216  15.549  0.0593  0.0026 -0.1880
  265MPD2    C3 4062   4.428   2.089  15.492  0.0904 -0.0506  0.4753
  265MPD2    C4 4063   4.334   2.004  15.543  0.1776 -0.4419 -0.4727
  265MPD2    C5 4064   4.256   2.047  15.653  0.5717 -0.3650  0.5813
  265MPD2     H 4065   4.522   2.288  15.515  0.1646 -1.4258 -2.9407
  265MPD2    H1 4066   4.328   1.905  15.498 -0.0355 -0.8150  0.3749
  265MPD2    H2 4067   4.188   2.210  15.761 -0.9770  0.3735 -0.7789
  265MPD2    H3 4068   4.171   1.986  15.681 -0.3730 -0.4385 -2.3933
  265MPD2     N 4069   4.507   2.022  15.393  0.7348 -0.9721  0.6415
  265MPD2    H5 4070   4.480   1.926  15.374 -0.0084 -0.7643  0.6662
  265MPD2    N1 4071   4.391   2.387  15.708 -0.4132  0.5132  0.1618
  265MPD2    H7 4072   4.461   2.439  15.657  0.5552 -0.2302  0.7337
  266TMC3    C1 4073   4.327   2.582  15.804 -0.1195  0.4656 -0.1738
  266TMC3    C2 4074   4.382   2.645  15.924 -0.2972 -0.7964 -0.2555
  266TMC3    C3 4075   4.320   2.762  15.962 -0.0386 -0.3842  0.7279
  266TMC3    C4 4076   4.218   2.623  15.742  0.0818  0.6291  0.1231
  266TMC3    C5 4077   4.166   2.744  15.782 -0.1765  0.6290  0.1021
  266TMC3    C6 4078   4.224   2.818  15.886  0.0756 -0.1466  0.1105
  266TMC3     C 4079   4.323   2.442  15.810 -0.0885  0.0214  0.2570
  266TMC3     O 4080   4.223   2.411  15.876  0.8767  0.6799 -0.1741
  266TMC3     H 4081   4.472   2.604  15.968  0.0333 -0.0296 -0.2280
  266TMC3    H1 4082   4.194   2.574  15.648 -0.2677  0.6103  0.2214
  266TMC3    H2 4083   4.188   2.919  15.907  0.7262  0.3342 -1.0941
  266TMC3    C7 4084   4.027   2.781  15.741 -0.8619 -0.5540 -0.1612
  266TMC3    C8 4085   4.416   2.860  16.011  0.4984 -0.7722  0.4607
  266TMC3    O1 4086   3.971   2.706  15.664  0.8452 -0.1780  0.0212
  266TMC3    O2 4087   4.535   2.835  16.000  0.2286 -0.1773  0.0846
  267MPD2     C 4088   1.749   4.037   1.280 -0.1528  1.0050  0.3471
  267MPD2    C1 4089   1.791   4.070   1.152  0.3604  0.5777  0.0835
  267MPD2    C2 4090   1.730   3.998   1.051  0.3134 -0.5939  0.1632
  267MPD2    C3 4091   1.645   3.890   1.077 -0.2460  0.5184 -0.7588
  267MPD2    C4 4092   1.599   3.866   1.203  0.3456  0.0385  0.8204
  267MPD2    C5 4093   1.652   3.943   1.304  0.5937 -0.8628 -1.1341
  267MPD2     H 4094   1.743   4.020   0.946 -0.4489  1.4966  0.5218
  267MPD2    H1 4095   1.539   3.778   1.227  0.8480 -0.7809 -0.9101
  267MPD2    H2 4096   1.777   4.105   1.359 -1.0377  0.6094  0.9972
  267MPD2    H3 4097   1.620   3.943   1.407 -0.0037 -0.2993 -1.3193
  267MPD2     N 4098   1.585   3.815   0.974 -0.2253  0.0203 -0.6538
  267MPD2    H5 4099   1.492   3.777   0.992  0.9701 -2.5618  0.0255
  267MPD2    N1 4100   1.878   4.174   1.128  0.2595  0.4326 -0.5912
  267MPD2    H7 4101   1.941   4.210   1.199  0.0046 -0.3498  0.0234
  268TMC3    C1 4102   2.044   4.264   0.977  0.1573 -0.1236  0.4029
  268TMC3    C2 4103   2.058   4.341   0.863 -0.4088  0.3667 -0.6629
  268TMC3    C3 4104   2.163   4.332   0.781  0.0429 -0.1915 -0.2564
  268TMC3    C4 4105   2.143   4.177   1.016  0.5935 -0.8161  0.9228
  268TMC3    C5 4106   2.248   4.168   0.929  0.2088 -0.4342  0.1107
  268TMC3    C6 4107   2.259   4.241   0.818  0.0681  0.2332  0.2290
  268TMC3     C 4108   1.906   4.218   1.001  0.2123 -0.5752 -0.2632
  268TMC3     O 4109   1.831   4.224   0.906  0.0291  0.0171  0.6931
  268TMC3     H 4110   1.976   4.411   0.853 -0.1793  0.6241 -0.7525
  268TMC3    H1 4111   2.137   4.102   1.095  1.1826 -2.5921 -0.7093
  268TMC3    H2 4112   2.341   4.226   0.749 -0.3070  0.1734 -0.1992
  268TMC3    C7 4113   2.354   4.068   0.957 -1.3224  0.1138 -0.1497
  268TMC3    C8 4114   2.116   4.314   0.643  0.4223  0.1185 -0.1352
  268TMC3    O1 4115   2.332   3.958   0.999 -0.4180 -0.4813  0.2330
  268TMC3    O2 4116   2.196   4.343   0.554 -0.1791  0.4279 -0.4115
  269MPD2     C 4117   1.832   3.123  15.800  0.4228 -0.0193 -0.3258
  269MPD2    C1 4118   1.703   3.145  15.818 -0.1804  0.1326 -0.0063
  269MPD2    C2 4119   1.644   3.265  15.795 -0.6593  0.0648 -0.5233
  269MPD2    C3 4120   1.726   3.373  15.767 -0.2206  0.4830  0.1354
  269MPD2    C4 4121   1.862   3.353  15.762 -0.3044  0.2273  0.0636
  269MPD2    C5 4122   1.908   3.228  15.761 -0.1640  0.0746  0.2154
  269MPD2     H 4123   1.536   3.275  15.796 -0.8063 -1.7238  0.5353
  269MPD2    H1 4124   1.929   3.437  15.750  0.3806 -0.2961  0.1872
  269MPD2    H2 4125   1.884   3.036  15.836 -0.7822 -0.1202  1.1471
  269MPD2    H3 4126   2.013   3.206  15.747 -0.1003  0.3659  0.2475
  269MPD2     N 4127   1.668   3.503  15.762  0.5796 -0.5355  0.3627
  269MPD2    H5 4128   1.571   3.515  15.788  0.9377 -1.5069  2.1451
  269MPD2    N1 4129   1.631   3.032  15.868 -0.9058 -0.3606 -0.4383
  269MPD2    H7 4130   1.677   2.943  15.883  2.0344  1.3696  0.7466
  270TMC3    C1 4131   1.447   2.900  15.945  0.0347  0.7133  0.7054
  270TMC3    C2 4132   1.332   2.857  15.884 -0.3339  0.0889 -0.4056
  270TMC3    C3 4133   1.302   2.726  15.881  0.7626  0.5096 -0.7232
  270TMC3    C4 4134   1.531   2.808  16.001 -0.3851 -0.4848 -0.2458
  270TMC3    C5 4135   1.499   2.673  16.002 -0.0040 -0.1129 -0.0786
  270TMC3    C6 4136   1.386   2.633  15.943 -0.1845 -0.3284 -0.3245
  270TMC3     C 4137   1.492   3.034  15.901  0.1255  0.6087 -0.0352
  270TMC3     O 4138   1.402   3.118  15.868  0.4918 -0.1578  0.2325
  270TMC3     H 4139   1.274   2.931  15.830 -0.3265 -0.2830 -0.9251
  270TMC3    H1 4140   1.622   2.844  16.048 -0.5488 -1.7198  1.0104
  270TMC3    H2 4141   1.369   2.526  15.944 -1.0303 -0.1748  0.9211
  270TMC3    C7 4142   1.617   2.588  15.981 -0.2305  0.6236  0.4028
  270TMC3    C8 4143   1.284   2.690  15.739 -0.3379  0.0978 -0.4030
  270TMC3    O1 4144   1.713   2.607  16.053 -1.1578  0.3807  0.3076
  270TMC3    O2 4145   1.365   2.608  15.696 -0.2921  0.4762  0.6537
  271MPD2     C 4146   0.871   2.697  13.937 -0.2278 -0.5194  0.1180
  271MPD2    C1 4147   0.872   2.765  14.054  0.7611  0.0553  0.2739
  271MPD2    C2 4148   0.851   2.906  14.062 -0.3383 -1.0374  0.3672
  271MPD2    C3 4149   0.843   2.977  13.945 -0.1134 -0.3059  0.2217
  271MPD2    C4 4150   0.845   2.904  13.822 -0.4644  0.1756 -1.1050
  271MPD2    C5 4151   0.854   2.769  13.825 -0.0490 -0.2385 -0.0697
  271MPD2     H 4152   0.833   2.950  14.159 -0.4338  1.5928 -0.8482
  271MPD2    H1 4153   0.848   2.960  13.729  0.9564  0.5345 -0.8438
  271MPD2    H2 4154   0.882   2.589  13.933  0.3989 -0.4738  0.6462
  271MPD2    H3 4155   0.850   2.707  13.736 -1.2596 -0.4969  0.1655
  271MPD2     N 4156   0.830   3.120  13.944 -0.2326 -0.5130  0.1727
  271MPD2    H5 4157   0.843   3.167  13.855  0.6346  0.0676  0.6008
  271MPD2    N1 4158   0.901   2.705  14.179  0.6656  0.1798 -0.2753
  271MPD2    H7 4159   0.903   2.764  14.262  2.3367  0.2335 -0.3552
  272TMC3    C1 4160   1.003   2.555  14.333  0.2079  0.3846  0.3313
  272TMC3    C2 4161   1.089   2.452  14.348 -0.0277 -0.6568  0.3526
  272TMC3    C3 4162   1.140   2.424  14.471  0.1580 -0.2301  0.4724
  272TMC3    C4 4163   0.963   2.627  14.440  0.1049 -0.4046 -0.1195
  272TMC3    C5 4164   1.030   2.610  14.563 -1.2078  0.1997 -0.7052
  272TMC3    C6 4165   1.109   2.502  14.581  0.1346  0.0453 -0.4844
  272TMC3     C 4166   0.955   2.581  14.198  0.4636  0.1910  0.0831
  272TMC3     O 4167   0.986   2.497  14.116  0.0505 -0.5134 -0.4995
  272TMC3     H 4168   1.118   2.392  14.263  0.1743 -0.5286  0.3308
  272TMC3    H1 4169   0.874   2.689  14.446  1.4308  1.3474  1.5815
  272TMC3    H2 4170   1.136   2.466  14.679 -0.2658 -2.0164 -1.1305
  272TMC3    C7 4171   0.969   2.681  14.677  0.1257  0.2271  0.0726
  272TMC3    C8 4172   1.270   2.353  14.465  0.6855 -0.2284 -0.5856
  272TMC3    O1 4173   0.848   2.710  14.671 -0.4399 -0.0254 -0.1970
  272TMC3    O2 4174   1.319   2.338  14.354 -0.8617 -0.2008 -0.3854
  273MPD2     C 4175   2.197   0.887  12.224 -0.7085  0.1347  0.2963
  273MPD2    C1 4176   2.315   0.958  12.188  0.2571  0.8439  0.2009
  273MPD2    C2 4177   2.322   1.029  12.073  0.4054  0.2134 -0.1152
  273MPD2    C3 4178   2.220   1.030  11.987 -1.0039  0.0412 -0.2941
  273MPD2    C4 4179   2.102   0.963  12.020 -0.4359 -0.1923 -0.3875
  273MPD2    C5 4180   2.086   0.899  12.136  0.2644  0.3444 -0.4076
  273MPD2     H 4181   2.412   1.083  12.044 -0.6137  1.7232 -0.4515
  273MPD2    H1 4182   2.017   0.951  11.953 -1.5576  0.1557  0.9954
  273MPD2    H2 4183   2.198   0.826  12.314  1.2300 -1.7551 -0.9941
  273MPD2    H3 4184   2.004   0.834  12.163  0.6837  0.2529  0.6539
  273MPD2     N 4185   2.240   1.091  11.862  0.2598  0.0131 -0.6302
  273MPD2    H5 4186   2.331   1.136  11.853 -1.2687  2.7248 -2.5635
  273MPD2    N1 4187   2.430   0.925  12.262 -0.1246 -0.8839  0.3854
  273MPD2    H7 4188   2.418   0.869  12.345 -1.7272 -2.2599 -0.7673
  274TMC3    C1 4189   2.211   1.120  11.618  0.3870 -0.4712  0.1789
  274TMC3    C2 4190   2.155   1.085  11.500 -0.5801  0.3772 -0.4564
  274TMC3    C3 4191   2.232   1.081  11.394 -0.4115  0.2393  0.0689
  274TMC3    C4 4192   2.332   1.182  11.623 -0.0097 -0.0793 -0.4459
  274TMC3    C5 4193   2.408   1.189  11.508 -0.0555 -0.1779  0.0307
  274TMC3    C6 4194   2.365   1.112  11.402 -0.5130 -0.2319  0.3222
  274TMC3     C 4195   2.152   1.088  11.752 -0.6384  0.1531  0.5082
  274TMC3     O 4196   2.040   1.039  11.742  0.7320 -0.3126  0.4909
  274TMC3     H 4197   2.049   1.064  11.491 -0.2341 -0.9435 -1.5984
  274TMC3    H1 4198   2.359   1.237  11.712 -1.3277 -0.5322  0.2330
  274TMC3    H2 4199   2.428   1.110  11.314 -0.3135  1.5886  0.4203
  274TMC3    C7 4200   2.525   1.270  11.494 -0.2530  0.1171 -0.1253
  274TMC3    C8 4201   2.174   1.085  11.259  0.0102  0.3893 -0.3290
  274TMC3    O1 4202   2.551   1.316  11.384  0.1664 -1.0063  0.6671
  274TMC3    O2 4203   2.244   1.137  11.174 -0.0621 -0.3965 -0.3287
  275MPD2     C 4204   2.540   3.786  14.989  0.1268  0.4353 -0.4862
  275MPD2    C1 4205   2.570   3.687  14.891  0.4407 -0.0433 -0.1355
  275MPD2    C2 4206   2.459   3.606  14.858 -0.1177 -0.1216 -0.3404
  275MPD2    C3 4207   2.332   3.636  14.896 -0.3504 -0.5186 -0.5541
  275MPD2    C4 4208   2.313   3.738  14.981  0.0555  0.1216  0.3970
  275MPD2    C5 4209   2.411   3.806  15.039  0.4070 -0.1057 -0.2018
  275MPD2     H 4210   2.476   3.532  14.782  0.4761 -0.7834  0.4376
  275MPD2    H1 4211   2.209   3.767  14.991 -0.2872 -1.2046  0.6189
  275MPD2    H2 4212   2.613   3.844  15.045  1.1363 -0.0860 -1.2679
  275MPD2    H3 4213   2.400   3.907  15.079 -3.2112  0.2358 -2.0725
  275MPD2     N 4214   2.217   3.567  14.848 -0.1368  0.2804 -0.2058
  275MPD2    H5 4215   2.131   3.614  14.873 -0.1418 -0.6488  1.4832
  275MPD2    N1 4216   2.698   3.673  14.831 -0.5923  0.3937 -0.2950
  275MPD2    H7 4217   2.709   3.598  14.763  1.3935  2.1306 -1.9300
  276TMC3    C1 4218   2.933   3.702  14.815 -0.6416  0.1351 -0.0394
  276TMC3    C2 4219   2.963   3.565  14.833  0.2033  0.0382  0.3411
  276TMC3    C3 4220   3.089   3.537  14.781  0.3462 -0.2749 -0.5246
  276TMC3    C4 4221   3.013   3.802  14.775 -0.1104  0.8839  0.4467
  276TMC3    C5 4222   3.140   3.768  14.751 -0.1011  0.9891 -0.3406
  276TMC3    C6 4223   3.179   3.642  14.748 -0.1607 -0.0714  0.5841
  276TMC3     C 4224   2.805   3.748  14.876 -0.0851 -0.2072  0.0831
  276TMC3     O 4225   2.811   3.843  14.950  0.2472  0.1656 -1.0083
  276TMC3     H 4226   2.893   3.498  14.881 -0.5272  0.6983  0.1957
  276TMC3    H1 4227   2.988   3.905  14.796 -0.0368  0.4811  2.5590
  276TMC3    H2 4228   3.284   3.617  14.738 -0.6682 -2.4348  1.2025
  276TMC3    C7 4229   3.237   3.840  14.827  0.9768 -0.2208  0.5530
  276TMC3    C8 4230   3.157   3.410  14.812 -0.3713  0.1847 -0.2485
  276TMC3    O1 4231   3.295   3.775  14.912  0.2376  0.5093 -0.1948
  276TMC3    O2 4232   3.275   3.399  14.778  0.1176  0.1694 -0.1462
  277MPD2     C 4233   4.496   2.714  13.575  0.4037 -0.5768 -0.2383
  277MPD2    C1 4234   4.362   2.732  13.568 -0.1848  0.2500 -0.3789
  277MPD2    C2 4235   4.289   2.681  13.676  0.0718  0.6317  1.0601
  277MPD2    C3 4236   4.345   2.624  13.782  0.1303  0.5626  0.2084
  277MPD2    C4 4237   4.480   2.603  13.789 -0.0309  0.4220 -0.0399
  277MPD2    C5 4238   4.551   2.646  13.681 -0.1426 -0.0248  0.4310
  277MPD2     H 4239   4.188   2.714  13.694 -0.6447 -1.1230  0.2306
  277MPD2    H1 4240   4.534   2.583  13.881  3.8345 -0.1242 -2.4461
  277MPD2    H2 4241   4.557   2.756  13.497  0.7038  0.4767  0.5660
  277MPD2    H3 4242   4.659   2.640  13.688 -0.2434 -1.8733  0.3483
  277MPD2     N 4243   4.261   2.596  13.888  0.2565  0.0908  0.2731
  277MPD2    H5 4244   4.164   2.627  13.887  0.5750  1.0946  1.0729
  277MPD2    N1 4245   4.315   2.816  13.461  0.0961 -0.9588 -0.1044
  277MPD2    H7 4246   4.384   2.844  13.392  1.4488 -1.6755  0.9559
  278TMC3    C1 4247   4.177   2.497  14.079  0.1516 -0.9090  0.1482
  278TMC3    C2 4248   4.159   2.368  14.089  0.1408  0.3993  0.0018
  278TMC3    C3 4249   4.038   2.316  14.063  0.2112  0.0021 -0.0654
  278TMC3    C4 4250   4.078   2.588  14.051  0.1897  0.3617 -0.0051
  278TMC3    C5 4251   3.949   2.535  14.034  0.6391  0.1039  0.3234
  278TMC3    C6 4252   3.927   2.405  14.035  0.2263 -0.1812 -0.3421
  278TMC3     C 4253   4.296   2.532  14.004  0.3674 -1.2209 -0.4735
  278TMC3     O 4254   4.405   2.494  14.039 -0.8906  0.0096  0.6258
  278TMC3     H 4255   4.246   2.304  14.097  1.1984  1.4622 -2.7873
  278TMC3    H1 4256   4.101   2.691  14.030  0.1631  0.2855 -0.4116
  278TMC3    H2 4257   3.829   2.369  14.007 -0.2869  0.0381  1.1446
  278TMC3    C7 4258   3.879   2.595  13.923  0.2804  0.3886 -0.4318
  278TMC3    C8 4259   4.040   2.177  14.034  0.1885 -0.1529  0.2551
  278TMC3    O1 4260   3.945   2.644  13.834  0.0573 -0.2733 -0.0731
  278TMC3    O2 4261   4.130   2.110  14.088 -0.4424 -0.3744  1.0597
  279MPD2     C 4262   4.015   3.010   0.490 -0.9258 -0.4408  0.0460
  279MPD2    C1 4263   4.003   2.917   0.394 -0.3945 -0.0780  0.4524
  279MPD2    C2 4264   4.001   2.948   0.257  0.1206 -0.3982 -0.7829
  279MPD2    C3 4265   3.992   3.077   0.215  0.4703 -0.3667  0.1927
  279MPD2    C4 4266   4.013   3.174   0.319  0.1274  0.2423  0.0330
  279MPD2    C5 4267   4.032   3.138   0.451  0.7504 -0.5443  0.3180
  279MPD2     H 4268   3.975   2.868   0.189 -1.6306 -0.6453  0.1844
  279MPD2    H1 4269   4.020   3.279   0.291 -1.8486 -0.2007 -2.0857
  279MPD2    H2 4270   3.988   2.985   0.592 -0.7917 -0.6684  0.0266
  279MPD2    H3 4271   4.035   3.217   0.525  0.4144  0.5320 -0.8396
  279MPD2     N 4272   3.957   3.126   0.083 -0.7581  0.6241  0.3417
  279MPD2    H5 4273   3.962   3.224   0.057  0.3731  0.1159 -1.3903
  279MPD2    N1 4274   4.012   2.780   0.426 -0.0731 -0.6185  0.8659
  279MPD2    H7 4275   3.990   2.755   0.522 -0.6958  1.5174  1.2637
  280TMC3    C1 4276   3.998   2.550   0.364  0.0042  0.3030 -0.3916
  280TMC3    C2 4277   4.091   2.449   0.345  0.1412  0.2807 -0.0743
  280TMC3    C3 4278   4.056   2.318   0.361  0.1451 -0.1129 -0.8613
  280TMC3    C4 4279   3.870   2.527   0.393  0.0743  0.0356 -0.1410
  280TMC3    C5 4280   3.833   2.392   0.402  0.4735  0.5585 -0.4072
  280TMC3    C6 4281   3.925   2.288   0.386  0.5381 -0.4292 -0.1909
  280TMC3     C 4282   4.049   2.682   0.335  0.9436 -0.6471 -0.2317
  280TMC3     O 4283   4.108   2.694   0.228 -0.2612 -0.3537  0.6968
  280TMC3     H 4284   4.193   2.481   0.327 -0.5826  3.1434  0.9293
  280TMC3    H1 4285   3.796   2.603   0.408 -0.9117 -0.9363 -0.0701
  280TMC3    H2 4286   3.889   2.187   0.403  1.3133 -0.8912 -1.3018
  280TMC3    C7 4287   3.699   2.360   0.433 -1.1112 -0.0206 -0.9933
  280TMC3    C8 4288   4.137   2.212   0.319  0.2166 -0.4623  0.6573
  280TMC3    O1 4289   3.671   2.246   0.468  0.2072  0.2030  0.1399
  280TMC3    O2 4290   4.081   2.104   0.312  0.4619 -0.6047 -0.0903
  281TMC3    C1 4291   2.655   3.247  13.641 -0.4351 -0.0679  0.2272
  281TMC3    C2 4292   2.695   3.347  13.556  0.1196  0.1615 -0.8946
  281TMC3    C3 4293   2.741   3.315  13.431  0.4134 -0.4597  0.7630
  281TMC3    C4 4294   2.657   3.116  13.597 -0.2062  0.0639 -0.2596
  281TMC3    C5 4295   2.701   3.087  13.474  0.0671 -0.5800 -0.1805
  281TMC3    C6 4296   2.747   3.183  13.387  0.3371 -0.3643 -0.3494
  281TMC3     C 4297   2.549   3.273  13.736 -0.1928 -0.3236  0.3238
  281TMC3     O 4298   2.486   3.177  13.771 -0.2056 -0.3618 -0.5055
  281TMC3     H 4299   2.698   3.451  13.587 -0.2437 -0.5343  1.4710
  281TMC3    H1 4300   2.628   3.042  13.670 -0.7717 -0.7962 -1.3582
  281TMC3    H2 4301   2.766   3.157  13.284 -0.7968 -2.3391 -0.0787
  281TMC3    C7 4302   2.626   2.979  13.416  0.0768 -0.0165 -0.2862
  281TMC3    C8 4303   2.694   3.405  13.324 -0.2482 -0.1034 -0.9062
  281TMC3    O1 4304   2.674   2.918  13.319  0.3029 -0.4230 -0.2501
  281TMC3    O2 4305   2.634   3.346  13.239  0.3919  0.1034  0.3213
  282MPD2     C 4306   4.134   4.296  15.040  0.7174  0.5774  0.1020
  282MPD2    C1 4307   4.002   4.331  15.050 -0.4838  0.2794 -0.0560
  282MPD2    C2 4308   3.936   4.362  14.936 -0.3438 -0.4066  0.0459
  282MPD2    C3 4309   4.001   4.375  14.812 -0.1297  0.0898  0.2533
  282MPD2    C4 4310   4.143   4.359  14.809 -0.1400  0.4444  0.1523
  282MPD2    C5 4311   4.204   4.317  14.925 -0.1120  0.1383 -0.2503
  282MPD2     H 4312   3.829   4.381  14.943 -0.2818 -0.2964  0.6731
  282MPD2    H1 4313   4.209   4.389  14.728  1.1480  0.1321  1.0742
  282MPD2    H2 4314   4.195   4.270  15.126  3.5490  2.2567 -1.4356
  282MPD2    H3 4315   4.311   4.311  14.935 -0.1487  0.0970  0.1198
  282MPD2     N 4316   3.924   4.396  14.691  0.2416 -0.2096  0.1347
  282MPD2    H5 4317   3.824   4.413  14.692  0.6128  2.0375  0.1923
  282MPD2    N1 4318   3.937   4.305  15.171 -0.1937  0.5302 -0.3530
  282MPD2    H7 4319   3.836   4.314  15.169 -0.3680 -0.8205  2.3244
  283TMC3    C1 4320   3.906   4.249  15.398 -0.2963  0.0801  0.0751
  283TMC3    C2 4321   3.885   4.380  15.437 -0.4743  0.2765 -0.1210
  283TMC3    C3 4322   3.884   4.389  15.577 -0.0109 -0.0549 -0.5985
  283TMC3    C4 4323   3.902   4.136  15.474 -0.7124  0.1677 -0.1631
  283TMC3    C5 4324   3.886   4.155  15.610  0.2507  0.2106  0.1314
  283TMC3    C6 4325   3.882   4.281  15.659  0.3424 -0.7557  0.2523
  283TMC3     C 4326   3.996   4.243  15.283  0.4094 -0.0917 -0.4806
  283TMC3     O 4327   4.105   4.187  15.303  0.2415 -0.0355 -0.7894
  283TMC3     H 4328   3.903   4.461  15.367  0.0263  0.0542 -0.2491
  283TMC3    H1 4329   3.918   4.034  15.438  1.0691  0.6399 -0.7056
  283TMC3    H2 4330   3.859   4.295  15.764  0.3686 -1.2247  0.3201
  283TMC3    C7 4331   3.831   4.048  15.695 -0.0006  0.0033 -0.1101
  283TMC3    C8 4332   3.863   4.516  15.644 -0.0059  0.7496 -0.2333
  283TMC3    O1 4333   3.817   4.075  15.813 -0.1244 -0.1181  0.9898
  283TMC3    O2 4334   3.871   4.508  15.763 -1.1546  0.3955  0.7944
  284MPD2     C 4335   2.120   3.965  12.096  0.4865  0.0196 -0.2433
  284MPD2    C1 4336   2.254   3.999  12.096  0.2803 -0.2022  0.0789
  284MPD2    C2 4337   2.342   3.892  12.114  0.5702  0.2216  0.1539
  284MPD2    C3 4338   2.300   3.765  12.138 -0.0998  0.1030  0.5246
  284MPD2    C4 4339   2.166   3.739  12.160  0.1133 -0.0613  0.0687
  284MPD2    C5 4340   2.076   3.837  12.124  0.4746  0.1405 -0.5435
  284MPD2     H 4341   2.447   3.919  12.114  0.7967 -0.6468  0.3545
  284MPD2    H1 4342   2.112   3.647  12.174  1.6929 -1.1108 -0.7365
  284MPD2    H2 4343   2.034   4.030  12.087 -0.2382 -0.7398  1.1289
  284MPD2    H3 4344   1.969   3.820  12.110  0.7989 -1.5065 -1.0575
  284MPD2     N 4345   2.388   3.652  12.139  0.0591  0.1653 -0.0918
  284MPD2    H5 4346   2.349   3.562  12.166  1.3270 -0.2980  0.2260
  284MPD2    N1 4347   2.309   4.128  12.076 -0.1022 -0.1064 -0.5022
  284MPD2    H7 4348   2.409   4.143  12.084 -0.1054  0.4830 -1.7407
  285TMC3    C1 4349   2.305   4.362  12.037 -0.4346  0.2052 -0.0518
  285TMC3    C2 4350   2.442   4.358  12.041 -0.3227  0.7354 -0.0625
  285TMC3    C3 4351   2.523   4.421  11.946  0.3053 -0.6435  0.1509
  285TMC3    C4 4352   2.240   4.443  11.940  0.2880  0.2980 -0.4143
  285TMC3    C5 4353   2.318   4.505  11.846 -0.0065 -0.1367  0.0677
  285TMC3    C6 4354   2.457   4.484  11.847  0.3387 -0.0389 -0.0429
  285TMC3     C 4355   2.228   4.241  12.069  0.4557 -0.0611 -0.4699
  285TMC3     O 4356   2.108   4.255  12.077  0.9408 -0.1742  0.0101
  285TMC3     H 4357   2.488   4.295  12.116 -1.8599 -1.5238 -1.0136
  285TMC3    H1 4358   2.132   4.439  11.931  0.2594 -0.3510  0.2227
  285TMC3    H2 4359   2.518   4.512  11.762  0.1445 -0.1026 -0.2027
  285TMC3    C7 4360   2.263   4.565  11.722 -0.2230 -0.6998  0.1613
  285TMC3    C8 4361   2.632   4.337  11.912  0.1484  0.2263 -0.3261
  285TMC3    O1 4362   2.344   4.596  11.636 -0.4071  0.1715 -0.2209
  285TMC3    O2 4363   2.630   4.222  11.958 -0.4268 -0.3041  0.3829
  286MPD2     C 4364   2.915   2.838   1.706 -0.6590 -0.5467  0.2286
  286MPD2    C1 4365   2.903   2.799   1.575 -0.1425 -0.3063  0.4302
  286MPD2    C2 4366   3.013   2.730   1.517  0.1390 -0.3497  0.2148
  286MPD2    C3 4367   3.130   2.708   1.588 -0.5046 -0.1196  0.0734
  286MPD2    C4 4368   3.133   2.748   1.722  0.1125  0.3067 -0.9078
  286MPD2    C5 4369   3.025   2.803   1.783  0.6947  0.2182 -0.3210
  286MPD2     H 4370   3.009   2.700   1.412 -0.9567  0.0295  0.1468
  286MPD2    H1 4371   3.218   2.729   1.787 -1.4085  1.4635  1.4282
  286MPD2    H2 4372   2.842   2.900   1.756 -2.3962 -2.2749 -0.1644
  286MPD2    H3 4373   3.027   2.823   1.889 -1.9123  1.4094 -0.4896
  286MPD2     N 4374   3.246   2.651   1.539 -0.7924 -0.1759 -0.9266
  286MPD2    H5 4375   3.322   2.658   1.605  0.1809  0.3155 -2.1019
  286MPD2    N1 4376   2.789   2.830   1.491  0.3766  0.1842  0.3118
  286MPD2    H7 4377   2.788   2.817   1.390  0.7373 -1.8627  0.5876
  287TMC3    C1 4378   3.374   2.489   1.427  0.3964  0.7397  0.6517
  287TMC3    C2 4379   3.367   2.358   1.379  0.2220  0.6141 -0.1203
  287TMC3    C3 4380   3.480   2.277   1.391  0.0751  0.7320 -0.2185
  287TMC3    C4 4381   3.493   2.543   1.470  0.5251 -0.0693 -0.6680
  287TMC3    C5 4382   3.599   2.458   1.476  0.5885 -0.6644 -0.2639
  287TMC3    C6 4383   3.598   2.326   1.435  0.0590  0.2388 -0.3982
  287TMC3     C 4384   3.246   2.561   1.436  0.5835 -0.5738 -0.0224
  287TMC3     O 4385   3.152   2.513   1.376 -0.1937  0.5166  0.7707
  287TMC3     H 4386   3.271   2.318   1.346  0.7397  0.9058 -1.9770
  287TMC3    H1 4387   3.500   2.643   1.511 -0.7131  0.5207 -1.9227
  287TMC3    H2 4388   3.686   2.262   1.440 -0.3459 -0.1193  1.9006
  287TMC3    C7 4389   3.721   2.503   1.534  0.7679  0.1820  0.3837
  287TMC3    C8 4390   3.486   2.150   1.316 -0.6982 -0.0492  0.1034
  287TMC3    O1 4391   3.705   2.594   1.615 -0.1511 -0.1417 -0.3724
  287TMC3    O2 4392   3.393   2.070   1.304 -0.1603  0.7371 -0.1214
  288TMC3    C1 4393   4.316   2.090  14.604 -0.3827  0.5206 -0.6817
  288TMC3    C2 4394   4.313   2.023  14.721 -0.1495  1.0646 -0.0785
  288TMC3    C3 4395   4.184   1.990  14.763 -0.4212  0.2634  1.7767
  288TMC3    C4 4396   4.203   2.119  14.536 -0.0463  0.8927  0.0611
  288TMC3    C5 4397   4.083   2.077  14.583  0.6834  0.5943 -0.2724
  288TMC3    C6 4398   4.068   2.014  14.701 -0.8230  0.4081  0.2781
  288TMC3     C 4399   4.449   2.090  14.541 -0.0895 -0.1511  0.2856
  288TMC3     O 4400   4.544   2.058  14.614 -0.9538  0.3012  0.0317
  288TMC3     H 4401   4.403   1.998  14.776  1.4138 -0.5881 -3.3937
  288TMC3    H1 4402   4.205   2.188  14.452 -0.3912 -0.6707 -1.2220
  288TMC3    H2 4403   3.970   1.990  14.740 -0.7662  0.9804  0.7638
  288TMC3    C7 4404   3.965   2.086  14.502  0.7514 -0.3787 -0.6647
  288TMC3    C8 4405   4.175   1.937  14.904 -0.6224  0.1671 -0.0152
  288TMC3    O1 4406   3.875   2.009  14.522  0.3589 -0.5454  0.7584
  288TMC3    O2 4407   4.268   1.961  14.981 -0.3705  0.6919 -0.0736
  289MPD2     C 4408   4.272   1.413  14.403 -0.8396 -0.4483  0.2349
  289MPD2    C1 4409   4.253   1.500  14.300  0.2578 -0.5435 -0.2154
  289MPD2    C2 4410   4.125   1.508  14.237  0.6072 -0.2060  0.4266
  289MPD2    C3 4411   4.012   1.441  14.284 -0.8827 -0.2105 -0.1576
  289MPD2    C4 4412   4.039   1.345  14.385  0.1985 -0.5599 -0.6013
  289MPD2    C5 4413   4.164   1.337  14.454  0.0793  0.4232 -0.1536
  289MPD2     H 4414   4.108   1.587  14.165  0.5276 -0.0912  0.5727
  289MPD2    H1 4415   3.969   1.278  14.434 -1.9257  1.7240 -0.5782
  289MPD2    H2 4416   4.368   1.414  14.453  1.6519  0.3442 -4.6500
  289MPD2    H3 4417   4.185   1.273  14.539  2.9191  0.1583 -1.0605
  289MPD2     N 4418   3.878   1.460  14.231  0.3866  0.2108 -0.6009
  289MPD2    H5 4419   3.811   1.389  14.259 -0.4382  1.9717  1.8422
  289MPD2    N1 4420   4.363   1.580  14.264 -0.5252  0.9808 -0.0447
  289MPD2    H7 4421   4.435   1.592  14.335 -0.9345  0.4514  0.4667
  290TMC3    C1 4422   3.724   1.551  14.070 -0.1953  0.5983  0.0601
  290TMC3    C2 4423   3.678   1.664  14.005 -1.0707 -0.4760  0.7449
  290TMC3    C3 4424   3.603   1.657  13.890  0.3590 -0.2559  0.7022
  290TMC3    C4 4425   3.693   1.422  14.018 -0.0033  0.2347 -0.7706
  290TMC3    C5 4426   3.634   1.426  13.895  0.2539 -0.3971 -0.7238
  290TMC3    C6 4427   3.580   1.540  13.835  0.0244 -0.6002  0.0207
  290TMC3     C 4428   3.840   1.571  14.161  0.2449  0.6950  0.3471
  290TMC3     O 4429   3.907   1.676  14.150 -0.1691 -0.3057 -0.4438
  290TMC3     H 4430   3.711   1.763  14.035  0.3085 -0.4639 -0.8344
  290TMC3    H1 4431   3.760   1.342  14.048 -0.4463 -0.4097 -1.4798
  290TMC3    H2 4432   3.525   1.526  13.743 -0.3424 -1.1116  0.3157
  290TMC3    C7 4433   3.625   1.306  13.819 -0.1446 -0.0825 -0.0760
  290TMC3    C8 4434   3.532   1.775  13.845  0.3654 -0.4881  1.1231
  290TMC3    O1 4435   3.598   1.322  13.696  0.0345 -0.4379  0.1418
  290TMC3    O2 4436   3.477   1.763  13.735 -0.0649  0.0981 -0.2877
  291MPD2     C 4437   3.933   1.241   0.883 -0.3025  0.4221 -0.3172
  291MPD2    C1 4438   3.933   1.151   0.779 -0.2962 -0.8376  0.2958
  291MPD2    C2 4439   3.982   1.184   0.652  0.0105  0.2887 -0.1524
  291MPD2    C3 4440   4.037   1.310   0.635  0.2205 -0.4003 -0.5036
  291MPD2    C4 4441   4.032   1.403   0.741 -0.2277  0.3802 -0.3473
  291MPD2    C5 4442   3.991   1.364   0.867 -0.0385 -0.7810  0.3851
  291MPD2     H 4443   3.967   1.103   0.582  1.0300 -0.6429  0.7085
  291MPD2    H1 4444   4.075   1.502   0.739 -0.3250  0.3673 -3.3623
  291MPD2    H2 4445   3.903   1.215   0.984 -0.8456  0.6483 -0.4194
  291MPD2    H3 4446   3.994   1.431   0.953  0.5883 -1.1400  0.6441
  291MPD2     N 4447   4.080   1.345   0.509 -0.0863  0.1320 -0.3550
  291MPD2    H5 4448   4.114   1.439   0.496 -0.7255  0.3288 -0.5850
  291MPD2    N1 4449   3.879   1.015   0.787 -0.6648  0.2204 -0.2730
  291MPD2    H7 4450   3.883   0.952   0.707 -1.9257  0.2570 -0.3627
  292TMC3    C1 4451   3.790   0.813   0.878  0.0221  0.7752  0.0120
  292TMC3    C2 4452   3.679   0.768   0.941  0.0873  0.4253  0.1651
  292TMC3    C3 4453   3.640   0.634   0.927  0.0632 -0.4115  0.7371
  292TMC3    C4 4454   3.866   0.740   0.793 -0.7539  0.7858 -0.2989
  292TMC3    C5 4455   3.819   0.616   0.768 -0.5068  0.0317 -0.1663
  292TMC3    C6 4456   3.714   0.561   0.839  0.3277  0.2504 -0.0926
  292TMC3     C 4457   3.829   0.954   0.899  0.9463  0.3789  0.5914
  292TMC3     O 4458   3.799   0.999   1.009  0.3521 -0.5361  0.4529
  292TMC3     H 4459   3.622   0.821   1.016 -2.1679 -3.6152  1.2971
  292TMC3    H1 4460   3.963   0.777   0.760 -0.7009  1.1551  0.2584
  292TMC3    H2 4461   3.692   0.455   0.830 -0.6791  0.5616 -1.2987
  292TMC3    C7 4462   3.907   0.530   0.690  0.2661 -0.2660 -0.1174
  292TMC3    C8 4463   3.509   0.593   0.983  0.1834 -0.3215  0.3789
  292TMC3    O1 4464   3.963   0.583   0.593  0.3776  0.3180 -0.1112
  292TMC3    O2 4465   3.464   0.658   1.080 -0.9161  0.5274  0.5614
  293MPD2     C 4466   0.434   2.859  12.518 -0.4614 -0.2899 -0.5369
  293MPD2    C1 4467   0.327   2.878  12.605 -0.3300 -0.4717  0.7180
  293MPD2    C2 4468   0.353   2.891  12.743 -0.0739 -0.0382 -0.6108
  293MPD2    C3 4469   0.479   2.879  12.791  0.2399  0.6464  0.1975
  293MPD2    C4 4470   0.584   2.863  12.701  0.3549 -0.3910  0.5818
  293MPD2    C5 4471   0.558   2.853  12.571 -0.0288  0.8682 -0.2166
  293MPD2     H 4472   0.272   2.900  12.815  1.4353 -0.4669  1.1681
  293MPD2    H1 4473   0.687   2.845  12.731  0.4449 -0.9228 -0.0569
  293MPD2    H2 4474   0.435   2.852  12.410  0.1667 -2.3349 -0.3947
  293MPD2    H3 4475   0.640   2.846  12.501  0.9921  1.4629  0.9343
  293MPD2     N 4476   0.504   2.875  12.929  0.5103  0.4508  0.2973
  293MPD2    H5 4477   0.426   2.865  12.994  0.3050 -0.4199 -0.0897
  293MPD2    N1 4478   0.200   2.877  12.546 -0.0381  0.2287 -0.2632
  293MPD2    H7 4479   0.193   2.880  12.445 -0.0269 -0.0022 -0.2702
  294TMC3    C1 4480   4.701   2.886  12.544 -0.6872 -1.0635  0.5530
  294TMC3    C2 4481   4.598   2.794  12.559 -0.0444  0.3155 -0.0116
  294TMC3    C3 4482   4.494   2.790  12.471 -0.4361 -0.4702 -0.2220
  294TMC3    C4 4483   4.707   2.967  12.435 -0.2924 -0.2968  0.2034
  294TMC3    C5 4484   4.597   2.967  12.352  0.3482 -0.2075  0.2786
  294TMC3    C6 4485   4.492   2.886  12.377  0.2011 -0.3315 -0.4205
  294TMC3     C 4486   0.083   2.871  12.618  0.3887  0.7154  0.5528
  294TMC3     O 4487   0.072   2.824  12.731 -0.7215  0.1122 -0.2933
  294TMC3     H 4488   4.597   2.729  12.646  0.5224  1.4305  0.8241
  294TMC3    H1 4489   0.059   3.028  12.420  0.2681 -1.2981 -0.5824
  294TMC3    H2 4490   4.408   2.893  12.308 -0.3262 -0.0397  0.2446
  294TMC3    C7 4491   4.628   2.997  12.215 -0.3356  0.9125  0.5861
  294TMC3    C8 4492   4.478   2.668  12.401  0.0889  0.1919  0.0018
  294TMC3    O1 4493   4.626   3.114  12.196  0.1325 -0.1498 -0.0260
  294TMC3    O2 4494   4.500   2.677  12.284 -0.0811  0.5911 -0.0485
  295MPD2     C 4495   0.655   1.169   1.124 -0.2740 -0.0819  0.3499
  295MPD2    C1 4496   0.597   1.290   1.093 -0.9703  0.0208 -0.7946
  295MPD2    C2 4497   0.525   1.349   1.189 -0.8829 -0.1937 -0.3546
  295MPD2    C3 4498   0.510   1.286   1.315  0.0356 -0.1424 -0.1092
  295MPD2    C4 4499   0.578   1.171   1.348  0.7410 -0.1996  0.6212
  295MPD2    C5 4500   0.642   1.109   1.245 -0.2030  0.1965 -0.3559
  295MPD2     H 4501   0.468   1.436   1.156  0.1864  0.7712  0.3238
  295MPD2    H1 4502   0.595   1.133   1.448  0.3412 -2.3787 -0.1514
  295MPD2    H2 4503   0.699   1.105   1.049  0.6210  0.2839  0.5568
  295MPD2    H3 4504   0.702   1.020   1.259 -1.4527 -0.4749  0.7151
  295MPD2     N 4505   0.436   1.347   1.423  0.3422 -0.5501 -0.3135
  295MPD2    H5 4506   0.419   1.284   1.500  0.9333  0.2445  0.4736
  295MPD2    N1 4507   0.596   1.338   0.959  0.1496 -0.1946  0.8333
  295MPD2    H7 4508   0.545   1.425   0.947  0.0532 -0.4171 -0.3677
  296TMC3    C1 4509   0.291   1.472   1.548  0.1997  0.9013  0.1318
  296TMC3    C2 4510   0.289   1.592   1.618 -0.2682 -0.4221  0.2384
  296TMC3    C3 4511   0.195   1.618   1.715 -0.0051 -0.4142  0.5359
  296TMC3    C4 4512   0.207   1.371   1.588  0.0260 -0.3017  0.7261
  296TMC3    C5 4513   0.112   1.394   1.693 -0.4283  1.2904 -0.3219
  296TMC3    C6 4514   0.100   1.524   1.754  0.2926 -0.0115 -0.2369
  296TMC3     C 4515   0.361   1.457   1.423 -0.4663 -0.1803  0.7155
  296TMC3     O 4516   0.366   1.555   1.354  0.0359  0.5606 -0.2880
  296TMC3     H 4517   0.359   1.671   1.595 -0.9699  0.0358 -0.3130
  296TMC3    H1 4518   0.215   1.278   1.534  0.4852  1.3792 -2.1153
  296TMC3    H2 4519   0.027   1.541   1.832  0.6283 -0.8226  0.2477
  296TMC3    C7 4520   0.059   1.289   1.775 -1.0519 -0.2567 -0.5221
  296TMC3    C8 4521   0.222   1.717   1.816  0.1273  0.5365  0.1943
  296TMC3    O1 4522   4.725   1.330   1.862  0.2810  0.3287  0.4729
  296TMC3    O2 4523   0.187   1.681   1.926 -0.5354 -0.7190  0.5515
  297MPD2     C 4524   3.455   2.760  16.471 -0.3571  0.1728  0.0886
  297MPD2    C1 4525   3.377   2.877  16.457 -0.1421  0.0390  0.4921
  297MPD2    C2 4526   3.442   2.993  16.429 -0.1775 -0.4800  0.0098
  297MPD2    C3 4527   3.580   2.991  16.404  0.5628 -0.5334  0.4049
  297MPD2    C4 4528   3.649   2.872  16.408 -0.3518 -0.1136  0.1443
  297MPD2    C5 4529   3.587   2.756  16.442  0.2910  0.2368 -0.0791
  297MPD2     H 4530   3.383   3.082  16.412 -2.3618 -1.5764  1.7929
  297MPD2    H1 4531   3.751   2.865  16.372 -0.6075  2.3906 -1.0798
  297MPD2    H2 4532   3.410   2.666  16.500  0.1798  0.3289  1.4439
  297MPD2    H3 4533   3.650   2.669  16.451 -0.7185 -0.5241 -0.3883
  297MPD2     N 4534   3.632   3.118  16.367 -0.1696  0.0001  0.7715
  297MPD2    H5 4535   3.580   3.200  16.397  0.3378  0.0775  1.4533
  297MPD2    N1 4536   3.241   2.879  16.477  0.3060 -0.1968  0.0968
  297MPD2    H7 4537   3.200   2.971  16.489  0.9109  0.1513 -0.4900
  298TMC3    C1 4538   3.017   2.796  16.465  0.3168 -0.8506 -0.6440
  298TMC3    C2 4539   2.943   2.714  16.388  0.3254 -0.0082 -0.3918
  298TMC3    C3 4540   2.816   2.757  16.363  0.1017 -0.2318  0.1115
  298TMC3    C4 4541   2.978   2.911  16.517 -0.7776 -0.0564  0.1188
  298TMC3    C5 4542   2.849   2.950  16.486  0.4189  0.0790  0.7970
  298TMC3    C6 4543   2.763   2.869  16.410  0.1892  0.4299  0.7578
  298TMC3     C 4544   3.160   2.765  16.476 -0.4102 -0.6465  0.3855
  298TMC3     O 4545   3.195   2.642  16.468  0.0322  0.4105  0.4805
  298TMC3     H 4546   2.988   2.622  16.351  2.0087  0.9807 -0.7852
  298TMC3    H1 4547   3.030   2.982  16.581 -0.8656 -0.8582  1.0794
  298TMC3    H2 4548   2.658   2.895  16.398 -0.4659 -2.8905 -0.6153
  298TMC3    C7 4549   2.802   3.081  16.473 -0.5637 -0.6409  0.0085
  298TMC3    C8 4550   2.804   2.727  16.218 -0.1336 -0.8475  0.1904
  298TMC3    O1 4551   2.727   3.104  16.379  0.1681 -0.0128 -0.0964
  298TMC3    O2 4552   2.873   2.637  16.165 -0.1466  0.0321 -0.0548
  299MPD2     C 4553   3.730   3.323  10.196  0.2782 -0.4954  0.5714
  299MPD2    C1 4554   3.670   3.285  10.316 -0.0582 -0.2755 -0.1098
  299MPD2    C2 4555   3.543   3.340  10.349  0.0085  0.0797  0.9804
  299MPD2    C3 4556   3.484   3.419  10.253  0.1385  0.0007 -0.8022
  299MPD2    C4 4557   3.534   3.439  10.123  0.0560 -0.1444 -0.0718
  299MPD2    C5 4558   3.660   3.391  10.101  0.1436  0.2650 -0.7056
  299MPD2     H 4559   3.508   3.323  10.450 -2.4989  0.7379  0.2281
  299MPD2    H1 4560   3.478   3.497  10.051  0.2021  0.4339  0.2813
  299MPD2    H2 4561   3.834   3.298  10.175  0.1239 -0.8383  0.2214
  299MPD2    H3 4562   3.706   3.414  10.005 -1.1933  0.6713 -1.2469
  299MPD2     N 4563   3.358   3.479  10.277 -0.2920 -0.0176 -0.2514
  299MPD2    H5 4564   3.332   3.552  10.211  0.8572 -0.0332 -0.7187
  299MPD2    N1 4565   3.750   3.205  10.403  0.6009  1.0201  0.4085
  299MPD2    H7 4566   3.845   3.197  10.367  1.1001 -1.0681  2.1453
  300TMC3    C1 4567   3.168   3.545  10.402 -0.4835 -0.8098  0.1218
  300TMC3    C2 4568   3.214   3.671  10.411  0.2764  0.5030 -0.6061
  300TMC3    C3 4569   3.145   3.756  10.497 -1.3426 -0.1001 -0.0723
  300TMC3    C4 4570   3.057   3.500  10.469  0.6565 -0.2987  0.9913
  300TMC3    C5 4571   2.994   3.589  10.555  0.0227  0.5911  0.1552
  300TMC3    C6 4572   3.037   3.716  10.570 -0.4899  0.3793  0.5320
  300TMC3     C 4573   3.272   3.447  10.376 -0.1377  0.0554  0.6755
  300TMC3     O 4574   3.281   3.358  10.461 -0.6616 -0.4691 -0.0728
  300TMC3     H 4575   3.311   3.699  10.372 -0.6950  3.1455 -1.1259
  300TMC3    H1 4576   3.019   3.400  10.451 -1.3313  0.2911  2.0075
  300TMC3    H2 4577   2.964   3.789  10.605  1.6332  1.2178  3.1741
  300TMC3    C7 4578   2.881   3.534  10.626 -0.4334 -0.0968 -0.2567
  300TMC3    C8 4579   3.236   3.861  10.549 -0.0350  0.1719 -0.2911
  300TMC3    O1 4580   2.816   3.457  10.558 -0.5925  0.4756  0.4752
  300TMC3    O2 4581   3.332   3.898  10.481 -0.0631 -0.2990 -0.2178
  301MPD2     C 4582   0.847   4.358   1.687 -0.7085 -0.5454 -0.3171
  301MPD2    C1 4583   0.738   4.288   1.643 -0.1843  0.4055 -0.6324
  301MPD2    C2 4584   0.741   4.153   1.612 -0.3091  0.1029  0.4962
  301MPD2    C3 4585   0.857   4.084   1.640  0.7502  0.9913  0.3315
  301MPD2    C4 4586   0.955   4.154   1.701 -0.2528  0.8959 -0.1797
  301MPD2    C5 4587   0.960   4.287   1.722  0.0521  1.0195 -0.2914
  301MPD2     H 4588   0.651   4.110   1.569 -0.0182  1.4862 -1.4864
  301MPD2    H1 4589   1.044   4.095   1.724 -0.0866  1.2616  0.1166
  301MPD2    H2 4590   0.849   4.466   1.697  0.2672 -0.4822 -1.1661
  301MPD2    H3 4591   1.045   4.342   1.760 -0.3479  0.4455  1.4402
  301MPD2     N 4592   0.879   3.941   1.623  0.5532 -0.2386  0.0164
  301MPD2    H5 4593   0.959   3.906   1.674  0.1051  1.4709  1.9001
  301MPD2    N1 4594   0.609   4.357   1.617 -0.2956  0.3049  0.3059
  301MPD2    H7 4595   0.531   4.293   1.602  0.8088 -0.7664 -1.0007
  302TMC3    C1 4596   0.859   3.733   1.515  0.2275 -0.3966 -0.4579
  302TMC3    C2 4597   0.992   3.725   1.496 -0.0215  0.0608  0.4986
  302TMC3    C3 4598   1.042   3.641   1.405 -0.6994  0.2885 -0.3398
  302TMC3    C4 4599   0.779   3.645   1.440  1.2622  0.0712  0.3256
  302TMC3    C5 4600   0.833   3.567   1.343 -0.5446 -0.4647 -0.4091
  302TMC3    C6 4601   0.967   3.559   1.326 -0.2197  0.7053  0.2486
  302TMC3     C 4602   0.797   3.862   1.547  0.3877 -0.7630 -0.4212
  302TMC3     O 4603   0.680   3.873   1.505 -0.4147  0.0615  0.1489
  302TMC3     H 4604   1.060   3.798   1.540 -0.7373  1.9937 -1.5619
  302TMC3    H1 4605   0.673   3.646   1.465  1.2905  2.3067  0.3860
  302TMC3    H2 4606   1.011   3.484   1.263  0.8485  0.4275  1.3368
  302TMC3    C7 4607   0.751   3.493   1.247  0.2749  0.2067 -0.2224
  302TMC3    C8 4608   1.191   3.619   1.419 -0.0162  0.0446  0.1842
  302TMC3    O1 4609   0.792   3.383   1.213  0.0850 -0.5997  0.2943
  302TMC3    O2 4610   1.250   3.666   1.515 -0.3091  0.2465 -0.5278
  303MPD2     C 4611   2.265   3.068  10.724 -0.5428  0.3752 -0.2625
  303MPD2    C1 4612   2.131   3.102  10.701 -0.0072 -0.5471  0.3602
  303MPD2    C2 4613   2.094   3.122  10.567  0.0119 -0.2274 -0.0355
  303MPD2    C3 4614   2.182   3.081  10.462 -0.3424 -0.0182  0.5735
  303MPD2    C4 4615   2.307   3.035  10.496  0.3339  0.0268 -0.1658
  303MPD2    C5 4616   2.347   3.032  10.625 -1.0607  0.5085 -0.7150
  303MPD2     H 4617   1.992   3.146  10.543  0.5490  1.1236 -0.9752
  303MPD2    H1 4618   2.372   2.997  10.418  1.7529 -0.3494  1.1838
  303MPD2    H2 4619   2.293   3.056  10.828 -0.2416 -2.1626 -0.6316
  303MPD2    H3 4620   2.452   3.006  10.640 -1.4134  2.6322  5.7502
  303MPD2     N 4621   2.152   3.093  10.329  0.3027 -0.1517  0.3861
  303MPD2    H5 4622   2.220   3.058  10.262  2.2971  2.4363  1.0747
  303MPD2    N1 4623   2.036   3.104  10.811 -0.5334  0.4392 -0.0897
  303MPD2    H7 4624   2.066   3.072  10.903 -0.5256 -1.8749 -0.8915
  304TMC3    C1 4625   1.832   3.092  10.926 -0.4884  0.5664 -0.8018
  304TMC3    C2 4626   1.699   3.126  10.924  0.3931  0.3233 -0.0083
  304TMC3    C3 4627   1.598   3.052  10.975  0.6437  0.0005 -1.1043
  304TMC3    C4 4628   1.868   2.975  10.988  0.3022 -0.4667  1.0729
  304TMC3    C5 4629   1.767   2.894  11.032 -0.0324 -0.0425  0.3453
  304TMC3    C6 4630   1.635   2.937  11.038  0.1770 -0.6486  0.7349
  304TMC3     C 4631   1.908   3.141  10.809  0.5684  0.1683 -0.2042
  304TMC3     O 4632   1.847   3.190  10.715 -0.2549  0.0910  0.0295
  304TMC3     H 4633   1.666   3.210  10.864  2.9487  1.3260 -0.0232
  304TMC3    H1 4634   1.963   2.928  10.964  0.1199 -0.1831 -0.1852
  304TMC3    H2 4635   1.561   2.868  11.078 -1.2795  0.4548 -0.0411
  304TMC3    C7 4636   1.788   2.755  10.977 -0.4186  0.1541  0.1998
  304TMC3    C8 4637   1.491   3.039  10.875  0.6861  0.2589  0.3560
  304TMC3    O1 4638   1.897   2.693  10.986  0.0908  0.5647  0.5294
  304TMC3    O2 4639   1.484   2.920  10.846 -0.0027 -0.0870 -0.2006
  305MPD2     C 4640   3.900   4.721  13.847  0.3483 -0.2819 -0.5216
  305MPD2    C1 4641   3.969   4.606  13.873  0.7098 -0.6049  0.1679
  305MPD2    C2 4642   3.950   4.498  13.783 -0.3012  0.4488  0.0887
  305MPD2    C3 4643   3.863   4.517  13.675  0.0817 -0.4020 -0.1174
  305MPD2    C4 4644   3.790   4.635  13.660  0.9334  0.2839 -0.2802
  305MPD2    C5 4645   3.812   4.731  13.747  0.1105 -0.2912 -0.8991
  305MPD2     H 4646   4.006   4.405  13.792 -0.4868  0.6092  2.8462
  305MPD2    H1 4647   3.719   4.648  13.579 -0.9914 -1.8119  1.0577
  305MPD2    H2 4648   3.923   0.071  13.906  1.8715 -0.9354 -0.1539
  305MPD2    H3 4649   3.749   0.083  13.742  0.1635 -0.1779  0.4761
  305MPD2     N 4650   3.861   4.420  13.568  0.4128  0.1868  0.8721
  305MPD2    H5 4651   3.820   4.454  13.481 -0.5849  0.8968  1.6179
  305MPD2    N1 4652   4.061   4.602  13.980 -0.5518 -0.0492 -0.4485
  305MPD2    H7 4653   4.080   4.693  14.022 -2.0106  0.0582 -0.0281
  306TMC3    C1 4654   4.203   4.535  14.145  0.4143  0.3571  0.0842
  306TMC3    C2 4655   4.290   4.430  14.179 -0.7221 -0.8671  0.2945
  306TMC3    C3 4656   4.331   4.423  14.308 -0.3123 -0.4496 -0.1103
  306TMC3    C4 4657   4.147   4.618  14.235  0.0388  0.2978 -0.3943
  306TMC3    C5 4658   4.193   4.601  14.361 -0.3111  0.1089  0.3633
  306TMC3    C6 4659   4.275   4.497  14.406 -0.0183  0.9314 -0.3754
  306TMC3     C 4660   4.132   4.499  14.024  0.4791 -0.2939  0.4137
  306TMC3     O 4661   4.134   4.384  13.986  0.4027 -0.3225  0.1223
  306TMC3     H 4662   4.318   4.350  14.111  0.8873  1.3984 -1.7370
  306TMC3    H1 4663   4.068   4.687  14.207  1.1036  1.3767 -0.6992
  306TMC3    H2 4664   4.300   4.479  14.510 -0.5174 -1.0799 -0.6051
  306TMC3    C7 4665   4.151   4.688  14.464  0.3319 -0.6321  0.1891
  306TMC3    C8 4666   4.409   4.309  14.346  0.9106 -0.2546 -0.0845
  306TMC3    O1 4667   4.034   4.720  14.468  0.4735 -0.3560 -0.3114
  306TMC3    O2 4668   4.484   4.271  14.252 -0.1499 -0.0452 -0.2662
  307MPD2     C 4669   0.961   2.073   1.538  0.1107  0.7532  0.4898
  307MPD2    C1 4670   1.023   2.187   1.486  0.8562  0.6140 -0.8638
  307MPD2    C2 4671   0.967   2.253   1.378  0.2282  0.2291 -0.6025
  307MPD2    C3 4672   0.854   2.209   1.317 -0.5817 -0.0177 -0.2247
  307MPD2    C4 4673   0.784   2.111   1.381  0.3368 -0.0137 -0.1351
  307MPD2    C5 4674   0.842   2.031   1.475 -0.1670  0.3457 -0.1225
  307MPD2     H 4675   1.022   2.343   1.350 -1.2436  1.3941  0.2400
  307MPD2    H1 4676   0.688   2.079   1.343  0.2414 -1.2650  1.1736
  307MPD2    H2 4677   1.005   2.008   1.612 -0.1115  2.2629  1.9392
  307MPD2    H3 4678   0.783   1.952   1.519  1.4211 -0.3113  0.8584
  307MPD2     N 4679   0.815   2.291   1.207  0.1444  0.4266 -1.2997
  307MPD2    H5 4680   0.878   2.369   1.188  1.6060 -0.5016 -0.3104
  307MPD2    N1 4681   1.146   2.240   1.538  0.1287 -0.0617 -0.8245
  307MPD2    H7 4682   1.187   2.320   1.491 -0.0003 -0.2009 -1.1746
  308TMC3    C1 4683   0.623   2.436   0.831 -0.2784  0.1611  0.8477
  308TMC3    C2 4684   0.679   2.562   0.841  0.2657 -0.7461  0.5020
  308TMC3    C3 4685   0.737   2.588   0.961 -0.0542  0.1298 -0.4972
  308TMC3    C4 4686   0.615   2.348   0.924 -0.2471  0.3819  1.0000
  308TMC3    C5 4687   0.671   2.377   1.042 -0.7032 -0.2983  0.7269
  308TMC3    C6 4688   0.732   2.498   1.065  0.1443 -0.5775  0.1509
  308TMC3     C 4689   0.615   2.383   0.694 -0.7187 -0.0680 -0.3004
  308TMC3     O 4690   0.556   2.278   0.684  0.4954 -0.1926  0.1986
  308TMC3     H 4691   0.701   2.637   0.767  2.4191 -0.0703  1.8369
  308TMC3    H1 4692   0.563   2.253   0.920 -0.1795  0.2847  2.5791
  308TMC3    H2 4693   0.769   2.525   1.163 -1.2648 -1.5336  0.9513
  308TMC3    C7 4694   0.705   2.267   1.129 -0.7405  0.4080 -1.0561
  308TMC3    C8 4695   0.861   2.667   0.957  0.0423  0.0076 -0.8351
  308TMC3    O1 4696   0.635   2.165   1.109 -0.1637  0.0272  0.2037
  308TMC3    O2 4697   0.903   2.669   0.844 -0.1372 -0.2433 -0.1911
  309MPD2     C 4698   1.658   3.448  16.703 -0.1221  0.2587 -0.3204
  309MPD2    C1 4699   1.553   3.462  16.611  0.3491  0.3265  0.8147
  309MPD2    C2 4700   1.428   3.429  16.644 -0.5308 -0.2148  0.1854
  309MPD2    C3 4701   1.398   3.388  16.777  0.6259  0.0606  0.2957
  309MPD2    C4 4702   1.498   3.379  16.870  0.7933 -0.4688  0.0682
  309MPD2    C5 4703   1.628   3.407  16.828  1.2660 -0.3249 -0.2875
  309MPD2     H 4704   1.356   3.455  16.567  0.3608  4.8301  1.0399
  309MPD2    H1 4705   1.479   3.360  16.975 -0.4527 -3.6286 -0.7510
  309MPD2    H2 4706   1.761   3.462  16.673  0.1515 -0.1079  0.4618
  309MPD2    H3 4707   1.709   3.385  16.897 -0.4378 -2.0187  1.1752
  309MPD2     N 4708   1.267   3.350  16.818  0.0217 -0.2463 -0.1183
  309MPD2    H5 4709   1.259   3.320  16.915 -0.7145 -1.9296 -0.7146
  309MPD2    N1 4710   1.570   3.495  16.475 -0.4041 -0.1189  0.0149
  309MPD2    H7 4711   1.489   3.496  16.414  0.5953 -2.0328 -1.3239
  310TMC3    C1 4712   1.686   3.505  16.274 -0.2917  0.2990  0.5272
  310TMC3    C2 4713   1.566   3.550  16.216 -0.0679 -0.0020 -0.3313
  310TMC3    C3 4714   1.514   3.464  16.117 -0.3110 -0.3228  1.1563
  310TMC3    C4 4715   1.754   3.394  16.223 -0.5082  0.0808  0.4220
  310TMC3    C5 4716   1.680   3.303  16.144 -0.4026 -0.5088  0.3775
  310TMC3    C6 4717   1.561   3.340  16.097 -0.1261 -0.4064  0.2083
  310TMC3     C 4718   1.691   3.513  16.414 -0.2064  0.1444  0.5256
  310TMC3     O 4719   1.802   3.508  16.468  0.1955 -0.1577  0.3122
  310TMC3     H 4720   1.536   3.653  16.227  0.8137  0.4075 -1.7860
  310TMC3    H1 4721   1.850   3.370  16.267  0.5443  0.8853 -1.4362
  310TMC3    H2 4722   1.514   3.259  16.043 -0.6808  1.2568 -1.7737
  310TMC3    C7 4723   1.702   3.161  16.180  0.3937  0.3870 -0.3580
  310TMC3    C8 4724   1.434   3.517  16.012  0.0921 -0.2120  0.1280
  310TMC3    O1 4725   1.602   3.090  16.181  0.0764  0.2684 -0.5345
  310TMC3    O2 4726   1.425   3.463  15.902  0.0880 -0.3234 -0.2412
  311MPD2     C 4727   3.099   4.354  12.087 -0.3700  0.6532 -0.2291
  311MPD2    C1 4728   3.136   4.414  12.201  0.1591 -0.0509  0.1389
  311MPD2    C2 4729   3.091   4.374  12.326 -0.0703 -0.4304  0.4749
  311MPD2    C3 4730   3.004   4.267  12.338 -0.4289  0.5744  0.1780
  311MPD2    C4 4731   2.967   4.205  12.226 -0.3323  0.1066 -0.1402
  311MPD2    C5 4732   3.013   4.241  12.106  0.5622 -0.2837 -0.4955
  311MPD2     H 4733   3.129   4.425  12.414 -1.3972  1.3993 -0.0187
  311MPD2    H1 4734   2.903   4.118  12.232  0.6284 -0.5370  0.8283
  311MPD2    H2 4735   3.139   4.381  11.990  1.1639 -1.5965 -0.2192
  311MPD2    H3 4736   2.985   4.179  12.022  0.3029 -1.6419  0.5945
  311MPD2     N 4737   2.964   4.225  12.468  0.5233  0.0394 -0.0875
  311MPD2    H5 4738   2.997   4.288  12.540 -2.2776  0.1171  1.1271
  311MPD2    N1 4739   3.225   4.521  12.198  0.0344 -0.4731 -0.0575
  311MPD2    H7 4740   3.268   4.545  12.109 -1.7185 -1.9595 -1.2980
  312TMC3    C1 4741   2.867   4.129  12.655 -1.0796 -0.1136 -0.7902
  312TMC3    C2 4742   2.761   4.068  12.699 -0.3737  1.1677  0.5285
  312TMC3    C3 4743   2.676   4.118  12.795  0.4274 -0.0384  0.5199
  312TMC3    C4 4744   2.898   4.242  12.722  0.1668  0.2420 -0.0704
  312TMC3    C5 4745   2.822   4.291  12.823 -0.0901  0.0378 -0.5133
  312TMC3    C6 4746   2.703   4.233  12.864 -0.4320 -0.4888 -0.4487
  312TMC3     C 4747   2.895   4.114  12.511  0.2976 -0.6126  0.0922
  312TMC3     O 4748   2.845   4.024  12.446  0.2034 -0.2273  0.4231
  312TMC3     H 4749   2.722   3.982  12.646  1.1443 -0.9525  2.8451
  312TMC3    H1 4750   2.996   4.281  12.694  0.5378 -2.2374 -2.2381
  312TMC3    H2 4751   2.641   4.274  12.943 -1.7629 -0.1286 -1.6865
  312TMC3    C7 4752   2.881   4.403  12.900 -0.2058  0.0268 -0.7478
  312TMC3    C8 4753   2.552   4.046  12.825 -0.0069  0.3297 -0.2128
  312TMC3    O1 4754   2.981   4.461  12.854 -0.0252  0.0320 -0.0928
  312TMC3    O2 4755   2.509   3.961  12.751 -0.2410  0.6803 -0.2547
  313MPD2     C 4756   1.842   4.084  11.528  0.5590  0.1117  1.1369
  313MPD2    C1 4757   1.957   4.098  11.470 -0.4965 -0.2137  0.3670
  313MPD2    C2 4758   2.054   3.999  11.479  0.5783 -0.1499  0.8094
  313MPD2    C3 4759   2.030   3.883  11.555  0.5975  0.5848  0.2445
  313MPD2    C4 4760   1.912   3.876  11.632 -0.2732 -0.1181 -0.0255
  313MPD2    C5 4761   1.820   3.977  11.613 -0.0351 -0.1756  0.2488
  313MPD2     H 4762   2.146   4.009  11.423 -0.1189  0.9344 -0.1240
  313MPD2    H1 4763   1.890   3.795  11.701  0.7965 -0.6493 -0.3048
  313MPD2    H2 4764   1.764   4.159  11.532 -0.4656 -0.9874  1.8092
  313MPD2    H3 4765   1.726   3.970  11.667 -2.1805  1.1619 -3.2925
  313MPD2     N 4766   2.129   3.780  11.547  0.0728 -0.2842 -0.1614
  313MPD2    H5 4767   2.218   3.793  11.500  0.5588  0.4419  0.9799
  313MPD2    N1 4768   1.986   4.214  11.394  0.4475 -0.1886  0.1087
  313MPD2    H7 4769   2.080   4.218  11.355  0.6058 -0.9908  0.3921
  314TMC3    C1 4770   1.960   4.420  11.275  0.0111  0.0303  0.1994
  314TMC3    C2 4771   2.090   4.462  11.301  0.4041 -0.1285  0.0771
  314TMC3    C3 4772   2.138   4.564  11.224 -0.3211 -0.2711  0.0930
  314TMC3    C4 4773   1.889   4.454  11.163 -0.3764  0.1277 -0.0817
  314TMC3    C5 4774   1.950   4.545  11.076 -0.4349  0.1448 -0.8738
  314TMC3    C6 4775   2.072   4.605  11.110 -0.5089  0.7701 -0.0713
  314TMC3     C 4776   1.898   4.308  11.347 -0.8272 -0.6323 -0.0143
  314TMC3     O 4777   1.775   4.305  11.352  0.1091 -0.4711 -0.0884
  314TMC3     H 4778   2.134   4.428  11.394  1.7434  0.8460 -0.1954
  314TMC3    H1 4779   1.788   4.422  11.143 -0.4004  0.1342  0.0250
  314TMC3    H2 4780   2.104   4.688  11.048 -4.3799  1.9870 -0.4197
  314TMC3    C7 4781   1.890   4.567  10.940 -0.5171  0.0726 -0.0160
  314TMC3    C8 4782   2.280   4.599  11.226 -0.3174 -0.1411  0.5858
  314TMC3    O1 4783   1.768   4.552  10.924  0.6628  0.5599  0.1644
  314TMC3    O2 4784   2.324   4.697  11.163  0.6607 -0.0048  0.1678
  315MPD2     C 4785   2.923   2.099   0.089 -0.3282  0.7525  0.3810
  315MPD2    C1 4786   3.044   2.159   0.068 -0.1716 -0.1953  0.9988
  315MPD2    C2 4787   3.063   2.272  17.742  0.2850 -0.4066  0.1737
  315MPD2    C3 4788   2.950   2.344  17.702  0.1395 -0.3243 -0.2488
  315MPD2    C4 4789   2.830   2.278  17.709  0.3653 -0.1371  0.9336
  315MPD2    C5 4790   2.814   2.153   0.033  0.0927 -0.4734 -0.4229
  315MPD2     H 4791   3.158   2.324   0.004  0.2493 -0.7830  2.7917
  315MPD2    H1 4792   2.738   2.316  17.665  0.7378  2.6316  2.5398
  315MPD2    H2 4793   2.914   2.004   0.140  3.1209 -1.2966 -2.8110
  315MPD2    H3 4794   2.716   2.111   0.053 -0.5175  0.1789 -2.0769
  315MPD2     N 4795   2.972   2.472  17.654  0.4241 -0.1309 -0.1973
  315MPD2    H5 4796   3.070   2.496  17.651  0.3416 -0.0220 -1.8913
  315MPD2    N1 4797   3.160   2.103   0.121  0.6451 -0.1050  0.2716
  315MPD2    H7 4798   3.244   2.155   0.096  1.2768 -0.6967  1.1788
  316TMC3    C1 4799   2.928   2.698  17.633  0.7551 -0.1170  0.7314
  316TMC3    C2 4800   3.034   2.684  17.723  0.3707 -0.5382  0.3329
  316TMC3    C3 4801   3.007   2.721   0.108  0.1161  0.2452 -0.1236
  316TMC3    C4 4802   2.819   2.782  17.655 -0.4814 -0.3973  0.9066
  316TMC3    C5 4803   2.794   2.807   0.039  0.5333  0.5504  0.3107
  316TMC3    C6 4804   2.882   2.776   0.136 -0.8421 -0.4546 -0.5251
  316TMC3     C 4805   2.874   2.565  17.628 -0.5455 -0.2043 -0.1434
  316TMC3     O 4806   2.752   2.557  17.625  0.6310 -0.1436  0.0017
  316TMC3     H 4807   3.130   2.638  17.702  0.9564  0.8784 -0.0892
  316TMC3    H1 4808   2.736   2.776  17.586  1.6064 -0.9397 -1.5950
  316TMC3    H2 4809   2.876   2.809   0.239  0.6046  1.6909 -1.1258
  316TMC3    C7 4810   2.695   2.904   0.069 -0.7210 -0.2885 -0.3166
  316TMC3    C8 4811   3.067   2.650   0.212 -0.3896 -0.4402 -0.1130
  316TMC3    O1 4812   2.647   2.891   0.180 -0.5021 -0.2799  0.1377
  316TMC3    O2 4813   2.995   2.634   0.305 -0.1370  0.0279 -0.0821
  317MPD2     C 4814   4.369   1.532  12.855 -0.1676 -0.0258 -0.0952
  317MPD2    C1 4815   4.504   1.496  12.856 -0.3354 -0.6568 -0.1749
  317MPD2    C2 4816   4.550   1.426  12.969 -0.2037 -0.5928 -0.1141
  317MPD2    C3 4817   4.468   1.396  13.082  0.4860  0.0847 -0.7318
  317MPD2    C4 4818   4.340   1.434  13.078  0.0355 -0.3321 -0.5524
  317MPD2    C5 4819   4.292   1.499  12.963  0.0687  0.1190  0.0645
  317MPD2     H 4820   4.649   1.381  12.967 -1.1786 -2.8048  0.4438
  317MPD2    H1 4821   4.276   1.409  13.162 -1.7068  1.6276 -1.3255
  317MPD2    H2 4822   4.330   1.588  12.770 -2.3144 -0.8590  0.3331
  317MPD2    H3 4823   4.191   1.535  12.980 -0.2033 -1.1232  1.0534
  317MPD2     N 4824   4.531   1.333  13.186 -0.0466  0.6163 -0.3127
  317MPD2    H5 4825   4.627   1.307  13.167 -1.0534 -0.0260 -4.3917
  317MPD2    N1 4826   4.582   1.509  12.738 -0.5493 -0.0997  0.7634
  317MPD2    H7 4827   4.676   1.470  12.739 -0.6221 -0.2721  0.9283
  318TMC3    C1 4828   4.566   1.208  13.377  0.6700  0.4285  0.2659
  318TMC3    C2 4829   4.503   1.098  13.417  0.6482 -0.3698  0.0804
  318TMC3    C3 4830   4.571   0.985  13.383  1.2167  0.0187  0.2456
  318TMC3    C4 4831   4.699   1.212  13.336  0.4665  0.6218 -0.4679
  318TMC3    C5 4832   0.032   1.095  13.330 -0.0908  0.1354 -0.1488
  318TMC3    C6 4833   4.707   0.977  13.346 -0.0980 -0.5085 -0.2094
  318TMC3     C 4834   4.476   1.292  13.305  0.4771 -0.1656  0.5941
  318TMC3     O 4835   4.358   1.278  13.331 -0.3356  0.0856 -0.7240
  318TMC3     H 4836   4.409   1.112  13.468  0.4930  1.6383 -0.7669
  318TMC3    H1 4837   0.004   1.307  13.306 -1.5999  1.2744 -1.2647
  318TMC3    H2 4838   0.014   0.879  13.333  0.7858 -0.3548  1.6451
  318TMC3    C7 4839   0.128   1.097  13.225  0.0576  0.1352 -0.0343
  318TMC3    C8 4840   4.485   0.868  13.362  0.8140  0.3992  0.0363
  318TMC3    O1 4841   0.112   1.181  13.136  0.1018 -0.2070  0.5379
  318TMC3    O2 4842   4.535   0.757  13.378  0.1344  0.0387  0.0252
  319MPD2     C 4843   1.099   2.897  16.612  0.1541  0.4688  0.9548
  319MPD2    C1 4844   1.030   2.790  16.656  0.1363 -0.3223 -0.1287
  319MPD2    C2 4845   0.895   2.782  16.634 -0.0588 -0.0105 -0.5174
  319MPD2    C3 4846   0.823   2.886  16.584  0.2861  0.2432  0.7375
  319MPD2    C4 4847   0.898   2.996  16.548  0.4467 -0.0003 -0.9673
  319MPD2    C5 4848   1.031   3.001  16.562 -0.2369 -1.0384  0.1828
  319MPD2     H 4849   0.849   2.690  16.669 -0.5274 -0.4064 -2.1723
  319MPD2    H1 4850   0.835   3.079  16.516  1.6435  0.6272 -1.6744
  319MPD2    H2 4851   1.207   2.895  16.619  0.2273 -1.2465 -0.5957
  319MPD2    H3 4852   1.090   3.078  16.515 -0.0316 -1.9772 -1.1288
  319MPD2     N 4853   0.685   2.881  16.553 -0.0368  0.6837 -0.0407
  319MPD2    H5 4854   0.647   2.957  16.497  0.6367  0.7674 -0.3795
  319MPD2    N1 4855   1.107   2.694  16.735  0.0467 -0.6557  0.2347
  319MPD2    H7 4856   1.209   2.693  16.738  0.0596  0.0100 -0.1242
  320TMC3    C1 4857   0.460   2.827  16.569 -0.3953 -0.1583 -0.3459
  320TMC3    C2 4858   0.425   2.882  16.449 -0.7605  0.1702 -0.6995
  320TMC3    C3 4859   0.296   2.909  16.428  0.2265 -0.3675 -0.6992
  320TMC3    C4 4860   0.365   2.793  16.661 -0.3491  0.4033 -0.4381
  320TMC3    C5 4861   0.236   2.818  16.633  0.8918  0.2118 -0.3949
  320TMC3    C6 4862   0.194   2.886  16.520  0.0286 -0.0153  0.3493
  320TMC3     C 4863   0.596   2.794  16.604 -0.7923  1.3859 -0.1851
  320TMC3     O 4864   0.613   2.693  16.672 -0.4963  0.2430 -0.5840
  320TMC3     H 4865   0.499   2.916  16.377 -0.7545 -0.3448 -0.9351
  320TMC3    H1 4866   0.374   2.769  16.766  2.1599 -1.0202 -0.9628
  320TMC3    H2 4867   0.091   2.897  16.488 -0.2062  1.1206  1.4840
  320TMC3    C7 4868   0.140   2.726  16.692  0.1207 -0.1268  0.7862
  320TMC3    C8 4869   0.252   2.948  16.300  0.4939 -0.6250  0.0761
  320TMC3    O1 4870   0.178   2.612  16.717  0.1067 -0.0390 -0.7379
  320TMC3    O2 4871   0.161   3.028  16.299 -0.5637  0.1738  0.0726
  321TMC3    C1 4872   1.158   2.486  16.853  0.1019 -0.3517 -0.1577
  321TMC3    C2 4873   1.119   2.356  16.882  0.1004 -0.2575 -0.1965
  321TMC3    C3 4874   1.196   2.282  16.970 -0.1100  0.2429  0.7806
  321TMC3    C4 4875   1.263   2.549  16.914  0.6870 -0.2234  0.0334
  321TMC3    C5 4876   1.333   2.472  17.007  0.8964  0.6402 -0.4260
  321TMC3    C6 4877   1.304   2.344  17.029  0.2030  0.7760  0.0697
  321TMC3     C 4878   1.057   2.572  16.782  0.0832 -0.2550 -0.1455
  321TMC3     O 4879   0.945   2.524  16.772  0.2736 -0.3447  0.1999
  321TMC3     H 4880   1.033   2.312  16.833 -1.1962  0.4479  1.4317
  321TMC3    H1 4881   1.270   2.656  16.906  1.6783 -0.1922  1.2916
  321TMC3    H2 4882   1.378   2.285  17.081  0.0844 -2.1597 -3.0855
  321TMC3    C7 4883   1.394   2.542  17.119 -0.1971 -0.2880 -0.0535
  321TMC3    C8 4884   1.140   2.206  17.078 -0.6839 -0.5433  0.0606
  321TMC3    O1 4885   1.482   2.624  17.095 -0.1109  0.2282 -0.0308
  321TMC3    O2 4886   1.154   2.272  17.182 -0.1788 -0.0703 -0.1639
  322MPD2     C 4887   3.870   3.585  13.803  0.0870 -0.9306  0.0162
  322MPD2    C1 4888   3.970   3.546  13.882 -0.5535 -0.0685 -0.4743
  322MPD2    C2 4889   4.059   3.451  13.837  0.3465  0.3085 -0.4336
  322MPD2    C3 4890   4.052   3.410  13.707 -0.3797  0.2852  0.6781
  322MPD2    C4 4891   3.946   3.443  13.628  1.2145  0.2572  0.6118
  322MPD2    C5 4892   3.852   3.530  13.680 -0.5701  0.8104 -0.1180
  322MPD2     H 4893   4.140   3.430  13.906 -0.9763  0.4780  1.1631
  322MPD2    H1 4894   3.941   3.409  13.525 -0.4601  1.3784  0.3174
  322MPD2    H2 4895   3.797   3.659  13.834  0.1670 -0.3685 -1.1300
  322MPD2    H3 4896   3.768   3.561  13.619 -2.0547 -2.6307  0.2146
  322MPD2     N 4897   4.150   3.331  13.659  0.3184 -0.3404  0.3161
  322MPD2    H5 4898   4.218   3.283  13.718  1.9479  1.2889 -0.2230
  322MPD2    N1 4899   3.996   3.596  14.012 -0.5200  0.4378 -0.4369
  322MPD2    H7 4900   4.073   3.558  14.066 -1.1468  1.5313  1.2391
  323TMC3    C1 4901   4.016   3.766  14.179 -0.0277 -0.2025 -0.5330
  323TMC3    C2 4902   4.097   3.880  14.163  0.5758 -0.1517  0.8914
  323TMC3    C3 4903   4.188   3.905  14.270  0.6394 -0.1610 -0.2431
  323TMC3    C4 4904   4.035   3.668  14.279 -0.4809 -0.2857 -0.7444
  323TMC3    C5 4905   4.129   3.696  14.372  0.0751 -0.0105  0.6826
  323TMC3    C6 4906   4.200   3.813  14.370  0.3715 -0.9800 -0.3732
  323TMC3     C 4907   3.954   3.718  14.060  0.2218  0.7223  0.4894
  323TMC3     O 4908   3.881   3.804  14.013  0.3128 -0.4368 -0.0706
  323TMC3     H 4909   4.067   3.955  14.090 -1.1821 -0.9021  0.8401
  323TMC3    H1 4910   3.964   3.586  14.278 -2.7158  1.6494 -0.6846
  323TMC3    H2 4911   4.266   3.837  14.453 -0.5141 -3.1780  0.9645
  323TMC3    C7 4912   4.168   3.588  14.454  0.5310 -0.5750 -0.0221
  323TMC3    C8 4913   4.324   3.938  14.218  0.0774  0.8156  0.2985
  323TMC3    O1 4914   4.095   3.492  14.463  0.3754  1.1198  0.2702
  323TMC3    O2 4915   4.418   3.889  14.283  0.2174 -0.0718  0.1800
  324MPD2     C 4916   1.187   0.140  14.700  0.1939  0.5205  0.4439
  324MPD2    C1 4917   1.118   0.139  14.826 -0.6438  0.2489 -0.6162
  324MPD2    C2 4918   0.984   0.125  14.832 -0.2161  0.1823 -0.5847
  324MPD2    C3 4919   0.911   0.104  14.719 -0.1445  0.0723 -0.4969
  324MPD2    C4 4920   0.974   0.082  14.596  0.2286  0.1347 -0.2971
  324MPD2    C5 4921   1.112   0.097  14.589  0.1927  0.3407 -0.0383
  324MPD2     H 4922   0.949   0.121  14.934 -2.3142  0.5383 -1.2930
  324MPD2    H1 4923   0.920   0.054  14.506 -1.0828  0.1039  0.4943
  324MPD2    H2 4924   1.295   0.136  14.694  0.0885 -1.9038  0.4416
  324MPD2    H3 4925   1.167   0.090  14.496 -1.7512  1.3545 -1.2687
  324MPD2     N 4926   0.767   0.109  14.731 -0.6537 -0.4552 -0.3628
  324MPD2    H5 4927   0.724   0.080  14.644 -0.1326 -0.7797 -0.5084
  324MPD2    N1 4928   1.180   0.165  14.949 -0.1469  0.1500  0.6910
  324MPD2    H7 4929   1.136   0.135  15.035  2.4249 -0.4453  1.7844
  325TMC3    C1 4930   0.556   0.189  14.805  0.1577 -0.2825 -0.0799
  325TMC3    C2 4931   0.504   0.119  14.699 -0.2098  0.1537  0.6251
  325TMC3    C3 4932   0.417   0.174  14.618  0.0193  0.3070  0.0774
  325TMC3    C4 4933   0.505   0.316  14.834  0.0546  0.5549 -0.6406
  325TMC3    C5 4934   0.416   0.374  14.753 -0.6772  0.3610 -0.7563
  325TMC3    C6 4935   0.369   0.307  14.637  0.8422  0.0081  0.4997
  325TMC3     C 4936   0.691   0.156  14.843 -0.1889 -0.0155 -0.0889
  325TMC3     O 4937   0.725   0.179  14.958 -0.2796 -0.0548 -0.4516
  325TMC3     H 4938   0.544   0.020  14.683  0.6085  0.0489  3.2730
  325TMC3    H1 4939   0.537   0.374  14.920 -0.8876  0.2795 -0.1006
  325TMC3    H2 4940   0.295   0.354  14.574 -0.2102  1.6410  2.9749
  325TMC3    C7 4941   0.344   0.488  14.803  0.0158  0.0728 -0.6368
  325TMC3    C8 4942   0.366   0.089  14.510 -0.0533 -0.3563  0.4650
  325TMC3    O1 4943   0.389   0.554  14.895  0.0553 -1.0121  0.2057
  325TMC3    O2 4944   0.421   4.716  14.484  0.1587 -0.6159 -0.2687
  326MPD2     C 4945   2.583   1.399  10.793  0.1616  0.8188 -0.1085
  326MPD2    C1 4946   2.555   1.469  10.675  0.0147  0.0695  0.0326
  326MPD2    C2 4947   2.666   1.523  10.600  0.3671 -0.1339 -0.3326
  326MPD2    C3 4948   2.796   1.496  10.634  0.3040  0.5081  1.1133
  326MPD2    C4 4949   2.819   1.409  10.736 -0.6140  0.3665 -0.6542
  326MPD2    C5 4950   2.716   1.369  10.825 -0.5367  0.8684  0.0513
  326MPD2     H 4951   2.633   1.585  10.517 -0.0826 -2.2979 -1.7752
  326MPD2    H1 4952   2.919   1.387  10.770 -1.4687  0.5967  2.0301
  326MPD2    H2 4953   2.502   1.375  10.861 -1.4411  1.0706 -1.9193
  326MPD2    H3 4954   2.745   1.310  10.911  1.9760 -0.7224 -1.8690
  326MPD2     N 4955   2.911   1.537  10.566  0.3526 -0.1129  0.5972
  326MPD2    H5 4956   3.005   1.512  10.594 -0.3340 -4.2700 -0.9160
  326MPD2    N1 4957   2.427   1.500  10.630 -0.2999  0.2390  0.1370
  326MPD2    H7 4958   2.419   1.562  10.549 -0.0502  0.5057  0.3150
  327TMC3    C1 4959   2.190   1.480  10.601  0.4378 -0.2238  0.3394
  327TMC3    C2 4960   2.169   1.616  10.588  0.0037 -0.1186  0.1632
  327TMC3    C3 4961   2.050   1.666  10.623 -0.6071  0.0138 -1.0664
  327TMC3    C4 4962   2.085   1.397  10.642 -1.3845 -0.1720  0.2518
  327TMC3    C5 4963   1.964   1.453  10.676  0.3744 -0.3891  1.5044
  327TMC3    C6 4964   1.943   1.588  10.661  0.1373 -0.3697 -0.4060
  327TMC3     C 4965   2.312   1.445  10.676 -0.2969 -0.2629  0.5797
  327TMC3     O 4966   2.295   1.367  10.767 -0.0356  0.0381 -0.5940
  327TMC3     H 4967   2.254   1.683  10.584 -0.4257  0.4054 -0.1215
  327TMC3    H1 4968   2.100   1.290  10.630  0.1488  0.0743 -0.0236
  327TMC3    H2 4969   1.845   1.633  10.669  0.3660  0.0527 -0.0048
  327TMC3    C7 4970   1.875   1.364  10.752 -0.4148 -0.3368  0.5316
  327TMC3    C8 4971   2.052   1.809  10.676  0.5551 -0.5938 -0.6849
  327TMC3    O1 4972   1.759   1.392  10.771  0.0189 -0.0414  0.0969
  327TMC3    O2 4973   2.138   1.884  10.632 -0.7792 -0.0310  0.2006
  328MPD2     C 4974   4.189   0.311  17.143 -0.2603 -0.4505 -0.2952
  328MPD2    C1 4975   4.132   0.396  17.240 -0.1601 -0.3177  0.3625
  328MPD2    C2 4976   4.101   0.527  17.204  0.0585  0.3012  0.6447
  328MPD2    C3 4977   4.100   0.562  17.068 -0.2621  0.4399  0.5919
  328MPD2    C4 4978   4.142   0.471  16.974 -0.0608  0.7810  0.0258
  328MPD2    C5 4979   4.205   0.356  17.011 -0.1372 -0.6075 -0.0402
  328MPD2     H 4980   4.076   0.603  17.277 -0.2092 -0.2043  1.0858
  328MPD2    H1 4981   4.160   0.502  16.872  1.0770  0.2128  0.0511
  328MPD2    H2 4982   4.225   0.213  17.172  0.8724 -0.3294 -1.2908
  328MPD2    H3 4983   4.238   0.290  16.932 -0.3358  0.7616 -1.2470
  328MPD2     N 4984   4.076   0.693  17.031  0.8988  0.1017 -0.5296
  328MPD2    H5 4985   4.069   0.757  17.110 -2.2255  1.2321 -1.7417
  328MPD2    N1 4986   4.098   0.342  17.363  0.0519 -0.2952 -0.4180
  328MPD2    H7 4987   4.103   0.245  17.392 -2.2280 -0.1018  0.6650
  329TMC3    C1 4988   3.929   0.343  17.525  0.5688 -0.2855  0.0061
  329TMC3    C2 4989   3.860   0.432  17.601  0.0674 -0.7898  0.7947
  329TMC3    C3 4990   3.730   0.447  17.571 -0.0783  0.4094 -0.6523
  329TMC3    C4 4991   3.869   0.266  17.426 -0.1431 -0.7191  0.2280
  329TMC3    C5 4992   3.727   0.284  17.406 -0.6668 -1.0343 -0.5562
  329TMC3    C6 4993   3.660   0.366  17.489 -1.0263  0.1929  0.0120
  329TMC3     C 4994   4.043   0.412  17.466 -0.5833 -0.2620 -0.0305
  329TMC3     O 4995   4.060   0.533  17.487 -0.1500 -0.7591  0.3022
  329TMC3     H 4996   3.918   0.484  17.676 -0.3924 -0.1288  0.6922
  329TMC3    H1 4997   3.923   0.196  17.363  1.9701  0.4439  0.7387
  329TMC3    H2 4998   3.552   0.376  17.483 -0.7625  0.9246 -3.5908
  329TMC3    C7 4999   3.670   0.257  17.279 -0.1361  0.3771  0.0422
  329TMC3    C8 5000   3.671   0.573  17.597  0.6619 -0.0167  0.0132
  329TMC3    O1 5001   3.547   0.255  17.271 -0.3190  0.5705  0.6690
  329TMC3    O2 5002   3.559   0.582  17.560  0.4036  0.2098 -0.5149
  330TMC3    C1 5003   2.166   1.682   9.619  0.0551 -0.0568  0.3014
  330TMC3    C2 5004   2.086   1.571   9.618 -0.3420  0.3063 -0.6899
  330TMC3    C3 5005   2.147   1.445   9.636  0.0487  0.6854  0.5397
  330TMC3    C4 5006   2.296   1.673   9.660 -0.2077  0.0009 -0.2388
  330TMC3    C5 5007   2.359   1.545   9.667  0.5711 -0.8999 -0.0069
  330TMC3    C6 5008   2.281   1.431   9.655 -0.2319 -0.3162  0.3593
  330TMC3     C 5009   2.101   1.806   9.648  0.4502  0.7824  0.2673
  330TMC3     O 5010   2.151   1.911   9.607  0.2077 -0.6766 -0.0216
  330TMC3     H 5011   1.982   1.568   9.590 -0.0727 -0.5266 -1.5975
  330TMC3    H1 5012   2.347   1.766   9.682  2.1665 -1.0566 -1.1708
  330TMC3    H2 5013   2.323   1.332   9.669  0.6844  0.3086  2.0453
  330TMC3    C7 5014   2.497   1.538   9.708  0.0896 -0.4751  0.1191
  330TMC3    C8 5015   2.088   1.340   9.554 -0.6947 -0.8696 -0.7956
  330TMC3    O1 5016   2.547   1.649   9.710  0.6652 -0.2213  0.7070
  330TMC3    O2 5017   2.005   1.376   9.474  0.5802 -0.2475  0.3552
  331MPD2     C 5018   0.063   4.390  12.911  0.4931  0.4517  0.3901
  331MPD2    C1 5019   0.130   4.377  12.794 -0.3341 -0.1132 -0.0417
  331MPD2    C2 5020   0.224   4.277  12.779  0.1114 -0.5112  0.3667
  331MPD2    C3 5021   0.255   4.189  12.880  0.0632  0.6185  0.3553
  331MPD2    C4 5022   0.193   4.198  13.000 -0.0870  0.2667 -0.2583
  331MPD2    C5 5023   0.088   4.291  13.008  0.1203 -0.1970 -0.3127
  331MPD2     H 5024   0.279   4.271  12.685  0.5122 -0.3269  0.5857
  331MPD2    H1 5025   0.201   4.130  13.084 -0.0859  1.2575  0.5412
  331MPD2    H2 5026   4.706   4.442  12.925 -1.0639 -1.8436 -1.4392
  331MPD2    H3 5027   0.027   4.282  13.097  2.0351 -2.8918  0.7410
  331MPD2     N 5028   0.348   4.088  12.850 -0.8903  0.1266  0.2915
  331MPD2    H5 5029   0.394   4.095  12.761 -0.9023 -2.8318  0.0487
  331MPD2    N1 5030   0.096   4.461  12.692  0.6942 -0.2050  0.2141
  331MPD2    H7 5031   0.033   4.538  12.710 -0.8166 -1.2063 -0.7872
  332TMC3    C1 5032   0.512   3.920  12.869  0.8117  0.5969  0.2366
  332TMC3    C2 5033   0.483   3.880  12.741  0.3388 -0.0057 -0.4372
  332TMC3    C3 5034   0.573   3.797  12.678 -0.8798  0.1586 -0.3788
  332TMC3    C4 5035   0.631   3.899  12.926 -0.1112  0.4149 -0.4527
  332TMC3    C5 5036   0.725   3.838  12.847 -0.1510  0.8872  0.5003
  332TMC3    C6 5037   0.697   3.780  12.726 -0.0364  0.0342  0.0958
  332TMC3     C 5038   0.418   4.008  12.941 -0.0417 -0.0379 -0.1844
  332TMC3     O 5039   0.415   4.000  13.063 -0.2393  0.0768 -1.0658
  332TMC3     H 5040   0.384   3.894  12.699 -0.4964  1.3736  2.0313
  332TMC3    H1 5041   0.657   3.946  13.020  1.5391 -0.7999 -0.2971
  332TMC3    H2 5042   0.774   3.724  12.673  1.0384 -0.8613  2.5598
  332TMC3    C7 5043   0.846   3.798  12.916 -0.6653  0.9492 -0.5617
  332TMC3    C8 5044   0.568   3.794  12.532  0.2851 -0.1675 -0.0943
  332TMC3    O1 5045   0.835   3.802  13.039 -0.2728 -0.0878 -0.0510
  332TMC3    O2 5046   0.672   3.828  12.476  0.0101  0.0136  0.0697
  333MPD2     C 5047   0.487   0.301  11.231 -0.7218 -0.6103 -0.3169
  333MPD2    C1 5048   0.575   0.234  11.151 -0.0281 -0.2422  0.1620
  333MPD2    C2 5049   0.573   0.096  11.139  0.7620  0.1829 -0.0191
  333MPD2    C3 5050   0.492   0.026  11.229  0.2008  0.1305  0.3548
  333MPD2    C4 5051   0.401   0.095  11.309  0.0730  0.0721 -0.0723
  333MPD2    C5 5052   0.399   0.230  11.307 -0.4410  0.3876 -0.4718
  333MPD2     H 5053   0.649   0.041  11.085  1.4541  0.3723  0.7508
  333MPD2    H1 5054   0.324   0.042  11.365 -1.4799  0.3487 -1.9620
  333MPD2    H2 5055   0.485   0.406  11.255 -0.6160 -0.2184 -2.0180
  333MPD2    H3 5056   0.322   0.274  11.369 -1.3390 -0.2091 -1.1712
  333MPD2     N 5057   0.485   4.623  11.220  0.0310  0.6263  0.4727
  333MPD2    H5 5058   0.559   4.583  11.163  1.0084  1.1311  1.3771
  333MPD2    N1 5059   0.672   0.311  11.080  0.1314  0.6729  0.0283
  333MPD2    H7 5060   0.675   0.411  11.098 -2.8948  0.3073  2.6506
  334TMC3    C1 5061   0.828   0.362  10.912 -0.3359 -1.3222 -0.0731
  334TMC3    C2 5062   0.923   0.315  10.824  0.6332  0.2731  0.3477
  334TMC3    C3 5063   1.008   0.406  10.763  0.9358  0.3112 -0.9504
  334TMC3    C4 5064   0.814   0.498  10.928  0.2709 -1.1658  0.2361
  334TMC3    C5 5065   0.898   0.583  10.860  0.4865 -0.4533  0.5753
  334TMC3    C6 5066   1.001   0.538  10.773  0.2330  0.1509  0.1281
  334TMC3     C 5067   0.763   0.257  10.986 -0.1089 -0.4203  0.7817
  334TMC3     O 5068   0.774   0.147  10.934 -0.2641 -0.1086  0.1232
  334TMC3     H 5069   0.925   0.211  10.793 -2.0931  0.1916  0.4704
  334TMC3    H1 5070   0.755   0.536  11.011 -0.1106 -0.5345 -0.3287
  334TMC3    H2 5071   1.075   0.597  10.721 -1.3153  1.3214 -0.7441
  334TMC3    C7 5072   0.873   0.722  10.868 -0.1046 -0.0490  0.0437
  334TMC3    C8 5073   1.106   0.337  10.682  0.9941  0.1822 -0.0343
  334TMC3    O1 5074   0.976   0.786  10.855 -0.1270 -0.0075  0.1366
  334TMC3    O2 5075   1.068   0.234  10.630  0.8304 -0.2042 -0.4376
  335TMC3    C1 5076   0.354   1.511  17.172  0.0186 -0.1773 -0.0979
  335TMC3    C2 5077   0.221   1.476  17.171  0.1855 -0.0106  0.0899
  335TMC3    C3 5078   0.196   1.347  17.203 -0.5159 -0.0416 -0.2656
  335TMC3    C4 5079   0.452   1.426  17.200 -0.0536 -0.8308  0.0295
  335TMC3    C5 5080   0.423   1.296  17.234 -0.6393 -0.2934  0.1620
  335TMC3    C6 5081   0.294   1.251  17.235 -0.2736  0.0512  0.0942
  335TMC3     C 5082   0.383   1.642  17.125  0.6564 -0.5238 -0.0266
  335TMC3     O 5083   0.303   1.686  17.040 -0.1097 -0.2930 -0.5454
  335TMC3     H 5084   0.145   1.548  17.142 -0.3137 -0.6658 -0.2212
  335TMC3    H1 5085   0.553   1.464  17.197 -0.4331  0.1905  0.1173
  335TMC3    H2 5086   0.269   1.152  17.271 -0.7245  0.7350  1.6379
  335TMC3    C7 5087   0.528   1.205  17.256 -0.2238  0.2100  0.3998
  335TMC3    C8 5088   0.059   1.311  17.206  0.5394 -0.4075 -0.7143
  335TMC3    O1 5089   0.625   1.219  17.183 -0.1861  0.2473 -0.5072
  335TMC3    O2 5090   4.719   1.399  17.251  0.1398  0.2592  0.3275
  336MPD2     C 5091   0.320   3.919  15.872  1.0693 -0.1261 -0.0918
  336MPD2    C1 5092   0.318   3.813  15.783  0.0469 -0.0010  0.3824
  336MPD2    C2 5093   0.359   3.686  15.818  0.3162  0.3703 -0.5184
  336MPD2    C3 5094   0.430   3.665  15.933  0.1765  0.4931 -0.8670
  336MPD2    C4 5095   0.445   3.774  16.013 -0.3517  0.2293  0.2757
  336MPD2    C5 5096   0.398   3.904  15.983  0.6232 -0.7110  1.1070
  336MPD2     H 5097   0.326   3.601  15.761 -0.3534  0.3165 -0.0484
  336MPD2    H1 5098   0.500   3.758  16.105 -0.0426 -1.3582 -0.1903
  336MPD2    H2 5099   0.264   4.008  15.848 -1.1454 -2.0914 -2.2092
  336MPD2    H3 5100   0.397   3.977  16.063  1.0734  1.6117 -1.0225
  336MPD2     N 5101   0.487   3.543  15.971 -0.1640 -0.7199 -0.6381
  336MPD2    H5 5102   0.539   3.542  16.058 -0.3466 -0.1180 -0.5212
  336MPD2    N1 5103   0.254   3.843  15.658 -0.0629 -0.1104  0.4238
  336MPD2    H7 5104   0.216   3.937  15.657 -0.8177 -0.4200  0.2067
  337TMC3    C1 5105   0.149   3.810  15.453  0.1975 -0.7446 -0.3934
  337TMC3    C2 5106   0.032   3.751  15.434  0.6356  0.1336  0.0932
  337TMC3    C3 5107   4.671   3.820  15.374  0.1918  0.3977  0.8851
  337TMC3    C4 5108   0.172   3.936  15.416 -0.3004  0.7845  0.4227
  337TMC3    C5 5109   0.075   4.011  15.356  0.1993 -0.3773 -0.2559
  337TMC3    C6 5110   4.692   3.948  15.336  0.1108  0.0011  0.8354
  337TMC3     C 5111   0.231   3.754  15.555 -0.5650 -0.5460  0.4239
  337TMC3     O 5112   0.239   3.634  15.546  0.1391 -0.2396 -0.0524
  337TMC3     H 5113   0.011   3.647  15.456 -0.3587  0.4291  0.5507
  337TMC3    H1 5114   0.272   3.978  15.423 -0.2323  0.9444 -1.5213
  337TMC3    H2 5115   4.619   4.006  15.280  0.9423  0.3998  0.1833
  337TMC3    C7 5116   0.088   4.155  15.378 -0.0433  0.2327 -0.3228
  337TMC3    C8 5117   4.535   3.784  15.413 -0.2513 -0.1612  0.1105
  337TMC3    O1 5118   0.204   4.194  15.397  0.2054 -0.2039 -0.3731
  337TMC3    O2 5119   4.537   3.677  15.476  0.2867 -0.2994 -0.5236
  338MPD2     C 5120   1.522   2.934   0.319 -0.4223  0.1171 -0.1891
  338MPD2    C1 5121   1.385   2.895   0.322 -0.0480 -0.1784 -0.5286
  338MPD2    C2 5122   1.317   2.928   0.433  0.4771  0.3265  0.0668
  338MPD2    C3 5123   1.367   3.000   0.534  0.4858 -0.1256  0.0807
  338MPD2    C4 5124   1.500   3.041   0.529 -0.3955 -0.2765 -0.6760
  338MPD2    C5 5125   1.574   3.006   0.425  0.2211  0.1403  0.5587
  338MPD2     H 5126   1.215   2.893   0.436  0.5599  0.3211  2.4925
  338MPD2    H1 5127   1.553   3.100   0.603 -0.1208 -3.2373  1.4755
  338MPD2    H2 5128   1.589   2.898   0.242  1.4758  2.4566  0.3631
  338MPD2    H3 5129   1.680   3.025   0.433 -0.0621  2.1299 -0.2699
  338MPD2     N 5130   1.275   3.032   0.643 -0.5286 -0.1981  0.3364
  338MPD2    H5 5131   1.185   2.987   0.629  0.1335 -1.5720  0.4329
  338MPD2    N1 5132   1.327   2.793   0.240  0.4889  0.7799  0.1337
  338MPD2    H7 5133   1.230   2.769   0.257  0.4802  0.3184 -0.5798
  339TMC3    C1 5134   1.184   3.117   0.844 -0.9692  0.0000  0.4130
  339TMC3    C2 5135   1.217   3.153   0.973  0.0464  1.2585  0.6733
  339TMC3    C3 5136   1.115   3.164   1.063  0.1237  0.1111  0.4219
  339TMC3    C4 5137   1.056   3.086   0.802 -0.2952  0.5382  0.4181
  339TMC3    C5 5138   0.962   3.087   0.903 -0.9341 -0.1268  1.3669
  339TMC3    C6 5139   0.989   3.118   1.033  0.3437 -0.1307 -0.9152
  339TMC3     C 5140   1.297   3.107   0.757  0.0472 -0.3254  0.1226
  339TMC3     O 5141   1.402   3.169   0.789  0.3621  0.3481  0.1529
  339TMC3     H 5142   1.316   3.175   1.013  0.4522  1.4298 -0.4332
  339TMC3    H1 5143   1.035   3.065   0.698 -0.7947 -1.0779  0.8452
  339TMC3    H2 5144   0.919   3.104   1.114  0.2004  1.8674 -0.6925
  339TMC3    C7 5145   0.821   3.038   0.873  0.6511  1.1342  0.4369
  339TMC3    C8 5146   1.159   3.199   1.199  0.0913  0.4261  0.2891
  339TMC3    O1 5147   0.741   3.038   0.964 -0.0558 -0.0555 -0.2131
  339TMC3    O2 5148   1.281   3.203   1.226 -0.1472  0.3392  0.7196
  340MPD2     C 5149   0.115   1.363  10.366 -1.0157  0.3000 -0.1283
  340MPD2    C1 5150   0.174   1.412  10.253 -0.0858 -0.8482 -0.2110
  340MPD2    C2 5151   0.255   1.528  10.258 -0.6643 -0.0039 -0.6896
  340MPD2    C3 5152   0.286   1.580  10.380 -0.3739  0.6136  0.9492
  340MPD2    C4 5153   0.218   1.537  10.492  0.3337  0.0038  0.4053
  340MPD2    C5 5154   0.131   1.434  10.484 -0.2045 -0.1487 -0.3919
  340MPD2     H 5155   0.311   1.566  10.174 -0.7345 -1.0905 -1.2209
  340MPD2    H1 5156   0.223   1.591  10.585  2.4767 -1.5532  1.2111
  340MPD2    H2 5157   0.051   1.276  10.374 -0.5467  0.0467  0.8560
  340MPD2    H3 5158   0.073   1.410  10.572 -3.7209 -0.1540 -2.7369
  340MPD2     N 5159   0.381   1.679  10.401  0.3798 -0.4197 -0.1311
  340MPD2    H5 5160   0.422   1.697  10.492 -1.2125  0.3830  0.4378
  340MPD2    N1 5161   0.172   1.331  10.133 -0.1653  0.0013 -0.1022
  340MPD2    H7 5162   0.221   1.370  10.053 -0.2680  0.3776  0.0230
  341TMC3    C1 5163   0.158   1.127  10.004 -0.0339  0.2346 -0.3457
  341TMC3    C2 5164   0.164   0.994  10.031 -0.2577 -0.7581 -0.2918
  341TMC3    C3 5165   0.265   0.928   9.974  0.0627  0.3922 -0.0386
  341TMC3    C4 5166   0.237   1.184   9.915  0.2305 -0.1054 -0.1724
  341TMC3    C5 5167   0.333   1.108   9.849  0.0168  0.0376 -0.1352
  341TMC3    C6 5168   0.351   0.981   9.890 -0.4706 -0.2951 -0.2227
  341TMC3     C 5169   0.112   1.210  10.115 -0.1868  0.6135  0.1973
  341TMC3     O 5170   0.051   1.139  10.194  0.7246  0.4425 -0.2327
  341TMC3     H 5171   0.090   0.940  10.089 -0.2715 -1.1164 -0.6425
  341TMC3    H1 5172   0.233   1.290   9.892  0.2653 -0.3157 -1.1621
  341TMC3    H2 5173   0.427   0.924   9.840 -1.5246 -2.9280  1.1830
  341TMC3    C7 5174   0.447   1.186   9.811 -0.8554  0.3533  0.3564
  341TMC3    C8 5175   0.299   0.804  10.042 -0.7114  0.2838 -0.8734
  341TMC3    O1 5176   0.551   1.155   9.862 -0.7311 -0.3122 -0.1579
  341TMC3    O2 5177   0.253   0.784  10.152 -0.0010 -0.5836  0.0036
  342MPD2     C 5178   3.703   4.415  17.715  0.3937 -0.6129 -0.0548
  342MPD2    C1 5179   3.838   4.389  17.680  0.1067  0.8370 -0.0762
  342MPD2    C2 5180   3.926   4.493  17.673  0.0788  0.3861 -0.3022
  342MPD2    C3 5181   3.895   4.622  17.708  0.7095 -0.2252  0.0602
  342MPD2    C4 5182   3.765   4.649   0.005 -0.2844 -0.5144 -0.0511
  342MPD2    C5 5183   3.677   4.545  17.744 -0.1437 -0.1159 -0.0908
  342MPD2     H 5184   4.027   4.459  17.653  0.3434  1.8852 -1.4922
  342MPD2    H1 5185   3.731   0.012   0.029 -1.4997 -1.0419  0.4263
  342MPD2    H2 5186   3.625   4.341  17.707  2.0395 -2.5062  1.4703
  342MPD2    H3 5187   3.572   4.564   0.021  0.5010  2.5681  0.6550
  342MPD2     N 5188   4.000   4.721  17.727  0.2748 -0.5496  0.7873
  342MPD2    H5 5189   3.975   0.059   0.045 -1.0560 -0.3095  0.0025
  342MPD2    N1 5190   3.876   4.258  17.638 -0.3904 -0.8723 -0.0902
  342MPD2    H7 5191   3.956   4.258  17.575 -0.4733  0.5314 -0.2108
  343TMC3    C1 5192   3.812   4.038  17.572 -0.2148  0.0887 -0.1510
  343TMC3    C2 5193   3.930   4.033  17.503 -0.0185  0.1288  0.1554
  343TMC3    C3 5194   3.944   3.935  17.417 -0.0319 -0.3570 -0.3617
  343TMC3    C4 5195   3.714   3.947  17.556 -0.4309  0.0707  0.1082
  343TMC3    C5 5196   3.733   3.851  17.464 -0.2344 -0.3602 -0.4215
  343TMC3    C6 5197   3.843   3.847  17.389 -0.0057  0.9527 -0.6338
  343TMC3     C 5198   3.787   4.150  17.656 -0.6348 -0.4217 -0.1880
  343TMC3     O 5199   3.683   4.137  17.724 -0.1993 -0.0868 -0.0012
  343TMC3     H 5200   4.011   4.103  17.521 -0.0375  0.6276 -1.7534
  343TMC3    H1 5201   3.628   3.949  17.622  0.7010  1.9395  1.5600
  343TMC3    H2 5202   3.854   3.759  17.326  0.3660  1.4163 -1.2135
  343TMC3    C7 5203   3.695   3.718  17.509 -0.6157 -0.3424 -0.4257
  343TMC3    C8 5204   4.081   3.901  17.384  0.5660 -0.4461  0.5785
  343TMC3    O1 5205   3.649   3.641  17.424 -0.3574 -0.5876 -0.1381
  343TMC3    O2 5206   4.170   3.928  17.467  0.1455  0.2731  0.2875
  344MPD2     C 5207   4.450   3.229  10.609  0.2911  0.6830 -0.0397
  344MPD2    C1 5208   4.329   3.299  10.584  0.1969  0.8790 -0.5585
  344MPD2    C2 5209   4.342   3.440  10.560 -0.1561  1.0099  0.2140
  344MPD2    C3 5210   4.459   3.502  10.574 -0.5742 -0.9359 -0.0988
  344MPD2    C4 5211   4.575   3.430  10.615 -0.2472 -0.2217 -0.5856
  344MPD2    C5 5212   4.571   3.293  10.620 -0.6922  0.2833  0.1929
  344MPD2     H 5213   4.251   3.499  10.554 -1.3176 -0.8467 -0.3987
  344MPD2    H1 5214   4.668   3.485  10.626  0.8277 -2.2339  0.4357
  344MPD2    H2 5215   4.462   3.124  10.633  1.2403  0.9992  0.8314
  344MPD2    H3 5216   4.662   3.245  10.654 -0.2965 -0.1398 -1.4342
  344MPD2     N 5217   4.482   3.641  10.551 -0.2368 -0.5248 -0.0926
  344MPD2    H5 5218   4.568   3.687  10.579 -0.4324 -0.8889  1.0993
  344MPD2    N1 5219   4.206   3.236  10.589 -0.3234  0.5186  0.2362
  344MPD2    H7 5220   4.130   3.299  10.564 -0.4677  0.0673 -0.4746
  345TMC3    C1 5221   4.425   3.863  10.498  0.9472 -0.6066  0.3531
  345TMC3    C2 5222   4.493   3.904  10.608  0.5504 -0.2231 -0.4689
  345TMC3    C3 5223   4.522   4.036  10.623  0.2722  0.3374  0.3560
  345TMC3    C4 5224   4.396   3.944  10.391  0.0763  0.7891  0.0219
  345TMC3    C5 5225   4.431   4.080  10.405  0.1837 -0.1506 -0.3730
  345TMC3    C6 5226   4.493   4.122  10.516  0.0849  0.7619  0.4365
  345TMC3     C 5227   4.393   3.722  10.485  0.6187 -0.0396  0.5974
  345TMC3     O 5228   4.303   3.687  10.406 -0.0069  0.1645 -0.4391
  345TMC3     H 5229   4.515   3.840  10.692 -0.3388 -2.8379 -2.2418
  345TMC3    H1 5230   4.326   3.908  10.316  2.4412 -1.8990 -0.9115
  345TMC3    H2 5231   4.538   4.219  10.502  0.8691  0.5080  1.1880
  345TMC3    C7 5232   4.416   4.171  10.293  0.2651 -0.3037  0.2767
  345TMC3    C8 5233   4.540   4.094  10.755 -0.2756 -0.1644 -0.2403
  345TMC3    O1 5234   4.438   4.286  10.323  0.2405 -0.2018  0.1668
  345TMC3    O2 5235   4.563   4.014  10.846  0.0104  0.1325 -0.7380
  346MPD2     C 5236   3.970   0.328  14.090 -0.8058  0.4512 -0.6363
  346MPD2    C1 5237   4.045   0.444  14.090  0.5604 -0.1019 -0.0789
  346MPD2    C2 5238   4.063   0.510  14.215 -0.0903  0.7229 -0.4475
  346MPD2    C3 5239   4.023   0.447  14.332  0.5097  0.5921  0.2701
  346MPD2    C4 5240   3.954   0.329  14.332  0.5888  0.4148  0.4428
  346MPD2    C5 5241   3.926   0.278  14.206 -0.0846 -0.4192  0.5960
  346MPD2     H 5242   4.111   0.607  14.228  1.0820 -0.0299  0.8241
  346MPD2    H1 5243   3.924   0.273  14.420  2.1305  2.2140  2.1344
  346MPD2    H2 5244   3.933   0.289  13.996 -1.0139  2.1486 -1.2514
  346MPD2    H3 5245   3.859   0.193  14.200 -0.1105 -0.3983  0.5897
  346MPD2     N 5246   4.071   0.501  14.454  0.2404  0.0744  0.0490
  346MPD2    H5 5247   4.144   0.571  14.450  0.7985 -0.4254  1.8297
  346MPD2    N1 5248   4.106   0.506  13.980 -0.0327  0.9748 -0.0093
  346MPD2    H7 5249   4.157   0.592  14.001  0.5470  1.1370 -2.0485
  347TMC3    C1 5250   4.116   0.489  14.688 -0.6500 -0.1155 -0.1944
  347TMC3    C2 5251   4.242   0.541  14.665 -0.2680  0.3053  0.3615
  347TMC3    C3 5252   4.309   0.597  14.770 -0.6588  0.4226 -0.7875
  347TMC3    C4 5253   4.069   0.483  14.813 -0.4206 -0.5775  0.1148
  347TMC3    C5 5254   4.144   0.534  14.914  0.2101  0.2611  0.3995
  347TMC3    C6 5255   4.255   0.606  14.898 -0.0984  0.3141  0.1929
  347TMC3     C 5256   4.027   0.452  14.578 -0.1085  0.3916  0.3552
  347TMC3     O 5257   3.927   0.391  14.610  0.1203 -0.2529 -0.1312
  347TMC3     H 5258   4.292   0.511  14.573 -1.6099  1.7416 -0.8327
  347TMC3    H1 5259   3.978   0.424  14.819  0.1942 -1.5014  0.2763
  347TMC3    H2 5260   4.319   0.639  14.979  1.5885  0.3188 -1.1146
  347TMC3    C7 5261   4.101   0.485  15.044  0.2720  0.5676  0.3174
  347TMC3    C8 5262   4.449   0.579  14.759  0.2858  0.5203 -0.0449
  347TMC3    O1 5263   4.032   0.384  15.041 -0.5688 -0.6150 -0.1503
  347TMC3    O2 5264   4.485   0.488  14.686 -0.0839  0.1170 -0.1639
  348MPD2     C 5265   2.725   0.243  12.154  0.7397  0.2025  0.7435
  348MPD2    C1 5266   2.752   0.274  12.022  0.9552 -0.0009  0.2229
  348MPD2    C2 5267   2.674   0.370  11.956  0.0289  0.1843 -0.5254
  348MPD2    C3 5268   2.576   0.440  12.029 -0.1711 -0.0513 -0.9753
  348MPD2    C4 5269   2.557   0.402  12.162  0.1209  0.0060  0.8235
  348MPD2    C5 5270   2.630   0.304  12.222 -0.1998  0.5140  0.1556
  348MPD2     H 5271   2.681   0.399  11.852 -2.0300  1.7316 -0.2462
  348MPD2    H1 5272   2.486   0.455  12.224 -0.6643 -0.5522  0.4046
  348MPD2    H2 5273   2.781   0.178  12.220 -0.9980  1.0137  3.0392
  348MPD2    H3 5274   2.610   0.283  12.327 -0.5979  0.0153 -0.0207
  348MPD2     N 5275   2.517   0.548  11.963  0.4071 -0.0582  0.5664
  348MPD2    H5 5276   2.541   0.552  11.864  1.1256 -0.3190  0.7322
  348MPD2    N1 5277   2.857   0.216  11.948 -0.2663  0.4847 -0.3480
  348MPD2    H7 5278   2.868   0.244  11.851  0.9827 -0.6894 -0.5369
  349TMC3    C1 5279   3.025   0.071  11.892  0.1292 -0.0007  0.6946
  349TMC3    C2 5280   3.153   0.025  11.923  0.1327 -0.1849 -0.4740
  349TMC3    C3 5281   3.223   4.725  11.810 -0.1025 -0.2416 -0.1599
  349TMC3    C4 5282   2.979   0.075  11.763 -0.0732 -0.9834 -0.2928
  349TMC3    C5 5283   3.060   0.045  11.658 -0.6803 -0.7436  0.1466
  349TMC3    C6 5284   3.183   4.722  11.677  0.1322 -0.4969  0.1470
  349TMC3     C 5285   2.945   0.125  11.997  0.2164  0.4093 -0.8446
  349TMC3     O 5286   2.986   0.113  12.113  0.2082  0.4424 -0.1483
  349TMC3     H 5287   3.200   0.036  12.020  0.1724  2.2433 -0.7603
  349TMC3    H1 5288   2.880   0.113  11.737 -1.6455 -1.4455  5.1707
  349TMC3    H2 5289   3.255   4.715  11.596  0.4137 -0.1647  0.3701
  349TMC3    C7 5290   2.996   0.047  11.525 -0.6067 -0.4602 -1.0132
  349TMC3    C8 5291   3.323   4.624  11.850  0.2580 -0.3417  0.3742
  349TMC3    O1 5292   2.874   0.019  11.528 -0.1846 -0.1797  0.0612
  349TMC3    O2 5293   3.347   4.620  11.970  0.1360 -0.5499 -0.4686
  350MPD2     C 5294   2.611   3.837  10.854  0.3954 -0.0361  0.4442
  350MPD2    C1 5295   2.537   3.720  10.827  0.5782 -0.2794 -0.3988
  350MPD2    C2 5296   2.493   3.652  10.943 -0.1746  0.6862 -0.2811
  350MPD2    C3 5297   2.521   3.694  11.074 -0.5732  0.1067  0.0574
  350MPD2    C4 5298   2.596   3.805  11.091 -0.1492  0.2041 -0.1831
  350MPD2    C5 5299   2.647   3.870  10.983  0.2066 -0.0331 -0.4695
  350MPD2     H 5300   2.440   3.561  10.918  0.3762  0.0803  0.7530
  350MPD2    H1 5301   2.618   3.838  11.191 -0.0937  1.4530 -0.6138
  350MPD2    H2 5302   2.640   3.906  10.775 -0.7861 -0.9243 -0.7626
  350MPD2    H3 5303   2.709   3.958  10.999  0.9438 -0.2960 -1.8912
  350MPD2     N 5304   2.461   3.624  11.177  0.0416  0.3508  0.2605
  350MPD2    H5 5305   2.412   3.539  11.151  1.2753 -0.4788  0.6710
  350MPD2    N1 5306   2.486   3.681  10.701 -0.4847  0.0722  0.5113
  350MPD2    H7 5307   2.430   3.597  10.704 -0.0929 -0.1456  1.9895
  351TMC3    C1 5308   2.434   3.679  10.478 -0.1947  0.4074  0.2881
  351TMC3    C2 5309   2.486   3.550  10.449  0.6341  0.1219 -0.0681
  351TMC3    C3 5310   2.433   3.503  10.333 -0.0296  0.4379 -0.0195
  351TMC3    C4 5311   2.347   3.749  10.400 -0.7419 -0.2217 -0.1792
  351TMC3    C5 5312   2.300   3.688  10.292 -0.2421  0.1292  0.2398
  351TMC3    C6 5313   2.347   3.569  10.251 -0.1428 -0.1912  0.4471
  351TMC3     C 5314   2.488   3.755  10.589 -0.1771 -0.0058 -0.1256
  351TMC3     O 5315   2.505   3.875  10.573 -0.2612 -0.1406  0.3022
  351TMC3     H 5316   2.548   3.496  10.520 -2.9349 -3.1189  0.5842
  351TMC3    H1 5317   2.310   3.845  10.432  2.2910 -0.1046  2.8666
  351TMC3    H2 5318   2.301   3.510  10.173  1.5232 -0.4339 -0.3375
  351TMC3    C7 5319   2.192   3.755  10.224  0.1316 -0.3319 -0.2063
  351TMC3    C8 5320   2.465   3.366  10.298 -0.7071 -0.1757 -0.2049
  351TMC3    O1 5321   2.180   3.719  10.107 -0.1143  0.0912 -0.5587
  351TMC3    O2 5322   2.401   3.320  10.205  0.6828  0.1646  0.0170
  352MPD2     C 5323   0.482   0.231   0.895  0.8812 -0.2360  0.4380
  352MPD2    C1 5324   0.364   0.254   0.957 -0.8576 -0.4982 -0.3263
  352MPD2    C2 5325   0.345   0.186   1.073  0.0301 -0.6652  0.6925
  352MPD2    C3 5326   0.439   0.105   1.130  0.0126 -0.1060  0.3705
  352MPD2    C4 5327   0.557   0.090   1.070 -1.1454  0.4895 -0.1528
  352MPD2    C5 5328   0.579   0.153   0.950  0.2390 -0.8367 -0.6733
  352MPD2     H 5329   0.254   0.217   1.122  0.4633  1.0439  0.4158
  352MPD2    H1 5330   0.634   0.021   1.103 -2.2846 -1.6118 -1.8605
  352MPD2    H2 5331   0.508   0.281   0.802 -0.2419 -0.4297  0.0197
  352MPD2    H3 5332   0.673   0.151   0.897  0.2378 -1.2507 -0.6571
  352MPD2     N 5333   0.426   0.039   1.262  0.0581 -0.0455 -0.0568
  352MPD2    H5 5334   0.509   4.724   1.290  0.4443  2.7077  3.9528
  352MPD2    N1 5335   0.276   0.346   0.896 -0.2986  0.4190 -0.1865
  352MPD2    H7 5336   0.322   0.391   0.818 -0.7571 -0.3841 -0.9331
  353TMC3    C1 5337   0.321   4.663   1.431 -0.0319 -0.1963 -0.6772
  353TMC3    C2 5338   0.444   4.644   1.485 -0.0709 -0.1325 -0.6194
  353TMC3    C3 5339   0.458   4.522   1.552 -0.0400 -0.2141 -0.0119
  353TMC3    C4 5340   0.222   4.570   1.436 -0.1851 -0.5585 -0.0250
  353TMC3    C5 5341   0.246   4.448   1.492  0.2457 -0.5383 -0.1743
  353TMC3    C6 5342   0.373   4.413   1.547 -0.0571 -0.2038 -0.5130
  353TMC3     C 5343   0.309   0.031   1.334 -0.1020 -0.2381  0.0980
  353TMC3     O 5344   0.194   0.067   1.306  0.7540 -0.1518 -0.2473
  353TMC3     H 5345   0.513   4.727   1.495  1.5980 -1.4128 -1.4426
  353TMC3    H1 5346   0.125   4.590   1.393 -0.1800  0.1841  0.3139
  353TMC3    H2 5347   0.378   4.317   1.596  2.3456  0.4123  0.4487
  353TMC3    C7 5348   0.174   4.336   1.438 -0.7545  0.1106 -0.2050
  353TMC3    C8 5349   0.591   4.491   1.606  0.3220 -0.1939 -0.0850
  353TMC3    O1 5350   0.223   4.221   1.440 -0.0848  0.6940 -0.1122
  353TMC3    O2 5351   0.671   4.581   1.590  0.3227 -0.2829  0.3171
  354TMC3    C1 5352   2.206   1.473  13.626 -0.6635  0.6243 -0.5345
  354TMC3    C2 5353   2.190   1.605  13.583  0.4687 -0.4700  0.0271
  354TMC3    C3 5354   2.295   1.653  13.510 -0.3636 -0.0865  0.1822
  354TMC3    C4 5355   2.314   1.398  13.598 -0.2364  0.2973  0.1357
  354TMC3    C5 5356   2.408   1.444  13.511  0.6582  0.8007  0.6761
  354TMC3    C6 5357   2.406   1.573  13.474 -0.1346  0.6566 -0.1135
  354TMC3     C 5358   2.092   1.411  13.691 -0.2808 -0.3905  0.6008
  354TMC3     O 5359   2.086   1.292  13.686  0.5588 -0.6657 -0.0681
  354TMC3     H 5360   2.094   1.655  13.596  0.4142 -0.8108  0.9412
  354TMC3    H1 5361   2.318   1.296  13.634 -0.5172 -0.4879 -2.0300
  354TMC3    H2 5362   2.481   1.617  13.410 -0.1216  0.9214  0.0820
  354TMC3    C7 5363   2.534   1.380  13.516 -0.2924 -0.5347 -0.0018
  354TMC3    C8 5364   2.294   1.785  13.456  0.3039 -0.2357  0.7786
  354TMC3    O1 5365   2.545   1.260  13.533  0.2127  0.1058 -0.2695
  354TMC3    O2 5366   2.377   1.813  13.371  0.1094  0.4100 -0.1176
  355MPD2     C 5367   2.500   2.139  11.431  0.4043  0.3210  0.5474
  355MPD2    C1 5368   2.604   2.191  11.359  0.0645 -0.4714  0.3087
  355MPD2    C2 5369   2.685   2.273  11.423  0.4877  0.0274 -0.4670
  355MPD2    C3 5370   2.654   2.319  11.549  1.2017  0.1956 -0.2589
  355MPD2    C4 5371   2.538   2.274  11.617  0.2244  0.0691 -0.4636
  355MPD2    C5 5372   2.462   2.183  11.553 -0.7225  0.7385  0.7877
  355MPD2     H 5373   2.777   2.313  11.381 -0.3272  2.1460 -0.2436
  355MPD2    H1 5374   2.494   2.312  11.708  2.2255  0.5441  0.2905
  355MPD2    H2 5375   2.437   2.065  11.382 -0.5752  1.2474  0.4231
  355MPD2    H3 5376   2.374   2.153  11.609 -2.2418  2.7146 -0.5171
  355MPD2     N 5377   2.744   2.421  11.600  0.1534  0.1500  0.2183
  355MPD2    H5 5378   2.836   2.423  11.557 -0.9820 -1.2168 -2.2294
  355MPD2    N1 5379   2.614   2.145  11.221  0.3445 -0.5492  0.1561
  355MPD2    H7 5380   2.542   2.088  11.179 -0.1699  1.0869 -1.1642
  356TMC3    C1 5381   2.834   2.566  11.766 -0.6365  0.0578 -0.3657
  356TMC3    C2 5382   2.935   2.616  11.680 -0.8858  0.1731  0.2451
  356TMC3    C3 5383   3.036   2.678  11.746  0.0327 -0.8934 -0.2842
  356TMC3    C4 5384   2.844   2.581  11.902  0.3499  0.4365  0.4802
  356TMC3    C5 5385   2.954   2.632  11.958 -0.0814 -0.4318 -0.2241
  356TMC3    C6 5386   3.051   2.688  11.886 -0.0117  0.3155  0.2176
  356TMC3     C 5387   2.716   2.499  11.714 -0.5427  0.3771  0.1686
  356TMC3     O 5388   2.622   2.504  11.793  0.6604 -0.4766 -0.0401
  356TMC3     H 5389   2.928   2.614  11.572 -0.9499  1.3696  0.2208
  356TMC3    H1 5390   2.763   2.544  11.964 -0.2527 -1.1204 -1.2109
  356TMC3    H2 5391   3.145   2.707  11.937  1.1088 -1.4802 -1.1516
  356TMC3    C7 5392   2.953   2.638  12.096 -0.5546 -0.2099  0.4935
  356TMC3    C8 5393   3.139   2.754  11.673 -0.8912  0.4049 -1.1427
  356TMC3    O1 5394   2.885   2.558  12.162  0.9718  0.2025  0.3234
  356TMC3    O2 5395   3.187   2.700  11.576 -0.5551 -0.4199  0.4031
  357MPD2     C 5396   3.346   0.406   1.329  0.9611  0.2585 -0.2687
  357MPD2    C1 5397   3.376   0.478   1.442  0.2773  0.6521  0.6321
  357MPD2    C2 5398   3.384   0.415   1.563  0.5410  0.2275  0.1399
  357MPD2    C3 5399   3.366   0.278   1.569  0.0923  0.2329  0.0566
  357MPD2    C4 5400   3.362   0.203   1.456 -0.4065 -0.0835  0.4492
  357MPD2    C5 5401   3.347   0.272   1.336 -0.3178 -0.0407  0.3093
  357MPD2     H 5402   3.410   0.472   1.652 -1.7135  1.0493  0.2805
  357MPD2    H1 5403   3.379   0.095   1.456  1.2623  0.1770  0.8878
  357MPD2    H2 5404   3.335   0.446   1.229 -1.8267  0.6813  0.2254
  357MPD2    H3 5405   3.347   0.209   1.248  1.6076 -0.0511  0.3120
  357MPD2     N 5406   3.385   0.208   1.696  0.1122 -0.0650  0.6487
  357MPD2    H5 5407   3.400   0.108   1.691 -1.6558 -0.3892  1.7869
  357MPD2    N1 5408   3.392   0.617   1.426 -0.3628  0.3729 -0.4855
  357MPD2    H7 5409   3.395   0.655   1.332 -1.6182 -1.3779 -1.2309
  358TMC3    C1 5410   3.426   0.842   1.489 -0.7945  0.2100 -0.3620
  358TMC3    C2 5411   3.394   0.882   1.359 -0.1126 -0.1668 -0.3592
  358TMC3    C3 5412   3.344   1.007   1.339  0.2818  0.7323  0.2672
  358TMC3    C4 5413   3.408   0.934   1.589 -0.3109 -0.0055  0.6059
  358TMC3    C5 5414   3.358   1.059   1.563 -0.3718 -0.1189  0.3240
  358TMC3    C6 5415   3.331   1.108   1.438 -0.2322  0.9427  0.0083
  358TMC3     C 5416   3.407   0.704   1.532  0.3376 -0.7079 -0.0441
  358TMC3     O 5417   3.385   0.686   1.655  0.1060  0.7519 -0.2229
  358TMC3     H 5418   3.422   0.823   1.272  1.1319 -0.9326  0.5546
  358TMC3    H1 5419   3.438   0.900   1.687  1.4870 -0.0109  0.0620
  358TMC3    H2 5420   3.278   1.200   1.417 -0.2987  0.7866 -0.5242
  358TMC3    C7 5421   3.350   1.146   1.680  0.4048  0.3471 -0.7184
  358TMC3    C8 5422   3.292   1.052   1.210  0.9055  0.0337 -0.1752
  358TMC3    O1 5423   3.340   1.265   1.662  0.2145 -0.0060  0.0831
  358TMC3    O2 5424   3.304   1.171   1.184 -0.2320  0.4074 -0.3649
  359MPD2     C 5425   2.699   0.929  13.003  0.0833  0.0346  0.4009
  359MPD2    C1 5426   2.699   0.837  12.901  0.4006 -0.2435 -0.4931
  359MPD2    C2 5427   2.681   0.701  12.932  0.4967  0.3485 -0.0956
  359MPD2    C3 5428   2.668   0.662  13.065  0.3168 -0.5704  0.1303
  359MPD2    C4 5429   2.666   0.758  13.165 -0.2553 -0.1095  0.1508
  359MPD2    C5 5430   2.685   0.892  13.137  0.1325 -0.0304 -0.0349
  359MPD2     H 5431   2.672   0.628  12.853 -2.1973  0.3960  0.1505
  359MPD2    H1 5432   2.629   0.734  13.264 -0.7836  0.0710  0.0002
  359MPD2    H2 5433   2.722   1.032  12.982 -0.5149  0.2457  0.7949
  359MPD2    H3 5434   2.681   0.970  13.211 -0.5058  0.7634 -0.9146
  359MPD2     N 5435   2.655   0.521  13.101 -1.1152  0.5566  0.0040
  359MPD2    H5 5436   2.660   0.457  13.022  0.3582  1.4188 -0.6110
  359MPD2    N1 5437   2.710   0.884  12.774 -0.1816 -0.3076 -0.5196
  359MPD2    H7 5438   2.737   0.981  12.761 -0.9334 -0.7040 -4.8585
  360TMC3    C1 5439   2.714   0.884  12.538  0.0851  0.1280 -0.3012
  360TMC3    C2 5440   2.832   0.947  12.525 -0.4494 -0.2086 -0.5385
  360TMC3    C3 5441   2.869   0.980  12.397  0.5587 -0.2708 -0.2651
  360TMC3    C4 5442   2.634   0.858  12.435  0.0264  0.2377 -0.0887
  360TMC3    C5 5443   2.670   0.912  12.312 -0.3932 -1.5769  0.2863
  360TMC3    C6 5444   2.790   0.970  12.286 -0.1471 -0.0386 -0.2574
  360TMC3     C 5445   2.672   0.812  12.662  0.3485  0.0767  0.3329
  360TMC3     O 5446   2.595   0.716  12.652  0.6718  0.5541 -0.1748
  360TMC3     H 5447   2.916   0.930  12.592 -1.0666 -0.5528  0.1465
  360TMC3    H1 5448   2.534   0.823  12.459  0.0899 -1.2233 -2.0049
  360TMC3    H2 5449   2.807   1.001  12.183 -0.1743  1.3317  0.1589
  360TMC3    C7 5450   2.562   0.944  12.220  0.4334 -0.2858 -0.7924
  360TMC3    C8 5451   3.010   1.017  12.380 -1.0854  0.8425  0.5706
  360TMC3    O1 5452   2.597   0.991  12.107  0.7242 -0.7673  0.3181
  360TMC3    O2 5453   3.074   1.051  12.479  0.1696  0.7433  0.2697
  361MPD2     C 5454   4.265   4.283  16.424 -0.4008  1.4698  0.5369
  361MPD2    C1 5455   4.262   4.310  16.558 -0.0356 -0.1432  0.6986
  361MPD2    C2 5456   4.359   4.259  16.637  0.3334  0.6845  0.3824
  361MPD2    C3 5457   4.471   4.199  16.584  0.6651  0.3171 -0.1631
  361MPD2    C4 5458   4.483   4.179  16.451 -0.4956 -0.2464 -0.4862
  361MPD2    C5 5459   4.377   4.216  16.375 -0.4223  0.1244 -0.5468
  361MPD2     H 5460   4.354   4.281  16.743 -1.8978 -0.8609  0.5886
  361MPD2    H1 5461   4.568   4.132  16.403 -1.0239  0.3875 -2.0600
  361MPD2    H2 5462   4.177   4.314  16.370  0.1691  0.2602 -1.0950
  361MPD2    H3 5463   4.390   4.194  16.269 -1.4929  1.6513 -0.9841
  361MPD2     N 5464   4.582   4.160  16.666 -0.1958 -0.4455  0.1593
  361MPD2    H5 5465   4.661   4.121  16.616 -1.3346 -0.7553 -1.3847
  361MPD2    N1 5466   4.149   4.364  16.628 -0.5345  0.2107  0.4478
  361MPD2    H7 5467   4.151   4.382  16.727  1.0001 -2.0403  0.8179
  362TMC3    C1 5468   3.913   4.413  16.649 -0.0012  0.5837 -0.3576
  362TMC3    C2 5469   3.950   4.478  16.758  0.1767 -0.1226 -0.7465
  362TMC3    C3 5470   3.848   4.549  16.823 -0.0307  0.1605 -0.8786
  362TMC3    C4 5471   3.784   4.401  16.601  0.3590  0.3979  0.2785
  362TMC3    C5 5472   3.690   4.490  16.652 -0.8155  0.0991 -0.2368
  362TMC3    C6 5473   3.716   4.559  16.769 -0.1734  0.0837  0.2673
  362TMC3     C 5474   4.022   4.362  16.570  0.3496 -0.0499 -0.2408
  362TMC3     O 5475   3.984   4.299  16.468 -0.6239  0.3900  0.1654
  362TMC3     H 5476   4.039   4.477  16.821 -0.1021  1.4551 -0.3335
  362TMC3    H1 5477   3.758   4.338  16.517  4.0342  0.2341 -0.7339
  362TMC3    H2 5478   3.647   4.632  16.810  1.1546  0.6846  1.4525
  362TMC3    C7 5479   3.603   4.558  16.555 -0.8243  0.4094  0.1783
  362TMC3    C8 5480   3.851   4.561  16.966  0.3588 -0.5330  0.4855
  362TMC3    O1 5481   3.544   4.659  16.588 -0.0989 -0.0020  0.8430
  362TMC3    O2 5482   3.953   4.535  17.021  0.1289  0.1613 -0.0064
  363TMC3    C1 5483   2.725   3.025   9.797  0.4518 -0.0992 -0.8109
  363TMC3    C2 5484   2.816   2.948   9.852  0.6773 -0.1878  0.1767
  363TMC3    C3 5485   2.889   3.012   9.947  0.4712  0.6205  0.6192
  363TMC3    C4 5486   2.681   3.147   9.843  0.1860 -0.3287 -0.3169
  363TMC3    C5 5487   2.750   3.204   9.945  0.3691  0.1297  0.1561
  363TMC3    C6 5488   2.856   3.137   9.994  0.2916 -0.0349 -0.1005
  363TMC3     C 5489   2.677   2.983   9.665 -0.3912  0.1147 -0.0540
  363TMC3     O 5490   2.725   2.878   9.625 -0.1114  0.7439 -0.8081
  363TMC3     H 5491   2.832   2.846   9.818 -0.7708 -0.7011  1.0300
  363TMC3    H1 5492   2.589   3.193   9.810 -1.4939 -2.9646  0.6457
  363TMC3    H2 5493   2.934   3.189  10.049 -0.2862  1.2126 -0.4504
  363TMC3    C7 5494   2.750   3.347   9.942  0.6051 -1.1039  0.0385
  363TMC3    C8 5495   2.991   2.947  10.018 -0.2349 -0.1577 -0.5472
  363TMC3    O1 5496   2.723   3.401   9.835 -0.1652  0.3966 -0.0854
  363TMC3    O2 5497   3.022   2.989  10.127 -0.1062 -0.0735 -0.1137
  364MPD2     C 5498   1.904   2.167  11.027  0.4930  0.9391  0.3229
  364MPD2    C1 5499   1.979   2.181  10.917 -0.0721  0.0916  0.2035
  364MPD2    C2 5500   2.012   2.068  10.841  0.0845  0.0761 -0.2202
  364MPD2    C3 5501   1.959   1.947  10.868  0.3367  0.2138  0.4045
  364MPD2    C4 5502   1.885   1.934  10.983  0.9372  0.1475 -0.4501
  364MPD2    C5 5503   1.849   2.045  11.051  0.2237 -0.3872 -0.4547
  364MPD2     H 5504   2.079   2.074  10.756  0.3152  2.1213  0.1120
  364MPD2    H1 5505   1.838   1.839  11.004  1.8371 -0.4410 -1.1120
  364MPD2    H2 5506   1.881   2.251  11.092  0.3159  0.6153  0.6819
  364MPD2    H3 5507   1.794   2.024  11.142 -0.5292  1.5435 -0.4804
  364MPD2     N 5508   1.972   1.830  10.791 -0.1161 -0.1253  0.5818
  364MPD2    H5 5509   1.918   1.751  10.826 -0.0469 -0.3337  0.2096
  364MPD2    N1 5510   2.019   2.312  10.885  0.1920 -0.1237 -0.2023
  364MPD2    H7 5511   1.983   2.386  10.944  0.5975  2.9416 -3.7736
  365TMC3    C1 5512   2.139   2.492  10.794  0.8070 -0.3984 -0.5420
  365TMC3    C2 5513   2.194   2.539  10.682  0.4100  0.1757  0.9372
  365TMC3    C3 5514   2.265   2.658  10.692  0.0457  0.4320 -0.5135
  365TMC3    C4 5515   2.160   2.546  10.919  0.0780  0.4055  0.3174
  365TMC3    C5 5516   2.237   2.662  10.922 -0.3237  0.1929 -0.0109
  365TMC3    C6 5517   2.287   2.718  10.812 -0.4192 -0.1433  0.0049
  365TMC3     C 5518   2.102   2.351  10.784 -0.3296  0.1539 -0.4599
  365TMC3     O 5519   2.139   2.299  10.681 -0.3364 -0.0923 -0.2229
  365TMC3     H 5520   2.172   2.496  10.586 -1.7241 -0.8950  1.9078
  365TMC3    H1 5521   2.135   2.503  11.015 -1.9676 -0.7595 -0.7341
  365TMC3    H2 5522   2.347   2.808  10.810 -0.1966 -0.2528  2.1531
  365TMC3    C7 5523   2.249   2.735  11.054  0.1830 -0.2864  0.4017
  365TMC3    C8 5524   2.362   2.687  10.585 -0.3977  0.0450  0.0374
  365TMC3    O1 5525   2.332   2.820  11.058  0.5386  0.3472 -0.6014
  365TMC3    O2 5526   2.476   2.718  10.617 -0.7374 -0.4387 -0.7627
  366MPD2     C 5527   4.369   3.087  15.516 -1.0183 -0.3718 -0.4054
  366MPD2    C1 5528   4.483   3.093  15.437 -0.0096 -0.7743  0.1860
  366MPD2    C2 5529   4.558   2.980  15.407 -0.0043  0.3056  0.4073
  366MPD2    C3 5530   4.510   2.862  15.454 -0.2174  0.1658 -0.5280
  366MPD2    C4 5531   4.392   2.848  15.529 -0.3175 -0.0841  0.2426
  366MPD2    C5 5532   4.323   2.966  15.556 -0.5358 -0.3133 -0.4118
  366MPD2     H 5533   4.650   2.992  15.352 -0.0046 -3.8349 -0.5040
  366MPD2    H1 5534   4.367   2.758  15.585  0.8993 -0.8325 -0.4133
  366MPD2    H2 5535   4.315   3.174  15.550 -1.7700 -2.0127  2.6034
  366MPD2    H3 5536   4.235   2.965  15.619 -0.5035 -0.1324 -0.3645
  366MPD2     N 5537   4.602   2.755  15.457 -0.6451  0.2793 -0.4107
  366MPD2    H5 5538   4.695   2.777  15.424 -0.7912  0.4969 -0.6777
  366MPD2    N1 5539   4.525   3.222  15.379 -0.0722  0.0891 -0.0408
  366MPD2    H7 5540   4.608   3.213  15.321 -0.3464  1.4518 -0.6304
  367TMC3    C1 5541   4.504   3.433  15.294 -1.2538  0.2160  0.3227
  367TMC3    C2 5542   4.635   3.441  15.273  0.1171 -0.3106 -0.2081
  367TMC3    C3 5543   4.680   3.530  15.184  0.3491 -0.3901 -0.0726
  367TMC3    C4 5544   4.411   3.483  15.222  0.4936 -0.7385  1.1057
  367TMC3    C5 5545   4.459   3.572  15.133  0.2694 -0.2575  0.3792
  367TMC3    C6 5546   4.591   3.596  15.102 -0.5672  0.6794 -0.2878
  367TMC3     C 5547   4.460   3.341  15.392 -0.6830  0.2688 -0.2669
  367TMC3     O 5548   4.350   3.369  15.440 -0.6835  0.0377 -0.0398
  367TMC3     H 5549   4.702   3.410  15.353 -0.4972 -2.1859 -0.4342
  367TMC3    H1 5550   4.310   3.490  15.260 -0.4621  1.9945 -1.9532
  367TMC3    H2 5551   4.601   3.644  15.005  0.1115  0.5834 -0.2584
  367TMC3    C7 5552   4.363   3.628  15.041 -0.5000  0.1658 -0.4889
  367TMC3    C8 5553   0.089   3.536  15.171 -0.4818  0.1364  0.2399
  367TMC3    O1 5554   4.390   3.734  14.987  0.4479  0.4515 -0.1491
  367TMC3    O2 5555   0.159   3.454  15.229  0.0327  0.2663 -0.2772
  368MPD2     C 5556   1.454   4.129  12.525  0.1266 -0.0052 -0.4606
  368MPD2    C1 5557   1.423   4.124  12.658  0.1622 -0.2811  0.0878
  368MPD2    C2 5558   1.522   4.144  12.753 -0.1679  0.2642 -0.7121
  368MPD2    C3 5559   1.657   4.149  12.721 -0.1236 -0.5167 -0.9378
  368MPD2    C4 5560   1.689   4.162  12.587  0.7303 -0.0605 -0.3239
  368MPD2    C5 5561   1.583   4.152  12.498  0.5807 -0.2285  0.4139
  368MPD2     H 5562   1.493   4.137  12.857 -3.0838 -3.4428 -1.7869
  368MPD2    H1 5563   1.789   4.183  12.551  0.3453  0.7398 -0.9358
  368MPD2    H2 5564   1.380   4.148  12.448  0.6908 -1.4573 -1.3503
  368MPD2    H3 5565   1.613   4.159  12.394 -0.0643 -1.4849  0.1546
  368MPD2     N 5566   1.765   4.163  12.803  0.4585  0.7666 -0.3764
  368MPD2    H5 5567   1.853   4.166  12.751  1.7006  2.4183  1.8114
  368MPD2    N1 5568   1.286   4.116  12.686 -0.2438 -0.0646 -0.6343
  368MPD2    H7 5569   1.227   4.122  12.604 -0.7570 -0.5676 -0.2960
  369TMC3    C1 5570   1.095   4.174  12.790  0.5822 -0.3663  0.6604
  369TMC3    C2 5571   1.058   4.215  12.662 -0.3937 -0.0710  0.3261
  369TMC3    C3 5572   0.932   4.218  12.634 -0.3874 -0.2791 -0.0532
  369TMC3    C4 5573   1.005   4.153  12.895 -0.4878 -0.2668 -0.0716
  369TMC3    C5 5574   0.872   4.183  12.869 -0.6958  0.4133 -0.2975
  369TMC3    C6 5575   0.833   4.216  12.735 -0.7054  0.6330 -0.1529
  369TMC3     C 5576   1.226   4.130  12.811 -0.3429  0.2314  0.1626
  369TMC3     O 5577   1.268   4.123  12.925  0.8344  0.1967  0.0837
  369TMC3     H 5578   1.129   4.251  12.588  2.2947 -2.4478  1.7269
  369TMC3    H1 5579   1.037   4.142  12.998  0.7224 -2.5403 -0.7018
  369TMC3    H2 5580   0.729   4.227  12.707 -1.1801 -2.0509  0.5076
  369TMC3    C7 5581   0.791   4.232  12.981  1.0913 -0.2111  1.3884
  369TMC3    C8 5582   0.890   4.317  12.529  0.1272 -0.0351 -0.2681
  369TMC3    O1 5583   0.837   4.239  13.092 -0.2685 -0.2356 -0.1245
  369TMC3    O2 5584   0.799   4.396  12.561 -0.2057  0.3452 -0.1718
  370TMC3    C1 5585   0.321   0.840  16.456  0.1409 -0.5973 -0.4539
  370TMC3    C2 5586   0.374   0.766  16.552 -0.3004  0.0147 -0.0324
  370TMC3    C3 5587   0.436   0.647  16.515 -0.2185  0.1003 -0.0792
  370TMC3    C4 5588   0.321   0.805  16.325 -0.1816  0.5068  0.0141
  370TMC3    C5 5589   0.375   0.685  16.293  0.1249  0.7933 -0.3824
  370TMC3    C6 5590   0.440   0.605  16.382  0.0266  0.0577 -0.8764
  370TMC3     C 5591   0.249   0.962  16.496  0.4978  0.6164  0.2741
  370TMC3     O 5592   0.209   0.966  16.612 -0.2923  0.0235  0.1174
  370TMC3     H 5593   0.352   0.793  16.655 -0.3327  0.0086 -0.0375
  370TMC3    H1 5594   0.256   0.859  16.257 -0.4750  0.8730  0.5939
  370TMC3    H2 5595   0.480   0.508  16.357  0.8952 -0.2391  1.7030
  370TMC3    C7 5596   0.336   0.627  16.165 -0.5842 -0.0298  0.3667
  370TMC3    C8 5597   0.445   0.539  16.617  0.2741  0.0088  0.2801
  370TMC3    O1 5598   0.235   0.667  16.104 -0.1659 -0.0303 -0.1981
  370TMC3    O2 5599   0.498   0.433  16.583 -0.1216  0.0987 -0.8924
  371TMC3    C1 5600   1.668   3.739  15.768  0.2637  0.1308 -0.2052
  371TMC3    C2 5601   1.537   3.754  15.720  0.0844  0.2835 -0.0928
  371TMC3    C3 5602   1.513   3.886  15.677 -0.7662  0.7377  0.1213
  371TMC3    C4 5603   1.760   3.841  15.782 -0.4235 -0.1302  0.6951
  371TMC3    C5 5604   1.726   3.962  15.737  0.4810  0.6267 -0.5099
  371TMC3    C6 5605   1.599   3.990  15.691  0.0428 -0.6506 -0.3147
  371TMC3     C 5606   1.738   3.617  15.740 -0.0141  0.1227 -0.9539
  371TMC3     O 5607   1.846   3.630  15.690 -0.1486 -0.1727 -0.2397
  371TMC3     H 5608   1.469   3.670  15.712 -1.7232  1.6787  0.6935
  371TMC3    H1 5609   1.854   3.827  15.833  0.9629 -1.4269 -2.2410
  371TMC3    H2 5610   1.586   4.083  15.636  1.7116 -0.3710 -0.2100
  371TMC3    C7 5611   1.823   4.061  15.702  0.4018 -1.2808  0.1904
  371TMC3    C8 5612   1.391   3.899  15.611 -0.2171 -0.0255  0.2842
  371TMC3    O1 5613   1.789   4.176  15.691  0.1992 -0.5632 -0.2135
  371TMC3    O2 5614   1.357   3.802  15.546  0.9998 -0.3065 -0.1531
  372MPD2     C 5615   1.002   4.486  13.295 -0.0380 -0.5464 -0.0249
  372MPD2    C1 5616   1.105   4.559  13.338 -0.1039 -0.3886 -0.0192
  372MPD2    C2 5617   1.140   4.544  13.470 -0.1934 -0.5741  0.4274
  372MPD2    C3 5618   1.064   4.475  13.566  0.6713 -0.8342  0.1134
  372MPD2    C4 5619   0.961   4.396  13.522  0.6490 -0.8839  0.2422
  372MPD2    C5 5620   0.934   4.406  13.384  0.5913  0.3126  0.4446
  372MPD2     H 5621   1.227   4.602  13.499  0.8358 -1.4102 -0.9319
  372MPD2    H1 5622   0.893   4.341  13.585  0.9144 -1.7274 -0.2074
  372MPD2    H2 5623   0.969   4.481  13.192 -0.8967  2.3965  0.1127
  372MPD2    H3 5624   0.852   4.346  13.345  0.9159 -1.5014  2.5813
  372MPD2     N 5625   1.091   4.490  13.705  0.2018 -0.6400 -0.1232
  372MPD2    H5 5626   1.164   4.554  13.736 -0.2230  0.5457 -1.6098
  372MPD2    N1 5627   1.180   4.643  13.255 -0.4541 -0.1444  0.0676
  372MPD2    H7 5628   1.262   4.686  13.295 -0.1251 -0.5694 -0.1488
  373TMC3    C1 5629   1.100   4.444  13.934 -0.7340  0.0519 -0.4057
  373TMC3    C2 5630   1.034   4.446  14.056 -0.2082  0.6041  0.8933
  373TMC3    C3 5631   1.113   4.468  14.165 -0.3451 -0.2105 -0.9373
  373TMC3    C4 5632   1.241   4.427  13.922 -0.3790  0.4333  0.2802
  373TMC3    C5 5633   1.306   4.436  14.039  0.2537 -0.1556 -0.7027
  373TMC3    C6 5634   1.248   4.449  14.159 -0.4982 -0.3563  0.0637
  373TMC3     C 5635   1.024   4.430  13.810 -0.2337 -0.1601 -0.8545
  373TMC3     O 5636   0.920   4.368  13.811 -0.0287  0.1887  0.0798
  373TMC3     H 5637   0.927   4.463  14.059 -0.4480 -0.6769 -0.4381
  373TMC3    H1 5638   1.282   4.412  13.823  0.2496 -0.5337  0.6924
  373TMC3    H2 5639   1.308   4.459  14.249 -1.9488 -0.2857  1.0383
  373TMC3    C7 5640   1.447   4.384  14.039 -0.0668 -0.2833  0.7228
  373TMC3    C8 5641   1.110   4.603  14.212 -0.5061  0.3815 -0.2702
  373TMC3    O1 5642   1.504   4.383  13.934  0.2061 -0.1462  0.4805
  373TMC3    O2 5643   1.222   4.654  14.224  0.1701  0.5900  0.0221
  374TMC3    C1 5644   1.921   1.014   9.943 -0.9004 -0.3012 -0.0613
  374TMC3    C2 5645   2.046   1.025   9.999 -0.1552 -0.1482  0.2482
  374TMC3    C3 5646   2.116   1.141   9.984  0.4104  0.2733  0.3911
  374TMC3    C4 5647   1.864   1.122   9.889  0.2713  0.6998  0.3219
  374TMC3    C5 5648   1.933   1.238   9.881 -0.6327 -0.2104 -0.2779
  374TMC3    C6 5649   2.063   1.251   9.923 -0.4892 -0.5832 -0.9904
  374TMC3     C 5650   1.839   0.891   9.948  0.3938  0.3748  0.6934
  374TMC3     O 5651   1.852   0.808  10.037 -0.3694  0.0209 -0.8288
  374TMC3     H 5652   2.084   0.929  10.032  1.0364  0.0538 -0.5408
  374TMC3    H1 5653   1.765   1.116   9.845 -0.2738 -0.6407  1.7277
  374TMC3    H2 5654   2.120   1.343   9.912 -0.5923 -0.4268 -0.2387
  374TMC3    C7 5655   1.873   1.356   9.811 -0.2207 -0.3861 -0.3434
  374TMC3    C8 5656   2.259   1.135   9.968  0.2054  0.2569 -0.9434
  374TMC3    O1 5657   1.919   1.463   9.844  0.4864  0.3928  0.5999
  374TMC3    O2 5658   2.307   1.157   9.857 -0.0240  0.5050 -0.8357
  375MPD2     C 5659   1.681   0.558  17.263 -0.6874  0.7366 -0.0164
  375MPD2    C1 5660   1.590   0.588  17.163  0.5046 -0.8042  0.1563
  375MPD2    C2 5661   1.644   0.583  17.041 -0.2026  0.0377  0.0578
  375MPD2    C3 5662   1.777   0.551  17.010 -0.0236 -0.3583 -0.7438
  375MPD2    C4 5663   1.862   0.529  17.113  0.1419  0.2657  0.9171
  375MPD2    C5 5664   1.814   0.538  17.239 -0.2644 -0.3162 -0.4095
  375MPD2     H 5665   1.595   0.638  16.961  2.5248  0.8455 -1.0656
  375MPD2    H1 5666   1.970   0.517  17.106  0.0267  0.3630 -1.2594
  375MPD2    H2 5667   1.652   0.558  17.367  0.1996  2.5318  0.2339
  375MPD2    H3 5668   1.875   0.526  17.328  1.6600 -2.2801 -1.9883
  375MPD2     N 5669   1.825   0.553  16.877  0.2622 -0.1505  0.0562
  375MPD2    H5 5670   1.925   0.548  16.863  0.3838  2.1560  0.1787
  375MPD2    N1 5671   1.451   0.599  17.183 -0.3327  0.6591 -0.3196
  375MPD2    H7 5672   1.386   0.624  17.109 -1.4320 -1.3401 -0.0598
  376TMC3    C1 5673   1.827   0.555  16.636 -0.2679  0.0666 -0.1250
  376TMC3    C2 5674   1.963   0.549  16.636 -0.6383  0.2229 -0.3846
  376TMC3    C3 5675   2.033   0.599  16.526  0.6889 -0.6796 -0.0526
  376TMC3    C4 5676   1.763   0.608  16.530 -0.4812  0.0248 -0.4796
  376TMC3    C5 5677   1.837   0.645  16.416 -0.1776  0.1775 -0.2252
  376TMC3    C6 5678   1.971   0.642  16.414 -0.7014  0.3035  0.6175
  376TMC3     C 5679   1.748   0.556  16.762 -0.2258  0.1950  0.0175
  376TMC3     O 5680   1.629   0.573  16.742  0.2554 -0.0900  1.1072
  376TMC3     H 5681   2.017   0.519  16.725  2.7560 -1.3958 -2.9956
  376TMC3    H1 5682   1.655   0.618  16.523 -0.7497 -2.2434  0.6030
  376TMC3    H2 5683   2.028   0.703  16.345 -2.2339  0.6588 -0.3418
  376TMC3    C7 5684   1.769   0.732  16.324  0.3304 -0.0297  0.0363
  376TMC3    C8 5685   2.173   0.627  16.538 -0.1841  0.2421  0.5498
  376TMC3    O1 5686   1.660   0.774  16.366 -0.1606 -0.1769  0.3960
  376TMC3    O2 5687   2.208   0.736  16.502  0.0378 -0.3216  0.3482
  377MPD2     C 5688   4.397   0.367  13.184 -0.5747 -0.0208 -0.2288
  377MPD2    C1 5689   4.530   0.340  13.202 -0.0455  0.4437 -0.3870
  377MPD2    C2 5690   4.571   0.258  13.305  0.4713  0.2626  1.2256
  377MPD2    C3 5691   4.481   0.217  13.395 -0.7374 -0.0090  0.5162
  377MPD2    C4 5692   4.353   0.254  13.385 -0.4216  0.2370  0.2276
  377MPD2    C5 5693   4.309   0.318  13.279  0.1770 -0.1386 -0.3533
  377MPD2     H 5694   4.673   0.223  13.321  0.5506 -0.7410 -1.5647
  377MPD2    H1 5695   4.282   0.234  13.465  0.2724  1.0627  1.0465
  377MPD2    H2 5696   4.346   0.404  13.096 -2.6327  2.1775  1.8805
  377MPD2    H3 5697   4.203   0.325  13.257  0.1964  1.3528  0.0783
  377MPD2     N 5698   4.506   0.125  13.497  0.1440  0.3278 -0.2686
  377MPD2    H5 5699   4.437   0.119  13.571  0.5685  1.0305  0.1900
  377MPD2    N1 5700   4.612   0.380  13.090 -0.0841  0.0810  0.0992
  377MPD2    H7 5701   4.564   0.426  13.014  1.6845  0.2825 -0.8864
  378TMC3    C1 5702   0.145   0.489  12.753 -0.3295  0.2979 -0.9250
  378TMC3    C2 5703   0.060   0.473  12.860 -0.0934 -0.1867 -0.1517
  378TMC3    C3 5704   0.063   0.359  12.940  0.1594 -0.1483 -1.1622
  378TMC3    C4 5705   0.231   0.387  12.720  0.1995 -0.1168  0.0933
  378TMC3    C5 5706   0.230   0.272  12.792 -0.0526 -0.0241 -0.1522
  378TMC3    C6 5707   0.149   0.259  12.900 -1.1603  0.1802  0.6729
  378TMC3     C 5708   0.125   0.605  12.671  0.4137 -0.5876 -0.2374
  378TMC3     O 5709   0.057   0.696  12.714  0.0077  0.0241  0.5193
  378TMC3     H 5710   4.722   0.547  12.888  2.0313  0.6093  3.4417
  378TMC3    H1 5711   0.287   0.393  12.627  0.8080  0.1235  0.4823
  378TMC3    H2 5712   0.151   0.170  12.961  0.7968 -1.6359 -2.0547
  378TMC3    C7 5713   0.283   0.142  12.750  0.3928  0.2166 -0.6888
  378TMC3    C8 5714   0.009   0.344  13.077  0.3606  0.3521 -0.3322
  378TMC3    O1 5715   0.249   0.047  12.816 -0.0119  0.2302  0.3317
  378TMC3    O2 5716   0.071   0.268  13.149  0.4427  0.1289 -0.6019
  379MPD2     C 5717   1.069   3.843  15.847  0.1119  0.3284  0.9584
  379MPD2    C1 5718   1.103   3.725  15.785 -0.1688  0.0650 -0.0975
  379MPD2    C2 5719   1.206   3.653  15.851 -0.2588 -0.3889 -0.6468
  379MPD2    C3 5720   1.276   3.708  15.962  0.8352 -0.5602  0.2879
  379MPD2    C4 5721   1.241   3.829  16.010  0.5063 -0.9358 -0.3064
  379MPD2    C5 5722   1.127   3.892  15.964 -0.8071 -0.7501 -0.1958
  379MPD2     H 5723   1.244   3.565  15.801 -1.5239 -0.8553 -0.7923
  379MPD2    H1 5724   1.286   3.877  16.097  0.5131 -1.4009 -0.0508
  379MPD2    H2 5725   0.986   3.897  15.803 -1.3911 -0.3603  2.9645
  379MPD2    H3 5726   1.086   3.982  16.010 -0.7812 -0.6094 -0.4477
  379MPD2     N 5727   1.376   3.637  16.038  0.4751 -0.0346  0.5472
  379MPD2    H5 5728   1.394   3.678  16.130 -0.1776  0.4679  0.4453
  379MPD2    N1 5729   1.027   3.684  15.671  0.1924 -0.2365  0.9157
  379MPD2    H7 5730   0.962   3.752  15.632  2.0166  0.5543 -0.7697
  380TMC3    C1 5731   0.923   3.537  15.519 -0.0933  0.7731 -0.2452
  380TMC3    C2 5732   0.913   3.408  15.485 -0.2063 -0.0228 -0.7866
  380TMC3    C3 5733   0.858   3.362  15.374 -1.0526 -0.2957  0.9459
  380TMC3    C4 5734   0.886   3.633  15.435 -1.4178 -0.2326 -0.2987
  380TMC3    C5 5735   0.816   3.594  15.327 -1.0598 -0.0450 -0.5004
  380TMC3    C6 5736   0.796   3.459  15.300  0.1442 -0.1370 -0.0847
  380TMC3     C 5737   1.035   3.560  15.609 -0.0216 -0.6548  0.2641
  380TMC3     O 5738   1.091   3.463  15.650  0.3999 -0.6015 -0.6860
  380TMC3     H 5739   0.941   3.335  15.561  0.1405  0.3135 -0.5948
  380TMC3    H1 5740   0.915   3.735  15.453  1.2075 -1.1004  0.4017
  380TMC3    H2 5741   0.769   3.424  15.201 -0.9520 -1.4455  0.6827
  380TMC3    C7 5742   0.734   3.687  15.253  0.1305 -0.3828 -0.3181
  380TMC3    C8 5743   0.931   3.254  15.306 -0.9696 -1.7871  0.6548
  380TMC3    O1 5744   0.768   3.806  15.250  0.3613 -0.7624  0.0216
  380TMC3    O2 5745   0.942   3.266  15.185  0.6728 -0.3452  0.0059
  381TMC3    C1 5746   0.168   0.289  16.341 -0.2139 -0.1907  0.4689
  381TMC3    C2 5747   0.285   0.234  16.298  0.1292  0.1987 -0.5518
  381TMC3    C3 5748   0.356   0.166  16.399 -0.1626  0.2869 -0.6047
  381TMC3    C4 5749   0.128   0.300  16.474  0.5200 -0.3643  0.2887
  381TMC3    C5 5750   0.205   0.239  16.568 -0.4077 -0.0971  0.1693
  381TMC3    C6 5751   0.320   0.172  16.531 -0.2932 -0.2279 -0.4912
  381TMC3     C 5752   0.078   0.340  16.241 -0.2246 -0.0522  0.6494
  381TMC3     O 5753   0.008   0.434  16.267  0.3356 -0.1534  0.0284
  381TMC3     H 5754   0.322   0.228  16.197 -0.5674  0.8172 -0.8404
  381TMC3    H1 5755   0.038   0.358  16.490  1.4096  1.6100 -1.8315
  381TMC3    H2 5756   0.376   0.109  16.599 -2.2636 -1.0561  0.3593
  381TMC3    C7 5757   0.132   0.166  16.673 -0.6815 -0.0719 -0.6171
  381TMC3    C8 5758   0.492   0.133  16.366  0.3635 -0.1260  0.3528
  381TMC3    O1 5759   0.152   0.045  16.693  0.3635  0.0870  0.1251
  381TMC3    O2 5760   0.516   0.098  16.247  0.7931 -0.6371 -0.4189
  382MPD2     C 5761   4.499   1.745  16.997  0.8072 -0.0945  0.3156
  382MPD2    C1 5762   4.551   1.726  17.121  0.1935  0.7222 -0.7797
  382MPD2    C2 5763   4.492   1.632  17.210 -0.4901 -0.1411 -0.2960
  382MPD2    C3 5764   4.377   1.560  17.179 -0.8663  0.6125  0.2462
  382MPD2    C4 5765   4.326   1.590  17.057  0.4294 -1.0151 -0.2582
  382MPD2    C5 5766   4.382   1.677  16.967 -0.2516  0.8835  0.4173
  382MPD2     H 5767   4.549   1.599  17.295  0.9878  1.6277 -0.5889
  382MPD2    H1 5768   4.229   1.549  17.030 -0.5627  0.1562  1.5125
  382MPD2    H2 5769   4.545   1.807  16.921 -2.3538  0.9123 -0.7539
  382MPD2    H3 5770   4.332   1.699  16.873  1.3133  0.9952 -0.3916
  382MPD2     N 5771   4.304   1.475  17.258  0.1198  0.1222  0.0756
  382MPD2    H5 5772   4.225   1.425  17.218  1.8566 -1.1945 -1.6863
  382MPD2    N1 5773   4.677   1.791  17.159  0.1013 -0.6178  0.3623
  382MPD2    H7 5774   4.715   1.770  17.251 -0.2575 -1.6269  0.2826
  383TMC3    C1 5775   4.279   1.308  17.426 -0.1349  0.6499 -0.0651
  383TMC3    C2 5776   4.155   1.278  17.374 -0.1539 -0.4023 -0.3498
  383TMC3    C3 5777   4.102   1.156  17.405 -0.1981  0.0331 -0.2142
  383TMC3    C4 5778   4.352   1.220  17.506  0.2102 -0.1691  0.6910
  383TMC3    C5 5779   4.293   1.097  17.526  0.4784 -0.0482 -0.5227
  383TMC3    C6 5780   4.168   1.061  17.476  0.1093  0.1382  0.3119
  383TMC3     C 5781   4.353   1.421  17.369 -0.5888  0.2298 -0.7310
  383TMC3     O 5782   4.440   1.477  17.439 -0.4927  0.2130 -0.4789
  383TMC3     H 5783   4.093   1.342  17.311 -1.1811  0.8195  1.9183
  383TMC3    H1 5784   4.446   1.252  17.551  1.2755 -0.8551 -1.0454
  383TMC3    H2 5785   4.118   0.970  17.506 -1.4398  0.9064  0.0280
  383TMC3    C7 5786   4.374   0.986  17.572 -0.0640 -0.4523  0.2723
  383TMC3    C8 5787   3.969   1.125  17.352 -0.6690  0.3618  1.3605
  383TMC3    O1 5788   4.312   0.903  17.637  0.6681 -0.0936  0.2766
  383TMC3    O2 5789   3.891   1.211  17.308 -0.9797  0.3453 -0.1322
  384MPD2     C 5790   1.206   3.550  12.385 -0.1775  0.3710 -0.1165
  384MPD2    C1 5791   1.184   3.476  12.497 -0.4068  0.6345  0.8690
  384MPD2    C2 5792   1.293   3.418  12.553  0.9250  0.3360 -0.9024
  384MPD2    C3 5793   1.417   3.412  12.495  0.1615  0.3256  0.4756
  384MPD2    C4 5794   1.435   3.490  12.382 -0.5578  0.0976  0.4100
  384MPD2    C5 5795   1.331   3.564  12.329  0.0877  0.1783  0.1610
  384MPD2     H 5796   1.285   3.349  12.637  0.0409  0.8839 -0.5455
  384MPD2    H1 5797   1.532   3.494  12.335 -0.4237 -2.9357  0.4250
  384MPD2    H2 5798   1.124   3.601  12.335 -0.0584  1.0378  0.3771
  384MPD2    H3 5799   1.352   3.624  12.241  0.8672 -2.3634 -1.4080
  384MPD2     N 5800   1.513   3.333  12.559  0.1434  0.9156  0.0441
  384MPD2    H5 5801   1.484   3.274  12.635 -0.4338  1.1887  0.0369
  384MPD2    N1 5802   1.059   3.449  12.566  0.3551 -0.1653 -0.1104
  384MPD2    H7 5803   1.077   3.414  12.659  0.3627  1.7325  0.5925
  385TMC3    C1 5804   1.699   3.218  12.589  0.6341 -0.5218  0.4617
  385TMC3    C2 5805   1.708   3.109  12.509 -0.9908 -0.0216 -0.3571
  385TMC3    C3 5806   1.678   2.985  12.570 -0.1298  0.0849  0.3352
  385TMC3    C4 5807   1.657   3.202  12.717  0.2836 -0.1030 -0.2457
  385TMC3    C5 5808   1.617   3.083  12.766  0.4913 -0.1682  0.2522
  385TMC3    C6 5809   1.641   2.968  12.702  0.9373 -0.8932 -0.0641
  385TMC3     C 5810   1.647   3.334  12.522 -0.6247 -0.7779  0.8925
  385TMC3     O 5811   1.706   3.382  12.428  0.2330  0.5197  0.3689
  385TMC3     H 5812   1.747   3.120  12.409 -2.0174  1.1587 -0.6278
  385TMC3    H1 5813   1.643   3.292  12.775 -1.5815 -0.3343 -0.3169
  385TMC3    H2 5814   1.597   2.877  12.743  0.6036 -0.4831  0.4794
  385TMC3    C7 5815   1.498   3.104  12.847 -0.1753  0.0845  0.3907
  385TMC3    C8 5816   1.632   2.873  12.483  0.2075  0.0866  0.1028
  385TMC3    O1 5817   1.437   3.211  12.825 -0.3408 -0.9662  0.6337
  385TMC3    O2 5818   1.579   2.784  12.546 -0.3011  0.1053  0.3444
  386TMC3    C1 5819   1.502   0.710  11.522  0.5299  0.0256 -0.4421
  386TMC3    C2 5820   1.467   0.817  11.449 -0.5415 -0.0122 -0.9878
  386TMC3    C3 5821   1.353   0.881  11.476  0.1515  0.1599  0.2064
  386TMC3    C4 5822   1.417   0.643  11.604 -1.0045 -0.5158  0.6965
  386TMC3    C5 5823   1.293   0.706  11.609 -0.0269  0.2938 -0.0651
  386TMC3    C6 5824   1.265   0.822  11.551  0.5932  0.7433  0.4767
  386TMC3     C 5825   1.640   0.666  11.497  0.4959 -0.0475  0.8476
  386TMC3     O 5826   1.698   0.709  11.400  0.1406 -0.1308  0.2606
  386TMC3     H 5827   1.527   0.840  11.361  0.9237 -0.9768 -0.2387
  386TMC3    H1 5828   1.438   0.552  11.660  0.8795  1.2165  2.7822
  386TMC3    H2 5829   1.176   0.883  11.561 -1.1900 -1.6764 -0.7498
  386TMC3    C7 5830   1.185   0.644  11.684 -0.1140  0.1348 -0.2018
  386TMC3    C8 5831   1.316   0.986  11.395  0.4268 -0.0069  0.0115
  386TMC3    O1 5832   1.216   0.568  11.776  0.6101 -0.2587  0.1096
  386TMC3    O2 5833   1.195   0.983  11.353  0.2381  0.4074 -0.1068
  387MPD2     C 5834   3.660   0.629   9.897 -1.3330 -0.2203  0.4905
  387MPD2    C1 5835   3.783   0.671   9.846 -0.3884 -0.1469 -0.0955
  387MPD2    C2 5836   3.866   0.576   9.781 -0.6137 -0.5072  0.5637
  387MPD2    C3 5837   3.829   0.442   9.775 -0.9193  0.2795 -0.4107
  387MPD2    C4 5838   3.712   0.400   9.840 -0.1142 -0.2100 -0.1768
  387MPD2    C5 5839   3.625   0.496   9.881 -0.4746 -0.2499 -0.1709
  387MPD2     H 5840   3.958   0.618   9.742 -0.3657 -1.4585  0.1108
  387MPD2    H1 5841   3.677   0.297   9.839 -1.4606  0.2504 -1.7741
  387MPD2    H2 5842   3.580   0.688   9.939 -1.9378  0.3115 -1.4002
  387MPD2    H3 5843   3.532   0.462   9.926 -0.0452 -2.8106 -1.2174
  387MPD2     N 5844   3.928   0.354   9.725  0.1240  0.3586  0.1144
  387MPD2    H5 5845   4.009   0.400   9.684 -1.8627  2.5111 -1.3446
  387MPD2    N1 5846   3.825   0.808   9.855  0.5244  0.7352  0.2228
  387MPD2    H7 5847   3.924   0.822   9.837  0.0550  3.2040 -0.3639
  388TMC3    C1 5848   3.848   1.012   9.947 -0.2080 -0.7368  0.1599
  388TMC3    C2 5849   3.797   1.079  10.055  0.0546 -0.3815  0.5044
  388TMC3    C3 5850   3.882   1.094  10.163 -0.0969 -0.8045 -0.5241
  388TMC3    C4 5851   3.977   0.974   9.941 -0.0028  0.0215 -0.1234
  388TMC3    C5 5852   4.056   0.979  10.053  0.3469 -0.2390 -0.1240
  388TMC3    C6 5853   4.011   1.039  10.166  0.4258  0.7056  1.0657
  388TMC3     C 5854   3.754   0.915   9.898  0.4584 -0.6435 -0.5720
  388TMC3     O 5855   3.637   0.931   9.921 -0.3542  0.2101 -0.6679
  388TMC3     H 5856   3.697   1.120  10.050  0.9547  1.4597 -2.4040
  388TMC3    H1 5857   4.021   0.940   9.848 -0.3586  2.4491 -1.1596
  388TMC3    H2 5858   4.073   1.056  10.254  1.3133 -0.0505  0.5845
  388TMC3    C7 5859   4.138   0.857  10.059 -0.4911 -0.1910  0.5347
  388TMC3    C8 5860   3.836   1.177  10.267  0.4628  0.5895  0.6816
  388TMC3    O1 5861   4.150   0.780   9.962 -0.0285 -0.3960  0.0338
  388TMC3    O2 5862   3.751   1.263  10.235 -0.4901 -0.6833  0.2562
  389MPD2     C 5863   4.098   3.329  10.900 -0.9411  0.1362  0.3723
  389MPD2    C1 5864   4.026   3.444  10.928  0.1711 -0.5739 -1.0936
  389MPD2    C2 5865   3.921   3.427  11.021  0.2884  0.5537  0.0466
  389MPD2    C3 5866   3.889   3.307  11.078 -0.0709 -0.7087 -0.3447
  389MPD2    C4 5867   3.957   3.194  11.043 -0.1742  0.2287  0.7013
  389MPD2    C5 5868   4.070   3.209  10.964  0.6619  0.5819 -0.2007
  389MPD2     H 5869   3.861   3.515  11.037 -0.5778  0.0184 -0.2673
  389MPD2    H1 5870   3.935   3.101  11.095 -0.4905 -0.0337  0.0939
  389MPD2    H2 5871   4.185   3.331  10.836 -2.0807 -0.6702 -1.1980
  389MPD2    H3 5872   4.135   3.123  10.953  1.1199  1.0415 -1.0941
  389MPD2     N 5873   3.780   3.294  11.167 -0.2190  0.0048  0.0185
  389MPD2    H5 5874   3.740   3.203  11.185  0.8128 -0.1396  1.5582
  389MPD2    N1 5875   4.054   3.570  10.866 -0.5730  0.3587 -0.3515
  389MPD2    H7 5876   4.111   3.570  10.782 -0.2976  1.7461 -0.1697
  390TMC3    C1 5877   3.583   3.362  11.279 -0.2256  0.2265  0.8163
  390TMC3    C2 5878   3.510   3.255  11.230 -0.1001  0.0250 -0.0033
  390TMC3    C3 5879   3.374   3.252  11.247  0.0969 -0.1829 -0.6669
  390TMC3    C4 5880   3.530   3.460  11.359  0.4362  0.4252 -0.1578
  390TMC3    C5 5881   3.395   3.461  11.372 -0.1163 -0.3673 -0.5800
  390TMC3    C6 5882   3.315   3.361  11.317  0.6297  0.0041  0.1986
  390TMC3     C 5883   3.713   3.396  11.225 -0.1212  0.4056 -0.3498
  390TMC3     O 5884   3.743   3.514  11.237  0.1972  0.1346  0.6367
  390TMC3     H 5885   3.554   3.190  11.155 -0.7309 -0.5676  0.1379
  390TMC3    H1 5886   3.595   3.537  11.400  0.4035  2.1608 -3.4223
  390TMC3    H2 5887   3.209   3.357  11.339 -0.1988  2.0443 -3.4381
  390TMC3    C7 5888   3.333   3.571  11.441  0.2034 -0.1397 -0.0718
  390TMC3    C8 5889   3.291   3.135  11.210 -0.0384 -0.0081  0.0303
  390TMC3    O1 5890   3.380   3.681  11.426 -0.3589 -0.5543  0.7466
  390TMC3    O2 5891   3.343   3.023  11.206 -0.2563 -0.2629  0.1338
  391MPD2     C 5892   2.145   0.704  11.303  0.1945  0.5319  0.5732
  391MPD2    C1 5893   2.275   0.695  11.348 -0.1519 -0.1301 -0.5265
  391MPD2    C2 5894   2.374   0.685  11.245  1.0652 -0.2650 -0.5477
  391MPD2    C3 5895   2.353   0.685  11.106  0.1391  0.5047  0.1235
  391MPD2    C4 5896   2.226   0.676  11.062 -0.5514  0.2887  0.0064
  391MPD2    C5 5897   2.127   0.697  11.165  0.2869 -0.0691 -0.4858
  391MPD2     H 5898   2.477   0.683  11.279  0.7785  1.6401  0.4226
  391MPD2    H1 5899   2.194   0.668  10.959  2.6012  1.1485 -1.0345
  391MPD2    H2 5900   2.068   0.718  11.378 -1.1135  1.1309 -0.8756
  391MPD2    H3 5901   2.027   0.711  11.124 -1.0106 -1.1433  2.3049
  391MPD2     N 5902   2.464   0.700  11.016  0.5244  0.0578  0.2279
  391MPD2    H5 5903   2.557   0.718  11.053  0.8436  0.0333 -0.5763
  391MPD2    N1 5904   2.316   0.695  11.483 -0.1068  0.2868 -0.1926
  391MPD2    H7 5905   2.416   0.684  11.499 -0.4937 -1.9510  0.6215
  392TMC3    C1 5906   2.555   0.753  10.797 -0.0840 -0.6517  0.6934
  392TMC3    C2 5907   2.534   0.746  10.666 -0.2104  0.0154 -0.1053
  392TMC3    C3 5908   2.601   0.825  10.581 -0.9331  0.4534 -0.4758
  392TMC3    C4 5909   2.631   0.856  10.850 -0.5648 -0.2098 -0.2434
  392TMC3    C5 5910   2.709   0.930  10.763  0.1919  0.0375  0.0847
  392TMC3    C6 5911   2.676   0.927  10.626 -0.1812 -0.2054  0.3575
  392TMC3     C 5912   2.457   0.683  10.882  0.3699 -0.7083 -0.3821
  392TMC3     O 5913   2.383   0.601  10.830  0.0947 -0.4449  0.3418
  392TMC3     H 5914   2.456   0.677  10.634 -0.0303  0.6051 -1.8059
  392TMC3    H1 5915   2.646   0.862  10.957 -1.0386 -2.6336 -0.0521
  392TMC3    H2 5916   2.722   1.007  10.570  0.6749  0.3054  1.7748
  392TMC3    C7 5917   2.828   0.995  10.808 -0.2376 -0.4806 -0.2828
  392TMC3    C8 5918   2.553   0.820  10.444 -0.2027  0.0312 -0.2633
  392TMC3    O1 5919   2.817   1.058  10.913  0.1978  0.2009  0.0536
  392TMC3    O2 5920   2.441   0.769  10.425 -0.5167  1.0156  0.4403
  393TMC3    C1 5921   1.733   3.647  10.610 -0.0939  0.1497  0.3227
  393TMC3    C2 5922   1.722   3.563  10.506 -0.1270  0.1394 -1.1915
  393TMC3    C3 5923   1.653   3.446  10.527 -0.3868  0.2351  0.0031
  393TMC3    C4 5924   1.688   3.613  10.733  0.3621  0.1021  0.0403
  393TMC3    C5 5925   1.620   3.492  10.746  0.8727  0.2302  0.0325
  393TMC3    C6 5926   1.602   3.404  10.647  0.7190 -0.5272  0.8012
  393TMC3     C 5927   1.711   3.783  10.584 -0.0557 -0.3298 -0.1926
  393TMC3     O 5928   1.655   3.813  10.479  0.6558  0.5376  0.2848
  393TMC3     H 5929   1.739   3.594  10.403 -2.2795  0.4676 -1.4446
  393TMC3    H1 5930   1.668   3.678  10.817  0.6728  0.2043  0.0325
  393TMC3    H2 5931   1.556   3.306  10.657 -1.2292  0.2114 -1.0332
  393TMC3    C7 5932   1.578   3.457  10.880  0.0053 -0.4140  0.5649
  393TMC3    C8 5933   1.614   3.367  10.410 -0.1146 -0.0034  0.0488
  393TMC3    O1 5934   1.464   3.410  10.895  0.0124 -0.0459 -0.4966
  393TMC3    O2 5935   1.535   3.272  10.430  0.2908  0.5752 -0.1500
  394TMC3    C1 5936   4.003   3.783  10.780  1.0006  0.4930 -0.0763
  394TMC3    C2 5937   3.915   3.894  10.795  0.5005  0.2782 -0.1575
  394TMC3    C3 5938   3.872   3.967  10.689  0.0378 -0.3082 -0.4251
  394TMC3    C4 5939   4.042   3.748  10.657  0.1147  0.4450  0.1359
  394TMC3    C5 5940   4.005   3.836  10.555 -0.0194  0.8663 -0.4138
  394TMC3    C6 5941   3.917   3.938  10.564  0.4736 -0.3011  0.3245
  394TMC3     C 5942   3.994   3.687  10.889  0.0345 -0.2266 -0.4710
  394TMC3     O 5943   3.941   3.724  10.992 -0.9740 -0.7235  0.0126
  394TMC3     H 5944   3.892   3.925  10.896 -0.2587 -0.0139 -0.2428
  394TMC3    H1 5945   4.097   3.659  10.627  1.4707  1.6032 -0.8130
  394TMC3    H2 5946   3.862   3.985  10.484 -0.0463  2.5501  2.3298
  394TMC3    C7 5947   4.015   3.787  10.417  0.4206  0.3963 -0.2322
  394TMC3    C8 5948   3.725   3.971  10.688  0.2563 -1.3113 -0.5483
  394TMC3    O1 5949   4.000   3.667  10.393  0.2847  0.4012 -0.1197
  394TMC3    O2 5950   3.673   3.947  10.581  0.2297 -0.3641  0.3155
  395TMC3    C1 5951   2.995   0.388  14.690  0.8444  0.0276 -0.5202
  395TMC3    C2 5952   2.961   0.364  14.567 -0.4481 -0.0782 -0.5913
  395TMC3    C3 5953   2.991   0.454  14.469  0.7244 -0.7450 -0.1871
  395TMC3    C4 5954   3.071   0.493  14.731 -0.5215 -0.3422 -0.7654
  395TMC3    C5 5955   3.121   0.568  14.627 -0.1219 -0.3816  0.9217
  395TMC3    C6 5956   3.080   0.552  14.498  0.3422  0.1600 -0.5044
  395TMC3     C 5957   2.988   0.276  14.781 -0.2718 -0.1148 -0.9337
  395TMC3     O 5958   2.988   0.162  14.731 -0.2188 -0.3600  0.4642
  395TMC3     H 5959   2.881   0.291  14.560 -0.7340  0.0642  1.1752
  395TMC3    H1 5960   3.100   0.507  14.835 -0.1386 -1.6243 -0.6965
  395TMC3    H2 5961   3.100   0.630  14.426  1.4757  1.2300  0.9697
  395TMC3    C7 5962   3.205   0.688  14.649  0.6732 -0.2517  0.6641
  395TMC3    C8 5963   2.882   0.513  14.397 -0.1943  0.0680 -0.2572
  395TMC3    O1 5964   3.181   0.754  14.751  0.1293  0.2805  0.1997
  395TMC3    O2 5965   2.875   0.637  14.401  0.1527 -1.0099 -0.2481
  396MPD2     C 5966   3.067   1.773  17.683  0.0053 -0.4053  0.1096
  396MPD2    C1 5967   3.197   1.788  17.646 -0.5714  0.2343  0.4333
  396MPD2    C2 5968   3.231   1.885  17.554 -0.1962  0.7127 -0.4526
  396MPD2    C3 5969   3.130   1.969  17.500 -0.2109  0.3510 -0.1587
  396MPD2    C4 5970   2.998   1.945  17.531 -0.0538 -0.5067 -0.6770
  396MPD2    C5 5971   2.967   1.853  17.630  0.3572  0.2734 -1.1616
  396MPD2     H 5972   3.331   1.906  17.519 -0.1449  0.4705 -0.4478
  396MPD2    H1 5973   2.919   2.014  17.505 -0.9786 -0.7482  1.4973
  396MPD2    H2 5974   3.037   1.701   0.012 -2.5690 -0.7039 -1.1922
  396MPD2    H3 5975   2.868   1.844  17.671  0.3090 -0.6331 -1.4847
  396MPD2     N 5976   3.177   2.075  17.410  0.1245 -0.2213 -0.4260
  396MPD2    H5 5977   3.277   2.090  17.398  0.3735  0.5146  2.6057
  396MPD2    N1 5978   3.299   1.705  17.700  0.0990 -0.5951  0.5466
  396MPD2    H7 5979   3.257   1.639   0.018 -0.7057  0.9719  1.6290
  397TMC3    C1 5980   3.445   1.535  17.640 -0.2871  0.4763 -0.1566
  397TMC3    C2 5981   3.423   1.488  17.513  0.1833 -0.2646  0.7118
  397TMC3    C3 5982   3.381   1.361  17.498 -0.0139 -0.9946 -0.3042
  397TMC3    C4 5983   3.398   1.464  17.744  0.4042  0.2787  0.0544
  397TMC3    C5 5984   3.374   1.327  17.732  0.3775  0.4989 -0.1350
  397TMC3    C6 5985   3.361   1.273  17.606  0.6556 -0.1061  0.2206
  397TMC3     C 5986   3.419   1.676  17.637  0.1920 -0.4811 -0.1590
  397TMC3     O 5987   3.478   1.740  17.552  0.0511 -0.2849 -0.0691
  397TMC3     H 5988   3.460   1.541  17.426  0.6865  0.1652  1.1909
  397TMC3    H1 5989   3.410   1.509   0.096 -2.0213  1.1524 -0.0463
  397TMC3    H2 5990   3.351   1.166  17.598  2.0610 -0.2670  0.7042
  397TMC3    C7 5991   3.381   1.229   0.093  0.2224 -0.1865 -0.9733
  397TMC3    C8 5992   3.303   1.354  17.377  0.3786  0.8384 -0.4419
  397TMC3    O1 5993   3.368   1.107   0.064  0.8878  0.0732  0.1048
  397TMC3    O2 5994   3.293   1.455  17.309  0.6479  0.1356  0.1441
  398MPD2     C 5995   1.116   2.255   0.299 -0.3325 -0.0554  0.0957
  398MPD2    C1 5996   1.102   2.268   0.433 -0.8286 -0.4711 -0.1810
  398MPD2    C2 5997   1.195   2.347   0.498  0.3423 -0.4410 -0.5051
  398MPD2    C3 5998   1.314   2.373   0.433  0.0878  0.4354  0.1460
  398MPD2    C4 5999   1.335   2.346   0.299  0.0286  0.4105  0.1017
  398MPD2    C5 6000   1.228   2.298   0.232  0.2639  0.0906 -0.0943
  398MPD2     H 6001   1.200   2.366   0.605  0.0866  0.1416 -0.5949
  398MPD2    H1 6002   1.426   2.378   0.250  1.2002 -1.1667  1.2316
  398MPD2    H2 6003   1.036   2.206   0.245  0.6844 -1.4288 -0.1621
  398MPD2    H3 6004   1.223   2.288   0.124 -3.4645 -1.8726  0.2575
  398MPD2     N 6005   1.401   2.455   0.505 -0.0367 -0.5032 -0.7313
  398MPD2    H5 6006   1.354   2.503   0.581 -0.9066 -2.5073  0.0233
  398MPD2    N1 6007   1.000   2.226   0.519 -0.0275  0.3213 -0.8192
  398MPD2    H7 6008   1.006   2.267   0.611 -0.1521 -0.7749 -0.3265
  399TMC3    C1 6009   0.842   2.089   0.610  0.6543  0.2302 -0.0483
  399TMC3    C2 6010   0.903   2.118   0.729  0.0063  0.5334 -0.7927
  399TMC3    C3 6011   0.859   2.058   0.843 -0.1300  0.2667 -0.2918
  399TMC3    C4 6012   0.759   1.981   0.604  0.5127  0.3924  0.1521
  399TMC3    C5 6013   0.708   1.930   0.724  0.1362 -0.4754  0.0110
  399TMC3    C6 6014   0.752   1.969   0.847 -0.5516  0.0854 -0.0327
  399TMC3     C 6015   0.904   2.135   0.485  0.4289  0.1966 -0.5927
  399TMC3     O 6016   0.895   2.063   0.386 -0.2013  0.0576  0.3067
  399TMC3     H 6017   0.989   2.184   0.740  1.1985 -1.1040 -0.3046
  399TMC3    H1 6018   0.718   1.951   0.508  0.4269  1.2384 -0.0769
  399TMC3    H2 6019   0.724   1.916   0.937  1.0398  1.3487  1.2089
  399TMC3    C7 6020   0.620   1.813   0.735  0.3100  0.3675  0.3508
  399TMC3    C8 6021   0.965   2.035   0.942  0.5677 -0.6086 -0.7400
  399TMC3    O1 6022   0.612   1.752   0.840  0.1934 -0.1092 -0.3522
  399TMC3    O2 6023   1.071   2.092   0.919 -0.2687 -0.0635  0.4206
  400TMC3    C1 6024   3.929   0.844  16.927  0.0545 -0.2038 -0.6363
  400TMC3    C2 6025   3.800   0.847  16.876 -0.2230 -0.1293  0.5252
  400TMC3    C3 6026   3.741   0.965  16.875  0.2024 -0.0493 -0.1909
  400TMC3    C4 6027   3.999   0.950  16.978 -0.3430  0.8981  0.6895
  400TMC3    C5 6028   3.922   1.063  16.984  0.8049  0.0676 -0.1775
  400TMC3    C6 6029   3.795   1.070  16.937 -0.3305  0.9246  0.5492
  400TMC3     C 6030   4.000   0.720  16.920 -0.1648 -0.4068  0.0399
  400TMC3     O 6031   3.963   0.640  16.835  0.4838 -0.6189  0.0989
  400TMC3     H 6032   3.753   0.762  16.829  0.4799 -1.7110  2.7025
  400TMC3    H1 6033   4.107   0.942  16.987 -0.2302  1.9458  0.2561
  400TMC3    H2 6034   3.737   1.159  16.956  1.0466  2.0445 -0.4135
  400TMC3    C7 6035   3.993   1.184  17.003 -0.4392  0.3347  0.3355
  400TMC3    C8 6036   3.611   0.991  16.813  0.2923 -0.2026 -1.2429
  400TMC3    O1 6037   4.096   1.202  17.071  0.2927  0.0984 -0.3106
  400TMC3    O2 6038   3.557   1.099  16.841  0.1055 -0.1284 -0.5499
  401MPD2     C 6039   2.491   4.649   0.174  0.6671  0.3472  0.1725
  401MPD2    C1 6040   2.575   4.554   0.224 -0.2274 -0.3241  0.3777
  401MPD2    C2 6041   2.551   4.420   0.208 -0.3337  0.2651 -0.7202
  401MPD2    C3 6042   2.434   4.382   0.140  0.1581 -0.2828 -0.0381
  401MPD2    C4 6043   2.350   4.476   0.086 -0.5735 -0.0367 -0.5184
  401MPD2    C5 6044   2.379   4.614   0.108  0.7125 -0.4960  0.7892
  401MPD2     H 6045   2.618   4.350   0.256  1.6601  1.1218 -2.2519
  401MPD2    H1 6046   2.269   4.457   0.016 -0.6215 -0.8654 -0.2351
  401MPD2    H2 6047   2.517   0.018   0.171  1.8813 -0.0227 -2.9079
  401MPD2    H3 6048   2.310   4.685   0.064 -1.2340 -2.3179  0.8982
  401MPD2     N 6049   2.405   4.245   0.140  0.5581 -0.8057  0.5668
  401MPD2    H5 6050   2.476   4.183   0.179  1.9539  0.8633  0.7028
  401MPD2    N1 6051   2.701   4.595   0.286  0.2702  0.1316  0.2840
  401MPD2    H7 6052   2.767   4.521   0.309 -3.0438 -2.5537  1.2359
  402TMC3    C1 6053   2.268   4.074   0.224 -0.3243  0.0926  0.6300
  402TMC3    C2 6054   2.309   4.099   0.352  0.4724 -0.5871 -0.5129
  402TMC3    C3 6055   2.389   4.012   0.421 -0.1499 -0.3172  0.2899
  402TMC3    C4 6056   2.318   3.964   0.156 -0.2234 -0.2261 -0.3943
  402TMC3    C5 6057   2.390   3.872   0.226  0.0270  0.3685  0.4035
  402TMC3    C6 6058   2.423   3.887   0.360  0.3041 -0.2031  0.4055
  402TMC3     C 6059   2.275   4.193   0.139  0.3709 -0.0805 -0.3486
  402TMC3     O 6060   2.174   4.259   0.125 -0.0829 -0.0915  0.0162
  402TMC3     H 6061   2.297   4.201   0.387 -0.2885 -0.4927 -1.0604
  402TMC3    H1 6062   2.298   3.949   0.050  0.5372 -0.7424 -0.4649
  402TMC3    H2 6063   2.487   3.815   0.409  0.2568  0.2094  1.0774
  402TMC3    C7 6064   2.474   3.784   0.143  0.2723 -0.6505 -0.1626
  402TMC3    C8 6065   2.508   4.061   0.490 -0.5836  0.1434 -0.3005
  402TMC3    O1 6066   2.420   3.747   0.044  0.4094  0.3950  0.1712
  402TMC3    O2 6067   2.600   3.985   0.526  0.6095  0.6734  0.1828
  403MPD2     C 6068   1.099   2.748  13.508  0.3640 -0.6151 -0.5462
  403MPD2    C1 6069   1.064   2.864  13.444  0.5780 -0.2894  0.3300
  403MPD2    C2 6070   1.163   2.961  13.420 -0.1551 -0.5300  0.7330
  403MPD2    C3 6071   1.294   2.930  13.442 -0.2719 -0.2087  0.3785
  403MPD2    C4 6072   1.325   2.811  13.503 -0.0280  0.1489  0.1098
  403MPD2    C5 6073   1.228   2.721  13.537  0.1378 -0.0629  0.3684
  403MPD2     H 6074   1.138   3.059  13.384 -0.0451 -0.3359  1.1771
  403MPD2    H1 6075   1.425   2.784  13.537 -1.2226 -2.1073  1.8408
  403MPD2    H2 6076   1.026   2.680  13.548  0.0421  0.7051  1.1181
  403MPD2    H3 6077   1.256   2.632  13.591 -2.8730 -0.0204  1.9883
  403MPD2     N 6078   1.389   3.028  13.406  1.3373  0.2224 -0.3263
  403MPD2    H5 6079   1.355   3.116  13.370  0.0168 -0.2900 -0.3205
  403MPD2    N1 6080   0.927   2.881  13.414  0.4213 -0.1414  0.4158
  403MPD2    H7 6081   0.873   2.795  13.401 -2.5035  1.6489  0.7593
  404TMC3    C1 6082   0.732   2.968  13.324 -0.1586  0.5376  0.0262
  404TMC3    C2 6083   0.676   2.859  13.394 -0.8231 -0.1186  0.1747
  404TMC3    C3 6084   0.593   2.779  13.322  0.1167 -0.1408  0.1561
  404TMC3    C4 6085   0.707   2.984  13.191 -0.2746 -0.1693 -0.6002
  404TMC3    C5 6086   0.628   2.902  13.121  0.7460  0.1387  0.1244
  404TMC3    C6 6087   0.570   2.795  13.188  0.2370 -0.7634 -0.0252
  404TMC3     C 6088   0.874   2.987  13.362 -1.4740 -0.6795 -0.7312
  404TMC3     O 6089   0.925   3.090  13.326 -0.4230 -0.0153  0.1186
  404TMC3     H 6090   0.706   2.843  13.497 -0.0501 -0.1757 -0.0596
  404TMC3    H1 6091   0.773   3.050  13.136  1.1756 -0.1019  1.2278
  404TMC3    H2 6092   0.502   2.726  13.140 -0.3366 -0.7409  0.7599
  404TMC3    C7 6093   0.633   2.899  12.980  0.2447  0.3100  0.8185
  404TMC3    C8 6094   0.570   2.645  13.380 -0.4446 -0.0514  0.5612
  404TMC3    O1 6095   0.739   2.940  12.932  0.2832 -0.2743  0.1015
  404TMC3    O2 6096   0.544   2.562  13.297  0.5600  0.0709  0.2306
  405MPD2     C 6097   0.819   3.607  14.478  0.3256 -1.1630 -0.2630
  405MPD2    C1 6098   0.926   3.560  14.403  0.4800  0.1823  0.1245
  405MPD2    C2 6099   0.953   3.616  14.279  0.4874  0.6584  1.0850
  405MPD2    C3 6100   0.891   3.721  14.231  0.5820 -0.0899 -0.4983
  405MPD2    C4 6101   0.784   3.770  14.302  0.4980 -0.1245  0.0102
  405MPD2    C5 6102   0.747   3.708  14.419 -0.3622  0.4484  0.7935
  405MPD2     H 6103   1.042   3.587  14.224  1.4223  0.2177  2.8108
  405MPD2    H1 6104   0.719   3.849  14.267  1.8208  0.6258 -0.7754
  405MPD2    H2 6105   0.778   3.556  14.564 -1.1260 -0.4417 -0.5448
  405MPD2    H3 6106   0.656   3.748  14.462  0.3516  1.6805  1.1503
  405MPD2     N 6107   0.917   3.771  14.100 -0.3619  0.0598 -0.8615
  405MPD2    H5 6108   1.012   3.759  14.066  0.1809  1.0519  0.3122
  405MPD2    N1 6109   0.995   3.453  14.446 -0.7993 -0.1313  0.1716
  405MPD2    H7 6110   0.962   3.404  14.528  1.7591  0.4950  1.5891
  406TMC3    C1 6111   0.727   3.865  13.712 -0.4472  0.2973 -0.3115
  406TMC3    C2 6112   0.805   3.760  13.661  0.3412  0.2487  0.3783
  406TMC3    C3 6113   0.918   3.718  13.724  0.2072 -0.4451 -0.3889
  406TMC3    C4 6114   0.772   3.933  13.823 -0.1273  0.8676  0.4398
  406TMC3    C5 6115   0.888   3.891  13.894  0.3113  0.0940 -0.3494
  406TMC3    C6 6116   0.959   3.788  13.840  0.4122 -0.0623  0.1682
  406TMC3     C 6117   0.591   3.826  13.719  0.4975  0.9048 -0.2428
  406TMC3     O 6118   0.529   3.807  13.614 -0.0921  0.0280 -0.0446
  406TMC3     H 6119   0.759   3.696  13.587 -1.8905  0.7185  1.3494
  406TMC3    H1 6120   0.703   4.007  13.862 -0.6542  0.3777  0.4392
  406TMC3    H2 6121   1.040   3.742  13.896  2.3889  0.4852 -2.2242
  406TMC3    C7 6122   0.838   3.857  14.025 -0.5811  0.1124 -0.4523
  406TMC3    C8 6123   0.973   3.588  13.685  0.3427 -0.2868  0.0857
  406TMC3    O1 6124   0.722   3.892  14.049 -0.3520  0.4337  0.4197
  406TMC3    O2 6125   0.940   3.527  13.580  0.4351  0.3375 -0.0393
  407MPD2     C 6126   3.340   0.632   9.522  0.2252  0.9832  0.0572
  407MPD2    C1 6127   3.467   0.686   9.556 -0.3603 -0.2346 -0.4852
  407MPD2    C2 6128   3.474   0.781   9.653  0.2225  0.2139 -0.0843
  407MPD2    C3 6129   3.358   0.815   9.721  0.0109 -0.3563  0.2482
  407MPD2    C4 6130   3.234   0.762   9.679 -0.3600 -0.8957 -0.7222
  407MPD2    C5 6131   3.228   0.681   9.574  0.2572 -0.5560 -0.3064
  407MPD2     H 6132   3.572   0.818   9.680 -0.2307  0.9374  0.5846
  407MPD2    H1 6133   3.137   0.787   9.721  0.9324  0.1670  1.6636
  407MPD2    H2 6134   3.325   0.569   9.435  0.6251  1.4373 -0.3430
  407MPD2    H3 6135   3.132   0.642   9.542 -0.3047 -0.1642  0.9151
  407MPD2     N 6136   3.369   0.917   9.819 -0.6435 -0.6351  0.2598
  407MPD2    H5 6137   3.462   0.931   9.857 -0.6926 -2.3719  1.0283
  407MPD2    N1 6138   3.584   0.669   9.483  0.2126  0.5700  0.5585
  407MPD2    H7 6139   3.668   0.713   9.518 -0.6994  2.3299  0.5357
  408TMC3    C1 6140   3.716   0.594   9.307 -0.1390 -0.8604  0.2872
  408TMC3    C2 6141   3.782   0.474   9.313  0.3177  1.0348 -0.3728
  408TMC3    C3 6142   3.916   0.476   9.306 -0.0024 -0.9141 -0.4170
  408TMC3    C4 6143   3.779   0.714   9.300  0.2256  0.6269 -0.1013
  408TMC3    C5 6144   3.916   0.714   9.306 -0.1959 -0.0821 -0.1861
  408TMC3    C6 6145   3.989   0.594   9.307  0.0935 -0.6951  0.6229
  408TMC3     C 6146   3.588   0.591   9.368  0.0668  0.1281  0.2885
  408TMC3     O 6147   3.513   0.505   9.332 -0.8440  0.2766  0.2414
  408TMC3     H 6148   3.727   0.394   9.362  2.4748 -0.3216 -0.1759
  408TMC3    H1 6149   3.721   0.806   9.305 -0.2142  0.4190 -1.3707
  408TMC3    H2 6150   4.096   0.596   9.293  0.0091  1.3233  0.2155
  408TMC3    C7 6151   3.993   0.833   9.283  0.0628 -0.5414 -0.6773
  408TMC3    C8 6152   3.985   0.363   9.354 -0.9217  0.1238 -0.3522
  408TMC3    O1 6153   4.114   0.831   9.283 -0.4858  0.2813  0.0648
  408TMC3    O2 6154   3.914   0.260   9.363  0.0203  0.6856 -0.3806
  409MPD2     C 6155   2.733   0.397  17.062  0.2801  0.8707 -0.0527
  409MPD2    C1 6156   2.839   0.423  17.139  0.3241  0.5954 -0.3246
  409MPD2    C2 6157   2.899   0.542  17.127 -0.5265  0.2198 -0.7935
  409MPD2    C3 6158   2.863   0.644  17.044 -0.5324 -0.1440 -0.2628
  409MPD2    C4 6159   2.752   0.622  16.970 -0.1463  0.0352 -0.0364
  409MPD2    C5 6160   2.691   0.499  16.980  0.5855 -0.4677 -0.2828
  409MPD2     H 6161   2.982   0.563  17.194 -1.0418 -0.8983  0.2012
  409MPD2    H1 6162   2.712   0.693  16.898  0.9012  0.7263  0.0689
  409MPD2    H2 6163   2.684   0.301  17.077 -0.4443  1.4295  1.1056
  409MPD2    H3 6164   2.609   0.491  16.909 -0.6297  0.8803  0.9764
  409MPD2     N 6165   2.939   0.766  17.029  0.5772 -0.2311  0.3435
  409MPD2    H5 6166   2.899   0.840  16.971  1.7021  1.3913  1.6208
  409MPD2    N1 6167   2.904   0.336  17.235  0.5463  0.6491  0.9545
  409MPD2    H7 6168   2.981   0.373  17.291  0.4128  1.8529  0.3472
  410TMC3    C1 6169   3.115   0.920  17.056  0.0427 -0.1582 -0.3491
  410TMC3    C2 6170   3.239   0.944  17.125 -0.0474  1.1122  0.5629
  410TMC3    C3 6171   3.318   1.047  17.087 -0.1867 -0.0878  0.6773
  410TMC3    C4 6172   3.084   0.996  16.943 -0.2986  1.2449  0.9284
  410TMC3    C5 6173   3.172   1.096  16.907  0.3195  0.6127  0.0436
  410TMC3    C6 6174   3.288   1.130  16.980 -0.5993  0.2532  0.6461
  410TMC3     C 6175   3.060   0.790  17.081  0.0798 -0.3450  0.3607
  410TMC3     O 6176   3.126   0.732  17.168 -0.2935  0.6678 -0.2215
  410TMC3     H 6177   3.270   0.887  17.211 -0.0066  0.0974 -0.1203
  410TMC3    H1 6178   2.990   0.977  16.893  0.4854 -2.9249  0.9988
  410TMC3    H2 6179   3.365   1.201  16.953  2.5334 -3.4217  0.0455
  410TMC3    C7 6180   3.117   1.185  16.807 -0.1332 -0.0881  0.1378
  410TMC3    C8 6181   3.454   1.045  17.139 -0.3337  0.7198 -0.0695
  410TMC3    O1 6182   3.011   1.152  16.753  0.5930  0.7045  0.0825
  410TMC3    O2 6183   3.507   1.152  17.160 -0.1946  0.0246  0.1269
  411MPD2     C 6184   3.205   1.584  13.997 -0.3403  0.3751 -0.5583
  411MPD2    C1 6185   3.184   1.542  14.130 -0.0361  0.3842 -0.2724
  411MPD2    C2 6186   3.184   1.406  14.155  0.5085 -0.4269  0.1384
  411MPD2    C3 6187   3.205   1.317  14.053 -0.0497 -0.8211  0.2216
  411MPD2    C4 6188   3.227   1.362  13.922  0.2292  0.7728  0.9320
  411MPD2    C5 6189   3.223   1.496  13.894 -0.0924 -0.8392  0.5589
  411MPD2     H 6190   3.151   1.371  14.252 -1.5603  2.0081  0.3079
  411MPD2    H1 6191   3.222   1.296  13.836 -0.1220  0.1679  1.4175
  411MPD2    H2 6192   3.213   1.689  13.974  0.3125  0.8464  1.7516
  411MPD2    H3 6193   3.229   1.530  13.791  1.4478  0.3812  1.0564
  411MPD2     N 6194   3.201   1.181  14.071 -0.4272  0.5791  0.5548
  411MPD2    H5 6195   3.196   1.126  13.986 -0.7498 -0.8825  1.4962
  411MPD2    N1 6196   3.148   1.644  14.223  0.1798  0.5952 -0.3774
  411MPD2    H7 6197   3.130   1.740  14.195  1.0893  0.3449 -1.8010
  412TMC3    C1 6198   3.108   0.983  14.167  0.4839  0.1920  0.4328
  412TMC3    C2 6199   3.076   0.934  14.288  0.2219  0.1322  0.5079
  412TMC3    C3 6200   2.948   0.904  14.322 -0.3152  0.1967  0.0609
  412TMC3    C4 6201   3.008   0.995  14.076  0.9545 -0.5416 -0.6557
  412TMC3    C5 6202   2.879   0.970  14.114  0.4363  0.0935  0.6911
  412TMC3    C6 6203   2.853   0.913  14.230 -0.1479  0.3141  0.1766
  412TMC3     C 6204   3.182   1.108  14.190 -0.2313 -0.2788 -0.3996
  412TMC3     O 6205   3.185   1.146  14.307 -0.2418 -0.0617  0.0878
  412TMC3     H 6206   3.148   0.934  14.369  0.4831 -1.4731  0.2762
  412TMC3    H1 6207   3.037   1.025  13.976 -0.5739  2.4404 -0.1912
  412TMC3    H2 6208   2.749   0.896  14.254 -0.5010  1.0943 -0.8392
  412TMC3    C7 6209   2.787   1.084  14.094 -0.3786 -1.2274  0.6449
  412TMC3    C8 6210   2.915   0.916  14.465 -0.7370 -0.0358 -0.3807
  412TMC3    O1 6211   2.716   1.098  14.190  0.3602  0.3502  0.2776
  412TMC3    O2 6212   3.001   0.905  14.549 -0.1458 -0.0479 -0.0530
  413MPD2     C 6213   0.453   0.343  15.398 -0.0658  0.4977  0.5994
  413MPD2    C1 6214   0.426   0.296  15.268  0.8954 -1.2118  1.0381
  413MPD2    C2 6215   0.498   0.191  15.221 -0.4594 -0.0239 -0.3985
  413MPD2    C3 6216   0.593   0.132  15.301 -0.6080  0.0071  0.4848
  413MPD2    C4 6217   0.622   0.186  15.420  0.4444 -0.0389 -0.4133
  413MPD2    C5 6218   0.554   0.298  15.475  0.6575 -0.1218 -0.0857
  413MPD2     H 6219   0.482   0.150  15.121 -3.0444 -1.9381  0.8106
  413MPD2    H1 6220   0.711   0.161  15.477  1.4588  1.0148 -1.5405
  413MPD2    H2 6221   0.407   0.440  15.414 -3.5783 -0.9520 -0.7427
  413MPD2    H3 6222   0.583   0.345  15.568 -0.5916 -1.2133  0.8509
  413MPD2     N 6223   0.646   0.012  15.247  0.1330  0.7281 -0.3165
  413MPD2    H5 6224   0.600   4.711  15.165 -0.7385  2.1732 -0.4835
  413MPD2    N1 6225   0.313   0.352  15.206 -0.1072 -0.4325 -0.0645
  413MPD2    H7 6226   0.260   0.422  15.257 -1.2434 -1.4656  0.1681
  414TMC3    C1 6227   0.806   4.588  15.200  0.6831  0.2031 -0.4499
  414TMC3    C2 6228   0.891   4.493  15.250 -0.0671 -0.3776  0.7492
  414TMC3    C3 6229   0.946   4.413  15.157  0.8491  0.4478  0.8486
  414TMC3    C4 6230   0.764   4.592  15.072 -0.5403 -0.6899 -0.0316
  414TMC3    C5 6231   0.810   4.495  14.987  0.4325 -0.1127  0.1680
  414TMC3    C6 6232   0.899   4.401  15.032 -1.0401  0.2323 -0.7814
  414TMC3     C 6233   0.743   4.676  15.305  0.0414  0.4742 -0.2277
  414TMC3     O 6234   0.806   4.692  15.407 -0.7190 -0.4723 -0.9295
  414TMC3     H 6235   0.925   4.500  15.353  0.9619 -0.5968  0.4253
  414TMC3    H1 6236   0.703   4.673  15.033  0.3233 -1.3467 -2.7776
  414TMC3    H2 6237   0.937   4.321  14.969 -0.5866 -0.2462  0.1091
  414TMC3    C7 6238   0.748   4.508  14.858 -0.1001 -0.0747  0.3674
  414TMC3    C8 6239   1.044   4.309  15.195  0.3307  0.1778 -0.1574
  414TMC3    O1 6240   0.627   4.528  14.849 -0.5006 -0.3902 -0.1903
  414TMC3    O2 6241   1.036   4.200  15.140  0.0683  0.2314 -0.2488
  415TMC3    C1 6242   2.045   3.135  10.129  0.5961 -0.8777  0.1300
  415TMC3    C2 6243   2.166   3.127  10.065  0.8295 -0.8193 -0.5896
  415TMC3    C3 6244   2.163   3.077   9.937 -0.4192  0.3538 -0.4390
  415TMC3    C4 6245   1.927   3.094  10.074 -0.7203  0.6313 -0.2676
  415TMC3    C5 6246   1.928   3.032   9.952 -0.9218  0.4667  0.4731
  415TMC3    C6 6247   2.042   3.036   9.877  0.2091  0.5837 -0.5829
  415TMC3     C 6248   2.038   3.145  10.271 -0.3032 -0.2207  0.3564
  415TMC3     O 6249   1.930   3.184  10.314  0.6327  0.5078 -0.0443
  415TMC3     H 6250   2.258   3.169  10.102 -1.4510  2.8641  0.8555
  415TMC3    H1 6251   1.832   3.093  10.124 -1.0839 -0.6874 -0.9705
  415TMC3    H2 6252   2.043   2.984   9.782 -0.1587  1.4088 -1.0341
  415TMC3    C7 6253   1.819   2.966   9.884 -0.6642 -0.6847 -0.0194
  415TMC3    C8 6254   2.247   3.147   9.844  0.1189  0.3049  0.5243
  415TMC3    O1 6255   1.821   2.979   9.761 -0.1082  0.0113 -0.0545
  415TMC3    O2 6256   2.260   3.101   9.733  0.3657  0.4003 -0.0828
  416MPD2     C 6257   2.908   1.568  11.613  0.0075  0.3627  0.3877
  416MPD2    C1 6258   2.829   1.556  11.723  0.4258 -0.1712 -0.4233
  416MPD2    C2 6259   2.730   1.459  11.721 -0.2745  0.3213  0.2149
  416MPD2    C3 6260   2.701   1.384  11.610  0.2526  0.8086  0.5445
  416MPD2    C4 6261   2.797   1.389  11.504  0.2032  0.5044  0.5281
  416MPD2    C5 6262   2.888   1.488  11.506 -0.2960  0.2170  0.0774
  416MPD2     H 6263   2.668   1.466  11.810 -0.3071  0.0153  0.2142
  416MPD2    H1 6264   2.785   1.343  11.407 -4.0446  2.2751  0.2016
  416MPD2    H2 6265   2.997   1.629  11.622 -2.3355  4.0513 -1.3789
  416MPD2    H3 6266   2.946   1.510  11.417  0.0219 -2.6358 -0.4101
  416MPD2     N 6267   2.575   1.317  11.610 -0.0715 -0.0963 -1.0358
  416MPD2    H5 6268   2.536   1.284  11.697 -2.9152  1.7887 -1.6085
  416MPD2    N1 6269   2.858   1.645  11.830 -0.1467  0.2048 -0.2855
  416MPD2    H7 6270   2.914   1.727  11.808 -1.0139  0.4155 -1.7363
  417TMC3    C1 6271   2.834   1.758  12.029  0.3180  0.8590  0.5742
  417TMC3    C2 6272   2.848   1.753  12.160  0.3783  0.3076  0.7767
  417TMC3    C3 6273   2.902   1.863  12.221  0.3581  0.1359  0.5135
  417TMC3    C4 6274   2.860   1.873  11.951  0.0539  0.0514 -0.2940
  417TMC3    C5 6275   2.898   1.991  12.016 -0.3166  0.1133  0.4264
  417TMC3    C6 6276   2.932   1.979  12.148  0.4855 -0.2571  0.3814
  417TMC3     C 6277   2.807   1.639  11.959 -0.5084 -0.4525  0.1666
  417TMC3     O 6278   2.753   1.550  12.017  0.0122 -0.2409 -0.0689
  417TMC3     H 6279   2.821   1.663  12.214 -1.1390  0.6671  0.6136
  417TMC3    H1 6280   2.824   1.875  11.849 -1.1428 -2.2060  0.1050
  417TMC3    H2 6281   2.985   2.058  12.201  2.2066 -0.1156 -1.5573
  417TMC3    C7 6282   2.798   2.094  11.990  0.0571  0.1377 -0.3107
  417TMC3    C8 6283   2.867   1.900  12.360 -1.5039 -0.1560  0.0583
  417TMC3    O1 6284   2.765   2.109  11.877 -0.2865  0.1187  0.7388
  417TMC3    O2 6285   2.836   2.018  12.367  0.1745 -0.0630 -0.2184
  418TMC3    C1 6286   1.709   2.625   0.746 -0.4979  0.7582  0.3647
  418TMC3    C2 6287   1.694   2.565   0.618 -0.3876  0.4042 -0.0486
  418TMC3    C3 6288   1.576   2.598   0.551 -0.8122  0.0828 -0.1647
  418TMC3    C4 6289   1.609   2.698   0.800 -0.2913 -0.0696 -0.4843
  418TMC3    C5 6290   1.494   2.721   0.730  0.6406 -0.8596  0.0552
  418TMC3    C6 6291   1.479   2.674   0.604 -0.5638 -0.0517 -0.2196
  418TMC3     C 6292   1.815   2.583   0.833  0.4538  0.0648 -1.1192
  418TMC3     O 6293   1.928   2.568   0.795 -0.2082 -0.0994 -0.0908
  418TMC3     H 6294   1.769   2.500   0.576  0.9573  1.2250  1.1023
  418TMC3    H1 6295   1.627   2.746   0.895  2.2867 -0.0877 -0.9630
  418TMC3    H2 6296   1.396   2.696   0.538 -1.3551 -1.2074  0.4030
  418TMC3    C7 6297   1.369   2.747   0.795  0.4409  0.5771 -0.6479
  418TMC3    C8 6298   1.526   2.492   0.465  0.2258 -0.3200  0.4313
  418TMC3    O1 6299   1.275   2.698   0.736  0.1626 -0.0995 -0.0564
  418TMC3    O2 6300   1.603   2.449   0.379  0.0348  0.3508 -0.5631
  419MPD2     C 6301   0.419   1.829  12.320 -0.0564  0.3625 -0.1195
  419MPD2    C1 6302   0.314   1.919  12.330  0.9431  0.7187 -0.0290
  419MPD2    C2 6303   0.231   1.909  12.438  0.5383  0.5544 -0.0136
  419MPD2    C3 6304   0.250   1.822  12.540  0.3030 -0.4790 -0.1349
  419MPD2    C4 6305   0.351   1.727  12.518  0.3992 -0.0250  0.2883
  419MPD2    C5 6306   0.438   1.727  12.410  0.3307  0.2807 -0.7168
  419MPD2     H 6307   0.141   1.969  12.442 -0.6888 -1.2441 -0.4500
  419MPD2    H1 6308   0.378   1.649  12.589 -0.3827  0.7125  1.4007
  419MPD2    H2 6309   0.479   1.827  12.229  1.0287 -0.5600  0.6165
  419MPD2    H3 6310   0.507   1.644  12.406  0.1249  0.1027 -0.6085
  419MPD2     N 6311   0.174   1.841  12.654 -0.4038 -0.1001  0.0182
  419MPD2    H5 6312   0.098   1.906  12.639  0.4217  0.5257 -1.5282
  419MPD2    N1 6313   0.269   2.010  12.230  0.5789 -0.1396 -1.0327
  419MPD2    H7 6314   0.196   2.072  12.262 -0.1210 -1.6556  0.3401
  420TMC3    C1 6315   0.094   1.790  12.867  0.4738  0.0220  0.0278
  420TMC3    C2 6316   4.702   1.837  12.835  0.3216 -0.4225 -0.1151
  420TMC3    C3 6317   4.608   1.828  12.936 -0.3812  0.2961  0.6194
  420TMC3    C4 6318   0.126   1.746  12.992  0.4437 -0.0105  0.2984
  420TMC3    C5 6319   0.028   1.739  13.084 -0.0120  0.6113  0.4578
  420TMC3    C6 6320   4.637   1.783  13.063 -0.4836 -0.6624  0.0893
  420TMC3     C 6321   0.188   1.759  12.764  0.2484  0.4422 -0.1991
  420TMC3     O 6322   0.268   1.669  12.786 -0.1434  0.2125  0.0581
  420TMC3     H 6323   4.687   1.870  12.733  1.3913 -1.6264 -0.6653
  420TMC3    H1 6324   0.228   1.714  13.010  0.2732 -0.7165  0.0192
  420TMC3    H2 6325   4.576   1.790  13.153  0.2265 -1.1940  0.6130
  420TMC3    C7 6326   0.056   1.697  13.216  0.8515 -0.3377 -1.3137
  420TMC3    C8 6327   4.475   1.888  12.909  0.6761 -0.3155  0.0425
  420TMC3    O1 6328   4.704   1.648  13.283 -0.3408 -0.0919 -0.9389
  420TMC3    O2 6329   4.475   1.972  12.818 -0.4615  0.3282  0.4215
  421TMC3    C1 6330   1.609   3.124  13.402 -0.9275 -0.5310  0.8633
  421TMC3    C2 6331   1.573   3.241  13.468  0.2401 -0.0339  0.5676
  421TMC3    C3 6332   1.672   3.309  13.535 -0.4965  0.1338  0.1671
  421TMC3    C4 6333   1.740   3.078  13.418  0.4949  0.3244 -0.6155
  421TMC3    C5 6334   1.825   3.141  13.510  0.9011 -1.0121  0.6868
  421TMC3    C6 6335   1.797   3.263  13.560 -0.4406 -0.2166 -0.3014
  421TMC3     C 6336   1.526   3.013  13.421  0.1012  0.0634  0.5177
  421TMC3     O 6337   1.579   2.905  13.436 -0.0621 -0.0655 -0.1776
  421TMC3     H 6338   1.468   3.271  13.470  0.7517  1.8981 -2.0247
  421TMC3    H1 6339   1.778   2.997  13.358  0.6480  0.1030 -0.2180
  421TMC3    H2 6340   1.866   3.324  13.618  1.2715 -1.1245 -1.3627
  421TMC3    C7 6341   1.878   3.054  13.607 -0.3156 -0.7405 -0.6380
  421TMC3    C8 6342   1.639   3.418  13.626 -0.6302  0.0955  0.0325
  421TMC3    O1 6343   1.934   3.118  13.697 -0.2738 -0.6239  0.1682
  421TMC3    O2 6344   1.699   3.419  13.733  0.2566  0.0783  0.4718
  422TMC3    C1 6345   3.586   4.673  12.327  0.4286 -0.2837  0.3336
  422TMC3    C2 6346   3.576   0.043  12.417 -0.5271 -0.7256 -0.7632
  422TMC3    C3 6347   3.462   0.114  12.413  0.1103 -0.1616 -0.0674
  422TMC3    C4 6348   3.476   4.640  12.253 -0.4539 -0.3251 -0.1069
  422TMC3    C5 6349   3.354   4.702  12.270  0.2387  0.1553  0.2901
  422TMC3    C6 6350   3.353   0.082  12.342 -0.6251 -0.1971  0.2845
  422TMC3     C 6351   3.722   4.630  12.283 -0.5530  0.4036  0.4735
  422TMC3     O 6352   3.817   4.640  12.365  0.3919 -0.4252 -0.1218
  422TMC3     H 6353   3.663   0.076  12.474 -0.6511  0.4842 -1.2736
  422TMC3    H1 6354   3.481   4.551  12.191  0.7897 -1.3285  1.4368
  422TMC3    H2 6355   3.263   0.141  12.351 -1.4486 -1.3404 -0.3574
  422TMC3    C7 6356   3.233   4.628  12.282 -0.5027 -0.1661 -0.2577
  422TMC3    C8 6357   3.481   0.255  12.452  0.2725 -0.2945 -0.6085
  422TMC3    O1 6358   3.144   4.667  12.356 -0.6012  1.1369 -0.6705
  422TMC3    O2 6359   3.578   0.275  12.525 -0.1022  0.7370 -0.2918
  423MPD2     C 6360   0.354   0.732   0.317 -0.6265  0.3348  1.0195
  423MPD2    C1 6361   0.308   0.606   0.341  0.7253  0.0756  0.0752
  423MPD2    C2 6362   0.336   0.500   0.258  0.2788  0.0378  0.1133
  423MPD2    C3 6363   0.384   0.524   0.135 -0.4190  0.1388  0.4389
  423MPD2    C4 6364   0.410   0.652   0.101  0.4362  0.3318 -0.2596
  423MPD2    C5 6365   0.399   0.760   0.188  0.6007  0.1946 -0.5126
  423MPD2     H 6366   0.293   0.407   0.293 -0.3592 -0.7688 -2.7656
  423MPD2    H1 6367   0.452   0.672   0.003  2.2677 -3.2378 -0.2163
  423MPD2    H2 6368   0.350   0.813   0.388  0.0714  1.8990 -0.7416
  423MPD2    H3 6369   0.441   0.856   0.164 -0.1327  0.1755 -1.8579
  423MPD2     N 6370   0.395   0.426   0.035 -0.8519  0.3595 -0.0222
  423MPD2    H5 6371   0.433   0.453  17.691  0.7906 -0.0537  0.5354
  423MPD2    N1 6372   0.239   0.575   0.462 -0.0575  0.2765 -0.3652
  423MPD2    H7 6373   0.218   0.479   0.485 -0.1693  0.4676  0.3237
  424TMC3    C1 6374   0.099   0.600   0.643 -0.0404 -0.2628  0.1851
  424TMC3    C2 6375   0.148   0.499   0.714 -0.5253 -0.1714  0.5995
  424TMC3    C3 6376   0.093   0.474   0.835 -0.5484 -0.0020  0.0690
  424TMC3    C4 6377   4.723   0.666   0.683  0.0724  0.4306 -0.1821
  424TMC3    C5 6378   4.671   0.639   0.806  0.3099 -0.3896  0.0981
  424TMC3    C6 6379   4.721   0.543   0.886  0.7184 -0.7834 -0.5196
  424TMC3     C 6380   0.179   0.665   0.542 -0.0993 -0.3016 -0.2168
  424TMC3     O 6381   0.171   0.787   0.527  0.1528  0.3884  0.3348
  424TMC3     H 6382   0.236   0.446   0.680 -1.4901 -2.7137  2.0809
  424TMC3    H1 6383   4.679   0.737   0.615  2.5961  1.4978 -0.6905
  424TMC3    H2 6384   4.676   0.505   0.977 -1.1810 -0.2951 -1.2658
  424TMC3    C7 6385   4.542   0.698   0.836 -0.2502 -0.2622 -0.7604
  424TMC3    C8 6386   0.144   0.372   0.923 -0.0835  0.6127 -0.0686
  424TMC3    O1 6387   4.487   0.755   0.746 -0.2931 -0.1165  0.2529
  424TMC3    O2 6388   0.073   0.316   1.001 -0.1194  0.3613  0.3260
  425MPD2     C 6389   0.083   4.291  17.622 -0.2457 -0.7246  0.5222
  425MPD2    C1 6390   4.716   4.311  17.541 -0.2116 -0.8352 -1.0372
  425MPD2    C2 6391   4.635   4.425  17.565 -0.4765 -0.5847 -0.4566
  425MPD2    C3 6392   4.666   4.518  17.658  0.6792 -0.6726 -0.0296
  425MPD2    C4 6393   0.038   4.503  17.733  0.9260  0.4729  0.6812
  425MPD2    C5 6394   0.114   4.389  17.717 -0.0013  0.1080 -0.6665
  425MPD2     H 6395   4.545   4.425  17.504 -0.9402 -1.8449  0.2153
  425MPD2    H1 6396   0.060   4.574   0.066  2.1592  1.8738 -0.9145
  425MPD2    H2 6397   0.157   4.212  17.622 -0.6098 -1.0662  0.2318
  425MPD2    H3 6398   0.205   4.386   0.030  0.4786  1.7052 -1.3029
  425MPD2     N 6399   4.570   4.626  17.667 -0.2641 -0.1710  0.2372
  425MPD2    H5 6400   4.493   4.616  17.602 -1.1705  1.1690  1.0989
  425MPD2    N1 6401   4.694   4.202  17.445 -0.3352  0.3314  0.3232
  425MPD2    H7 6402   0.022   4.125  17.434 -0.2212  0.6201 -0.9712
  426TMC3    C1 6403   4.578   4.092  17.288 -0.4881 -0.4914  0.1459
  426TMC3    C2 6404   4.493   4.084  17.176  0.2833  0.6987 -0.8134
  426TMC3    C3 6405   4.500   3.975  17.090 -0.3815 -0.0546  0.4782
  426TMC3    C4 6406   4.659   3.985  17.316  0.0401  0.7440  0.2040
  426TMC3    C5 6407   4.661   3.883  17.224 -0.6450  0.1103 -0.2611
  426TMC3    C6 6408   4.596   3.877  17.109 -0.1394 -0.4046 -0.0016
  426TMC3     C 6409   4.590   4.216  17.355 -0.3751  0.1539 -0.0761
  426TMC3     O 6410   4.525   4.312  17.319 -0.6763  0.1006 -0.0554
  426TMC3     H 6411   4.420   4.162  17.160 -1.1545 -0.7987 -1.6339
  426TMC3    H1 6412   4.726   3.988  17.401  0.1522  1.0274  0.1039
  426TMC3    H2 6413   4.593   3.791  17.043 -1.2301  1.4509 -2.3333
  426TMC3    C7 6414   4.723   3.760  17.271  0.7558 -0.1545 -0.0700
  426TMC3    C8 6415   4.411   3.967  16.980 -0.0420 -0.3263  0.2544
  426TMC3    O1 6416   0.035   3.677  17.198  0.2185  0.2532  0.3971
  426TMC3    O2 6417   4.447   3.896  16.887 -0.1642  0.3682 -0.4139
  427MPD2     C 6418   2.360   1.715  14.807  0.9011  0.4748 -0.7039
  427MPD2    C1 6419   2.364   1.707  14.945  0.3691  0.8151 -0.6589
  427MPD2    C2 6420   2.268   1.774  15.018 -0.0608 -0.4748 -0.1771
  427MPD2    C3 6421   2.151   1.815  14.955 -0.1918  0.7123 -0.2394
  427MPD2    C4 6422   2.135   1.803  14.820 -0.5971  0.3149 -0.1412
  427MPD2    C5 6423   2.245   1.764  14.751  0.7700 -0.4058  0.1871
  427MPD2     H 6424   2.272   1.774  15.126  1.0322 -1.6025 -0.2169
  427MPD2    H1 6425   2.053   1.837  14.758 -1.2138  1.1678  1.1414
  427MPD2    H2 6426   2.442   1.685  14.743  2.1323  0.4399  0.8997
  427MPD2    H3 6427   2.242   1.771  14.643 -2.0158 -2.8232  0.1232
  427MPD2     N 6428   2.035   1.865  15.013  0.6399 -0.1934  0.9387
  427MPD2    H5 6429   1.952   1.864  14.955  0.8828  0.5752  0.5687
  427MPD2    N1 6430   2.473   1.656  15.018  0.4838 -0.8133  0.2850
  427MPD2    H7 6431   2.465   1.661  15.120  4.3341 -1.6886  0.6397
  428TMC3    C1 6432   2.658   1.518  15.065  0.2626 -0.0314  0.0226
  428TMC3    C2 6433   2.590   1.456  15.164  0.2377  0.3495  0.1721
  428TMC3    C3 6434   2.642   1.352  15.225  0.1122  0.5865 -0.2521
  428TMC3    C4 6435   2.790   1.480  15.041  0.3382  0.0188 -0.4400
  428TMC3    C5 6436   2.844   1.377  15.118  0.2884  0.3352 -0.1278
  428TMC3    C6 6437   2.766   1.306  15.204 -0.0513  0.5439 -0.0874
  428TMC3     C 6438   2.578   1.586  14.967  0.0403 -0.9657  0.3408
  428TMC3     O 6439   2.611   1.569  14.851  0.2704  0.4655 -0.2851
  428TMC3     H 6440   2.490   1.489  15.188 -0.0743 -0.1709 -0.4454
  428TMC3    H1 6441   2.850   1.535  14.969 -3.6727  3.0171 -1.4392
  428TMC3    H2 6442   2.810   1.218  15.251  0.2676  1.4693  1.3473
  428TMC3    C7 6443   2.971   1.404  15.170  0.2744  0.8339  0.3768
  428TMC3    C8 6444   2.569   1.313  15.345  0.9503 -0.5468  0.1714
  428TMC3    O1 6445   2.988   1.363  15.286 -0.4399  0.0060 -0.0478
  428TMC3    O2 6446   2.507   1.405  15.397 -0.6562 -0.5174  0.0493
  429MPD2     C 6447   3.780   1.350   0.360 -0.5634 -0.0169 -0.6041
  429MPD2    C1 6448   3.738   1.286   0.241 -0.3066  0.3667  0.4446
  429MPD2    C2 6449   3.728   1.373   0.131  0.1675  0.4353 -0.2503
  429MPD2    C3 6450   3.758   1.507   0.133  0.1364  0.0608  1.1500
  429MPD2    C4 6451   3.801   1.556   0.252 -0.0634  0.2052 -0.3735
  429MPD2    C5 6452   3.813   1.480   0.364 -0.7208  0.0360  0.1648
  429MPD2     H 6453   3.698   1.327   0.037 -0.6152  0.0638  0.1826
  429MPD2    H1 6454   3.828   1.660   0.264  0.3801  0.3782 -2.7110
  429MPD2    H2 6455   3.796   1.300   0.455  0.2922  1.1170 -0.1638
  429MPD2    H3 6456   3.838   1.528   0.458  2.2799 -1.4819  0.1341
  429MPD2     N 6457   3.759   1.584   0.019  0.0386  0.0375 -0.3754
  429MPD2    H5 6458   3.754   1.520  17.688 -0.4912 -1.8533  1.2083
  429MPD2    N1 6459   3.705   1.150   0.229  0.0922  0.2440  0.8491
  429MPD2    H7 6460   3.681   1.109   0.139 -2.1673  0.2662  1.4633
  430TMC3    C1 6461   3.797   1.764  17.620 -0.5486  0.6042 -0.4034
  430TMC3    C2 6462   3.763   1.893  17.589  0.1432  0.2228 -0.1943
  430TMC3    C3 6463   3.815   1.955  17.477  0.5476  0.0456  0.2612
  430TMC3    C4 6464   3.885   1.701  17.544  0.3688  0.6514 -0.7767
  430TMC3    C5 6465   3.933   1.751  17.427 -0.1986  0.1511 -0.7519
  430TMC3    C6 6466   3.904   1.884  17.398 -0.4609 -0.2915  0.4191
  430TMC3     C 6467   3.770   1.722   0.012  0.1970  0.9254 -0.3077
  430TMC3     O 6468   3.757   1.816   0.091 -0.1750 -0.1124 -0.0503
  430TMC3     H 6469   3.685   1.941  17.647  0.8311 -0.1412  1.0333
  430TMC3    H1 6470   3.917   1.603  17.577  0.3040  0.5126 -1.1330
  430TMC3    H2 6471   3.953   1.924  17.310  0.2162  0.6988  1.2466
  430TMC3    C7 6472   3.963   1.651  17.324  0.0973  0.1123  0.1113
  430TMC3    C8 6473   3.733   2.056  17.411  0.1586 -0.0532 -0.2482
  430TMC3    O1 6474   3.947   1.529  17.357 -0.0575 -0.7616 -0.1152
  430TMC3    O2 6475   3.690   2.153  17.470  0.4743 -0.1933  0.4362
  431MPD2     C 6476   4.440   2.336  12.546 -0.1974  0.6583  0.3740
  431MPD2    C1 6477   4.457   2.427  12.447 -0.7021  0.2241  0.1322
  431MPD2    C2 6478   4.521   2.379  12.331  0.0561 -0.0757 -0.2091
  431MPD2    C3 6479   4.563   2.253  12.310 -0.4681  0.0264 -0.4123
  431MPD2    C4 6480   4.525   2.161  12.407  0.0505  0.1624 -1.0481
  431MPD2    C5 6481   4.465   2.205  12.524 -0.7791 -0.0788 -0.3217
  431MPD2     H 6482   4.540   2.453  12.255 -0.1208  1.8547  1.6303
  431MPD2    H1 6483   4.541   2.056  12.386 -0.9395 -0.2175  0.1280
  431MPD2    H2 6484   4.403   2.367  12.643 -1.9972 -0.3504 -0.0001
  431MPD2    H3 6485   4.423   2.138  12.599  0.7764 -0.5296  0.1540
  431MPD2     N 6486   4.626   2.207  12.198 -0.1417  0.5526  0.5075
  431MPD2    H5 6487   4.651   2.109  12.195  1.9135  0.9805  3.7398
  431MPD2    N1 6488   4.441   2.563  12.484 -0.1443 -0.6770 -0.1070
  431MPD2    H7 6489   4.407   2.570  12.580  0.7576  0.6463  0.1094
  432TMC3    C1 6490   0.022   2.215  12.011 -0.3297  0.6358 -0.1646
  432TMC3    C2 6491   0.081   2.303  11.916  0.1530 -0.0639 -0.1826
  432TMC3    C3 6492   0.217   2.301  11.900  0.1201 -0.3196  0.0515
  432TMC3    C4 6493   0.098   2.118  12.066  0.2135  0.0235  0.1768
  432TMC3    C5 6494   0.231   2.109  12.029  0.1853  0.3226  0.0365
  432TMC3    C6 6495   0.295   2.196  11.944  0.4953 -0.3182  0.3037
  432TMC3     C 6496   4.668   2.280  12.094 -0.1369  0.2243  0.5418
  432TMC3     O 6497   4.644   2.398  12.078 -0.0330 -0.1968 -0.5673
  432TMC3     H 6498   0.019   2.375  11.864  1.7473  1.3823 -0.0933
  432TMC3    H1 6499   0.056   2.045  12.134  1.6224  1.0130  2.0974
  432TMC3    H2 6500   0.402   2.192  11.932  0.3166 -2.5776 -0.7189
  432TMC3    C7 6501   0.320   2.028  12.108 -0.1148 -0.1571  0.4646
  432TMC3    C8 6502   0.275   2.425  11.852  0.0281 -0.2384 -0.1337
  432TMC3    O1 6503   0.429   1.998  12.052  0.1944  0.4819  0.0294
  432TMC3    O2 6504   0.202   2.521  11.849  0.4347 -0.6351  0.4470
  433MPD2     C 6505   3.156   0.650  10.833  0.3244 -0.6492 -0.2780
  433MPD2    C1 6506   3.283   0.704  10.847  0.0895  0.4373  0.2210
  433MPD2    C2 6507   3.316   0.757  10.967 -0.3457 -0.2932  1.3111
  433MPD2    C3 6508   3.219   0.778  11.065 -0.0070 -0.2234 -1.1592
  433MPD2    C4 6509   3.094   0.721  11.047  0.7097 -0.2743  0.4653
  433MPD2    C5 6510   3.067   0.658  10.935 -0.2268 -0.1887  0.0386
  433MPD2     H 6511   3.419   0.794  10.971  0.1426 -1.4219 -1.0000
  433MPD2    H1 6512   3.016   0.728  11.122 -1.5911  1.8149 -2.1292
  433MPD2    H2 6513   3.121   0.595  10.747 -0.4999  0.5414 -0.7113
  433MPD2    H3 6514   2.967   0.619  10.916 -1.2636  3.0568 -1.1421
  433MPD2     N 6515   3.265   0.829  11.185 -0.4605  0.1919  0.4006
  433MPD2    H5 6516   3.358   0.867  11.179 -0.7845  0.3183 -3.8091
  433MPD2    N1 6517   3.384   0.692  10.749  0.4701  0.4325  0.1679
  433MPD2    H7 6518   3.472   0.740  10.768  0.4955 -1.0804  3.9205
  434TMC3    C1 6519   3.515   0.584  10.595 -0.7136 -0.7858  0.1971
  434TMC3    C2 6520   3.598   0.536  10.692  0.2727  0.2287 -0.1383
  434TMC3    C3 6521   3.696   0.446  10.640  0.6103 -0.5028  0.2180
  434TMC3    C4 6522   3.527   0.551  10.460 -0.0108 -1.9593  0.2668
  434TMC3    C5 6523   3.616   0.448  10.424 -0.0918  0.1219  0.0429
  434TMC3    C6 6524   3.698   0.392  10.511 -0.0267  0.2249 -0.1351
  434TMC3     C 6525   3.376   0.617  10.636  0.1879  0.3716  0.5565
  434TMC3     O 6526   3.280   0.595  10.562  0.3874 -0.2096  0.0225
  434TMC3     H 6527   3.582   0.530  10.799  0.0110  2.3587 -0.0543
  434TMC3    H1 6528   3.471   0.610  10.389  1.7671 -1.5885 -0.8016
  434TMC3    H2 6529   3.777   0.329  10.473  0.6161  0.1252  1.3648
  434TMC3    C7 6530   3.593   0.388  10.292 -1.1373  0.2777  1.2155
  434TMC3    C8 6531   3.776   0.397  10.745 -1.2726  0.2597 -0.2218
  434TMC3    O1 6532   3.567   0.470  10.203  0.0450  0.1756 -0.3575
  434TMC3    O2 6533   3.807   0.478  10.830  0.1314  0.0079  0.0926
  435MPD2     C 6534   0.665   0.683  15.375 -0.2386  0.4626 -0.3633
  435MPD2    C1 6535   0.622   0.691  15.509 -0.1291 -0.1393 -0.4597
  435MPD2    C2 6536   0.705   0.659  15.612  0.0634  0.5209 -0.1090
  435MPD2    C3 6537   0.832   0.615  15.577 -0.6282 -0.2757 -0.3957
  435MPD2    C4 6538   0.878   0.604  15.447  0.7518  0.1627  0.0680
  435MPD2    C5 6539   0.789   0.639  15.347 -0.2342  0.5927  0.0212
  435MPD2     H 6540   0.678   0.681  15.714 -0.0014 -0.9859  0.1955
  435MPD2    H1 6541   0.968   0.548  15.419  0.6778  0.8145 -1.4708
  435MPD2    H2 6542   0.594   0.699  15.295 -1.6387 -1.5498  0.4782
  435MPD2    H3 6543   0.818   0.642  15.242  1.1527  0.5763  0.4075
  435MPD2     N 6544   0.915   0.579  15.687 -0.1607 -1.0613  0.2804
  435MPD2    H5 6545   0.859   0.574  15.772 -2.1503 -0.0984 -0.9818
  435MPD2    N1 6546   0.491   0.740  15.532  0.2657 -0.5380  0.4152
  435MPD2    H7 6547   0.437   0.758  15.448 -0.4843 -0.2585  0.9610
  436TMC3    C1 6548   0.098   0.756  15.773 -0.6370 -0.0650  0.7780
  436TMC3    C2 6549   0.219   0.815  15.746 -0.0882 -0.0786  0.9290
  436TMC3    C3 6550   0.286   0.780  15.632 -0.5001  0.1520  0.1154
  436TMC3    C4 6551   0.035   0.661  15.691 -0.0793 -0.3209  0.2225
  436TMC3    C5 6552   0.110   0.635  15.580 -0.0342  0.0310  0.0160
  436TMC3    C6 6553   0.234   0.689  15.552  0.1068 -0.3279  0.1578
  436TMC3     C 6554   0.003   0.813  15.865  0.5564 -1.0013  0.0419
  436TMC3     O 6555   4.643   0.753  15.906 -0.5813  1.0651 -0.3290
  436TMC3     H 6556   0.272   0.873  15.821 -0.2122  1.1080  0.0901
  436TMC3    H1 6557   4.678   0.616  15.721 -0.0636  1.3902  2.7880
  436TMC3    H2 6558   0.272   0.674  15.452  2.1266  0.2941  0.8370
  436TMC3    C7 6559   0.086   0.511  15.510 -0.3164  0.1117 -0.6984
  436TMC3    C8 6560   0.430   0.757  15.656  0.4162  0.2209  0.8091
  436TMC3    O1 6561   0.182   0.464  15.454 -0.0461 -0.1418 -0.3883
  436TMC3    O2 6562   0.483   0.761  15.767  0.3316 -0.9552 -0.3614
  437TMC3    C1 6563   3.866   2.473  13.546 -0.3773  0.2864  0.0357
  437TMC3    C2 6564   3.740   2.432  13.566 -0.5901 -0.4905 -0.1204
  437TMC3    C3 6565   3.639   2.465  13.478 -0.2869 -0.0402 -0.7502
  437TMC3    C4 6566   3.899   2.535  13.424  0.1405 -0.3006  0.3902
  437TMC3    C5 6567   3.796   2.568  13.341  0.2351 -0.1446  0.0387
  437TMC3    C6 6568   3.668   2.539  13.365 -0.0103  0.0455  0.1644
  437TMC3     C 6569   3.970   2.406  13.623  0.2572  0.4614  0.3464
  437TMC3     O 6570   3.931   2.353  13.727 -0.4217 -0.4833 -0.3070
  437TMC3     H 6571   3.721   2.375  13.657  1.7557  0.9258  1.2593
  437TMC3    H1 6572   3.998   2.580  13.414  0.0318  0.5361  2.9424
  437TMC3    H2 6573   3.591   2.550  13.290  0.8679 -0.1511 -0.7618
  437TMC3    C7 6574   3.823   2.655  13.224 -0.6490  0.0064  0.6425
  437TMC3    C8 6575   3.498   2.455  13.522  0.3184  0.6901 -0.3638
  437TMC3    O1 6576   3.723   2.716  13.188  0.3382  0.6114  0.0314
  437TMC3    O2 6577   3.479   2.379  13.621  0.1637 -0.6010 -0.3449
  438MPD2     C 6578   2.251   3.496  17.070 -0.0436  0.1366 -0.0269
  438MPD2    C1 6579   2.283   3.386  17.141  0.4748 -0.8237  0.1738
  438MPD2    C2 6580   2.231   3.373  17.271  0.2986 -0.3153 -0.6247
  438MPD2    C3 6581   2.154   3.476  17.330  0.1320  0.2032 -0.1445
  438MPD2    C4 6582   2.135   3.591  17.256 -0.9301 -0.9173  0.3529
  438MPD2    C5 6583   2.179   3.598  17.127  0.2646 -0.3792  0.1127
  438MPD2     H 6584   2.254   3.282  17.327  0.0852 -0.2795 -0.4784
  438MPD2    H1 6585   2.088   3.677  17.302 -1.0488 -0.7913  0.0007
  438MPD2    H2 6586   2.276   3.517  16.966  0.8089 -1.7088 -0.2047
  438MPD2    H3 6587   2.154   3.687  17.070  0.4163 -0.6248 -0.3410
  438MPD2     N 6588   2.098   3.470  17.467 -0.1336  0.1186 -0.1586
  438MPD2    H5 6589   2.074   3.556  17.516  1.4176 -0.0024  0.7860
  438MPD2    N1 6590   2.353   3.278  17.079 -0.6610  0.2597 -0.1638
  438MPD2    H7 6591   2.365   3.198  17.141  2.6235  0.4697 -0.5375
  439TMC3    C1 6592   2.491   3.192  16.906 -0.0603  0.3877 -0.3306
  439TMC3    C2 6593   2.474   3.131  16.785 -0.2068  0.0779 -0.7677
  439TMC3    C3 6594   2.557   3.026  16.751 -0.2453  1.1361  0.4087
  439TMC3    C4 6595   2.590   3.150  16.996 -0.1435  0.2537 -0.5899
  439TMC3    C5 6596   2.666   3.044  16.966  0.1639  0.1519 -0.3889
  439TMC3    C6 6597   2.641   2.978  16.845 -0.1182  0.6559 -0.4364
  439TMC3     C 6598   2.385   3.280  16.944 -0.0338 -0.3708 -0.1505
  439TMC3     O 6599   2.347   3.354  16.849 -0.5303  0.3711  0.3222
  439TMC3     H 6600   2.387   3.166  16.731 -0.9129 -0.9872 -0.3371
  439TMC3    H1 6601   2.609   3.204  17.088 -0.7064  1.1344 -0.9936
  439TMC3    H2 6602   2.705   2.893  16.824 -0.2368  0.6354 -0.7047
  439TMC3    C7 6603   2.762   2.999  17.063 -0.3223 -0.4445 -0.1406
  439TMC3    C8 6604   2.514   2.938  16.640  0.0154 -0.2118 -0.2070
  439TMC3    O1 6605   2.799   3.076  17.151 -0.9955  0.2078  0.1164
  439TMC3    O2 6606   2.537   2.820  16.670 -0.5070 -0.5650 -0.0650
  440MPD2     C 6607   0.917   3.887  14.775 -0.4953  0.7695  0.0888
  440MPD2    C1 6608   0.948   3.926  14.896  0.1437  0.7374 -0.2956
  440MPD2    C2 6609   1.071   3.895  14.949  0.3558 -0.6478 -0.0972
  440MPD2    C3 6610   1.155   3.800  14.886  0.1418 -0.3079 -0.3512
  440MPD2    C4 6611   1.117   3.760  14.757  0.2481  0.2577  0.1925
  440MPD2    C5 6612   1.004   3.805  14.708 -0.2399 -0.0642  0.1498
  440MPD2     H 6613   1.091   3.931  15.049 -0.2346  1.3322 -0.7027
  440MPD2    H1 6614   1.192   3.709  14.698 -0.9976 -1.4043  0.0233
  440MPD2    H2 6615   0.823   3.905  14.723 -0.1461 -0.2420 -0.8789
  440MPD2    H3 6616   0.975   3.780  14.607  0.5071 -0.7004  0.1029
  440MPD2     N 6617   1.274   3.767  14.957 -0.9966  0.4629 -0.5020
  440MPD2    H5 6618   1.283   3.797  15.053  1.2120 -1.4940 -0.0981
  440MPD2    N1 6619   0.860   4.014  14.972 -0.1398  0.0930  0.3559
  440MPD2    H7 6620   0.895   4.058  15.057  0.4692 -0.4271  0.3772
  441TMC3    C1 6621   1.471   3.680  15.018  0.1543  0.2925 -0.6991
  441TMC3    C2 6622   1.502   3.794  15.074  0.5712 -0.1958 -0.3842
  441TMC3    C3 6623   1.568   3.793  15.192  0.2564 -0.0075 -0.2643
  441TMC3    C4 6624   1.488   3.558  15.075 -0.4221 -0.0523  0.4225
  441TMC3    C5 6625   1.558   3.556  15.195  0.3309  0.3421 -0.4517
  441TMC3    C6 6626   1.601   3.672  15.255 -0.2228 -0.0480 -0.1324
  441TMC3     C 6627   1.368   3.682  14.917 -0.1196  0.0713  0.1510
  441TMC3     O 6628   1.372   3.610  14.815  0.0832 -0.1728  0.1178
  441TMC3     H 6629   1.493   3.881  15.009  2.5230  0.1955 -0.1380
  441TMC3    H1 6630   1.458   3.470  15.021 -0.0734 -0.6870  1.2521
  441TMC3    H2 6631   1.654   3.677  15.349 -0.6889  1.1603  0.0628
  441TMC3    C7 6632   1.532   3.448  15.289 -0.4782 -0.6791  0.1208
  441TMC3    C8 6633   1.557   3.910  15.271 -0.4564  0.1983  0.1059
  441TMC3    O1 6634   1.619   3.427  15.378 -0.0039  0.0298 -0.5730
  441TMC3    O2 6635   1.636   3.935  15.356  0.2950 -0.4331  0.2256
  442MPD2     C 6636   3.903   3.649  16.933  0.1976  0.0378  0.7902
  442MPD2    C1 6637   3.821   3.722  16.855  0.1307 -0.0096  0.1409
  442MPD2    C2 6638   3.792   3.677  16.732 -0.0935  0.1592  0.6733
  442MPD2    C3 6639   3.846   3.553  16.687 -0.5709  0.1237 -0.9611
  442MPD2    C4 6640   3.930   3.487  16.769  0.4069 -0.1216  0.4642
  442MPD2    C5 6641   3.965   3.531  16.891 -0.8013 -0.2125  0.0286
  442MPD2     H 6642   3.720   3.732  16.671  0.9569  0.3742 -0.3666
  442MPD2    H1 6643   3.978   3.392  16.746 -0.0934  0.4034 -2.6328
  442MPD2    H2 6644   3.928   3.668  17.037 -0.3485  2.2714  0.5283
  442MPD2    H3 6645   4.028   3.478  16.962  0.5223 -1.4227 -2.0437
  442MPD2     N 6646   3.825   3.502  16.559  0.1932 -0.4935  0.0497
  442MPD2    H5 6647   3.869   3.417  16.526 -1.1556 -1.5120  0.8576
  442MPD2    N1 6648   3.765   3.845  16.903  0.1859  0.2787  0.3331
  442MPD2    H7 6649   3.723   3.905  16.832 -1.3865  0.7837  1.6819
  443TMC3    C1 6650   3.737   4.045  17.045  0.4603 -0.3446  0.3138
  443TMC3    C2 6651   3.639   4.090  16.961  0.2105 -0.7918  0.0085
  443TMC3    C3 6652   3.581   4.216  16.996 -0.6071  0.5957  0.3109
  443TMC3    C4 6653   3.772   4.112  17.163  0.2366  0.0021 -0.1380
  443TMC3    C5 6654   3.700   4.223  17.185  0.1148  0.6422 -0.3680
  443TMC3    C6 6655   3.612   4.282  17.107  0.1193 -0.0911  0.4816
  443TMC3     C 6656   3.809   3.921  17.015  0.4644  0.0894 -0.1798
  443TMC3     O 6657   3.883   3.885  17.109 -0.1497 -0.4626 -0.7521
  443TMC3     H 6658   3.632   4.042  16.864 -0.1692 -0.4184 -0.1513
  443TMC3    H1 6659   3.868   4.099  17.211  0.2457  3.0152  0.6504
  443TMC3    H2 6660   3.562   4.375  17.133 -0.2859  0.0971 -0.9467
  443TMC3    C7 6661   3.734   4.272  17.315  0.3874 -0.9515 -0.6196
  443TMC3    C8 6662   3.487   4.277  16.906  0.4301  0.1415 -0.1833
  443TMC3    O1 6663   3.853   4.299  17.324  0.4487 -0.7369 -0.0140
  443TMC3    O2 6664   3.479   4.399  16.910 -0.4693  0.5861 -0.2417
  444MPD2     C 6665   4.289   3.694  17.337 -0.3804 -0.0748 -0.2668
  444MPD2    C1 6666   4.208   3.742  17.242  1.0136 -0.0960  0.9191
  444MPD2    C2 6667   4.224   3.705  17.111  0.6983 -0.2491  0.2897
  444MPD2    C3 6668   4.333   3.623  17.071  0.2667  0.8972  0.7433
  444MPD2    C4 6669   4.425   3.586  17.169  0.7327  0.6207  0.2553
  444MPD2    C5 6670   4.401   3.627  17.297  1.7290  0.1126 -0.4842
  444MPD2     H 6671   4.149   3.736  17.039  0.8957  1.9172  1.0377
  444MPD2    H1 6672   4.521   3.536  17.159  0.7060  0.3891  1.1618
  444MPD2    H2 6673   4.265   3.713  17.441 -0.6426  1.6863 -0.6502
  444MPD2    H3 6674   4.476   3.599  17.371  0.9724  0.7566  0.5247
  444MPD2     N 6675   4.343   3.592  16.935  0.7462  0.0573 -0.7345
  444MPD2    H5 6676   4.271   3.610  16.866 -0.8024 -0.3795  0.7575
  444MPD2    N1 6677   4.095   3.824  17.269 -0.0782 -0.3465  0.1240
  444MPD2    H7 6678   4.021   3.837  17.200  0.4945 -0.3471 -0.4863
  445TMC3    C1 6679   4.467   3.517  16.740  0.9517 -0.2850  0.4073
  445TMC3    C2 6680   4.371   3.430  16.706 -0.4631  0.2544 -0.7400
  445TMC3    C3 6681   4.398   3.356  16.595  0.0072  0.4533 -0.4151
  445TMC3    C4 6682   4.592   3.516  16.686 -0.5117 -0.3517 -0.1349
  445TMC3    C5 6683   4.606   3.452  16.566  0.2260  0.6946 -0.1251
  445TMC3    C6 6684   4.507   3.378  16.508  0.1897  0.1318  0.7350
  445TMC3     C 6685   4.465   3.561  16.880  0.2707 -0.1580  0.1208
  445TMC3     O 6686   4.575   3.583  16.931  0.3655 -0.3788 -0.0164
  445TMC3     H 6687   4.285   3.415  16.770  0.0106  0.3621 -0.0799
  445TMC3    H1 6688   4.667   3.589  16.715 -0.8326 -0.6921  1.5192
  445TMC3    H2 6689   4.519   3.330  16.411 -0.3238  0.3443  0.5688
  445TMC3    C7 6690   4.737   3.421  16.519  0.3584  0.4104  0.5133
  445TMC3    C8 6691   4.324   3.229  16.574  1.0216  0.5801 -0.2713
  445TMC3    O1 6692   0.019   3.411  16.399  0.1790 -0.6705  0.0208
  445TMC3    O2 6693   4.222   3.212  16.639  0.7370 -0.8038 -0.5575
  446MPD2     C 6694   3.463   0.134  11.198  0.0540  0.0499 -0.3575
  446MPD2    C1 6695   3.423   0.211  11.088  0.6201 -0.8377 -0.5744
  446MPD2    C2 6696   3.487   0.333  11.067  0.7822  0.0974 -0.0061
  446MPD2    C3 6697   3.602   0.364  11.136 -0.0417 -0.2016 -0.4427
  446MPD2    C4 6698   3.654   0.275  11.224 -0.1393  0.1957  0.1448
  446MPD2    C5 6699   3.575   0.174  11.274 -0.0228  0.5343  1.0422
  446MPD2     H 6700   3.448   0.406  10.996 -0.0581 -1.3851 -1.0509
  446MPD2    H1 6701   3.757   0.281  11.258  0.1966 -2.0307 -0.4649
  446MPD2    H2 6702   3.408   0.048  11.235  1.4373 -1.4485 -1.7491
  446MPD2    H3 6703   3.621   0.101  11.339  0.0816 -0.2981  0.0398
  446MPD2     N 6704   3.657   0.493  11.106  0.2743  0.5742 -0.1605
  446MPD2    H5 6705   3.614   0.546  11.031 -0.5093  0.2570  0.0679
  446MPD2    N1 6706   3.310   0.187  11.011  0.7250  0.4786  0.7079
  446MPD2    H7 6707   3.294   0.255  10.938  0.7213 -1.1372 -0.7876
  447TMC3    C1 6708   3.809   0.674  11.110  0.3353 -0.3397 -0.0026
  447TMC3    C2 6709   3.730   0.738  11.023  0.1865 -0.5009 -0.0498
  447TMC3    C3 6710   3.788   0.832  10.945  0.1798 -0.5759  0.2444
  447TMC3    C4 6711   3.939   0.707  11.132 -0.2715  0.5503 -0.1289
  447TMC3    C5 6712   3.989   0.809  11.053  0.1971  0.0185 -0.1721
  447TMC3    C6 6713   3.912   0.873  10.963 -0.2504 -0.0252 -0.5562
  447TMC3     C 6714   3.778   0.546  11.156 -0.2083 -0.0424  0.2001
  447TMC3     O 6715   3.852   0.496  11.238 -0.1328 -0.3145 -0.4631
  447TMC3     H 6716   3.625   0.721  11.000  0.2301 -0.1441 -0.5062
  447TMC3    H1 6717   3.998   0.658  11.208 -1.4494  1.9079  1.6705
  447TMC3    H2 6718   3.938   0.953  10.894  0.1292  0.0973 -0.2715
  447TMC3    C7 6719   4.128   0.832  11.037 -0.6872  0.0238  0.4672
  447TMC3    C8 6720   3.730   0.844  10.814  0.0973  0.4595 -0.1917
  447TMC3    O1 6721   4.159   0.894  10.934 -0.7308 -0.4807 -0.0550
  447TMC3    O2 6722   3.609   0.827  10.798  0.3969 -0.1385  0.1698
  448TMC3    C1 6723   1.845   4.388  17.481  0.4794 -0.1075 -0.0481
  448TMC3    C2 6724   1.974   4.340  17.451  0.2697 -0.0176  0.6946
  448TMC3    C3 6725   2.041   4.261  17.544  0.2009  0.0911  0.2749
  448TMC3    C4 6726   1.793   4.334  17.592 -0.2228  0.3910 -0.0741
  448TMC3    C5 6727   1.861   4.254  17.676  0.3621  0.5737  0.3194
  448TMC3    C6 6728   1.988   4.214  17.658 -0.6750  0.2312  0.5249
  448TMC3     C 6729   1.782   4.501  17.404 -0.0915 -0.1229  0.1753
  448TMC3     O 6730   1.859   4.544  17.316  0.6794  0.2354  0.4331
  448TMC3     H 6731   2.020   4.376  17.360 -1.3491  1.0193  0.2963
  448TMC3    H1 6732   1.686   4.339  17.614  0.2912  0.5580  2.4335
  448TMC3    H2 6733   2.041   4.144  17.721 -0.3162 -1.1886 -1.3717
  448TMC3    C7 6734   1.800   4.227   0.063  0.4382  0.3179  0.7842
  448TMC3    C8 6735   2.173   4.209  17.514 -0.4287  0.5272  0.6154
  448TMC3    O1 6736   1.680   4.254   0.071 -0.0083 -0.4693 -0.0074
  448TMC3    O2 6737   2.211   4.106  17.564  0.7573  0.3668  0.2942
  449MPD2     C 6738   3.221   2.974  14.163  0.2661 -0.1630 -0.0002
  449MPD2    C1 6739   3.152   3.089  14.131  0.2024 -0.5462 -0.7694
  449MPD2    C2 6740   3.023   3.107  14.167  0.0699  0.7425 -0.3434
  449MPD2    C3 6741   2.965   3.016  14.251 -0.4564  0.6306  0.0096
  449MPD2    C4 6742   3.039   2.910  14.300 -0.5376  0.1985  0.4886
  449MPD2    C5 6743   3.158   2.882  14.249  0.8277 -0.4172  0.0597
  449MPD2     H 6744   2.977   3.202  14.145 -0.8905  0.2774 -0.3482
  449MPD2    H1 6745   2.997   2.849  14.378  0.8201  1.5098  2.2629
  449MPD2    H2 6746   3.324   2.956  14.133 -0.0456  1.6059 -2.1956
  449MPD2    H3 6747   3.213   2.793  14.277 -0.0435 -0.5266  1.4305
  449MPD2     N 6748   2.827   3.042  14.286  0.2352  0.1582  0.2455
  449MPD2    H5 6749   2.770   3.102  14.227  0.5577 -0.3788 -0.6085
  449MPD2    N1 6750   3.201   3.188  14.051  0.2102  0.0017  0.3467
  449MPD2    H7 6751   3.143   3.271  14.038  0.7404  0.4946  1.0970
  450TMC3    C1 6752   3.331   3.328  13.910 -0.1435  0.5193  0.2332
  450TMC3    C2 6753   3.372   3.348  13.784  0.1853  0.2184  0.2334
  450TMC3    C3 6754   3.316   3.458  13.724 -0.9977  0.5740  0.4935
  450TMC3    C4 6755   3.267   3.429  13.980  0.0802  1.1801 -0.4402
  450TMC3    C5 6756   3.201   3.532  13.918  0.3580 -0.4405  0.4671
  450TMC3    C6 6757   3.236   3.548  13.787  0.1897  0.2994  0.7111
  450TMC3     C 6758   3.309   3.189  13.970  0.0461  0.6596 -0.5641
  450TMC3     O 6759   3.391   3.107  13.945 -0.0005 -0.0909 -0.3917
  450TMC3     H 6760   3.405   3.259  13.732  0.8406  0.5673  0.0485
  450TMC3    H1 6761   3.250   3.419  14.086  0.0519 -0.2059 -0.5746
  450TMC3    H2 6762   3.187   3.621  13.724  1.8438  1.4003  0.7130
  450TMC3    C7 6763   3.059   3.522  13.951  1.1298 -0.4811  0.6058
  450TMC3    C8 6764   3.356   3.497  13.591 -0.3703  1.1839  0.3865
  450TMC3    O1 6765   3.028   3.409  13.986 -0.7150 -1.1439  0.6050
  450TMC3    O2 6766   3.276   3.563  13.522 -0.3963  0.5324 -0.1949
  451MPD2     C 6767   0.171   2.331   2.012  0.2152  0.8766  0.1282
  451MPD2    C1 6768   0.149   2.286   1.880  0.1444 -0.1875  1.1388
  451MPD2    C2 6769   0.065   2.183   1.869 -0.3263  0.5766  0.0572
  451MPD2    C3 6770   4.735   2.126   1.977  0.0096  0.1984 -0.3824
  451MPD2    C4 6771   0.023   2.162   2.108  0.6082 -0.6533  0.5785
  451MPD2    C5 6772   0.104   2.269   2.122  0.4056  0.0773  0.0437
  451MPD2     H 6773   0.040   2.136   1.774 -1.7756  2.0624 -0.3007
  451MPD2    H1 6774   4.711   2.111   2.190 -0.5019 -1.2935 -0.4958
  451MPD2    H2 6775   0.238   2.411   2.042  1.3709 -0.7035  1.7360
  451MPD2    H3 6776   0.127   2.305   2.222 -2.6269  0.6347  0.5329
  451MPD2     N 6777   4.651   2.013   1.966 -0.5069  0.5209  1.0426
  451MPD2    H5 6778   4.631   1.974   2.058  1.6223  0.0534  1.2916
  451MPD2    N1 6779   0.233   2.344   1.782  0.5603  0.0829  0.6273
  451MPD2    H7 6780   0.314   2.392   1.819  1.9777 -1.0469 -1.0457
  452TMC3    C1 6781   4.562   1.812   1.881 -0.3079 -0.2700 -0.2011
  452TMC3    C2 6782   4.533   1.770   2.008 -0.8074 -0.1525  0.6086
  452TMC3    C3 6783   4.482   1.640   2.012  0.5273  0.3313  0.6300
  452TMC3    C4 6784   4.543   1.736   1.773 -0.1898 -0.0254  0.3816
  452TMC3    C5 6785   4.493   1.609   1.785  0.5036 -0.6205 -0.9460
  452TMC3    C6 6786   4.470   1.557   1.904 -0.5577 -0.0035 -0.5558
  452TMC3     C 6787   4.609   1.949   1.854  0.0179  0.6738  0.8172
  452TMC3     O 6788   4.614   1.989   1.738  0.0254 -0.0833 -0.1879
  452TMC3     H 6789   4.552   1.835   2.092 -0.7825  1.1019 -0.3767
  452TMC3    H1 6790   4.571   1.770   1.674  0.0593 -2.1523 -0.2854
  452TMC3    H2 6791   4.463   1.450   1.922  0.4716  0.4631  2.5977
  452TMC3    C7 6792   4.501   1.522   1.670  0.5189 -0.2564 -0.7574
  452TMC3    C8 6793   4.454   1.582   2.138 -0.0688 -0.2956 -1.1347
  452TMC3    O1 6794   4.569   1.557   1.576  0.1116  0.1511 -0.4995
  452TMC3    O2 6795   4.413   1.468   2.140 -0.0383  0.4623 -0.0648
  453TMC3    C1 6796   1.292   4.066  11.584 -0.1507 -0.3901 -0.6121
  453TMC3    C2 6797   1.189   3.998  11.653 -0.0926 -0.1284 -0.1448
  453TMC3    C3 6798   1.060   4.038  11.639  0.3896  0.4842 -0.1411
  453TMC3    C4 6799   1.250   4.160  11.498  0.0774 -0.1585 -0.5313
  453TMC3    C5 6800   1.117   4.197  11.485  0.3236 -0.2137 -0.5292
  453TMC3    C6 6801   1.017   4.126  11.545 -0.1661 -0.0198 -0.0485
  453TMC3     C 6802   1.412   4.076  11.653  0.8932 -0.7144  0.4853
  453TMC3     O 6803   1.479   4.177  11.639  0.3354  0.1654  0.1122
  453TMC3     H 6804   1.217   3.947  11.745 -1.2481 -2.0473 -0.8487
  453TMC3    H1 6805   1.324   4.209  11.436 -0.3419 -0.5003 -1.2978
  453TMC3    H2 6806   0.910   4.141  11.532 -0.6960 -2.5119  1.5477
  453TMC3    C7 6807   1.096   4.338  11.450  0.5656 -0.2643  0.2401
  453TMC3    C8 6808   0.973   4.007  11.753  0.1456 -0.1240 -0.1002
  453TMC3    O1 6809   1.199   4.404  11.438  0.1239  0.4140  0.1387
  453TMC3    O2 6810   0.889   4.092  11.782  0.2108  0.3640  0.2199
  454MPD2     C 6811   0.079   3.664  16.166 -0.1261  0.4448 -0.2941
  454MPD2    C1 6812   4.729   3.703  16.068  0.0457  0.3541 -0.1393
  454MPD2    C2 6813   4.615   3.778  16.101 -0.3528 -0.0982  0.0076
  454MPD2    C3 6814   4.589   3.808  16.230 -1.0886 -0.1832 -0.4525
  454MPD2    C4 6815   4.676   3.765  16.325  0.0209 -0.3337 -0.4757
  454MPD2    C5 6816   0.054   3.694  16.298  0.1710 -0.6172 -0.6277
  454MPD2     H 6817   4.544   3.800  16.022  1.1730 -3.9878 -2.4731
  454MPD2    H1 6818   4.647   3.793  16.426 -0.7069  0.5088 -0.9069
  454MPD2    H2 6819   0.160   3.595  16.146  0.8265  1.9123 -1.5336
  454MPD2    H3 6820   0.122   3.654  16.372 -1.1847  2.7202  2.4226
  454MPD2     N 6821   4.458   3.854  16.277  0.0792  0.2890  0.5661
  454MPD2    H5 6822   4.441   3.830  16.375  2.0205 -0.5712  0.6930
  454MPD2    N1 6823   0.005   3.656  15.936  0.9073 -0.6056  0.6784
  454MPD2    H7 6824   4.677   3.683  15.863  1.6328  0.3993  0.4074
  455TMC3    C1 6825   4.234   3.824  16.245  0.0210  0.1340  0.5202
  455TMC3    C2 6826   4.179   3.850  16.364 -0.1090  0.7219 -0.1227
  455TMC3    C3 6827   4.140   3.754  16.449  0.2216 -0.2992  0.0309
  455TMC3    C4 6828   4.255   3.694  16.202 -0.7456 -0.0319  0.0709
  455TMC3    C5 6829   4.209   3.599  16.292 -0.1623 -0.1247 -0.6177
  455TMC3    C6 6830   4.156   3.627  16.411 -0.2122 -0.1262 -0.8692
  455TMC3     C 6831   4.349   3.892  16.198 -0.1084  0.1056  0.5183
  455TMC3     O 6832   4.341   3.924  16.076 -0.6851 -0.2892 -0.6617
  455TMC3     H 6833   4.174   3.957  16.383 -1.2875  0.8787 -1.3136
  455TMC3    H1 6834   4.281   3.680  16.098 -1.3404  1.6346 -0.3093
  455TMC3    H2 6835   4.138   3.546  16.481  1.6564  1.1322  1.0720
  455TMC3    C7 6836   4.239   3.459  16.259  0.4553 -0.5489 -0.1206
  455TMC3    C8 6837   4.111   3.780  16.588  0.8494 -0.7156 -0.5882
  455TMC3    O1 6838   4.166   3.382  16.318  0.0032  0.4352  0.1322
  455TMC3    O2 6839   4.156   3.691  16.663 -0.0947 -0.5156  0.0958
  456MPD2     C 6840   2.706   3.352  16.519  0.3930  0.7715  0.0456
  456MPD2    C1 6841   2.782   3.286  16.611 -0.2313 -0.0565  0.5959
  456MPD2    C2 6842   2.805   3.337  16.735 -0.3020 -0.1602 -0.0507
  456MPD2    C3 6843   2.736   3.448  16.774  0.1879  0.3374  0.4680
  456MPD2    C4 6844   2.657   3.518  16.686  1.0215 -0.1430  0.7706
  456MPD2    C5 6845   2.638   3.458  16.566  0.3975 -0.1708 -0.2048
  456MPD2     H 6846   2.869   3.287  16.807  0.1616  1.4876  0.6856
  456MPD2    H1 6847   2.594   3.604  16.704 -0.7477 -1.3613  0.4116
  456MPD2    H2 6848   2.687   3.328  16.415  0.0845 -0.0586  0.2957
  456MPD2    H3 6849   2.568   3.501  16.496 -0.5184 -0.5703  0.4695
  456MPD2     N 6850   2.728   3.486  16.907  0.2890  0.2473  0.4357
  456MPD2    H5 6851   2.781   3.427  16.971 -0.4562 -1.0895 -0.1672
  456MPD2    N1 6852   2.830   3.155  16.583  0.2932  0.8174  0.2204
  456MPD2    H7 6853   2.881   3.114  16.661  1.3117  0.9794 -0.3505
  457TMC3    C1 6854   2.657   3.603  17.097 -0.0399 -0.7263 -0.3206
  457TMC3    C2 6855   2.648   3.728  17.157  0.0323 -0.6659 -0.7716
  457TMC3    C3 6856   2.597   3.730  17.289 -0.1399  0.1917  0.3246
  457TMC3    C4 6857   2.630   3.477  17.158 -0.2588 -0.7048  0.3155
  457TMC3    C5 6858   2.582   3.493  17.279 -0.2776  0.6209  0.2784
  457TMC3    C6 6859   2.564   3.614  17.346  0.4013  0.4634 -0.4256
  457TMC3     C 6860   2.685   3.609  16.956 -0.1907  0.6423 -0.1829
  457TMC3     O 6861   2.670   3.720  16.903 -0.1771 -0.7393 -0.4990
  457TMC3     H 6862   2.672   3.822  17.108  1.0384 -1.0531 -1.0145
  457TMC3    H1 6863   2.638   3.382  17.106  1.0336 -0.5432  0.2234
  457TMC3    H2 6864   2.525   3.624  17.446 -0.4618 -0.2778 -0.6815
  457TMC3    C7 6865   2.570   3.370  17.357 -0.5782 -0.2123  0.1200
  457TMC3    C8 6866   2.548   3.855  17.348 -0.2630  0.2217 -0.0113
  457TMC3    O1 6867   2.642   3.278  17.317  0.0441  0.5799 -0.3000
  457TMC3    O2 6868   2.479   3.846  17.449 -0.1196  0.8806  0.0689
  458MPD2     C 6869   4.109   2.898  12.863  0.3266 -0.5819  0.1025
  458MPD2    C1 6870   4.192   2.833  12.955 -0.5571 -0.2765  0.7571
  458MPD2    C2 6871   4.136   2.759  13.063 -0.8852 -0.0729  0.1151
  458MPD2    C3 6872   4.000   2.756  13.078 -0.4980  0.1219 -0.6637
  458MPD2    C4 6873   3.919   2.824  12.988 -0.3084  0.4149  0.5081
  458MPD2    C5 6874   3.975   2.892  12.881 -0.9220  0.1459  0.5896
  458MPD2     H 6875   4.201   2.697  13.123 -1.2174 -0.1052  0.4419
  458MPD2    H1 6876   3.812   2.816  13.001  0.3185 -3.3739  3.2513
  458MPD2    H2 6877   4.148   2.954  12.779  0.2489 -2.5505 -1.2204
  458MPD2    H3 6878   3.908   2.943  12.813 -2.0280 -0.0566  1.5405
  458MPD2     N 6879   3.954   2.672  13.183 -0.9948 -0.0758 -0.5212
  458MPD2    H5 6880   4.022   2.602  13.212 -0.4781  1.3609  1.6571
  458MPD2    N1 6881   4.330   2.852  12.953 -0.6254  0.4255 -0.1151
  458MPD2    H7 6882   4.380   2.806  13.029  1.3650  0.9018 -1.1299
  459TMC3    C1 6883   4.537   2.924  12.885  0.0915  0.2072 -0.6955
  459TMC3    C2 6884   4.613   3.023  12.828 -1.0142  0.0261  0.0219
  459TMC3    C3 6885   4.712   3.086  12.898  0.5659  0.0801 -0.4516
  459TMC3    C4 6886   4.575   2.880  13.005  0.0046 -0.1121 -0.3911
  459TMC3    C5 6887   4.672   2.944  13.078  0.2000  0.0884  0.1081
  459TMC3    C6 6888   0.006   3.050  13.022 -0.1946  0.4416  0.0756
  459TMC3     C 6889   4.402   2.911  12.850  0.0888  0.4511  0.0205
  459TMC3     O 6890   4.359   2.976  12.756  0.3000  0.0615  0.4006
  459TMC3     H 6891   4.582   3.068  12.734  2.2286 -0.4925 -1.2727
  459TMC3    H1 6892   4.527   2.789  13.038 -0.0828  0.7354  1.7850
  459TMC3    H2 6893   0.085   3.105  13.072  0.6542 -0.5017 -0.2339
  459TMC3    C7 6894   4.699   2.890  13.214  0.5333  0.1886 -0.0960
  459TMC3    C8 6895   0.075   3.162  12.822  0.8564 -0.4309 -0.0901
  459TMC3    O1 6896   4.631   2.801  13.262  0.0750  0.5608 -0.1785
  459TMC3    O2 6897   0.181   3.174  12.883 -0.0209 -0.3288  0.0578
  460MPD2     C 6898   3.915   0.750  10.501  0.9199 -0.1350  0.1749
  460MPD2    C1 6899   3.807   0.806  10.577 -0.1783  1.0767  0.1611
  460MPD2    C2 6900   3.698   0.849  10.508 -0.4723 -0.0330  0.6784
  460MPD2    C3 6901   3.686   0.837  10.369 -0.0103  0.2036 -0.6287
  460MPD2    C4 6902   3.783   0.759  10.302 -0.2490  0.6797 -0.4567
  460MPD2    C5 6903   3.896   0.717  10.372  0.0798  0.2226 -0.2807
  460MPD2     H 6904   3.618   0.903  10.558  0.5431  2.3101 -0.2537
  460MPD2    H1 6905   3.784   0.743  10.194  0.5625  1.1078 -0.5116
  460MPD2    H2 6906   4.005   0.731  10.558  1.4030  0.6659 -0.3120
  460MPD2    H3 6907   3.973   0.665  10.315 -0.9136  0.2210 -1.6070
  460MPD2     N 6908   3.579   0.891  10.289 -0.2638 -0.7222  0.7237
  460MPD2    H5 6909   3.562   0.844  10.201 -1.1271 -1.6805  1.4079
  460MPD2    N1 6910   3.830   0.816  10.721 -1.0099  0.3786 -0.0889
  460MPD2    H7 6911   3.913   0.776  10.763 -1.8038 -0.4658  0.7008
  461TMC3    C1 6912   3.443   1.062  10.207 -0.0073  0.2393 -0.5118
  461TMC3    C2 6913   3.395   0.981  10.100 -0.7899  0.0626 -0.0110
  461TMC3    C3 6914   3.326   1.049  10.002  0.2417 -0.0754 -0.3124
  461TMC3    C4 6915   3.409   1.193  10.215 -0.1349  0.3927  0.3277
  461TMC3    C5 6916   3.337   1.258  10.115  0.5883  0.6231 -0.4430
  461TMC3    C6 6917   3.289   1.183  10.012  0.0426 -0.6668  0.0611
  461TMC3     C 6918   3.506   0.998  10.327 -0.1843 -0.2482  0.0784
  461TMC3     O 6919   3.506   1.058  10.434  0.0609 -0.0749 -0.0945
  461TMC3     H 6920   3.415   0.876  10.085  0.1629  0.3032 -0.4059
  461TMC3    H1 6921   3.445   1.241  10.305  1.4389 -0.1947  0.0150
  461TMC3    H2 6922   3.225   1.235   9.941  0.2762  0.9174  1.0069
  461TMC3    C7 6923   3.356   1.400  10.095  0.2898 -0.4225 -0.3461
  461TMC3    C8 6924   3.271   0.989   9.883 -0.5813 -0.3843  0.4739
  461TMC3    O1 6925   3.288   1.452  10.006  0.0388 -0.1959  0.1629
  461TMC3    O2 6926   3.154   0.998   9.849  0.0268 -0.7655 -0.4386
  462TMC3    C1 6927   4.151   1.500   0.131  0.4332  0.2944 -0.2535
  462TMC3    C2 6928   4.152   1.413   0.025  0.1687  0.5810 -0.5419
  462TMC3    C3 6929   4.115   1.282   0.051  0.3655  0.4153 -0.0294
  462TMC3    C4 6930   4.127   1.456   0.253  0.1466 -0.1169  0.3132
  462TMC3    C5 6931   4.116   1.320   0.276 -0.1788  0.0111  0.7340
  462TMC3    C6 6932   4.117   1.231   0.176 -0.7456 -0.2856 -0.1836
  462TMC3     C 6933   4.152   1.646   0.105  0.1786 -0.7490  0.9207
  462TMC3     O 6934   4.094   1.720   0.180 -0.3918 -0.4423  0.0873
  462TMC3     H 6935   4.156   1.448  17.669  1.5692  0.1691 -0.6349
  462TMC3    H1 6936   4.135   1.520   0.340  0.9812  0.4939 -0.2119
  462TMC3    H2 6937   4.080   1.132   0.202 -1.3072 -0.3540 -1.2461
  462TMC3    C7 6938   4.096   1.255   0.402  0.2205  0.7240  0.8036
  462TMC3    C8 6939   4.004   1.224  17.718 -0.0858  0.0415  0.1758
  462TMC3    O1 6940   4.129   1.134   0.409 -0.0684  0.0457 -0.0623
  462TMC3    O2 6941   3.947   1.313  17.660 -0.1539 -0.0902  0.0508
  463MPD2     C 6942   0.308   4.373   1.927 -0.3478  0.1469 -0.7758
  463MPD2    C1 6943   0.203   4.420   1.852  0.0427  0.3551  0.5696
  463MPD2    C2 6944   0.201   4.553   1.821  0.0919 -0.4040 -0.3302
  463MPD2    C3 6945   0.303   4.637   1.865 -0.2698 -0.3890  0.4011
  463MPD2    C4 6946   0.405   4.593   1.942 -1.1124  0.3078 -0.1770
  463MPD2    C5 6947   0.409   4.461   1.966 -0.5139 -0.2119  0.3439
  463MPD2     H 6948   0.124   4.592   1.755 -0.9932 -1.2473  0.4447
  463MPD2    H1 6949   0.492   4.656   1.958 -0.4753 -0.4914 -0.5323
  463MPD2    H2 6950   0.321   4.266   1.936 -1.7389  0.0451  0.0315
  463MPD2    H3 6951   0.508   4.428   1.996 -0.5635 -0.1105  0.6193
  463MPD2     N 6952   0.325   0.040   1.828 -0.0400 -0.4742 -0.5011
  463MPD2    H5 6953   0.399   0.093   1.872 -1.1097  1.1127 -0.6089
  463MPD2    N1 6954   0.103   4.332   1.788  0.3478 -0.0126  0.1248
  463MPD2    H7 6955   0.034   4.376   1.728  0.5603  1.0236  0.6498
  464TMC3    C1 6956   0.014   4.148   1.688 -0.4733  0.1794 -0.3133
  464TMC3    C2 6957   4.627   4.208   1.675 -0.3943  0.3426  0.0430
  464TMC3    C3 6958   4.536   4.127   1.617 -0.3321 -0.0110  0.1315
  464TMC3    C4 6959   0.046   4.018   1.646 -0.4615 -0.3432 -0.6547
  464TMC3    C5 6960   4.688   3.955   1.580 -0.4502  0.0053  0.0124
  464TMC3    C6 6961   4.564   4.001   1.566 -0.1210 -0.2938  0.2095
  464TMC3     C 6962   0.109   4.196   1.784 -0.1127 -0.2941 -0.5400
  464TMC3     O 6963   0.186   4.114   1.838 -0.4980 -0.1442 -0.1630
  464TMC3     H 6964   4.592   4.298   1.725 -1.1229 -0.4363  0.9392
  464TMC3    H1 6965   0.140   3.970   1.670 -0.0289  0.9506  0.2606
  464TMC3    H2 6966   4.497   3.938   1.508 -0.0755 -1.0728  1.0187
  464TMC3    C7 6967   0.002   3.856   1.485 -0.2549 -0.3924 -0.5239
  464TMC3    C8 6968   4.409   4.189   1.596 -0.1443 -0.1815  0.7476
  464TMC3    O1 6969   0.119   3.820   1.506 -0.0667 -0.6728  0.5992
  464TMC3    O2 6970   4.383   4.299   1.638 -0.1273  0.3790  0.3372
  465MPD2     C 6971   1.863   3.802  17.287  0.2920 -0.2872 -0.4788
  465MPD2    C1 6972   1.740   3.739  17.281  0.0115 -0.0965  0.2918
  465MPD2    C2 6973   1.691   3.722  17.155  0.3513  0.0856  0.1252
  465MPD2    C3 6974   1.750   3.783  17.041 -0.1277 -0.5547 -0.8908
  465MPD2    C4 6975   1.873   3.843  17.051  0.1192  0.8397 -0.3530
  465MPD2    C5 6976   1.923   3.854  17.176  0.0595  0.5172 -0.6933
  465MPD2     H 6977   1.599   3.667  17.142  1.2535 -1.2604 -0.5686
  465MPD2    H1 6978   1.919   3.893  16.967 -0.5494 -0.4240 -1.4704
  465MPD2    H2 6979   1.907   3.815  17.385 -1.0835  0.5539  0.0243
  465MPD2    H3 6980   2.021   3.901  17.181  1.8342 -3.1739 -0.9616
  465MPD2     N 6981   1.664   3.779  16.931  0.1674  0.3631  0.1255
  465MPD2    H5 6982   1.568   3.752  16.947  0.2954  0.8261  1.6569
  465MPD2    N1 6983   1.672   3.678  17.392  0.2074 -0.5976 -0.0243
  465MPD2    H7 6984   1.585   3.629  17.372 -0.8045  0.6048  1.4367
  466TMC3    C1 6985   1.333   3.792  16.738 -0.4421  0.5266  0.4957
  466TMC3    C2 6986   1.308   3.914  16.691 -0.3886  0.8236 -0.1535
  466TMC3    C3 6987   1.414   4.004  16.675 -0.0889 -0.3873  0.3157
  466TMC3    C4 6988   1.465   3.761  16.774  0.2415 -0.7732 -0.4361
  466TMC3    C5 6989   1.566   3.849  16.741 -0.4633  0.2502  0.1776
  466TMC3    C6 6990   1.543   3.975  16.692  0.1616  0.6900 -0.3013
  466TMC3     C 6991   1.225   3.725  16.805 -0.5841 -0.1421 -0.3214
  466TMC3     O 6992   1.262   3.664  16.901 -0.2189  0.4898  0.6181
  466TMC3     H 6993   1.206   3.950  16.678 -0.5778 -0.1009 -1.2194
  466TMC3    H1 6994   1.484   3.667  16.824 -0.5744 -0.1687  1.0253
  466TMC3    H2 6995   1.623   4.047  16.682  1.3325 -0.4487  0.8984
  466TMC3    C7 6996   1.693   3.837  16.806  0.7235 -0.0448 -0.0165
  466TMC3    C8 6997   1.381   4.143  16.646 -0.2892 -0.3001  0.6036
  466TMC3    O1 6998   1.795   3.890  16.769  0.4626  0.1432 -0.5847
  466TMC3    O2 6999   1.461   4.212  16.582 -0.0672 -0.1739  0.2493
  467TMC3    C1 7000   2.024   2.574  14.101 -0.2741 -0.1628  0.2422
  467TMC3    C2 7001   2.072   2.679  14.018 -0.5061  0.2656 -0.0197
  467TMC3    C3 7002   2.054   2.673  13.882  0.1972  0.7131  0.0978
  467TMC3    C4 7003   1.955   2.461  14.052  0.2928  0.2036 -0.1653
  467TMC3    C5 7004   1.936   2.461  13.906 -0.2789  0.2299 -0.0519
  467TMC3    C6 7005   1.983   2.568  13.830 -0.7439  0.4093 -0.7612
  467TMC3     C 7006   2.106   2.543  14.211  1.0603 -0.1426 -0.5529
  467TMC3     O 7007   2.067   2.446  14.277  0.2078  0.1711 -0.0836
  467TMC3     H 7008   2.123   2.768  14.054 -1.5795  0.0540  2.0349
  467TMC3    H1 7009   1.916   2.377  14.108 -0.3930 -0.1804 -1.2246
  467TMC3    H2 7010   1.942   2.580  13.730 -0.6074  1.4073 -0.6919
  467TMC3    C7 7011   1.826   2.385  13.848  0.7100 -1.2627 -0.2245
  467TMC3    C8 7012   2.154   2.733  13.794  0.4643 -0.8238 -0.1874
  467TMC3    O1 7013   1.833   2.375  13.725 -0.1603  0.5038 -0.3044
  467TMC3    O2 7014   2.234   2.808  13.844 -0.5132  0.4894  0.5065
  468MPD2     C 7015   0.563   1.137  10.892  0.1970 -0.7521  0.4189
  468MPD2    C1 7016   0.696   1.128  10.911 -0.3321  0.2500 -0.7855
  468MPD2    C2 7017   0.755   1.004  10.901  0.2014  0.7398  0.1235
  468MPD2    C3 7018   0.679   0.893  10.877  0.2701 -0.7135  0.5252
  468MPD2    C4 7019   0.539   0.908  10.870 -0.0760  0.0234 -0.1852
  468MPD2    C5 7020   0.484   1.037  10.869  0.7118 -0.1185  0.0556
  468MPD2     H 7021   0.863   0.993  10.891  0.2255  0.3192  0.7900
  468MPD2    H1 7022   0.477   0.819  10.871 -2.1261  1.4436 -0.5505
  468MPD2    H2 7023   0.518   1.236  10.893  2.4092  0.2729 -2.6200
  468MPD2    H3 7024   0.378   1.061  10.867  0.2332 -2.0741  1.6745
  468MPD2     N 7025   0.735   0.761  10.877  1.2449 -0.2112  0.9372
  468MPD2    H5 7026   0.662   0.692  10.865  1.1759 -0.1656  1.0947
  468MPD2    N1 7027   0.776   1.242  10.915 -0.6237  0.5589  0.0994
  468MPD2    H7 7028   0.876   1.226  10.919 -0.6969  0.2515  0.6687
  469TMC3    C1 7029   0.843   1.467  10.904 -0.2415 -1.0656 -0.4085
  469TMC3    C2 7030   0.969   1.424  10.945 -0.1084  0.2418  0.1814
  469TMC3    C3 7031   1.069   1.512  10.917  0.1648 -0.4228  0.1622
  469TMC3    C4 7032   0.823   1.592  10.849 -0.7096  0.0912 -0.2610
  469TMC3    C5 7033   0.927   1.681  10.841  0.0388 -0.0631 -0.3617
  469TMC3    C6 7034   1.053   1.642  10.870  0.3788 -0.4061 -1.5782
  469TMC3     C 7035   0.735   1.373  10.898  0.3114  0.1975 -0.3715
  469TMC3     O 7036   0.620   1.420  10.880  0.0397 -0.0899  0.6672
  469TMC3     H 7037   0.994   1.322  10.970  1.3828  0.4913 -0.2937
  469TMC3    H1 7038   0.722   1.627  10.830 -1.1966 -0.7557  0.7452
  469TMC3    H2 7039   1.134   1.713  10.880  0.6974 -1.1169  0.8246
  469TMC3    C7 7040   0.903   1.831  10.838 -0.8855 -0.4971 -0.1871
  469TMC3    C8 7041   1.193   1.482  10.973  0.6654  0.6489  0.6699
  469TMC3    O1 7042   0.999   1.899  10.814 -0.1791  0.0656  0.5097
  469TMC3    O2 7043   1.282   1.552  10.925 -0.2136  0.0312 -0.6254
  470TMC3    C1 7044   4.518   1.591   1.198  0.2721  0.6232 -0.2477
  470TMC3    C2 7045   4.520   1.727   1.171  0.2552  0.0802 -0.4972
  470TMC3    C3 7046   4.420   1.805   1.224  0.4256 -0.4914 -0.0050
  470TMC3    C4 7047   4.438   1.539   1.290  0.4331  0.1856  0.6079
  470TMC3    C5 7048   4.357   1.626   1.358 -0.7071  0.5004  0.0776
  470TMC3    C6 7049   4.339   1.757   1.321 -0.7322  0.3723  0.0895
  470TMC3     C 7050   4.590   1.512   1.099 -0.8852 -0.6054 -0.4939
  470TMC3     O 7051   4.680   1.568   1.035  0.9939  0.7251  0.2792
  470TMC3     H 7052   4.577   1.765   1.086  1.4036 -1.6432 -0.5008
  470TMC3    H1 7053   4.425   1.434   1.315  0.6914  0.5280  2.2224
  470TMC3    H2 7054   4.245   1.804   1.347 -0.5241  0.4062  0.7867
  470TMC3    C7 7055   4.252   1.572   1.441 -0.0505  0.7130  0.5204
  470TMC3    C8 7056   4.396   1.947   1.192 -0.0449  0.3260  0.7319
  470TMC3    O1 7057   4.198   1.466   1.407  0.1739 -0.1770  0.0299
  470TMC3    O2 7058   4.328   2.008   1.270 -0.3764 -0.2352 -0.1721
  471MPD2     C 7059   3.674   2.237  16.940 -0.5985 -0.1223  0.3618
  471MPD2    C1 7060   3.685   2.105  16.933  0.0593  0.0948  0.4247
  471MPD2    C2 7061   3.710   2.031  17.053 -0.1168 -0.1248  0.1345
  471MPD2    C3 7062   3.704   2.091  17.176  0.0351 -0.1836 -0.6473
  471MPD2    C4 7063   3.675   2.227  17.179  0.5368  0.3242 -0.0171
  471MPD2    C5 7064   3.670   2.298  17.064 -0.2069 -0.2866 -0.7629
  471MPD2     H 7065   3.718   1.923  17.051 -0.7555 -0.1895  1.4758
  471MPD2    H1 7066   3.669   2.288  17.269  1.4973  0.9086 -0.3420
  471MPD2    H2 7067   3.656   2.299  16.853 -1.6736 -1.4772 -0.3882
  471MPD2    H3 7068   3.656   2.405  17.076  1.2083  0.0774 -2.4400
  471MPD2     N 7069   3.719   2.010  17.287 -0.0270 -0.4692 -0.2458
  471MPD2    H5 7070   3.715   1.909  17.276  0.5153 -0.2588 -2.2762
  471MPD2    N1 7071   3.665   2.033  16.813 -0.4209 -0.0337  0.5434
  471MPD2    H7 7072   3.658   1.932  16.823 -1.2704 -0.0505 -0.2587
  472TMC3    C1 7073   3.629   1.990  16.589 -0.1419 -0.1679 -0.8465
  472TMC3    C2 7074   3.576   2.033  16.477  0.6218 -0.5608  0.1577
  472TMC3    C3 7075   3.553   1.947  16.377  1.1587 -0.2528  0.4297
  472TMC3    C4 7076   3.638   1.856  16.616  0.0713 -0.6023 -0.2192
  472TMC3    C5 7077   3.579   1.774  16.527 -0.0970  0.1479 -0.0800
  472TMC3    C6 7078   3.555   1.813  16.394 -0.1752 -0.3625 -0.4068
  472TMC3     C 7079   3.653   2.086  16.689 -0.3596 -0.5266  0.4737
  472TMC3     O 7080   3.649   2.204  16.649  0.1012  0.7179 -0.1337
  472TMC3     H 7081   3.545   2.137  16.471 -0.1842 -0.7507  1.0968
  472TMC3    H1 7082   3.661   1.808  16.710  0.8952  1.0092  0.4229
  472TMC3    H2 7083   3.520   1.746  16.317  0.4698 -1.3670  0.1716
  472TMC3    C7 7084   3.489   1.675  16.589 -0.1117  0.3663  0.9397
  472TMC3    C8 7085   3.437   1.968  16.284 -0.1060 -0.9778  0.8230
  472TMC3    O1 7086   3.531   1.625  16.696 -0.0312  0.4964  0.0449
  472TMC3    O2 7087   3.457   1.956  16.162  0.1040  0.2152 -0.4652
  473MPD2     C 7088   3.393   4.568  13.835 -0.2948  0.5217  0.3388
  473MPD2    C1 7089   3.447   4.666  13.758 -0.7732  0.0389 -0.1962
  473MPD2    C2 7090   3.495   0.033  13.829  0.3790 -0.3754  0.0042
  473MPD2    C3 7091   3.517   0.031  13.963  0.0073 -0.7588 -0.0670
  473MPD2    C4 7092   3.455   4.662  14.036 -0.2125 -0.8554 -0.1362
  473MPD2    C5 7093   3.393   4.571  13.969  0.3716 -0.2216 -0.8486
  473MPD2     H 7094   3.544   0.113  13.774  1.7932 -0.9306  0.4628
  473MPD2    H1 7095   3.462   4.653  14.144  0.9789  0.7337 -0.0850
  473MPD2    H2 7096   3.346   4.479  13.797 -0.8352  1.1007 -0.3428
  473MPD2    H3 7097   3.348   4.483  14.013 -0.8943  0.5874 -0.5271
  473MPD2     N 7098   3.564   0.138  14.042  0.8270  0.0646  0.2480
  473MPD2    H5 7099   3.570   0.114  14.141  1.9885 -0.7584 -0.0197
  473MPD2    N1 7100   3.443   4.658  13.618  0.5739 -0.0905 -0.0033
  473MPD2    H7 7101   3.499   4.729  13.571 -0.4545  2.3272  2.4551
  474TMC3    C1 7102   3.620   0.365  14.097  0.3365 -0.0103  0.0754
  474TMC3    C2 7103   3.675   0.478  14.056 -0.6645  0.1600 -0.3204
  474TMC3    C3 7104   3.683   0.581  14.151  0.1233 -0.3469 -0.0990
  474TMC3    C4 7105   3.588   0.342  14.232 -0.1627  0.4975 -0.1725
  474TMC3    C5 7106   3.618   0.442  14.324  0.1158 -0.3999  0.2917
  474TMC3    C6 7107   3.650   0.566  14.286 -0.7112 -0.5225 -0.0447
  474TMC3     C 7108   3.602   0.260  13.997 -0.7349 -0.4646 -0.2057
  474TMC3     O 7109   3.609   0.300  13.881  0.7327 -0.0130  0.1352
  474TMC3     H 7110   3.721   0.489  13.959 -2.6005 -2.0956 -1.4664
  474TMC3    H1 7111   3.553   0.246  14.268  1.7396 -0.7290 -1.5779
  474TMC3    H2 7112   3.641   0.654  14.349 -0.1355 -0.1239 -0.5198
  474TMC3    C7 7113   3.547   0.422  14.450  0.0559 -0.3234 -0.4571
  474TMC3    C8 7114   3.641   0.713  14.105  0.4722 -0.3169 -0.1128
  474TMC3    O1 7115   3.450   0.350  14.440 -0.5977  0.9641 -0.0665
  474TMC3    O2 7116   3.655   0.810  14.175  0.1426  0.5874  0.3986
  475MPD2     C 7117   1.745   3.303  11.341  0.1454 -0.0593 -0.0148
  475MPD2    C1 7118   1.857   3.348  11.277  0.5765 -0.0508 -0.3259
  475MPD2    C2 7119   1.837   3.407  11.147 -0.0797  0.2027 -0.0220
  475MPD2    C3 7120   1.704   3.417  11.094 -0.2173 -0.1881 -0.2999
  475MPD2    C4 7121   1.598   3.371  11.170 -0.5314 -0.6857 -0.4832
  475MPD2    C5 7122   1.619   3.311  11.292  0.2364 -0.7842 -0.2154
  475MPD2     H 7123   1.924   3.430  11.087  0.3691  2.4844  1.4926
  475MPD2    H1 7124   1.500   3.353  11.128 -1.4221  3.5539 -0.1900
  475MPD2    H2 7125   1.755   3.263  11.442 -0.6392 -0.3065 -0.0424
  475MPD2    H3 7126   1.538   3.281  11.358 -2.3329  3.6024 -1.4040
  475MPD2     N 7127   1.690   3.471  10.962 -0.0103  0.5289 -0.1627
  475MPD2    H5 7128   1.777   3.503  10.923 -0.5013  0.0544 -1.6615
  475MPD2    N1 7129   1.982   3.330  11.337 -0.0052  0.7324  0.1544
  475MPD2    H7 7130   1.974   3.293  11.431 -0.8286  1.1792  0.2682
  476TMC3    C1 7131   2.203   3.397  11.385 -0.2864  0.1712 -0.1501
  476TMC3    C2 7132   2.311   3.449  11.325  0.1753  0.6355  0.0014
  476TMC3    C3 7133   2.376   3.552  11.390 -0.0340 -0.4364 -0.1461
  476TMC3    C4 7134   2.143   3.451  11.492  0.1371  0.4118 -0.1198
  476TMC3    C5 7135   2.202   3.559  11.550  0.7260  0.1443 -0.2945
  476TMC3    C6 7136   2.312   3.611  11.499 -0.6484 -0.3686 -0.8544
  476TMC3     C 7137   2.102   3.357  11.289 -0.6664 -0.2174  0.4015
  476TMC3     O 7138   2.131   3.369  11.166 -0.6074 -0.5178  0.0886
  476TMC3     H 7139   2.348   3.406  11.233 -0.2397  0.1575  0.0537
  476TMC3    H1 7140   2.051   3.413  11.536  0.1086  1.0541  0.3646
  476TMC3    H2 7141   2.350   3.702  11.545  0.7677 -2.0030  1.1933
  476TMC3    C7 7142   2.111   3.658  11.607 -0.6761 -0.5236  0.5382
  476TMC3    C8 7143   2.449   3.651  11.315 -0.0341 -0.1025 -0.0697
  476TMC3    O1 7144   2.007   3.622  11.665  0.2431  1.0795 -0.4009
  476TMC3    O2 7145   2.490   3.752  11.373 -0.4894 -0.1655  0.0401
  477MPD2     C 7146   4.617   0.290  11.864 -0.1269 -0.6016  0.6075
  477MPD2    C1 7147   4.574   0.188  11.780 -0.1233 -0.4914  0.3908
  477MPD2    C2 7148   4.556   0.069  11.844 -0.1373 -0.2549 -0.1476
  477MPD2    C3 7149   4.576   0.050  11.981 -0.3601  0.4250  0.0942
  477MPD2    C4 7150   4.603   0.162  12.061  0.4886  0.0570 -0.3548
  477MPD2    C5 7151   4.624   0.277  12.000 -0.1246 -0.4747 -0.2451
  477MPD2     H 7152   4.521   4.726  11.781 -0.7015 -1.1430  1.2853
  477MPD2    H1 7153   4.604   0.152  12.169  2.8582  3.1731 -0.0725
  477MPD2    H2 7154   4.614   0.392  11.826 -5.4221 -0.7925  0.5185
  477MPD2    H3 7155   4.655   0.365  12.056 -0.4498 -0.0893 -0.6714
  477MPD2     N 7156   4.569   4.656  12.034  0.5296 -0.1563 -0.4649
  477MPD2    H5 7157   4.574   4.575  11.973  0.7711  2.0703 -3.3811
  477MPD2    N1 7158   4.556   0.218  11.650 -0.0606  0.1440 -0.8388
  477MPD2    H7 7159   4.575   0.314  11.625  2.6604  0.3928  2.2719
  478TMC3    C1 7160   4.424   0.226  11.453 -0.5997  0.5580  0.3955
  478TMC3    C2 7161   4.405   0.355  11.470  0.5186 -0.2182 -0.1146
  478TMC3    C3 7162   4.288   0.415  11.424 -0.4192 -0.1849  0.5560
  478TMC3    C4 7163   4.342   0.158  11.369 -1.1192  0.5025 -0.3485
  478TMC3    C5 7164   4.236   0.218  11.313  0.2299 -0.6322  0.5186
  478TMC3    C6 7165   4.201   0.350  11.341 -0.6350  0.2333 -0.4031
  478TMC3     C 7166   4.478   0.148  11.563 -0.4138  0.4038  1.0740
  478TMC3     O 7167   4.455   0.025  11.562  0.0247  0.2577  0.2538
  478TMC3     H 7168   4.468   0.397  11.548 -0.2531 -0.7048  0.7738
  478TMC3    H1 7169   4.347   0.050  11.361  1.2786  0.4669  1.7248
  478TMC3    H2 7170   4.103   0.390  11.320 -0.8149 -1.6025 -3.0905
  478TMC3    C7 7171   4.162   0.135  11.222  0.4993  0.1353 -0.6220
  478TMC3    C8 7172   4.255   0.545  11.485 -0.5641 -0.8068 -0.4148
  478TMC3    O1 7173   4.212   0.026  11.199 -0.1914 -0.0376 -0.1828
  478TMC3    O2 7174   4.344   0.593  11.556 -0.0331 -0.6512 -0.1680
  479MPD2     C 7175   3.240   1.596  15.003  0.0106  0.4195  0.4602
  479MPD2    C1 7176   3.173   1.543  15.109 -0.4825  0.7671  0.1108
  479MPD2    C2 7177   3.206   1.567  15.244 -0.3998 -0.1795 -0.0040
  479MPD2    C3 7178   3.304   1.663  15.270  0.1218 -0.2898  0.2007
  479MPD2    C4 7179   3.372   1.717  15.161 -0.1712 -0.0540 -0.1480
  479MPD2    C5 7180   3.348   1.679  15.030  0.5584  0.4659 -1.4421
  479MPD2     H 7181   3.142   1.523  15.320  1.7656 -2.3278  0.5458
  479MPD2    H1 7182   3.445   1.796  15.178 -0.9113  0.1695  2.0390
  479MPD2    H2 7183   3.212   1.571  14.902  1.4375  1.3241 -0.1635
  479MPD2    H3 7184   3.406   1.733  14.957  0.5063  0.7763 -1.2532
  479MPD2     N 7185   3.348   1.719  15.393  0.3458 -0.3354 -0.3067
  479MPD2    H5 7186   3.440   1.761  15.399  1.2705 -2.3238 -0.7642
  479MPD2    N1 7187   3.059   1.467  15.082 -0.1877 -0.0939  0.6588
  479MPD2    H7 7188   3.021   1.469  14.988  2.7218  1.2060 -0.4786
  480TMC3    C1 7189   2.992   1.627  15.701 -0.4705 -0.3215  0.6492
  480TMC3    C2 7190   2.889   1.672  15.623  0.0671 -0.6121  0.1439
  480TMC3    C3 7191   2.927   1.717  15.493 -0.6241  0.4782  0.0160
  480TMC3    C4 7192   3.125   1.626  15.660  0.1702 -0.2609 -0.3092
  480TMC3    C5 7193   3.155   1.671  15.531 -0.1982 -0.3664  0.1460
  480TMC3    C6 7194   3.057   1.724  15.452  0.1301  0.2153 -0.7656
  480TMC3     C 7195   2.959   1.598  15.845 -0.2576 -0.4345  0.6987
  480TMC3     O 7196   3.047   1.542  15.906  0.1688  0.2808  0.2697
  480TMC3     H 7197   2.784   1.650  15.637 -0.0432 -0.5536 -0.5813
  480TMC3    H1 7198   3.206   1.590  15.722 -0.6740 -1.0268  0.3471
  480TMC3    H2 7199   3.091   1.781  15.368 -0.1004 -0.5914 -1.4093
  480TMC3    C7 7200   3.298   1.691  15.514  0.2934 -0.8584  0.1064
  480TMC3    C8 7201   2.823   1.775  15.403  0.0021 -0.1548 -0.2138
  480TMC3    O1 7202   3.362   1.706  15.615 -0.0682 -0.0194 -0.4119
  480TMC3    O2 7203   2.710   1.779  15.446 -0.3568  0.0670  0.7671
  481MPD2     C 7204   0.344   1.304  14.347 -0.4177 -0.8444 -0.1500
  481MPD2    C1 7205   0.213   1.328  14.371  0.0857  0.2021  0.6631
  481MPD2    C2 7206   0.163   1.319  14.496 -0.0796  0.4873 -0.4029
  481MPD2    C3 7207   0.249   1.293  14.600 -0.0276  0.2525  0.1434
  481MPD2    C4 7208   0.380   1.278  14.578  0.1676 -0.4760 -0.3632
  481MPD2    C5 7209   0.430   1.286  14.449 -0.6879  0.2315  0.6955
  481MPD2     H 7210   0.056   1.332  14.514 -0.4980 -1.9515 -1.1395
  481MPD2    H1 7211   0.451   1.260  14.657  1.2354 -1.7705 -1.6161
  481MPD2    H2 7212   0.387   1.328  14.251  0.9818 -0.2769  0.6137
  481MPD2    H3 7213   0.537   1.285  14.431 -0.8839 -0.6892 -0.4379
  481MPD2     N 7214   0.212   1.278  14.738  0.5702  0.4082 -0.2504
  481MPD2    H5 7215   0.287   1.257  14.803 -1.8380 -0.7592  2.1363
  481MPD2    N1 7216   0.139   1.378  14.260  1.0029  0.6328  0.1784
  481MPD2    H7 7217   0.202   1.397  14.183  1.4135 -1.5633 -0.0365
  482TMC3    C1 7218   4.715   1.453  14.123  0.2910  0.6017  0.1014
  482TMC3    C2 7219   4.591   1.422  14.068  0.5824 -0.1834  0.8907
  482TMC3    C3 7220   4.585   1.433  13.930  0.1590 -0.2471 -0.3320
  482TMC3    C4 7221   0.082   1.505  14.046  1.0935  0.6808 -0.1799
  482TMC3    C5 7222   0.066   1.495  13.908  0.7371  0.2592  0.2534
  482TMC3    C6 7223   4.687   1.468  13.848 -0.3490  0.9506  0.3488
  482TMC3     C 7224   0.006   1.398  14.255  0.6022  0.3099  0.2676
  482TMC3     O 7225   4.654   1.361  14.332 -0.0946  0.1731  0.0029
  482TMC3     H 7226   4.514   1.367  14.120  0.0868  0.9224  1.3230
  482TMC3    H1 7227   0.181   1.532  14.080  0.1930  0.8642  2.3100
  482TMC3    H2 7228   4.668   1.469  13.741 -0.0487 -1.0551  0.2839
  482TMC3    C7 7229   0.175   1.533  13.830  0.4475  0.1724 -0.2165
  482TMC3    C8 7230   4.496   1.338  13.870 -0.0049  0.5864  0.2479
  482TMC3    O1 7231   0.282   1.521  13.884 -0.1222  0.1118 -0.0210
  482TMC3    O2 7232   4.552   1.254  13.804 -0.0579 -0.1909 -0.2119
  483TMC3    C1 7233   2.853   4.716   0.413  0.1902 -0.4440  0.5680
  483TMC3    C2 7234   2.851   0.059   0.523  0.5603 -1.0132  0.4862
  483TMC3    C3 7235   2.974   0.069   0.590 -1.1789 -1.1417  0.0626
  483TMC3    C4 7236   2.962   4.645   0.371 -0.4840  1.1446 -0.2396
  483TMC3    C5 7237   3.066   4.639   0.451  0.6146  0.0470 -0.5094
  483TMC3    C6 7238   3.083   4.731   0.553 -0.2655 -0.1649 -0.0618
  483TMC3     C 7239   2.721   4.714   0.349 -0.8764 -0.2471 -0.5063
  483TMC3     O 7240   2.648   0.071   0.370 -0.8317  0.0828  0.0526
  483TMC3     H 7241   2.768   0.119   0.558  0.1382 -1.0607 -0.4245
  483TMC3    H1 7242   2.970   4.597   0.274  2.9373  1.9868 -0.4035
  483TMC3    H2 7243   3.170   4.728   0.618 -1.0428  3.0684  1.1231
  483TMC3    C7 7244   3.185   4.558   0.412 -0.6977  0.6105 -0.3727
  483TMC3    C8 7245   2.980   0.168   0.702 -0.0107 -0.1080  0.3673
  483TMC3    O1 7246   3.299   4.597   0.438  0.4106  1.1825  0.2772
  483TMC3    O2 7247   2.875   0.218   0.744  0.2664 -0.1775 -0.2397
  484MPD2     C 7248   0.075   3.282  12.472 -0.1544  0.0556  0.4670
  484MPD2    C1 7249   0.134   3.241  12.592  0.1447 -0.2404  0.4332
  484MPD2    C2 7250   0.272   3.231  12.602 -0.8030  0.3206  0.4117
  484MPD2    C3 7251   0.351   3.265  12.494  0.2141  0.7071 -0.2369
  484MPD2    C4 7252   0.293   3.308  12.377 -0.0615  0.1445  0.4838
  484MPD2    C5 7253   0.153   3.328  12.370 -0.5544  0.0997 -0.6957
  484MPD2     H 7254   0.307   3.187  12.695 -0.1855 -1.2482 -0.5606
  484MPD2    H1 7255   0.355   3.323  12.290 -1.4459 -1.0674 -0.7032
  484MPD2    H2 7256   4.705   3.273  12.455  0.0884  2.4189 -2.5115
  484MPD2    H3 7257   0.112   3.369  12.279 -2.3372  2.1552  1.0212
  484MPD2     N 7258   0.490   3.255  12.496 -0.2869  0.0875  0.1579
  484MPD2    H5 7259   0.544   3.278  12.413  0.3783 -2.3457 -0.0804
  484MPD2    N1 7260   0.043   3.200  12.693 -0.3796  0.2538 -0.2852
  484MPD2    H7 7261   4.684   3.214  12.662 -0.6419 -2.7428 -0.7587
  485TMC3    C1 7262   0.697   3.256  12.602  0.5379 -0.1809  0.5295
  485TMC3    C2 7263   0.766   3.201  12.708  0.7075  0.3708 -0.6675
  485TMC3    C3 7264   0.860   3.278  12.778  0.2162  0.5521  0.7241
  485TMC3    C4 7265   0.731   3.372  12.543  0.8117 -0.6800 -0.1596
  485TMC3    C5 7266   0.836   3.431  12.603  0.0902  0.2612  1.0986
  485TMC3    C6 7267   0.888   3.394  12.726 -0.2328  0.5620  0.4802
  485TMC3     C 7268   0.555   3.243  12.618 -0.3557  0.2330 -0.6147
  485TMC3     O 7269   0.515   3.227  12.731 -0.1740 -0.5048  0.4175
  485TMC3     H 7270   0.731   3.105  12.746  0.3562  0.2362 -1.3332
  485TMC3    H1 7271   0.685   3.406  12.451 -1.0732 -0.8514  0.7073
  485TMC3    H2 7272   0.962   3.458  12.773 -0.1276  1.4803 -0.9416
  485TMC3    C7 7273   0.933   3.477  12.512  0.4828 -0.1142  0.1995
  485TMC3    C8 7274   0.980   3.206  12.817  0.0181  0.5081  0.3410
  485TMC3    O1 7275   0.899   3.527  12.404 -0.8814  0.7174  0.0990
  485TMC3    O2 7276   1.083   3.276  12.802  0.3494  0.2164  0.0693
  486MPD2     C 7277   2.914   2.043  12.975  1.0479 -0.4857 -0.2753
  486MPD2    C1 7278   2.905   2.132  13.082  0.7394 -0.3072 -0.0068
  486MPD2    C2 7279   2.844   2.253  13.059  0.2269 -0.0058 -0.1626
  486MPD2    C3 7280   2.794   2.278  12.935  0.0858  0.4236 -0.2472
  486MPD2    C4 7281   2.796   2.182  12.834  0.8741 -0.2514 -0.2325
  486MPD2    C5 7282   2.865   2.069  12.850 -0.4114 -0.6719 -0.0832
  486MPD2     H 7283   2.842   2.322  13.142  1.0526  2.5131 -2.2486
  486MPD2    H1 7284   2.764   2.198  12.731  0.3589 -0.1678 -0.0615
  486MPD2    H2 7285   2.967   1.950  12.993  1.9298 -0.2859 -1.7972
  486MPD2    H3 7286   2.897   2.009  12.766 -0.5213  0.9127 -1.2488
  486MPD2     N 7287   2.738   2.401  12.897  0.6388  0.4149 -0.6333
  486MPD2    H5 7288   2.703   2.413  12.802  1.8627  0.9108 -1.0221
  486MPD2    N1 7289   2.959   2.099  13.207 -0.2309  0.6225 -0.5255
  486MPD2    H7 7290   3.000   2.006  13.210 -1.8123 -0.0352  1.4873
  487TMC3    C1 7291   2.987   2.098  13.443 -0.4852  0.0011  0.0254
  487TMC3    C2 7292   3.094   2.021  13.446  0.2135 -0.2310  0.0070
  487TMC3    C3 7293   3.121   1.946  13.554 -0.9286  0.3254 -0.2833
  487TMC3    C4 7294   2.908   2.118  13.555 -0.5243  0.1239 -0.7885
  487TMC3    C5 7295   2.934   2.037  13.668 -0.1094 -0.3288 -0.1633
  487TMC3    C6 7296   3.050   1.970  13.664  0.2411 -0.6176 -0.4700
  487TMC3     C 7297   2.947   2.171  13.322 -0.2505 -0.1399 -0.1772
  487TMC3     O 7298   2.900   2.280  13.347  0.0376 -0.1037  0.2871
  487TMC3     H 7299   3.141   1.992  13.353  0.5822  0.2628  0.0414
  487TMC3    H1 7300   2.827   2.191  13.547 -0.5685  0.2166  0.5371
  487TMC3    H2 7301   3.071   1.899  13.743 -0.2053  0.4577  0.6305
  487TMC3    C7 7302   2.829   1.985  13.759 -0.7573  0.2924 -0.0550
  487TMC3    C8 7303   3.127   1.801  13.537  0.1039 -0.2942  0.6020
  487TMC3    O1 7304   2.860   1.896  13.836 -0.5486  0.0381 -0.5894
  487TMC3    O2 7305   3.238   1.751  13.510  0.7675  0.0691 -0.2880
  488MPD2     C 7306   3.445   3.306  16.641  0.1301  0.1009  0.4445
  488MPD2    C1 7307   3.441   3.447  16.644 -0.4429  0.7942  0.0501
  488MPD2    C2 7308   3.438   3.517  16.764  0.1036  0.4709  0.5516
  488MPD2    C3 7309   3.433   3.453  16.880 -0.1218  0.3403 -0.3317
  488MPD2    C4 7310   3.449   3.314  16.877 -0.0286  0.4970 -1.3094
  488MPD2    C5 7311   3.453   3.248  16.758 -0.1320 -0.0852 -0.1629
  488MPD2     H 7312   3.413   3.622  16.753 -2.4734 -0.3664 -1.4400
  488MPD2    H1 7313   3.441   3.252  16.965 -0.1854  1.0312 -0.9479
  488MPD2    H2 7314   3.440   3.238  16.556  1.1257  2.4611 -1.4964
  488MPD2    H3 7315   3.450   3.141  16.773 -0.3324  0.0176  0.5327
  488MPD2     N 7316   3.400   3.517  16.998 -0.0600 -0.2000 -0.5461
  488MPD2    H5 7317   3.416   3.617  16.998  0.9099 -0.3458  1.9231
  488MPD2    N1 7318   3.425   3.523  16.525 -0.8613  0.0940 -0.2790
  488MPD2    H7 7319   3.403   3.620  16.547  1.4254  0.0188  2.3424
  489TMC3    C1 7320   3.351   3.533  17.232  0.3797 -0.3016  0.3592
  489TMC3    C2 7321   3.368   3.667  17.227  0.0658  0.2944  0.0958
  489TMC3    C3 7322   3.359   3.735  17.342  0.1297 -0.1339  0.1912
  489TMC3    C4 7323   3.345   3.463  17.354  0.5521 -0.8150  0.3158
  489TMC3    C5 7324   3.342   3.543  17.470 -0.3378  0.0004 -0.6584
  489TMC3    C6 7325   3.352   3.677  17.466  0.0319 -0.5922  0.3604
  489TMC3     C 7326   3.363   3.453  17.116  0.0472 -0.1236  0.6054
  489TMC3     O 7327   3.336   3.336  17.132  0.7333  0.8187  0.3160
  489TMC3     H 7328   3.393   3.719  17.135  0.9593 -1.3851 -0.6056
  489TMC3    H1 7329   3.354   3.355  17.364 -1.6094 -1.0793 -0.3637
  489TMC3    H2 7330   3.336   3.734  17.557 -2.0529  0.8495 -0.9106
  489TMC3    C7 7331   3.311   3.486  17.604 -0.5699  0.0698 -0.2756
  489TMC3    C8 7332   3.412   3.870  17.339 -0.6946 -0.0303  0.0542
  489TMC3    O1 7333   3.343   3.552  17.701 -0.3110 -0.2155 -0.5693
  489TMC3    O2 7334   3.475   3.900  17.243  0.1240 -0.3567  0.4698
  490MPD2     C 7335   4.351   3.279  17.286 -0.4444 -0.0644  0.1287
  490MPD2    C1 7336   4.311   3.218  17.405 -0.8394 -0.4083 -0.3896
  490MPD2    C2 7337   4.400   3.187  17.500 -0.3927  0.5428  0.3230
  490MPD2    C3 7338   4.538   3.204  17.478  0.0568  0.7653 -0.1289
  490MPD2    C4 7339   4.575   3.234  17.350  0.4881 -1.2558  0.4060
  490MPD2    C5 7340   4.480   3.274  17.254 -0.0240 -0.2860 -0.5726
  490MPD2     H 7341   4.361   3.154  17.596  0.1773  0.9309  0.6903
  490MPD2    H1 7342   4.679   3.227  17.321  0.0228 -0.1303 -1.5498
  490MPD2    H2 7343   4.278   3.320  17.217  0.8864  0.1229 -1.1711
  490MPD2    H3 7344   4.515   3.291  17.153  0.7474 -0.0587 -0.2737
  490MPD2     N 7345   4.644   3.169  17.564  0.1945  0.1885  0.1904
  490MPD2    H5 7346   0.000   3.159  17.525 -0.5704 -1.7871 -1.1541
  490MPD2    N1 7347   4.173   3.200  17.428  0.2614 -0.2372  0.5133
  490MPD2    H7 7348   4.158   3.141  17.510 -0.3737 -0.9981 -0.1540
  491TMC3    C1 7349   3.942   3.172  17.422 -0.0969 -0.1020  0.4780
  491TMC3    C2 7350   3.945   3.159  17.554  0.6692 -0.4809  0.3346
  491TMC3    C3 7351   3.868   3.061  17.611  0.2333 -0.0556  0.8750
  491TMC3    C4 7352   3.861   3.087  17.348 -0.0734  0.4443  0.6985
  491TMC3    C5 7353   3.792   2.990  17.408 -0.3647  0.2815 -0.3040
  491TMC3    C6 7354   3.791   2.982  17.539  0.2584  1.1201  0.4452
  491TMC3     C 7355   4.065   3.213  17.351 -0.5092 -0.5258 -0.7037
  491TMC3     O 7356   4.057   3.250  17.233 -0.0574  0.3513  0.4245
  491TMC3     H 7357   3.998   3.230  17.617  1.8208 -2.6638  1.8524
  491TMC3    H1 7358   3.861   3.097  17.240  0.6367 -1.9899  0.4608
  491TMC3    H2 7359   3.730   2.903  17.581  0.4447 -0.8380 -2.9962
  491TMC3    C7 7360   3.700   2.892  17.338  0.0078  0.1340  0.0764
  491TMC3    C8 7361   3.886   3.037   0.005  0.0923 -0.4826 -0.2793
  491TMC3    O1 7362   3.660   2.793  17.392 -0.2881 -0.0384 -0.3022
  491TMC3    O2 7363   3.822   2.940   0.043 -0.5222 -0.3243  0.0921
  492MPD2     C 7364   3.687   2.522  10.848 -0.1736 -0.3293 -0.2061
  492MPD2    C1 7365   3.741   2.632  10.901 -0.1748  0.0650 -0.2554
  492MPD2    C2 7366   3.754   2.636  11.041 -0.0013 -0.8061 -0.1278
  492MPD2    C3 7367   3.733   2.526  11.120  0.1217 -0.4961  0.2098
  492MPD2    C4 7368   3.694   2.408  11.054 -0.2603  0.3134  0.2021
  492MPD2    C5 7369   3.668   2.406  10.917  0.0459 -0.7226 -0.3479
  492MPD2     H 7370   3.778   2.730  11.089 -1.4475 -1.0968  1.1812
  492MPD2    H1 7371   3.690   2.313  11.106  0.6798 -0.2739 -0.8019
  492MPD2    H2 7372   3.673   2.525  10.741  1.7881 -0.8013 -0.4773
  492MPD2    H3 7373   3.638   2.315  10.866 -0.4747 -1.3413  1.0634
  492MPD2     N 7374   3.724   2.530  11.258 -0.1749  0.5163 -0.2593
  492MPD2    H5 7375   3.712   2.440  11.303 -1.8958 -0.3841 -2.5359
  492MPD2    N1 7376   3.774   2.738  10.810 -0.2466 -0.1505 -0.3285
  492MPD2    H7 7377   3.723   2.741  10.722 -0.6620  1.4253 -0.0311
  493TMC3    C1 7378   3.891   2.921  10.727  0.1763  0.0162 -0.0934
  493TMC3    C2 7379   4.021   2.963  10.718 -0.5412 -0.2896  0.1902
  493TMC3    C3 7380   4.048   3.066  10.639  0.2369 -0.0078  0.5316
  493TMC3    C4 7381   3.785   2.982  10.664  0.2334  0.3438 -0.3599
  493TMC3    C5 7382   3.819   3.088  10.592  0.3810 -0.0810  0.5900
  493TMC3    C6 7383   3.951   3.131  10.568 -0.1350 -0.5094 -0.6849
  493TMC3     C 7384   3.874   2.823  10.835 -0.0671  0.7019  0.3792
  493TMC3     O 7385   3.955   2.814  10.926  0.1595  0.6001 -0.3793
  493TMC3     H 7386   4.097   2.918  10.781  0.2451 -1.4887 -1.6168
  493TMC3    H1 7387   3.685   2.944  10.677  0.9318 -0.6307  2.1469
  493TMC3    H2 7388   3.969   3.224  10.516  1.9271  0.7826  2.3033
  493TMC3    C7 7389   3.708   3.151  10.525 -0.4055 -0.2669  0.2313
  493TMC3    C8 7390   4.187   3.105  10.622 -0.9325  0.5228  0.1732
  493TMC3    O1 7391   3.592   3.129  10.566  0.0072 -0.9837  0.7545
  493TMC3    O2 7392   4.269   3.025  10.665  0.1399 -0.0945  0.2032
  494TMC3    C1 7393   4.479   0.271   0.810 -0.3661  0.2957  0.3612
  494TMC3    C2 7394   4.534   0.143   0.801 -0.0468 -0.1681  0.5107
  494TMC3    C3 7395   4.583   0.107   0.676  0.7156  0.2693  0.4033
  494TMC3    C4 7396   4.486   0.363   0.712 -0.3575  0.1582 -0.1490
  494TMC3    C5 7397   4.532   0.318   0.588 -0.4636 -0.0866  0.3639
  494TMC3    C6 7398   4.587   0.193   0.571 -0.0637 -0.2659 -0.6000
  494TMC3     C 7399   4.379   0.292   0.920 -0.4338 -0.0949  0.2021
  494TMC3     O 7400   4.381   0.207   1.009 -0.3237 -0.5677 -0.0150
  494TMC3     H 7401   4.542   0.078   0.886  0.8220  1.0579  1.3665
  494TMC3    H1 7402   4.439   0.460   0.718 -0.3249  0.2389 -1.2546
  494TMC3    H2 7403   4.647   0.169   0.484 -2.4437 -0.5669 -2.1361
  494TMC3    C7 7404   4.499   0.394   0.469 -0.2910  0.8690 -0.1825
  494TMC3    C8 7405   4.613   4.704   0.653  0.4116  0.1056  0.0552
  494TMC3    O1 7406   4.538   0.342   0.364 -0.0240 -0.0788  0.2873
  494TMC3    O2 7407   4.640   4.634   0.749 -0.6558 -0.3240 -0.5443
  495TMC3    C1 7408   3.093   1.748  14.434 -0.9623  0.4075 -0.3934
  495TMC3    C2 7409   3.063   1.868  14.372  0.4679 -0.3694 -0.0857
  495TMC3    C3 7410   3.010   1.972  14.449 -0.6530 -1.3375 -0.1618
  495TMC3    C4 7411   3.062   1.731  14.567  0.0999  0.2693 -0.3442
  495TMC3    C5 7412   2.999   1.833  14.634 -0.1804 -0.4016 -0.1002
  495TMC3    C6 7413   2.976   1.956  14.578 -0.6121 -0.2229 -0.0387
  495TMC3     C 7414   3.141   1.633  14.364 -1.2556  0.0164 -0.5792
  495TMC3     O 7415   3.164   1.536  14.433  0.4038 -0.0537  0.2238
  495TMC3     H 7416   3.114   1.896  14.280  2.1990 -1.3884  0.5484
  495TMC3    H1 7417   3.078   1.639  14.621 -0.5991 -0.1693 -0.8954
  495TMC3    H2 7418   2.951   2.040  14.641 -0.2590 -1.7689  2.2017
  495TMC3    C7 7419   2.952   1.821  14.769 -0.2365  0.2297 -0.1110
  495TMC3    C8 7420   2.912   2.058  14.381 -0.5025 -0.1997 -0.5426
  495TMC3    O1 7421   3.001   1.719  14.821 -0.7895  0.3193 -0.2544
  495TMC3    O2 7422   2.830   2.116  14.452 -0.0379 -0.5014 -0.0701
  496MPD2     C 7423   0.375   2.094  15.291 -0.1245  0.0110 -0.1918
  496MPD2    C1 7424   0.365   1.961  15.325 -0.2995  0.6083  0.0513
  496MPD2    C2 7425   0.272   1.921  15.423  0.5912 -0.1598  1.0667
  496MPD2    C3 7426   0.191   2.019  15.475 -0.1818  0.0524 -0.0794
  496MPD2    C4 7427   0.192   2.145  15.429 -0.0636 -0.4235 -0.0758
  496MPD2    C5 7428   0.289   2.187  15.346  0.4673 -0.0285 -0.1581
  496MPD2     H 7429   0.261   1.819  15.459  0.6805 -0.1109  1.2352
  496MPD2    H1 7430   0.128   2.224  15.468 -1.2741 -1.1123 -0.6690
  496MPD2    H2 7431   0.459   2.128  15.232  0.8783 -2.5917 -0.2682
  496MPD2    H3 7432   0.295   2.292  15.322  0.9670  0.6960  3.0747
  496MPD2     N 7433   0.082   1.989  15.563  0.2584  0.4820 -0.5688
  496MPD2    H5 7434   0.030   2.071  15.593  1.2053  1.1158 -0.6327
  496MPD2    N1 7435   0.458   1.880  15.254 -0.4066  0.5280 -0.6457
  496MPD2    H7 7436   0.523   1.932  15.196  0.8755 -3.5726 -2.8596
  497TMC3    C1 7437   4.658   1.867  15.668 -0.2485  0.3947  0.2960
  497TMC3    C2 7438   4.584   1.754  15.679 -0.3322 -0.5139  0.2191
  497TMC3    C3 7439   4.487   1.748  15.770 -0.2505  0.3994 -1.1294
  497TMC3    C4 7440   4.640   1.971  15.758  0.7973  0.0991  1.0039
  497TMC3    C5 7441   4.539   1.968  15.849  0.1926 -0.2256 -0.1348
  497TMC3    C6 7442   4.467   1.850  15.861 -0.1942  0.4488 -0.2194
  497TMC3     C 7443   0.046   1.858  15.602  0.1067  0.6483  0.5828
  497TMC3     O 7444   0.098   1.747  15.590 -0.2812  0.0527 -0.8870
  497TMC3     H 7445   4.599   1.672  15.609  0.7007  0.6047 -0.8831
  497TMC3    H1 7446   4.713   2.051  15.769  0.8084  0.1231  0.7587
  497TMC3    H2 7447   4.383   1.858  15.930  0.5220 -3.4976  1.0997
  497TMC3    C7 7448   4.569   2.034  15.974 -0.0209  0.2327 -0.5901
  497TMC3    C8 7449   4.449   1.613  15.807 -0.2220  0.4282 -0.1939
  497TMC3    O1 7450   4.681   2.005  16.020  0.1745  0.8249 -0.4895
  497TMC3    O2 7451   4.470   1.522  15.730  0.3341 -0.1666  0.0897
  498MPD2     C 7452   2.399   3.596   9.648  0.9582 -0.2527 -0.0872
  498MPD2    C1 7453   2.341   3.619   9.768  0.9002  0.0488  0.6836
  498MPD2    C2 7454   2.299   3.507   9.839 -0.0097  0.2876  0.6152
  498MPD2    C3 7455   2.312   3.375   9.799  0.4806 -0.2580  0.0218
  498MPD2    C4 7456   2.373   3.356   9.673  0.8500 -0.1572  0.2416
  498MPD2    C5 7457   2.404   3.469   9.597  0.7334 -0.0637 -0.3179
  498MPD2     H 7458   2.262   3.525   9.939 -1.8616 -0.8615  0.1367
  498MPD2    H1 7459   2.378   3.258   9.628  0.9261 -0.7056  1.4631
  498MPD2    H2 7460   2.429   3.673   9.577 -1.6036 -0.2717 -1.1796
  498MPD2    H3 7461   2.437   3.454   9.495  1.3097  1.1253 -0.2970
  498MPD2     N 7462   2.269   3.272   9.885 -0.1550 -0.0193 -0.2133
  498MPD2    H5 7463   2.225   3.301   9.972 -2.6997  0.4014 -1.6372
  498MPD2    N1 7464   2.321   3.750   9.826 -0.2785 -0.2177  0.8991
  498MPD2    H7 7465   2.282   3.762   9.919  0.1956  1.3577  0.8972
  499TMC3    C1 7466   2.317   3.987   9.823 -0.7814 -0.1298  0.0348
  499TMC3    C2 7467   2.330   3.999   9.958  0.0548 -0.0268  0.7576
  499TMC3    C3 7468   2.277   4.109  10.015  0.4175 -0.1086 -0.0307
  499TMC3    C4 7469   2.252   4.078   9.749  0.1707 -0.0627  0.0606
  499TMC3    C5 7470   2.198   4.187   9.811  0.0009  0.1021 -0.1873
  499TMC3    C6 7471   2.211   4.207   9.945 -0.3872  0.2157  0.1039
  499TMC3     C 7472   2.337   3.865   9.758 -0.0323 -0.4964  0.3875
  499TMC3     O 7473   2.357   3.888   9.638  0.1052 -0.2116 -0.2858
  499TMC3     H 7474   2.386   3.921  10.010  1.6169  1.0253  0.6565
  499TMC3    H1 7475   2.231   4.052   9.646  0.1608  0.3070 -0.0317
  499TMC3    H2 7476   2.170   4.296   9.992 -0.7432  0.0881  0.0348
  499TMC3    C7 7477   2.119   4.281   9.736  0.1978 -0.1569  0.5119
  499TMC3    C8 7478   2.297   4.124  10.155 -0.3792 -1.3089  0.3901
  499TMC3    O1 7479   2.127   4.396   9.777 -0.7973  0.0057  0.6103
  499TMC3    O2 7480   2.380   4.046  10.204 -0.2066 -0.3524 -0.0193
  500MPD2     C 7481   2.899   4.443  10.698 -0.4385  0.0005 -0.4162
  500MPD2    C1 7482   2.958   4.497  10.586  0.3137  0.2733  0.0979
  500MPD2    C2 7483   2.886   4.596  10.522  0.4025 -0.3860 -0.1797
  500MPD2    C3 7484   2.765   4.653  10.569 -0.1844  0.7841  0.0918
  500MPD2    C4 7485   2.715   4.599  10.687  0.0478  0.4190 -0.2162
  500MPD2    C5 7486   2.782   4.496  10.751 -0.2714  0.6724  0.7717
  500MPD2     H 7487   2.938   4.634  10.435  0.5528 -0.1914 -0.0045
  500MPD2    H1 7488   2.621   4.630  10.730  0.3932 -0.6719  1.3185
  500MPD2    H2 7489   2.948   4.372  10.763  1.4147  1.4400 -0.2277
  500MPD2    H3 7490   2.744   4.449  10.840 -0.1826 -0.2332  0.3240
  500MPD2     N 7491   2.689   0.008  10.497 -0.2599  0.1142  0.0042
  500MPD2    H5 7492   2.603   0.041  10.542 -1.1717  0.6543 -2.1454
  500MPD2    N1 7493   3.079   4.458  10.522 -0.4762  0.2146  0.2684
  500MPD2    H7 7494   3.109   4.511  10.441  1.5843 -0.9141  0.2965
  501TMC3    C1 7495   3.285   4.332  10.518  0.2237  0.4963  0.4465
  501TMC3    C2 7496   3.323   4.393  10.398  0.2196  0.2189  0.7744
  501TMC3    C3 7497   3.452   4.376  10.359 -0.3801  0.2080 -0.0016
  501TMC3    C4 7498   3.367   4.260  10.603 -0.3058 -0.0033  0.0047
  501TMC3    C5 7499   3.496   4.271  10.570  0.0870 -0.1872  0.2861
  501TMC3    C6 7500   3.543   4.320  10.448 -0.3369 -0.5138  0.6530
  501TMC3     C 7501   3.149   4.352  10.567  0.2793  0.3101  1.1390
  501TMC3     O 7502   3.113   4.267  10.644 -0.7057  0.3444  0.7391
  501TMC3     H 7503   3.242   4.420  10.332 -0.7721 -3.2230  0.5942
  501TMC3    H1 7504   3.325   4.221  10.695 -2.2439 -0.1210 -0.9155
  501TMC3    H2 7505   3.645   4.293  10.421 -1.0903 -1.0032 -1.6584
  501TMC3    C7 7506   3.585   4.306  10.675 -0.1572 -0.1270 -0.0922
  501TMC3    C8 7507   3.515   4.465  10.260  0.2102  1.1167 -0.4832
  501TMC3    O1 7508   3.702   4.273  10.670 -0.4915 -0.8656  0.1072
  501TMC3    O2 7509   3.631   4.492  10.278 -0.1369 -0.3913  0.4779
  502TMC3    C1 7510   2.776   2.595  15.258 -0.9618 -0.4653  0.0305
  502TMC3    C2 7511   2.834   2.704  15.190 -0.5072 -0.0525 -0.2233
  502TMC3    C3 7512   2.754   2.815  15.177  0.0271 -0.8514  0.1029
  502TMC3    C4 7513   2.651   2.607  15.314  0.0960  0.0987  0.0206
  502TMC3    C5 7514   2.577   2.714  15.291 -0.0285 -0.5505  0.4123
  502TMC3    C6 7515   2.628   2.821  15.224  0.0562 -0.5645  0.3577
  502TMC3     C 7516   2.876   2.534  15.344 -0.4977  0.0486  0.4861
  502TMC3     O 7517   2.989   2.574  15.324  0.3577  0.5458  0.0246
  502TMC3     H 7518   2.930   2.690  15.142 -0.8074 -0.1127 -0.7982
  502TMC3    H1 7519   2.605   2.527  15.371  0.4134 -0.5422 -0.6144
  502TMC3    H2 7520   2.564   2.909  15.224  1.8738  0.7410  0.0516
  502TMC3    C7 7521   2.484   2.743  15.396 -0.6975  0.2541 -0.3171
  502TMC3    C8 7522   2.815   2.933  15.120  0.1376  0.5158  0.0706
  502TMC3    O1 7523   2.490   2.667  15.494 -0.2233 -0.4993  0.1201
  502TMC3    O2 7524   2.737   3.015  15.080 -0.6093  0.5352 -0.0803
  503MPD2     C 7525   0.354   3.678  16.559  0.6138 -0.4507 -0.4135
  503MPD2    C1 7526   0.369   3.672  16.695 -0.2476  0.4096  0.5159
  503MPD2    C2 7527   0.472   3.601  16.751  0.4060  0.2253 -0.0008
  503MPD2    C3 7528   0.559   3.531  16.664 -0.1461  0.1471 -0.4643
  503MPD2    C4 7529   0.542   3.541  16.528  0.2119 -0.3462  0.5346
  503MPD2    C5 7530   0.445   3.618  16.474 -0.0058  0.9184 -0.2297
  503MPD2     H 7531   0.490   3.597  16.858  0.4442 -0.9266 -0.0527
  503MPD2    H1 7532   0.610   3.484  16.466  0.6917  0.4792  0.2964
  503MPD2    H2 7533   0.276   3.738  16.513  1.2411  0.9317  0.3190
  503MPD2    H3 7534   0.431   3.616  16.366 -0.6949  1.2763 -0.1462
  503MPD2     N 7535   0.676   3.470  16.705 -0.2886  0.7378 -0.2940
  503MPD2    H5 7536   0.749   3.454  16.635 -0.0293 -2.0535  0.6079
  503MPD2    N1 7537   0.280   3.750  16.773 -0.0371 -0.1407 -0.3335
  503MPD2    H7 7538   0.300   3.750  16.872 -1.4831 -0.1010 -0.0513
  504TMC3    C1 7539   0.819   3.364  16.857  0.9353  0.0705  0.0221
  504TMC3    C2 7540   0.799   3.251  16.930 -0.5590 -0.3736 -0.4837
  504TMC3    C3 7541   0.908   3.165  16.931  0.1362  0.2577  0.1952
  504TMC3    C4 7542   0.929   3.400  16.790  0.1977 -0.1740 -0.1022
  504TMC3    C5 7543   1.035   3.316  16.800 -0.3689  0.5133 -0.2721
  504TMC3    C6 7544   1.033   3.198  16.874  0.2257  0.2630  0.9274
  504TMC3     C 7545   0.696   3.431  16.834 -0.7281  0.2282  0.6415
  504TMC3     O 7546   0.613   3.432  16.930 -0.3779  0.7437 -0.1128
  504TMC3     H 7547   0.702   3.225  16.972  0.1531 -0.5054  1.1068
  504TMC3    H1 7548   0.927   3.494  16.737 -0.8685 -0.5473 -0.7355
  504TMC3    H2 7549   1.109   3.120  16.869 -0.2467 -0.1428 -0.0912
  504TMC3    C7 7550   1.159   3.361  16.735  0.4489  0.1987  0.1566
  504TMC3    C8 7551   0.884   3.030  16.962  0.0745  0.5988 -0.2236
  504TMC3    O1 7552   1.140   3.428  16.634 -0.1041 -0.1065 -0.5953
  504TMC3    O2 7553   0.763   2.997  16.961  0.0486  0.4816 -0.0190
  505MPD2     C 7554   1.116   3.144  10.546 -0.7316 -0.4923  0.3115
  505MPD2    C1 7555   1.176   3.026  10.583  0.1864  0.5928  0.2067
  505MPD2    C2 7556   1.271   3.026  10.682 -0.5171 -0.1781  0.2388
  505MPD2    C3 7557   1.311   3.141  10.748 -0.2907 -0.2008  0.4814
  505MPD2    C4 7558   1.250   3.261  10.718 -0.2112  0.1293  0.7701
  505MPD2    C5 7559   1.147   3.261  10.618 -0.1859 -0.8310  0.1489
  505MPD2     H 7560   1.315   2.931  10.710  0.0142  0.5138  1.7431
  505MPD2    H1 7561   1.280   3.353  10.765 -0.6624  0.3282  0.6755
  505MPD2    H2 7562   1.037   3.154  10.473  0.1580  0.3168 -0.5486
  505MPD2    H3 7563   1.101   3.352  10.579  0.9213 -1.5307 -2.7944
  505MPD2     N 7564   1.413   3.142  10.846 -0.6479  0.2222 -0.2686
  505MPD2    H5 7565   1.433   3.227  10.897 -1.1878  0.1028  0.1402
  505MPD2    N1 7566   1.126   2.905  10.535  0.0730  0.8309 -0.3969
  505MPD2    H7 7567   1.059   2.910  10.459 -0.5098 -0.5317  0.0287
  506TMC3    C1 7568   1.128   2.662  10.476 -0.7671  0.4783 -0.4383
  506TMC3    C2 7569   1.137   2.690  10.342  0.2789 -0.8825  0.0913
  506TMC3    C3 7570   1.178   2.588  10.263  0.3450 -0.1928  0.5734
  506TMC3    C4 7571   1.157   2.545  10.531  0.5504  0.0776 -0.0116
  506TMC3    C5 7572   1.208   2.451  10.446  0.9306 -0.6700 -0.6039
  506TMC3    C6 7573   1.227   2.472  10.312 -0.9540  0.1493 -0.4865
  506TMC3     C 7574   1.175   2.773  10.567 -0.0477  0.0249  0.2684
  506TMC3     O 7575   1.251   2.726  10.652 -1.1802  0.1965 -0.2688
  506TMC3     H 7576   1.120   2.792  10.310  0.6506 -1.4971 -2.0722
  506TMC3    H1 7577   1.151   2.526  10.638 -0.2929  1.2453  0.1420
  506TMC3    H2 7578   1.258   2.393  10.245  0.9246 -0.1242  0.7153
  506TMC3    C7 7579   1.332   2.410  10.501  0.4610  0.7827  0.3702
  506TMC3    C8 7580   1.227   2.605  10.125  0.5848 -0.0793  0.0289
  506TMC3    O1 7581   1.381   2.311  10.453  0.3602 -0.0176 -0.3436
  506TMC3    O2 7582   1.187   2.527  10.041 -0.2353 -0.6481 -0.2530
  507TMC3    C1 7583   1.029   3.035  14.449 -0.0047 -0.9836 -0.8178
  507TMC3    C2 7584   1.095   2.988  14.339 -0.0023 -0.0641  0.2366
  507TMC3    C3 7585   1.191   3.070  14.283 -0.2979  0.2260  1.2796
  507TMC3    C4 7586   1.039   3.168  14.484  0.1687  0.2097  0.4826
  507TMC3    C5 7587   1.142   3.252  14.429 -0.3150 -0.0254  0.4998
  507TMC3    C6 7588   1.221   3.193  14.327  0.4973  0.1477  0.1171
  507TMC3     C 7589   0.901   2.976  14.475  0.1821  0.4346 -0.7973
  507TMC3     O 7590   0.860   2.913  14.379  0.4583 -0.3263 -0.1430
  507TMC3     H 7591   1.096   2.882  14.314  1.3980  0.4162 -1.7350
  507TMC3    H1 7592   0.978   3.213  14.562 -0.2113  2.0559 -0.8746
  507TMC3    H2 7593   1.307   3.244  14.286  0.2237 -0.5508 -1.3119
  507TMC3    C7 7594   1.085   3.372  14.367 -0.0920 -0.4442 -0.4742
  507TMC3    C8 7595   1.200   3.055  14.140 -0.2314 -0.1434 -0.1537
  507TMC3    O1 7596   1.107   3.379  14.248 -0.2137  0.0913  0.4520
  507TMC3    O2 7597   1.175   2.942  14.093 -0.4362 -0.5672  0.3611
  508MPD2     C 7598   1.823   0.813  15.975 -0.0462  0.1854 -0.1024
  508MPD2    C1 7599   1.785   0.837  16.103 -0.2087  0.1520  0.2861
  508MPD2    C2 7600   1.698   0.943  16.138 -0.4409 -0.0083 -0.2277
  508MPD2    C3 7601   1.652   1.024  16.040 -0.5612  0.2633 -0.1073
  508MPD2    C4 7602   1.692   0.998  15.908 -0.3116  0.4107  0.0998
  508MPD2    C5 7603   1.772   0.892  15.876 -0.6791 -0.2555 -0.8639
  508MPD2     H 7604   1.672   0.960  16.242  1.0272  1.6098 -0.1438
  508MPD2    H1 7605   1.670   1.061  15.823  1.5633 -0.0038 -0.6848
  508MPD2    H2 7606   1.887   0.728  15.956  0.5212  0.1836  1.8462
  508MPD2    H3 7607   1.809   0.879  15.774 -0.6821  1.9030 -1.1476
  508MPD2     N 7608   1.591   1.143  16.079 -1.0580 -0.6340  0.1556
  508MPD2    H5 7609   1.567   1.145  16.177 -0.4095  2.7058  0.2537
  508MPD2    N1 7610   1.838   0.755  16.202  0.1482  0.1592  0.2380
  508MPD2    H7 7611   1.912   0.686  16.190  1.8766  1.9793  0.5070
  509TMC3    C1 7612   1.427   1.592  16.075 -0.3270 -0.5208 -0.7414
  509TMC3    C2 7613   1.454   1.601  16.214  0.6945 -0.1143 -0.7120
  509TMC3    C3 7614   1.502   1.494  16.272 -0.0426 -1.0808  0.1682
  509TMC3    C4 7615   1.436   1.471  16.006 -0.3703  0.7374  0.3733
  509TMC3    C5 7616   1.483   1.361  16.076 -0.5274 -0.9006  0.0120
  509TMC3    C6 7617   1.517   1.372  16.209 -0.2153  0.2333 -0.3328
  509TMC3     C 7618   1.386   1.719  16.010 -0.2545  0.3584  0.6038
  509TMC3     O 7619   1.318   1.801  16.072  0.6966 -0.4125 -0.1130
  509TMC3     H 7620   1.465   1.693  16.271 -0.2724 -1.1557  1.1733
  509TMC3    H1 7621   1.413   1.462  15.900  0.2739 -0.9512  0.3720
  509TMC3    H2 7622   1.555   1.287  16.265  0.4679  0.0740 -1.0359
  509TMC3    C7 7623   1.550   1.259  16.007 -0.9736 -0.3309  0.1981
  509TMC3    C8 7624   1.605   1.506  16.379 -0.8724 -0.2925  0.5865
  509TMC3    O1 7625   1.575   1.274  15.887 -1.3004  0.3769 -0.5489
  509TMC3    O2 7626   1.621   1.427  16.471  0.0758 -0.2688  0.1306
  510MPD2     C 7627   4.678   2.356  14.648 -0.1831 -0.5836 -0.5182
  510MPD2    C1 7628   0.041   2.286  14.710  0.0383 -0.0845 -0.2566
  510MPD2    C2 7629   0.169   2.306  14.670  0.0024  0.2118  0.0465
  510MPD2    C3 7630   0.201   2.390  14.568 -0.0332 -0.2522 -0.1888
  510MPD2    C4 7631   0.099   2.467  14.514  0.3710 -0.2420  0.6912
  510MPD2    C5 7632   4.708   2.457  14.564 -0.0677 -0.0803  0.6813
  510MPD2     H 7633   0.245   2.249  14.723  1.1386  1.3029 -0.4211
  510MPD2    H1 7634   0.106   2.542  14.437  1.2503 -0.3552  0.6598
  510MPD2    H2 7635   4.574   2.368  14.677  0.2145  0.9718  0.2441
  510MPD2    H3 7636   4.629   2.515  14.518 -0.5080 -1.7726 -0.6553
  510MPD2     N 7637   0.328   2.390  14.511  0.0754  0.4277  0.0877
  510MPD2    H5 7638   0.386   2.315  14.547 -0.0912  0.5463  0.6017
  510MPD2    N1 7639   0.009   2.198  14.809  0.0126  0.1083 -0.6198
  510MPD2    H7 7640   4.649   2.172  14.818 -0.1880  0.8173 -0.7583
  511TMC3    C1 7641   0.018   2.040  14.992 -0.0518 -0.2167 -0.1185
  511TMC3    C2 7642   0.029   2.059  15.130 -0.1005 -1.2919  0.1818
  511TMC3    C3 7643   4.654   2.013  15.206  0.0234 -0.7578  0.3036
  511TMC3    C4 7644   4.669   1.955  14.935 -0.3210  0.5511  0.2905
  511TMC3    C5 7645   4.582   1.888  15.014 -0.7347  0.0419 -0.5992
  511TMC3    C6 7646   4.568   1.918  15.148 -0.5717  0.3369  0.0730
  511TMC3     C 7647   0.088   2.136  14.905  0.8919 -0.6930  0.1573
  511TMC3     O 7648   0.203   2.165  14.943 -0.5004  0.1800 -0.6550
  511TMC3     H 7649   0.092   2.138  15.170 -2.5719  0.2925  0.9426
  511TMC3    H1 7650   4.640   1.942  14.831 -0.8454 -1.4565  0.6955
  511TMC3    H2 7651   4.479   1.877  15.195 -1.2475  0.1674 -1.3608
  511TMC3    C7 7652   4.517   1.772  14.957 -0.1074  0.3359 -0.1144
  511TMC3    C8 7653   4.609   2.088  15.320  0.7374 -0.5492 -0.5926
  511TMC3    O1 7654   4.541   1.748  14.841 -0.0651 -0.0480 -0.0892
  511TMC3    O2 7655   4.648   2.203  15.324  0.4203 -0.5805  0.5159
  512TMC3    C1 7656   3.496   1.909  13.297 -0.8027  0.1299  0.0599
  512TMC3    C2 7657   3.558   1.852  13.408  0.4818 -0.1793  0.4052
  512TMC3    C3 7658   3.663   1.768  13.397  1.1317  0.2558 -0.1445
  512TMC3    C4 7659   3.552   1.876  13.178 -0.6268 -1.1765  0.3860
  512TMC3    C5 7660   3.652   1.787  13.165  0.2166 -0.0564  0.1609
  512TMC3    C6 7661   3.703   1.731  13.277  0.2025 -0.0672  0.0074
  512TMC3     C 7662   3.412   2.028  13.308 -0.2832  0.4817  0.1098
  512TMC3     O 7663   3.415   2.090  13.410  0.4318  0.9133  0.5423
  512TMC3     H 7664   3.516   1.891  13.501  0.8968 -0.9592  0.9213
  512TMC3    H1 7665   3.529   1.925  13.084 -0.1107  1.0330  1.4150
  512TMC3    H2 7666   3.795   1.675  13.268  0.1427  0.0958 -1.5980
  512TMC3    C7 7667   3.738   1.782  13.050  0.6174  0.0185 -0.1371
  512TMC3    C8 7668   3.770   1.759  13.499 -0.0400 -0.3102 -0.3190
  512TMC3    O1 7669   3.732   1.874  12.967  0.7455  0.3462 -0.2590
  512TMC3    O2 7670   3.832   1.653  13.499  0.9753  0.4501  0.1343
  513MPD2     C 7671   0.640   1.509  12.717 -0.0646  0.8286  0.2398
  513MPD2    C1 7672   0.772   1.553  12.704 -0.2227 -0.1168 -0.5792
  513MPD2    C2 7673   0.820   1.610  12.822  0.0696  0.2494  0.2771
  513MPD2    C3 7674   0.747   1.622  12.941  0.6512  0.2385  0.4941
  513MPD2    C4 7675   0.621   1.562  12.951 -0.6326  0.7745  0.3015
  513MPD2    C5 7676   0.575   1.506  12.839 -0.9008  0.2277 -0.6583
  513MPD2     H 7677   0.913   1.665  12.817 -0.0971  0.4654 -0.5277
  513MPD2    H1 7678   0.559   1.563  13.040  0.4312  1.5321  1.0402
  513MPD2    H2 7679   0.591   1.456  12.636 -0.8708  0.4958  0.9472
  513MPD2    H3 7680   0.479   1.456  12.839 -0.6762 -0.2015  0.3757
  513MPD2     N 7681   0.805   1.708  13.035 -0.1810 -0.0007 -0.5123
  513MPD2    H5 7682   0.894   1.741  12.998 -0.4373  0.2644 -0.9014
  513MPD2    N1 7683   0.846   1.522  12.582 -0.0804 -0.1010 -0.2291
  513MPD2    H7 7684   0.807   1.472  12.503 -1.6565  1.4865 -0.4546
  514TMC3    C1 7685   1.052   1.497  12.462  1.2528 -0.2590 -0.4739
  514TMC3    C2 7686   1.057   1.586  12.358 -0.3247 -0.5310  0.1807
  514TMC3    C3 7687   1.167   1.595  12.286  0.0364 -0.2804  0.8840
  514TMC3    C4 7688   1.168   1.427  12.507  0.1810  0.1487 -0.0485
  514TMC3    C5 7689   1.281   1.453  12.442  0.1068 -0.1191  0.6559
  514TMC3    C6 7690   1.276   1.527  12.330  0.0746  0.6869 -0.4403
  514TMC3     C 7691   0.977   1.548  12.577  0.3523  0.0824 -0.0068
  514TMC3     O 7692   1.054   1.599  12.656 -0.2716  0.4702  0.3582
  514TMC3     H 7693   0.975   1.652  12.334  0.3344 -0.5662 -2.0988
  514TMC3    H1 7694   1.160   1.372  12.600  0.9711  1.2530  0.6673
  514TMC3    H2 7695   1.371   1.535  12.279  0.1816 -1.0980 -0.5219
  514TMC3    C7 7696   1.395   1.499  12.527 -0.3344  0.6399  0.0483
  514TMC3    C8 7697   1.195   1.724  12.225 -0.3598  0.3411  0.2211
  514TMC3    O1 7698   1.502   1.533  12.477 -0.3776  0.3620  0.2192
  514TMC3    O2 7699   1.102   1.792  12.176  0.4257  0.0701 -0.2367
  515MPD2     C 7700   3.683   3.248  14.951 -0.3263  0.1394 -0.3627
  515MPD2    C1 7701   3.614   3.309  14.846 -0.6338 -0.2158  0.2421
  515MPD2    C2 7702   3.603   3.446  14.849 -0.0506  0.1897 -0.0537
  515MPD2    C3 7703   3.667   3.520  14.949  1.3464 -0.5664  0.2022
  515MPD2    C4 7704   3.735   3.461  15.044 -0.1803 -0.1997  0.3008
  515MPD2    C5 7705   3.744   3.328  15.047 -0.4938  0.2234 -0.0514
  515MPD2     H 7706   3.545   3.493  14.771 -0.1666  0.1282 -0.0049
  515MPD2    H1 7707   3.784   3.518  15.123  0.5143  0.5840 -0.7045
  515MPD2    H2 7708   3.694   3.141  14.969  1.9684  1.0820  3.8360
  515MPD2    H3 7709   3.801   3.271  15.119 -0.5742 -1.2529 -1.1516
  515MPD2     N 7710   3.661   3.660  14.958 -0.1132 -0.3256 -0.2503
  515MPD2    H5 7711   3.721   3.702  15.029  1.2466 -1.1986 -0.8801
  515MPD2    N1 7712   3.531   3.238  14.745  0.0770  0.2970  0.1358
  515MPD2    H7 7713   3.464   3.293  14.692  0.7022 -1.2468 -2.2396
  516TMC3    C1 7714   3.418   3.048  14.647  0.2397 -0.0371 -0.8060
  516TMC3    C2 7715   3.353   3.144  14.574  0.1116 -0.7990  0.0362
  516TMC3    C3 7716   3.218   3.137  14.551  0.2040 -0.2819 -0.6051
  516TMC3    C4 7717   3.343   2.938  14.679  0.5725 -0.2999  0.3724
  516TMC3    C5 7718   3.205   2.928  14.664 -0.4746  0.0185 -0.2737
  516TMC3    C6 7719   3.142   3.029  14.602 -0.4686 -0.4089 -0.1785
  516TMC3     C 7720   3.520   3.099  14.738 -0.0414  0.2287  0.5984
  516TMC3     O 7721   3.561   3.019  14.823 -0.4559  0.0571 -0.5943
  516TMC3     H 7722   3.399   3.240  14.553 -1.4447  0.0369  0.4753
  516TMC3    H1 7723   3.400   2.858  14.724  1.8428 -0.0060 -0.6956
  516TMC3    H2 7724   3.035   3.032  14.592 -0.3540  1.6128 -0.7398
  516TMC3    C7 7725   3.138   2.817  14.731  0.3290  0.1612 -0.6034
  516TMC3    C8 7726   3.131   3.247  14.513  0.6916  0.8499  0.7262
  516TMC3    O1 7727   3.206   2.734  14.789 -0.3920 -0.0920 -0.3484
  516TMC3    O2 7728   3.013   3.234  14.544 -0.1100 -0.1600 -0.9085
  517MPD2     C 7729   4.171   0.087   0.594 -0.0350 -0.1830 -0.3904
  517MPD2    C1 7730   4.148   0.199   0.520  0.9515 -0.0619 -0.3947
  517MPD2    C2 7731   4.064   0.299   0.564  0.2554 -0.1253  0.3900
  517MPD2    C3 7732   4.016   0.300   0.694 -0.0288 -0.3635 -0.3522
  517MPD2    C4 7733   4.035   0.184   0.769  0.7868 -0.7452 -0.1207
  517MPD2    C5 7734   4.123   0.092   0.726 -0.1517  0.1034 -0.1231
  517MPD2     H 7735   4.036   0.376   0.494  0.1950 -0.2523  0.2754
  517MPD2    H1 7736   3.990   0.167   0.866  0.0660 -1.6278 -0.6144
  517MPD2    H2 7737   4.227   4.736   0.564  1.8427  0.3391  1.6280
  517MPD2    H3 7738   4.139   0.002   0.785  1.1207  0.5450  0.1969
  517MPD2     N 7739   3.927   0.401   0.741 -0.1444 -0.4620  0.4298
  517MPD2    H5 7740   3.880   0.374   0.827  0.1789 -0.5793  0.5708
  517MPD2    N1 7741   4.185   0.203   0.384  0.0006 -0.2973  0.2201
  517MPD2    H7 7742   4.146   0.275   0.324 -0.6846  0.2827  1.3428
  518TMC3    C1 7743   4.307   0.151   0.197  0.2434 -0.0843  0.3651
  518TMC3    C2 7744   4.196   0.125   0.117 -0.2498  0.0654 -0.2115
  518TMC3    C3 7745   4.220   0.071  17.734 -0.7360  0.7346  0.4292
  518TMC3    C4 7746   4.436   0.125   0.152 -0.3447 -0.8105 -0.1004
  518TMC3    C5 7747   4.455   0.072   0.026  0.7113 -0.5751  0.7672
  518TMC3    C6 7748   4.345   0.053  17.689 -0.8541  0.6873  0.0080
  518TMC3     C 7749   4.290   0.131   0.337 -0.2918 -0.5846 -0.4693
  518TMC3     O 7750   4.369   0.059   0.392 -0.0248  0.2405 -0.4803
  518TMC3     H 7751   4.100   0.114   0.166  0.7258 -1.8884  1.2313
  518TMC3    H1 7752   4.518   0.123   0.223 -0.3841 -0.8629 -0.0561
  518TMC3    H2 7753   4.354   0.014  17.588 -0.5221  1.0766 -0.1157
  518TMC3    C7 7754   4.575   4.734   0.012 -0.0193  0.3130 -0.8248
  518TMC3    C8 7755   4.130   4.704  17.683 -0.0062  0.1754  0.3060
  518TMC3    O1 7756   4.662   0.020   0.093 -0.2067 -0.1189 -0.0073
  518TMC3    O2 7757   4.162   4.619  17.598  0.3298 -0.4586 -0.3811
  519MPD2     C 7758   0.273   3.274  14.600  0.6399 -0.3400  0.1660
  519MPD2    C1 7759   0.228   3.330  14.482 -0.3312 -0.4824 -0.5143
  519MPD2    C2 7760   0.316   3.376  14.382 -0.1211 -0.2713 -0.0067
  519MPD2    C3 7761   0.453   3.369  14.407 -0.6459 -0.3401 -0.5047
  519MPD2    C4 7762   0.494   3.327  14.532  0.2455  0.2583 -0.1759
  519MPD2    C5 7763   0.407   3.275  14.628  0.1421  0.0759 -0.0602
  519MPD2     H 7764   0.268   3.404  14.289 -0.6568 -1.2215 -0.0187
  519MPD2    H1 7765   0.602   3.325  14.538  0.2012  2.2711  1.2762
  519MPD2    H2 7766   0.215   3.246  14.687  0.3786  0.0694  0.1237
  519MPD2    H3 7767   0.446   3.228  14.718 -0.4949 -0.4287 -0.0514
  519MPD2     N 7768   0.552   3.403  14.309  0.0874 -0.1884  0.7198
  519MPD2    H5 7769   0.648   3.411  14.339 -0.3687  0.6803  1.9077
  519MPD2    N1 7770   0.087   3.332  14.457  0.0307 -0.1015  0.5964
  519MPD2    H7 7771   0.028   3.273  14.514  1.0227 -1.1740  0.5229
  520TMC3    C1 7772   0.632   3.494  14.104  0.2619  0.6063  0.4814
  520TMC3    C2 7773   0.587   3.516  13.978  0.0580  0.3553 -0.0295
  520TMC3    C3 7774   0.642   3.445  13.872  0.5632 -1.1295 -0.3474
  520TMC3    C4 7775   0.741   3.415  14.118 -0.1855  0.1327  0.0849
  520TMC3    C5 7776   0.793   3.342  14.015  0.6440  0.1635 -0.0328
  520TMC3    C6 7777   0.739   3.358  13.892  0.2638  0.1016  0.5271
  520TMC3     C 7778   0.516   3.443  14.184 -0.4116 -0.0354  0.7965
  520TMC3     O 7779   0.404   3.451  14.130 -0.3835 -0.3868 -0.2506
  520TMC3     H 7780   0.501   3.579  13.959 -0.6292 -1.0749 -1.6612
  520TMC3    H1 7781   0.791   3.403  14.214 -0.9331  1.0024  0.5917
  520TMC3    H2 7782   0.779   3.320  13.799  1.1099 -0.0922  0.9727
  520TMC3    C7 7783   0.818   3.201  14.049  0.1985  0.2110 -0.8454
  520TMC3    C8 7784   0.571   3.446  13.746  0.0663  0.4809 -0.5795
  520TMC3    O1 7785   0.780   3.172  14.162  0.6058  0.4536  0.5331
  520TMC3    O2 7786   0.636   3.430  13.641  0.4809  0.2441 -0.8931
  521MPD2     C 7787   0.542   0.996  17.555  0.3262  0.0931 -0.0199
  521MPD2    C1 7788   0.581   1.033  17.428 -0.4402 -0.3701  0.1867
  521MPD2    C2 7789   0.684   0.962  17.362  0.3383 -0.1221 -0.0414
  521MPD2    C3 7790   0.765   0.874  17.432 -0.1057  0.1990 -0.1021
  521MPD2    C4 7791   0.717   0.842  17.559  0.0611  0.6678  1.1229
  521MPD2    C5 7792   0.613   0.897  17.621  0.8644  0.3267  0.2165
  521MPD2     H 7793   0.717   0.984  17.261  0.7483  0.6788  0.2653
  521MPD2    H1 7794   0.773   0.771  17.618  0.8066  1.4912  1.4010
  521MPD2    H2 7795   0.451   1.032  17.601  0.0423  1.1435 -1.3943
  521MPD2    H3 7796   0.598   0.874  17.726  2.5417  0.7812  0.5573
  521MPD2     N 7797   0.864   0.807  17.362  0.8417  0.1914 -0.1958
  521MPD2    H5 7798   0.882   0.848  17.271  1.5206 -0.0450 -0.1664
  521MPD2    N1 7799   0.509   1.136  17.372  0.2732  0.2532 -0.3704
  521MPD2    H7 7800   0.422   1.155  17.420  0.5239  0.7951 -0.1386
  522TMC3    C1 7801   1.034   0.661  17.310 -0.4450 -0.1527  0.1859
  522TMC3    C2 7802   1.156   0.616  17.357 -1.3026 -0.7585  0.4034
  522TMC3    C3 7803   1.241   0.561  17.264 -0.3218 -0.0670  0.6252
  522TMC3    C4 7804   0.989   0.631  17.181 -0.9393 -0.4959  0.6275
  522TMC3    C5 7805   1.078   0.579  17.093  0.5784  0.4681 -0.4027
  522TMC3    C6 7806   1.206   0.546  17.133  0.7619 -0.1678 -0.3435
  522TMC3     C 7807   0.951   0.716  17.413 -0.3255  0.5633  0.2466
  522TMC3     O 7808   0.949   0.665  17.527 -0.2215 -0.1774 -0.5410
  522TMC3     H 7809   1.177   0.640  17.460  1.8521 -0.8012 -0.2287
  522TMC3    H1 7810   0.889   0.665  17.156 -1.2138 -0.6348  1.5453
  522TMC3    H2 7811   1.263   0.489  17.060 -0.2355 -0.0568 -1.2219
  522TMC3    C7 7812   1.050   0.573  16.952 -0.1591  0.7423  0.1162
  522TMC3    C8 7813   1.384   0.580  17.297 -1.0821  0.1488  0.5840
  522TMC3    O1 7814   1.122   0.504  16.884  0.8658  0.0137  0.1761
  522TMC3    O2 7815   1.420   0.579  17.414  0.2337 -0.7928  0.6340
  523MPD2     C 7816   3.626   1.598  10.238  0.4227  0.0423  1.0260
  523MPD2    C1 7817   3.514   1.577  10.163 -0.2838  0.0999  0.0558
  523MPD2    C2 7818   3.475   1.669  10.070 -0.1904 -0.5125  0.2368
  523MPD2    C3 7819   3.544   1.788  10.065  0.0245 -0.2486  0.0627
  523MPD2    C4 7820   3.650   1.818  10.154 -0.2390  0.0970 -0.3349
  523MPD2    C5 7821   3.683   1.719  10.241 -0.4589 -0.3255 -0.2216
  523MPD2     H 7822   3.396   1.648   9.999 -1.1858  1.2041  0.8242
  523MPD2    H1 7823   3.709   1.908  10.146  0.8662 -0.5585  0.5239
  523MPD2    H2 7824   3.648   1.522  10.313 -0.1388 -2.1950 -1.1038
  523MPD2    H3 7825   3.765   1.735  10.309 -1.0048  0.5464  0.2236
  523MPD2     N 7826   3.521   1.891   9.967 -0.5924  0.1558  0.3576
  523MPD2    H5 7827   3.578   1.971   9.991  0.6606 -0.9672  1.1562
  523MPD2    N1 7828   3.462   1.447  10.168  0.3555  0.3967  0.5192
  523MPD2    H7 7829   3.511   1.381  10.228 -2.2279 -1.5059  0.5318
  524TMC3    C1 7830   3.422   2.005   9.786 -0.2798  0.9922  0.1692
  524TMC3    C2 7831   3.377   2.002   9.657  0.3437  0.1170  0.4342
  524TMC3    C3 7832   3.352   2.121   9.602  0.0353 -0.1882 -0.3282
  524TMC3    C4 7833   3.433   2.121   9.863  0.6673 -0.3075  0.2683
  524TMC3    C5 7834   3.399   2.239   9.797  0.3793 -0.0988  0.4875
  524TMC3    C6 7835   3.369   2.242   9.664 -0.9052 -0.4318  0.1487
  524TMC3     C 7836   3.447   1.877   9.848 -0.0735  0.0545  0.1899
  524TMC3     O 7837   3.406   1.776   9.793  0.7126 -0.3016 -0.2332
  524TMC3     H 7838   3.393   1.913   9.597  1.8883 -0.8116  2.2053
  524TMC3    H1 7839   3.470   2.127   9.965 -0.9798 -2.0609  0.9732
  524TMC3    H2 7840   3.346   2.329   9.604 -1.2880 -0.4936  0.2015
  524TMC3    C7 7841   3.398   2.354   9.885  0.2306 -0.2420 -0.2215
  524TMC3    C8 7842   3.282   2.121   9.478 -0.0274  0.2169  0.2787
  524TMC3    O1 7843   3.439   2.334   9.995  0.1315  0.0584 -0.2763
  524TMC3    O2 7844   3.333   2.037   9.404  0.2892  0.6527 -0.3549
  525MPD2     C 7845   1.459   2.837  14.548  0.2120  0.4232  0.0511
  525MPD2    C1 7846   1.537   2.842  14.666  0.5247 -0.4214  0.0542
  525MPD2    C2 7847   1.626   2.946  14.677 -0.4975  0.5692 -0.6603
  525MPD2    C3 7848   1.644   3.034  14.569 -0.5546  0.3563 -0.2767
  525MPD2    C4 7849   1.583   3.013  14.451  0.4087  0.2826  0.7854
  525MPD2    C5 7850   1.492   2.909  14.438 -0.1221 -0.5247 -0.0300
  525MPD2     H 7851   1.687   2.961  14.765 -1.9036 -0.5067  0.4856
  525MPD2    H1 7852   1.604   3.080  14.368 -1.8959  0.9854  0.7800
  525MPD2    H2 7853   1.376   2.768  14.534  2.1672 -1.5021 -2.1942
  525MPD2    H3 7854   1.438   2.901  14.345 -1.9240 -3.9806  1.3209
  525MPD2     N 7855   1.730   3.144  14.582  0.5255  0.7804 -0.0403
  525MPD2    H5 7856   1.713   3.227  14.527  0.5651  0.9543  0.2119
  525MPD2    N1 7857   1.519   2.751  14.773  0.7484  0.0262 -0.3938
  525MPD2    H7 7858   1.574   2.759  14.858 -0.2424 -0.8963  0.3352
  526TMC3    C1 7859   1.475   2.549  14.883  0.2025 -0.2665 -0.3299
  526TMC3    C2 7860   1.383   2.540  14.987 -0.2360 -0.0785 -0.3329
  526TMC3    C3 7861   1.432   2.502  15.110  0.4135 -0.1238 -0.3020
  526TMC3    C4 7862   1.605   2.519  14.894  0.1392  0.1620  0.4521
  526TMC3    C5 7863   1.648   2.469  15.013  0.8055  0.4226 -0.4838
  526TMC3    C6 7864   1.562   2.460  15.122  0.2988 -0.8555  0.3954
  526TMC3     C 7865   1.441   2.639  14.774  0.4269  0.6893 -0.1071
  526TMC3     O 7866   1.325   2.630  14.737 -0.1011  0.3386 -0.2628
  526TMC3     H 7867   1.286   2.584  14.967  0.0369 -0.5973 -2.8173
  526TMC3    H1 7868   1.683   2.555  14.828 -0.9903  3.0398  0.6943
  526TMC3    H2 7869   1.596   2.419  15.216  1.5510  1.0811  0.8052
  526TMC3    C7 7870   1.766   2.393  15.020  0.4288  0.2680  0.4132
  526TMC3    C8 7871   1.372   2.537  15.233  0.0488  0.1192  0.0347
  526TMC3    O1 7872   1.814   2.383  15.133  0.0738  0.5527  0.3807
  526TMC3    O2 7873   1.412   2.491  15.338 -0.1799 -0.2115  0.1521
  527MPD2     C 7874   4.188   0.839   1.168  0.2503  0.5301 -0.2374
  527MPD2    C1 7875   4.261   0.737   1.233  0.5754 -0.1776  0.0326
  527MPD2    C2 7876   4.369   0.688   1.154  0.1746 -0.8610  0.4079
  527MPD2    C3 7877   4.406   0.736   1.032  0.3056 -0.0355 -0.1692
  527MPD2    C4 7878   4.335   0.844   0.981 -0.4211 -0.4760 -0.8631
  527MPD2    C5 7879   4.222   0.882   1.045 -0.0473 -1.1774  0.0238
  527MPD2     H 7880   4.432   0.613   1.202  1.5655  0.3817  0.5158
  527MPD2    H1 7881   4.346   0.870   0.877 -0.8913 -0.4062 -0.8990
  527MPD2    H2 7882   4.100   0.890   1.204 -1.3708 -1.0317 -1.9771
  527MPD2    H3 7883   4.148   0.948   1.001  2.2476  0.8274 -0.7971
  527MPD2     N 7884   4.517   0.686   0.968 -0.1088 -0.2140  0.4834
  527MPD2    H5 7885   4.586   0.644   1.030  0.2341 -2.0065 -1.1347
  527MPD2    N1 7886   4.236   0.682   1.358  0.2018  0.1698  0.1238
  527MPD2    H7 7887   4.282   0.595   1.384  1.2014  1.5237  2.8660
  528TMC3    C1 7888   4.113   0.665   1.560  0.9630  0.2131  0.3216
  528TMC3    C2 7889   4.059   0.726   1.674 -1.0103 -0.4877  0.2493
  528TMC3    C3 7890   4.012   0.650   1.781 -0.1471  0.2259  0.1721
  528TMC3    C4 7891   4.121   0.533   1.550  0.2658  0.7817 -0.3080
  528TMC3    C5 7892   4.072   0.460   1.653 -0.4617 -0.5134  0.2160
  528TMC3    C6 7893   4.021   0.510   1.765  0.5668 -0.3416 -0.0272
  528TMC3     C 7894   4.158   0.743   1.455  0.4202  0.1290  0.3270
  528TMC3     O 7895   4.137   0.863   1.465  0.1020  0.6591 -0.0959
  528TMC3     H 7896   4.048   0.834   1.675 -1.8201 -0.5645 -0.2784
  528TMC3    H1 7897   4.156   0.491   1.456  1.2618 -0.3176  0.5680
  528TMC3    H2 7898   3.978   0.436   1.832  0.3986 -1.3117 -1.2070
  528TMC3    C7 7899   4.085   0.313   1.648  0.2889 -0.1418 -0.8705
  528TMC3    C8 7900   3.968   0.717   1.903 -0.3092  0.8018  0.0550
  528TMC3    O1 7901   4.031   0.242   1.734  0.8052  0.1146 -0.2975
  528TMC3    O2 7902   3.996   0.836   1.915  0.1882 -0.4785 -0.1951
  529MPD2     C 7903   2.842   3.920   0.951 -0.2594  0.6097 -0.0413
  529MPD2    C1 7904   2.725   3.847   0.967  0.8654 -0.4429  0.0149
  529MPD2    C2 7905   2.611   3.914   0.965  0.2601 -0.5628 -0.0522
  529MPD2    C3 7906   2.600   4.047   0.923  0.1469 -0.2008 -0.4587
  529MPD2    C4 7907   2.716   4.117   0.895 -0.3917 -0.5922  0.9096
  529MPD2    C5 7908   2.837   4.054   0.912 -0.1200 -0.6572  0.4960
  529MPD2     H 7909   2.520   3.858   0.984  0.0991 -0.0941  0.5547
  529MPD2    H1 7910   2.714   4.223   0.875 -0.3483 -0.5800  0.9690
  529MPD2    H2 7911   2.935   3.866   0.938  0.0225  1.5413 -1.9657
  529MPD2    H3 7912   2.925   4.112   0.886 -0.7686 -0.7160 -1.7732
  529MPD2     N 7913   2.475   4.124   0.922  0.0368  0.8174 -0.5236
  529MPD2    H5 7914   2.489   4.223   0.903 -1.5014  0.9976 -0.7659
  529MPD2    N1 7915   2.710   3.707   0.981  0.7641 -0.1520 -0.7704
  529MPD2    H7 7916   2.624   3.658   1.003  0.3971  1.4563  1.4503
  530TMC3    C1 7917   2.773   3.481   0.939 -0.3094  0.2698  0.4571
  530TMC3    C2 7918   2.818   3.398   0.841 -0.6316  0.5919  0.4376
  530TMC3    C3 7919   2.835   3.268   0.864  0.2111  0.2246  0.6478
  530TMC3    C4 7920   2.734   3.436   1.065  0.2598  0.4088 -0.3503
  530TMC3    C5 7921   2.753   3.297   1.084  0.2261  0.2676  0.0276
  530TMC3    C6 7922   2.805   3.214   0.987 -0.1058 -0.3728  0.8148
  530TMC3     C 7923   2.808   3.620   0.936 -0.0163  0.0079  0.2139
  530TMC3     O 7924   2.903   3.650   0.866 -0.0737 -0.0909 -0.2443
  530TMC3     H 7925   2.853   3.445   0.750 -0.3470 -1.3462 -0.4656
  530TMC3    H1 7926   2.727   3.499   1.152 -0.7753  0.7800 -0.6923
  530TMC3    H2 7927   2.821   3.108   1.007  0.1462 -0.2790  1.1129
  530TMC3    C7 7928   2.755   3.252   1.222 -0.3667  0.3752  0.0418
  530TMC3    C8 7929   2.936   3.199   0.791  0.0166  0.5668  0.6201
  530TMC3    O1 7930   2.834   3.165   1.256  0.8276 -0.0209  0.0560
  530TMC3    O2 7931   2.931   3.211   0.668 -0.0017 -0.8607  0.1050
  531MPD2     C 7932   1.512   1.723  12.967  0.0240 -0.0962  0.7978
  531MPD2    C1 7933   1.377   1.724  12.960  0.7335  0.0641 -0.3042
  531MPD2    C2 7934   1.318   1.660  12.855  0.3763  0.2745 -0.0363
  531MPD2    C3 7935   1.398   1.613  12.751  0.5518 -0.5068  0.6047
  531MPD2    C4 7936   1.537   1.623  12.754  0.7960 -0.4574 -0.0732
  531MPD2    C5 7937   1.589   1.682  12.864 -0.6444  0.7682 -0.3387
  531MPD2     H 7938   1.211   1.641  12.849  0.2129  1.9230 -2.6868
  531MPD2    H1 7939   1.604   1.580  12.680  0.5414 -0.9049 -0.0473
  531MPD2    H2 7940   1.558   1.770  13.054  2.5624 -0.3327 -0.4208
  531MPD2    H3 7941   1.696   1.672  12.879 -0.9356 -0.7358  0.7017
  531MPD2     N 7942   1.337   1.542  12.645  0.1781  0.3646 -0.2794
  531MPD2    H5 7943   1.237   1.527  12.655  0.7243 -0.7106  3.5849
  531MPD2    N1 7944   1.295   1.774  13.070  0.7624 -0.4703 -0.2944
  531MPD2    H7 7945   1.343   1.798  13.156 -2.0401  3.7615  0.0903
  532TMC3    C1 7946   1.090   1.841  13.179 -0.0759 -0.3370 -0.1046
  532TMC3    C2 7947   0.957   1.858  13.146  0.3103 -0.4696  0.2688
  532TMC3    C3 7948   0.860   1.816  13.227  0.2204  0.3802  0.1987
  532TMC3    C4 7949   1.121   1.789  13.296  0.1157  0.2425  0.3456
  532TMC3    C5 7950   1.019   1.747  13.378  0.0698  0.5508  0.0005
  532TMC3    C6 7951   0.888   1.748  13.342 -0.6574 -1.2239 -0.2292
  532TMC3     C 7952   1.157   1.787  13.058  0.2632  0.5163  1.1788
  532TMC3     O 7953   1.078   1.778  12.965  0.1227 -0.2504  0.2993
  532TMC3     H 7954   0.925   1.924  13.066 -1.0022 -0.1200  1.0876
  532TMC3    H1 7955   1.226   1.766  13.308  0.4030  1.3173 -0.1143
  532TMC3    H2 7956   0.812   1.702  13.403 -1.0825 -0.7726 -0.4179
  532TMC3    C7 7957   1.045   1.680  13.503  0.1802 -0.0613  0.7652
  532TMC3    C8 7958   0.758   1.744  13.155 -0.1794  0.0201 -0.4385
  532TMC3    O1 7959   0.969   1.592  13.535 -0.1182  0.8244 -0.0308
  532TMC3    O2 7960   0.655   1.706  13.209 -0.4018  0.2332 -0.1556
  533TMC3    C1 7961   1.900   3.289  14.662  0.2408  0.3596  0.2708
  533TMC3    C2 7962   2.029   3.300  14.713  0.0135 -0.3762  1.1089
  533TMC3    C3 7963   2.081   3.423  14.725 -0.3616  0.1196 -0.5692
  533TMC3    C4 7964   1.820   3.397  14.629  0.5155 -0.1792 -0.5217
  533TMC3    C5 7965   1.883   3.518  14.639  0.3374 -0.7189 -0.4435
  533TMC3    C6 7966   2.004   3.535  14.699  0.5429 -0.2086 -0.4716
  533TMC3     C 7967   1.830   3.160  14.674  0.0311  0.1887  0.3699
  533TMC3     O 7968   1.875   3.085  14.756 -0.4953 -0.3113  0.8399
  533TMC3     H 7969   2.090   3.213  14.735 -2.1783 -1.3220  3.5217
  533TMC3    H1 7970   1.717   3.376  14.604  0.3948 -1.2675  0.9060
  533TMC3    H2 7971   2.035   3.637  14.721  0.7655  0.0572 -2.0135
  533TMC3    C7 7972   1.790   3.635  14.655  0.7838  0.1914  0.5179
  533TMC3    C8 7973   2.216   3.444  14.785  0.3341  0.1652  0.0185
  533TMC3    O1 7974   1.721   3.659  14.556 -0.3373 -0.2819 -0.3242
  533TMC3    O2 7975   2.304   3.362  14.780 -0.2720 -0.2100 -0.2197
  534MPD2     C 7976   0.068   3.677   1.268 -0.2089 -0.2373  0.6260
  534MPD2    C1 7977   4.684   3.745   1.267 -0.7259  0.5318 -0.0043
  534MPD2    C2 7978   4.591   3.735   1.165 -0.8446  0.3318  0.2640
  534MPD2    C3 7979   4.620   3.657   1.056 -0.2646  0.8645 -0.4656
  534MPD2    C4 7980   0.005   3.590   1.051 -0.0882  0.1139  0.1197
  534MPD2    C5 7981   0.093   3.595   1.156  0.1264 -0.3912 -0.2086
  534MPD2     H 7982   4.500   3.793   1.176 -0.2116  0.9872  2.1505
  534MPD2    H1 7983   0.025   3.531   0.963 -0.8352 -0.0346  0.0509
  534MPD2    H2 7984   0.144   3.682   1.345 -1.1126  1.2400  1.4171
  534MPD2    H3 7985   0.184   3.537   1.151  0.7445  0.5071  0.5600
  534MPD2     N 7986   4.531   3.655   0.940 -0.3939 -0.1646  0.6141
  534MPD2    H5 7987   4.557   3.616   0.850  0.0053  2.8804 -0.6276
  534MPD2    N1 7988   4.654   3.828   1.378  0.0355 -0.5752  0.1381
  534MPD2    H7 7989   4.565   3.877   1.377 -0.6461 -1.7704  1.9022
  535TMC3    C1 7990   4.355   3.745   0.803  0.4088 -0.0382  0.2220
  535TMC3    C2 7991   4.241   3.818   0.807  0.4706  0.5546 -0.1700
  535TMC3    C3 7992   4.216   3.900   0.707  1.2214 -0.4050  0.7637
  535TMC3    C4 7993   4.452   3.755   0.701  0.0830  0.5828 -0.5051
  535TMC3    C5 7994   4.419   3.846   0.600 -0.0629 -0.5058 -0.1557
  535TMC3    C6 7995   4.301   3.921   0.600  0.1844 -0.3414  0.1263
  535TMC3     C 7996   4.409   3.717   0.934 -0.2465  0.0661 -0.2690
  535TMC3     O 7997   4.336   3.757   1.029 -0.5627 -0.5746 -0.6087
  535TMC3     H 7998   4.170   3.805   0.887 -0.1142  3.2713 -0.2396
  535TMC3    H1 7999   4.551   3.711   0.711 -0.9094 -1.9771 -1.9512
  535TMC3    H2 8000   4.275   3.985   0.517 -0.7737 -1.0562 -0.1360
  535TMC3    C7 8001   4.504   3.851   0.484  0.1342  0.0524 -0.8057
  535TMC3    C8 8002   4.101   3.987   0.712 -0.4194  0.1262 -0.1824
  535TMC3    O1 8003   4.603   3.777   0.484  0.2350 -0.4305 -0.0555
  535TMC3    O2 8004   3.994   3.955   0.766 -0.3587 -0.2294  0.8991
  536MPD2     C 8005   3.379   2.333  16.546 -0.3757 -0.2013 -0.1974
  536MPD2    C1 8006   3.264   2.288  16.615  0.2979 -0.4381 -0.0941
  536MPD2    C2 8007   3.146   2.256  16.556 -0.1440  0.1559 -0.1657
  536MPD2    C3 8008   3.129   2.281  16.421  0.5944  0.4049  0.4735
  536MPD2    C4 8009   3.239   2.329  16.352  0.5258  0.1227  0.1906
  536MPD2    C5 8010   3.363   2.351  16.414  0.0303 -0.3721 -0.0784
  536MPD2     H 8011   3.059   2.228  16.615 -0.2355  0.6634 -0.0591
  536MPD2    H1 8012   3.235   2.344  16.244  0.3729 -0.0208  0.1750
  536MPD2    H2 8013   3.471   2.362  16.595 -0.4554 -0.8385  0.3378
  536MPD2    H3 8014   3.438   2.408  16.361 -0.2578 -0.4625 -0.5892
  536MPD2     N 8015   3.005   2.266  16.346 -0.1972  0.2635 -0.2101
  536MPD2    H5 8016   3.011   2.283  16.246  1.1148 -0.9285 -0.3268
  536MPD2    N1 8017   3.278   2.282  16.750 -0.0296  0.0334 -0.2461
  536MPD2    H7 8018   3.360   2.330  16.785  1.6773 -2.3065 -0.9996
  537TMC3    C1 8019   3.216   2.243  16.980  0.1764 -0.5265 -0.3134
  537TMC3    C2 8020   3.255   2.373  17.014  0.1727  0.3982 -0.6848
  537TMC3    C3 8021   3.255   2.410  17.149 -0.2581  0.5778 -0.0740
  537TMC3    C4 8022   3.167   2.163  17.084  0.0491  0.1201  0.3868
  537TMC3    C5 8023   3.183   2.199  17.218  0.2852 -0.9891  0.1669
  537TMC3    C6 8024   3.229   2.327  17.249  0.2930  0.8737 -0.4338
  537TMC3     C 8025   3.189   2.221  16.837  0.0494 -0.2085  0.4442
  537TMC3     O 8026   3.109   2.128  16.816 -0.0835 -0.0087 -0.2396
  537TMC3     H 8027   3.283   2.438  16.932 -1.2186  0.5833 -1.0103
  537TMC3    H1 8028   3.127   2.068  17.051  1.1910  0.4076 -1.7721
  537TMC3    H2 8029   3.221   2.357  17.353 -0.4237  0.7778 -0.4636
  537TMC3    C7 8030   3.099   2.125  17.312 -0.4826  0.2026 -0.3379
  537TMC3    C8 8031   3.309   2.538  17.180 -0.3798 -0.0007  0.0387
  537TMC3    O1 8032   2.987   2.101  17.265 -0.1265 -0.2683  0.1126
  537TMC3    O2 8033   3.358   2.548  17.292 -0.3031 -0.1873 -0.2095
  538TMC3    C1 8034   4.484   1.117  11.312 -0.7432 -0.3840 -0.2852
  538TMC3    C2 8035   4.496   1.132  11.178 -0.7079  0.6523 -0.3754
  538TMC3    C3 8036   4.385   1.116  11.095  0.0723  0.2863 -0.0123
  538TMC3    C4 8037   4.361   1.096  11.369 -0.0126 -0.2779 -0.2914
  538TMC3    C5 8038   4.255   1.092  11.289  0.1366  0.9317 -0.3272
  538TMC3    C6 8039   4.261   1.112  11.155  0.3163  0.2713 -0.4026
  538TMC3     C 8040   4.605   1.126  11.397 -0.2533 -0.5812  0.8107
  538TMC3     O 8041   4.713   1.082  11.357 -0.2625  0.6588  0.6550
  538TMC3     H 8042   4.598   1.143  11.140 -0.8487 -0.2495 -1.0279
  538TMC3    H1 8043   4.354   1.068  11.474  0.8291 -1.0146 -0.4345
  538TMC3    H2 8044   4.174   1.097  11.093  0.6457 -2.8906 -0.0546
  538TMC3    C7 8045   4.134   1.102  11.355  0.4984 -0.7061  0.0921
  538TMC3    C8 8046   4.386   1.203  10.981 -0.0424 -0.2793  0.4057
  538TMC3    O1 8047   4.038   1.068  11.288 -0.1056 -0.3594 -0.3618
  538TMC3    O2 8048   4.485   1.190  10.913 -0.1289  0.3952 -0.8627
  539MPD2     C 8049   4.133   0.786  11.617  0.3388 -0.4237 -0.1804
  539MPD2    C1 8050   4.066   0.693  11.538  0.4274 -0.1579  0.0250
  539MPD2    C2 8051   3.933   0.713  11.521  0.4406  0.6393  0.2462
  539MPD2    C3 8052   3.869   0.818  11.592 -0.3135  0.4950 -0.3212
  539MPD2    C4 8053   3.940   0.900  11.669  0.1296  0.1710 -0.6354
  539MPD2    C5 8054   4.072   0.889  11.678  0.4634 -0.0794 -0.4349
  539MPD2     H 8055   3.884   0.650  11.447  0.2910 -0.2783  1.1233
  539MPD2    H1 8056   3.892   0.980  11.725  0.1118  0.5324 -1.1644
  539MPD2    H2 8057   4.241   0.773  11.625  0.2973  0.0382  1.0607
  539MPD2    H3 8058   4.125   0.958  11.742 -0.3785  2.2355 -2.2319
  539MPD2     N 8059   3.733   0.839  11.586  0.7892 -0.2915 -0.2900
  539MPD2    H5 8060   3.701   0.922  11.635  0.9943 -0.0925 -0.4989
  539MPD2    N1 8061   4.122   0.586  11.465 -0.3100 -0.0101 -0.2059
  539MPD2    H7 8062   4.060   0.539  11.401 -1.1638 -2.4118  2.4016
  540TMC3    C1 8063   3.503   0.837  11.511 -0.0933  0.8182 -0.2218
  540TMC3    C2 8064   3.422   0.807  11.405 -0.0935 -0.2399 -0.1355
  540TMC3    C3 8065   3.287   0.811  11.421  0.2586  0.0573  0.1909
  540TMC3    C4 8066   3.457   0.884  11.630 -1.0470  0.2278  0.2265
  540TMC3    C5 8067   3.319   0.877  11.644  0.6102 -0.3365 -0.5903
  540TMC3    C6 8068   3.233   0.844  11.541  0.4473  0.8297  0.0510
  540TMC3     C 8069   3.639   0.770  11.508  0.0447 -0.1211  0.7966
  540TMC3     O 8070   3.650   0.668  11.442 -0.0918 -0.1947 -0.3375
  540TMC3     H 8071   3.462   0.767  11.313  0.3129  0.5924 -0.3112
  540TMC3    H1 8072   3.518   0.880  11.720  2.2741  1.2918 -2.0327
  540TMC3    H2 8073   3.127   0.839  11.564  0.1681  0.8414 -1.2425
  540TMC3    C7 8074   3.257   0.911  11.768 -0.2043 -0.0209  0.0603
  540TMC3    C8 8075   3.201   0.799  11.307  0.0639 -0.6014  0.0961
  540TMC3    O1 8076   3.149   0.861  11.794 -0.0978  0.7853 -0.0268
  540TMC3    O2 8077   3.082   0.778  11.335 -0.4899 -0.9381 -0.6228
  541MPD2     C 8078   2.034   2.049  13.519  0.0458 -0.3146 -0.3249
  541MPD2    C1 8079   2.147   1.991  13.460  0.2596  0.2200  0.4091
  541MPD2    C2 8080   2.213   2.056  13.362 -0.8208  0.1128 -0.9739
  541MPD2    C3 8081   2.163   2.177  13.309  0.6987  0.5679  0.3767
  541MPD2    C4 8082   2.056   2.236  13.378  0.5792 -0.2078 -0.2008
  541MPD2    C5 8083   1.989   2.169  13.477 -0.1139  0.2299  0.3929
  541MPD2     H 8084   2.302   2.012  13.318 -0.8647 -0.5060 -0.4379
  541MPD2    H1 8085   2.033   2.338  13.350  0.2393  0.2995  1.9363
  541MPD2    H2 8086   1.975   2.006  13.599 -0.1489 -0.5808 -0.6168
  541MPD2    H3 8087   1.910   2.229  13.519  0.4635  2.0657 -1.1397
  541MPD2     N 8088   2.222   2.235  13.201 -0.5145 -1.4591  0.0161
  541MPD2    H5 8089   2.171   2.314  13.162  2.3494 -0.0159 -0.7967
  541MPD2    N1 8090   2.184   1.861  13.501 -0.2318  0.0649 -0.2541
  541MPD2    H7 8091   2.124   1.831  13.578  1.5907 -2.9444  0.0154
  542TMC3    C1 8092   2.371   2.264  13.012 -0.0918  0.6466  0.3793
  542TMC3    C2 8093   2.435   2.182  12.930 -0.2123  0.7240 -0.1805
  542TMC3    C3 8094   2.443   2.215  12.799 -0.4586  0.0707 -0.4018
  542TMC3    C4 8095   2.290   2.358  12.956  0.2732 -0.2139  0.1331
  542TMC3    C5 8096   2.301   2.395  12.828  0.2030 -0.0328  0.8126
  542TMC3    C6 8097   2.383   2.324  12.740 -0.0941 -0.1893  0.2165
  542TMC3     C 8098   2.341   2.203  13.139  0.1571 -0.3016 -0.4558
  542TMC3     O 8099   2.421   2.122  13.178  0.1098 -0.1296  0.8940
  542TMC3     H 8100   2.500   2.105  12.969 -0.4400  0.3496 -0.5434
  542TMC3    H1 8101   2.242   2.428  13.024  0.1598  0.1019 -0.2693
  542TMC3    H2 8102   2.366   2.349  12.635  1.6656 -2.1645 -0.5115
  542TMC3    C7 8103   2.226   2.509  12.789 -0.0568  0.1730 -0.4062
  542TMC3    C8 8104   2.500   2.115  12.704  0.1817 -0.4437  0.0067
  542TMC3    O1 8105   2.168   2.568  12.878 -0.3244  1.0823  0.1993
  542TMC3    O2 8106   2.531   2.160  12.595 -0.4756 -0.0057 -0.2760
  543TMC3    C1 8107   2.075   3.376  17.679 -0.5287 -0.7715  0.6664
  543TMC3    C2 8108   2.078   3.258   0.002 -0.9179  0.1282 -0.2020
  543TMC3    C3 8109   2.099   3.262   0.138  0.3179  0.7823 -0.5094
  543TMC3    C4 8110   2.066   3.506  17.737 -0.2533 -0.1161  0.2120
  543TMC3    C5 8111   2.088   3.507   0.124  0.3522 -0.3991  0.1382
  543TMC3    C6 8112   2.098   3.388   0.201  0.2685 -0.0503 -0.2191
  543TMC3     C 8113   2.095   3.357  17.540 -0.6600 -0.4772 -0.6817
  543TMC3     O 8114   2.100   3.239  17.506  0.8426  0.6505  0.4158
  543TMC3     H 8115   2.072   3.161  17.701  1.6292 -1.1459  2.0441
  543TMC3    H1 8116   2.066   3.603  17.688 -0.3280 -0.2667 -0.0910
  543TMC3    H2 8117   2.093   3.387   0.309 -1.5248  1.1191 -0.2854
  543TMC3    C7 8118   2.072   3.634   0.194 -0.4914  1.1938 -0.0502
  543TMC3    C8 8119   2.148   3.145   0.208  0.1901  0.5146 -0.0596
  543TMC3    O1 8120   1.979   3.700   0.144  0.2628 -0.2728  0.4136
  543TMC3    O2 8121   2.170   3.047   0.133  0.5610  0.1010 -0.0384
  544MPD2     C 8122   2.370   2.893   0.595 -0.2970  0.2847 -0.1328
  544MPD2    C1 8123   2.383   2.871   0.460 -0.5810 -0.3274  0.7765
  544MPD2    C2 8124   2.310   2.955   0.376 -0.2647 -0.1451  0.2723
  544MPD2    C3 8125   2.233   3.055   0.424 -0.6772 -0.8890 -0.1066
  544MPD2    C4 8126   2.226   3.074   0.559  0.5991  0.5690  0.0334
  544MPD2    C5 8127   2.295   2.992   0.642  0.5555  0.2903 -0.3464
  544MPD2     H 8128   2.322   2.952   0.268  2.7263 -1.4961  0.6397
  544MPD2    H1 8129   2.177   3.161   0.601  0.0337  0.0892  0.3672
  544MPD2    H2 8130   2.415   2.830   0.671  1.2450  1.3575 -0.1482
  544MPD2    H3 8131   2.297   3.005   0.749  1.3505  0.1892 -0.3438
  544MPD2     N 8132   2.163   3.151   0.343 -0.1361  0.6580 -0.6120
  544MPD2    H5 8133   2.128   3.229   0.396 -1.4124 -0.0330 -0.4484
  544MPD2    N1 8134   2.458   2.762   0.417 -0.0249 -0.0812  0.5702
  544MPD2    H7 8135   2.495   2.705   0.492 -0.6957 -1.0086  0.2053
  545TMC3    C1 8136   2.542   2.590   0.293 -0.1008 -1.1776 -0.3395
  545TMC3    C2 8137   2.488   2.482   0.227  0.3008 -0.0213 -0.6135
  545TMC3    C3 8138   2.557   2.363   0.234  0.0667 -0.1404 -0.1292
  545TMC3    C4 8139   2.661   2.576   0.366  0.9645 -0.0430 -0.7157
  545TMC3    C5 8140   2.723   2.451   0.359  0.2357  0.1632  0.7988
  545TMC3    C6 8141   2.666   2.343   0.305 -0.0806 -0.2427 -0.8447
  545TMC3     C 8142   2.463   2.708   0.293  1.0320  0.5822  0.6141
  545TMC3     O 8143   2.386   2.727   0.201 -0.2366  0.0509  0.2840
  545TMC3     H 8144   2.387   2.489   0.187  0.1289 -1.6116 -0.4686
  545TMC3    H1 8145   2.694   2.653   0.435 -2.2668  1.6143 -1.0441
  545TMC3    H2 8146   2.711   2.245   0.297 -0.4814 -0.7180  2.9304
  545TMC3    C7 8147   2.803   2.426   0.487 -0.1183  1.0054 -0.4266
  545TMC3    C8 8148   2.481   2.243   0.198  0.5574 -0.3197 -0.2303
  545TMC3    O1 8149   2.834   2.512   0.562  0.0472 -0.0545  0.4281
  545TMC3    O2 8150   2.508   2.135   0.249  0.7681 -0.4978 -0.1863
  546MPD2     C 8151   3.644   3.368   0.141  0.0627  0.7005 -0.3507
  546MPD2    C1 8152   3.604   3.357   0.007 -0.4291 -0.4654  0.1596
  546MPD2    C2 8153   3.630   3.464  17.672 -0.0715  0.1073 -0.2096
  546MPD2    C3 8154   3.695   3.579  17.724 -0.6148 -0.8731 -0.9356
  546MPD2    C4 8155   3.737   3.583   0.102  0.3944  0.1187 -0.6194
  546MPD2    C5 8156   3.717   3.471   0.184 -1.1520  0.1911 -0.1416
  546MPD2     H 8157   3.591   3.470  17.571  0.2374 -2.9806 -0.5215
  546MPD2    H1 8158   3.781   3.674   0.141  1.4173 -1.3301  1.6495
  546MPD2    H2 8159   3.630   3.279   0.201  0.8209  2.5198  2.5312
  546MPD2    H3 8160   3.753   3.475   0.286 -0.2530 -0.7220 -0.4279
  546MPD2     N 8161   3.718   3.699  17.644  0.4719 -0.1450 -0.1461
  546MPD2    H5 8162   3.783   3.766  17.686 -0.3078  1.2736 -1.2112
  546MPD2    N1 8163   3.547   3.239  17.713  0.0860  0.3918  0.0819
  546MPD2    H7 8164   3.518   3.173   0.039  2.6391 -1.4936 -0.6276
  547TMC3    C1 8165   3.453   3.065  17.580  0.6380 -0.0786  0.1721
  547TMC3    C2 8166   3.378   3.039  17.468  0.4514  0.0784 -0.5647
  547TMC3    C3 8167   3.329   2.916  17.450 -0.2756 -1.0101 -0.0445
  547TMC3    C4 8168   3.498   2.972  17.670  0.3390 -1.3133  0.1256
  547TMC3    C5 8169   3.443   2.846  17.649 -0.8637  0.1008  0.1868
  547TMC3    C6 8170   3.354   2.822  17.549 -0.5641  0.7152 -0.3824
  547TMC3     C 8171   3.513   3.199  17.585 -0.4293  0.4249  0.7152
  547TMC3     O 8172   3.533   3.256  17.480  0.5069 -0.5905 -0.0446
  547TMC3     H 8173   3.355   3.119  17.397 -0.1105  0.7813  0.4069
  547TMC3    H1 8174   3.560   2.999   0.008 -1.0659  1.5650  0.2452
  547TMC3    H2 8175   3.307   2.725  17.543  0.9107 -0.0451  0.3158
  547TMC3    C7 8176   3.488   2.729  17.721  0.7550  0.0356  0.2994
  547TMC3    C8 8177   3.200   2.908  17.376  0.3636 -0.8745 -0.9842
  547TMC3    O1 8178   3.400   2.642  17.742 -0.3462  0.6196  0.0281
  547TMC3    O2 8179   3.159   3.018  17.335 -0.3161 -0.1194  0.5194
  548MPD2     C 8180   2.884   3.618  12.954  0.5564  0.2502 -0.5439
  548MPD2    C1 8181   2.850   3.613  12.821  0.1018  0.1672  0.2950
  548MPD2    C2 8182   2.953   3.591  12.732 -0.2829  0.6957 -0.4260
  548MPD2    C3 8183   3.085   3.565  12.770  0.7441 -0.2745 -0.9024
  548MPD2    C4 8184   3.118   3.591  12.902  0.5891 -0.6743 -0.4247
  548MPD2    C5 8185   3.020   3.614  12.996  0.1959 -0.8332  0.3332
  548MPD2     H 8186   2.931   3.561  12.630  0.4011  0.1032 -0.3979
  548MPD2    H1 8187   3.218   3.587  12.944 -0.0868 -0.7447  1.1973
  548MPD2    H2 8188   2.804   3.618  13.027  0.4353 -0.8353 -0.6800
  548MPD2    H3 8189   3.043   3.636  13.099 -1.3176  1.9090  0.0763
  548MPD2     N 8190   3.173   3.503  12.679  0.6040 -0.4648 -0.0699
  548MPD2    H5 8191   3.145   3.484  12.583  0.8464 -2.6421  0.3019
  548MPD2    N1 8192   2.715   3.634  12.781  0.4564  0.2081  0.6251
  548MPD2    H7 8193   2.651   3.661  12.856  0.6575 -1.1978  1.3053
  549TMC3    C1 8194   2.520   3.638  12.650 -0.6031 -0.0402  0.2422
  549TMC3    C2 8195   2.479   3.725  12.549 -0.5828  0.3968 -0.6660
  549TMC3    C3 8196   2.351   3.753  12.545 -0.1123  0.2918  0.5221
  549TMC3    C4 8197   2.438   3.576  12.732  0.4795 -0.1464  0.1806
  549TMC3    C5 8198   2.301   3.590  12.708 -1.0938 -0.0811  0.5250
  549TMC3    C6 8199   2.260   3.682  12.614 -0.1606  0.0769 -0.0952
  549TMC3     C 8200   2.662   3.621  12.651 -0.6788  0.2224 -0.8111
  549TMC3     O 8201   2.719   3.612  12.545  0.3239  0.3189  0.0805
  549TMC3     H 8202   2.550   3.764  12.477  0.0010  1.9848  0.7693
  549TMC3    H1 8203   2.471   3.514  12.815  2.2927  1.6813  0.8360
  549TMC3    H2 8204   2.156   3.703  12.594 -0.5537 -0.1914  1.6989
  549TMC3    C7 8205   2.209   3.483  12.741  0.0590  0.9261 -0.2683
  549TMC3    C8 8206   2.306   3.893  12.519  0.1214 -0.1068 -0.1634
  549TMC3    O1 8207   2.091   3.511  12.714  0.2431 -0.3199  0.1973
  549TMC3    O2 8208   2.199   3.929  12.563  0.0822  0.2372 -0.1669
  550TMC3    C1 8209   2.205   1.975  11.952 -0.7154 -0.6203 -0.0441
  550TMC3    C2 8210   2.185   1.990  12.089 -0.8991  0.4948  0.0778
  550TMC3    C3 8211   2.143   2.114  12.132  0.3996 -0.1462  1.1214
  550TMC3    C4 8212   2.202   2.084  11.865 -0.2680 -0.6546  0.0408
  550TMC3    C5 8213   2.167   2.198  11.913 -0.7553  0.8593  0.5593
  550TMC3    C6 8214   2.135   2.224  12.048 -0.5533 -0.5848  0.1642
  550TMC3     C 8215   2.144   1.857  11.898 -0.9790  0.5727  1.0703
  550TMC3     O 8216   2.159   1.747  11.952 -0.1590 -0.3696 -0.5451
  550TMC3     H 8217   2.182   1.903  12.153  1.7741  0.3210 -0.0680
  550TMC3    H1 8218   2.240   2.080  11.764  0.2753  2.0653  0.1505
  550TMC3    H2 8219   2.120   2.326  12.082  1.4017 -0.3428  0.3181
  550TMC3    C7 8220   2.130   2.298  11.813  0.3355 -0.6291  0.1083
  550TMC3    C8 8221   2.048   2.122  12.240 -0.3385 -0.2814  0.7740
  550TMC3    O1 8222   2.180   2.304  11.701  0.3305  0.1909  0.4711
  550TMC3    O2 8223   1.998   2.232  12.260  0.5630  0.3265  0.1393
  551TMC3    C1 8224   3.858   4.222  13.221 -0.4002 -0.5708 -0.5592
  551TMC3    C2 8225   3.946   4.125  13.196  0.3091  0.8186 -0.7158
  551TMC3    C3 8226   4.020   4.069  13.296  0.0172  0.1117  0.8253
  551TMC3    C4 8227   3.821   4.267  13.348  0.3505  0.1845 -0.2720
  551TMC3    C5 8228   3.893   4.213  13.451 -0.2547  0.5707 -0.0988
  551TMC3    C6 8229   3.990   4.112  13.424  0.0414 -0.0983  0.1964
  551TMC3     C 8230   3.796   4.280  13.106 -0.0572  0.2231 -0.4902
  551TMC3     O 8231   3.677   4.271  13.095  0.0888 -0.7642 -0.2018
  551TMC3     H 8232   3.966   4.102  13.092  0.6294  0.6843 -0.6225
  551TMC3    H1 8233   3.733   4.329  13.363  0.2024 -0.3325  1.0881
  551TMC3    H2 8234   4.039   4.069  13.511  1.1201 -0.0425 -0.3849
  551TMC3    C7 8235   3.907   4.290  13.573  0.2112  0.3910  0.5798
  551TMC3    C8 8236   4.153   4.049  13.260  0.0776  0.1938  0.0065
  551TMC3    O1 8237   3.966   4.226  13.658 -0.0577  0.8847  0.4739
  551TMC3    O2 8238   4.179   4.011  13.149  0.0285 -0.3651 -0.2553
  552MPD2     C 8239   0.592   1.385  13.794 -0.0645  0.6079 -0.0660
  552MPD2    C1 8240   0.700   1.449  13.731 -0.7166 -0.4321  0.3148
  552MPD2    C2 8241   0.797   1.517  13.806  1.1515 -0.0734  0.8416
  552MPD2    C3 8242   0.782   1.516  13.944  0.7247  0.4931 -0.2444
  552MPD2    C4 8243   0.680   1.440  14.005  0.0047  0.7951 -0.4652
  552MPD2    C5 8244   0.588   1.377  13.932  0.1624 -0.1793  0.2186
  552MPD2     H 8245   0.880   1.555  13.748 -0.4783  1.6522 -0.3558
  552MPD2    H1 8246   0.678   1.439  14.113 -0.2660 -0.4568 -0.4882
  552MPD2    H2 8247   0.500   1.351  13.746 -0.4614  0.1592  1.0292
  552MPD2    H3 8248   0.505   1.342  13.993  0.2111  1.7825  1.4012
  552MPD2     N 8249   0.883   1.569  14.029 -0.3613 -0.3623 -0.3251
  552MPD2    H5 8250   0.880   1.528  14.122 -1.9571 -0.7441 -0.5544
  552MPD2    N1 8251   0.725   1.439  13.596 -0.5118  0.6176  0.1511
  552MPD2    H7 8252   0.818   1.466  13.566  0.7052  0.4906  3.8040
  553TMC3    C1 8253   0.736   1.318  13.396  0.6129 -0.4630  0.3059
  553TMC3    C2 8254   0.802   1.398  13.304 -0.8225 -0.7155 -0.0247
  553TMC3    C3 8255   0.874   1.333  13.205  1.1443 -0.4477  0.1596
  553TMC3    C4 8256   0.738   1.181  13.391 -0.0487  0.1602 -0.0681
  553TMC3    C5 8257   0.820   1.124  13.304 -0.9515  0.7223 -0.1988
  553TMC3    C6 8258   0.879   1.199  13.202  0.3728  0.0720  0.4424
  553TMC3     C 8259   0.654   1.367  13.504  0.1728 -0.3121 -0.4769
  553TMC3     O 8260   0.551   1.304  13.510 -0.5275  0.0388 -0.4545
  553TMC3     H 8261   0.786   1.505  13.304  3.2426 -0.1271  1.0412
  553TMC3    H1 8262   0.688   1.128  13.471  1.8910 -0.6583  0.6054
  553TMC3    H2 8263   0.945   1.144  13.137  0.2747  0.2241  0.2157
  553TMC3    C7 8264   0.914   1.034  13.369 -0.3438 -0.1565  0.3447
  553TMC3    C8 8265   0.989   1.410  13.154 -0.3926  0.4375 -0.5241
  553TMC3    O1 8266   1.030   1.048  13.331  0.0085  0.5138  0.0642
  553TMC3    O2 8267   1.048   1.480  13.227 -0.2202 -0.4152 -0.2162
  554TMC3    C1 8268   2.395   0.730  11.912 -0.1767  0.1688 -0.0557
  554TMC3    C2 8269   2.303   0.704  11.815  0.4715 -0.0733  0.1795
  554TMC3    C3 8270   2.309   0.769  11.699  0.1205  0.6505 -0.3368
  554TMC3    C4 8271   2.510   0.797  11.886 -0.3050  0.5072  0.4493
  554TMC3    C5 8272   2.520   0.855  11.760 -0.0957 -0.7605  0.3594
  554TMC3    C6 8273   2.418   0.848  11.668  0.6195  0.0133 -0.2249
  554TMC3     C 8274   2.415   0.628  12.013 -0.2973  0.2905 -0.4793
  554TMC3     O 8275   2.337   0.611  12.106 -0.5258 -0.0102 -0.2082
  554TMC3     H 8276   2.231   0.623  11.822  0.6958 -0.2529  0.3876
  554TMC3    H1 8277   2.590   0.797  11.959 -1.3377 -2.6154  1.5729
  554TMC3    H2 8278   2.424   0.906  11.576 -0.1400  1.4394  0.6195
  554TMC3    C7 8279   2.637   0.932  11.723  0.7420  0.6620  0.5015
  554TMC3    C8 8280   2.225   0.726  11.590 -0.0174 -0.0602 -0.6530
  554TMC3    O1 8281   2.644   0.958  11.603  0.0885  0.3016 -0.4423
  554TMC3    O2 8282   2.104   0.729  11.607  0.0124  0.0971 -0.5663
  555TMC3    C1 8283   2.228   0.113  15.657 -0.2566  0.2613  0.6942
  555TMC3    C2 8284   2.348   0.116  15.721  0.0461  0.0764 -0.2061
  555TMC3    C3 8285   2.390   0.009  15.791 -0.9562  0.3500  1.2196
  555TMC3    C4 8286   2.162   4.730  15.651  0.2369 -0.3646  0.5800
  555TMC3    C5 8287   2.211   4.618  15.718 -0.2549  1.2391 -0.1263
  555TMC3    C6 8288   2.326   4.628  15.788 -0.7164  0.0182  0.0141
  555TMC3     C 8289   2.144   0.235  15.670  0.3789 -0.0033 -0.3778
  555TMC3     O 8290   2.174   0.308  15.769 -0.7467 -0.3040 -0.1756
  555TMC3     H 8291   2.407   0.207  15.718 -0.1388  0.1708 -0.7927
  555TMC3    H1 8292   2.065   4.718  15.603  0.5990  1.0990 -0.5283
  555TMC3    H2 8293   2.362   4.541  15.842 -1.3204  0.4789  1.1630
  555TMC3    C7 8294   2.151   4.487  15.698  0.1980 -0.1428  0.0660
  555TMC3    C8 8295   2.502   0.026  15.886  0.1076 -0.1633  0.0129
  555TMC3    O1 8296   2.028   4.484  15.692  0.3630  0.1330  0.0045
  555TMC3    O2 8297   2.572   0.124  15.865  0.1402 -0.2261  0.5279
  556MPD2     C 8298   0.039   2.284  10.412  0.6516 -0.3810  0.3335
  556MPD2    C1 8299   0.025   2.208  10.527 -0.0010 -0.4293  0.3384
  556MPD2    C2 8300   4.731   2.074  10.505 -0.6406  0.0062 -0.1352
  556MPD2    C3 8301   4.701   2.022  10.380 -0.2498 -0.2074  0.0436
  556MPD2    C4 8302   4.717   2.107  10.263 -0.6303  0.5758  0.2016
  556MPD2    C5 8303   0.020   2.232  10.286 -0.7620 -0.7712 -0.2350
  556MPD2     H 8304   4.711   2.016  10.594  0.9196  2.3180  1.7218
  556MPD2    H1 8305   4.706   2.070  10.162 -3.3861  0.6959  0.4398
  556MPD2    H2 8306   0.070   2.388  10.417  0.1515 -0.2983  1.5719
  556MPD2    H3 8307   0.041   2.301  10.205  0.4349 -0.4018  0.3995
  556MPD2     N 8308   4.664   1.882  10.368  0.1157 -0.1151 -0.3761
  556MPD2    H5 8309   4.665   1.831  10.456  1.0039  2.1090  0.9072
  556MPD2    N1 8310   0.031   2.254  10.662 -0.2695  0.7549  0.4542
  556MPD2    H7 8311   0.013   2.190  10.739  0.2403  0.6112  0.4512
  557TMC3    C1 8312   4.616   1.670  10.267  0.2365 -0.1400  0.0366
  557TMC3    C2 8313   4.591   1.599  10.152  0.0261 -0.5468 -0.0824
  557TMC3    C3 8314   4.565   1.461  10.167 -0.9351 -0.8473 -0.0227
  557TMC3    C4 8315   4.589   1.621  10.392 -0.1560 -0.3318  0.6735
  557TMC3    C5 8316   4.557   1.487  10.399 -0.0017  0.0746  0.3481
  557TMC3    C6 8317   4.536   1.403  10.293 -0.6629 -0.1777 -0.5567
  557TMC3     C 8318   4.645   1.809  10.252  0.9998 -0.4082 -0.5682
  557TMC3     O 8319   4.641   1.854  10.139 -0.1784 -0.1627 -0.1284
  557TMC3     H 8320   4.607   1.645  10.055 -1.7931 -0.3813 -0.3061
  557TMC3    H1 8321   4.602   1.678  10.483  0.4883  0.6701 -0.0507
  557TMC3    H2 8322   4.522   1.298  10.315 -0.6232 -0.0110  0.2839
  557TMC3    C7 8323   4.492   1.446  10.519  0.3035  0.3848  0.3260
  557TMC3    C8 8324   4.509   1.397  10.053 -0.8628  0.0447  0.4799
  557TMC3    O1 8325   4.486   1.328  10.552 -0.6119 -0.1209  0.3717
  557TMC3    O2 8326   4.474   1.462   9.956 -0.8963 -0.2155 -0.0501
  558TMC3    C1 8327   2.585   0.110  10.313  0.6672  0.1874  0.7275
  558TMC3    C2 8328   2.468   0.054  10.353 -0.1754  0.6845  0.0804
  558TMC3    C3 8329   2.360   0.088  10.283 -0.0783 -0.2081 -0.0882
  558TMC3    C4 8330   2.597   0.174  10.189  0.0571 -0.4458 -0.6833
  558TMC3    C5 8331   2.486   0.204  10.128 -0.3350 -0.0331  0.2032
  558TMC3    C6 8332   2.358   0.174  10.179 -0.1991 -0.7807  0.2484
  558TMC3     C 8333   2.701   0.037  10.362 -0.5600 -0.5776 -0.0760
  558TMC3     O 8334   2.782   4.735  10.278 -0.0976 -0.4329  0.2487
  558TMC3     H 8335   2.463   4.713  10.428  0.0953  1.2524  0.6866
  558TMC3    H1 8336   2.695   0.194  10.147  0.2686 -1.5409 -0.7124
  558TMC3    H2 8337   2.266   0.195  10.126  0.3768 -0.1218 -0.4924
  558TMC3    C7 8338   2.497   0.295  10.020  0.0564  0.2147  0.7885
  558TMC3    C8 8339   2.233   0.028  10.314 -0.6790 -0.0213 -0.2424
  558TMC3    O1 8340   2.568   0.391  10.025 -0.5518 -0.5236 -0.0542
  558TMC3    O2 8341   2.161   4.732  10.220 -0.1850 -0.3954  0.4944
  559MPD2     C 8342   2.600   0.493  10.397 -0.2409  0.2080  0.3035
  559MPD2    C1 8343   2.518   0.436  10.490 -0.0276 -0.5757  0.2981
  559MPD2    C2 8344   2.580   0.382  10.597 -0.1978 -0.5667  0.0564
  559MPD2    C3 8345   2.721   0.382  10.608  0.0045  0.1268 -0.3221
  559MPD2    C4 8346   2.799   0.431  10.502 -0.0646 -0.1847  0.1829
  559MPD2    C5 8347   2.736   0.488  10.404 -0.1540 -0.3139  0.8446
  559MPD2     H 8348   2.517   0.334  10.671  1.0826 -0.3303  1.3138
  559MPD2    H1 8349   2.908   0.433  10.500 -0.0310  0.0863  1.8124
  559MPD2    H2 8350   2.562   0.536  10.305  0.8015  0.3861 -0.0483
  559MPD2    H3 8351   2.785   0.556  10.336 -0.6628  0.0042  0.7965
  559MPD2     N 8352   2.782   0.341  10.728 -0.9465 -0.2334  0.0774
  559MPD2    H5 8353   2.717   0.335  10.806 -2.5396  0.2641 -1.2387
  559MPD2    N1 8354   2.378   0.449  10.472 -0.2303 -0.0958 -0.0110
  559MPD2    H7 8355   2.342   0.497  10.390  0.8257 -0.0490 -0.4583
  560TMC3    C1 8356   2.947   0.230  10.861  0.3107 -0.0098 -0.1947
  560TMC3    C2 8357   2.852   0.142  10.907 -0.1454 -0.1874  0.3441
  560TMC3    C3 8358   2.883   0.028  10.975  0.0192 -0.3979  0.2392
  560TMC3    C4 8359   3.081   0.203  10.882 -0.2463 -0.3022 -0.3559
  560TMC3    C5 8360   3.108   0.081  10.950  0.2805  0.5690 -0.5410
  560TMC3    C6 8361   3.011   4.731  10.993 -0.4310 -0.1259 -0.1286
  560TMC3     C 8362   2.919   0.321  10.751  0.7451  0.0754 -0.7844
  560TMC3     O 8363   3.011   0.351  10.676 -0.0412  0.6831 -0.1748
  560TMC3     H 8364   2.749   0.167  10.882 -0.1896  0.2822  0.9740
  560TMC3    H1 8365   3.154   0.251  10.818  0.5001 -3.8583 -2.2106
  560TMC3    H2 8366   3.039   4.632  11.028 -0.9537 -0.5838 -1.0018
  560TMC3    C7 8367   3.230   0.075  11.020 -0.1999 -0.9286  0.4591
  560TMC3    C8 8368   2.771   4.695  11.042 -0.3283  0.3910  0.2453
  560TMC3    O1 8369   3.245   4.716  11.094 -0.0409 -0.4397 -0.5723
  560TMC3    O2 8370   2.662   4.732  11.002  0.0435 -0.1238  0.3635
  561TMC3    C1 8371   0.599   4.236  11.215 -0.1037  0.3302 -0.1943
  561TMC3    C2 8372   0.520   4.138  11.267  1.3441  0.2203  0.1383
  561TMC3    C3 8373   0.398   4.176  11.316 -0.0716 -0.6623  0.4492
  561TMC3    C4 8374   0.570   4.370  11.217 -0.1255 -0.3134 -0.3879
  561TMC3    C5 8375   0.440   4.400  11.259  0.1362  0.3574  0.0203
  561TMC3    C6 8376   0.355   4.307  11.315 -0.2525  0.0855 -0.2415
  561TMC3     C 8377   0.739   4.192  11.202  0.0653  0.2099  0.0761
  561TMC3     O 8378   0.776   4.081  11.231 -0.0728  0.0010  0.0950
  561TMC3     H 8379   0.554   4.035  11.264  1.8007  0.3169  1.9848
  561TMC3    H1 8380   0.647   4.446  11.214  0.8604 -1.2761  0.5715
  561TMC3    H2 8381   0.248   4.324  11.316 -0.2765 -0.2996  2.0644
  561TMC3    C7 8382   0.396   4.539  11.279 -0.2632 -0.4881  0.3909
  561TMC3    C8 8383   0.345   4.087  11.416 -1.0196  0.0185  0.1759
  561TMC3    O1 8384   0.289   4.563  11.333  0.2155  0.0692 -0.3625
  561TMC3    O2 8385   0.383   3.975  11.413 -0.0077  0.1290 -0.4943
  562TMC3    C1 8386   1.278   0.948  16.122 -0.3967  0.2761  0.3008
  562TMC3    C2 8387   1.186   0.980  16.031 -0.0680 -0.7801  1.0259
  562TMC3    C3 8388   1.179   0.894  15.923 -0.3677  0.4189 -0.4553
  562TMC3    C4 8389   1.362   0.840  16.101 -0.4137  0.6557  0.1815
  562TMC3    C5 8390   1.355   0.763  15.990  0.1341 -0.5934  0.1842
  562TMC3    C6 8391   1.262   0.786  15.898 -0.0130  0.0428  0.4713
  562TMC3     C 8392   1.302   1.036  16.239  0.1741 -0.2510  0.5033
  562TMC3     O 8393   1.415   1.039  16.284 -0.1891  0.1960 -0.3052
  562TMC3     H 8394   1.114   1.060  16.034 -0.0935 -0.8159  1.3141
  562TMC3    H1 8395   1.449   0.836  16.165 -0.3421 -0.3765  0.0214
  562TMC3    H2 8396   1.250   0.729  15.807 -1.0807 -0.3589  0.8710
  562TMC3    C7 8397   1.448   0.656  15.962 -0.3631  0.6466 -1.0840
  562TMC3    C8 8398   1.058   0.914  15.836  0.1914  0.0356  0.2657
  562TMC3    O1 8399   1.460   0.632  15.844  0.0822 -0.5739  0.4832
  562TMC3    O2 8400   0.960   0.947  15.899 -0.2449 -0.1113 -0.7339
  563MPD2     C 8401   3.938   1.676  16.048  0.3025 -0.1233 -0.3926
  563MPD2    C1 8402   3.918   1.682  16.180  0.0226 -0.0491 -0.4297
  563MPD2    C2 8403   4.002   1.762  16.257  0.0643 -0.5626  0.0480
  563MPD2    C3 8404   4.112   1.816  16.196  0.3116  0.3134  0.3097
  563MPD2    C4 8405   4.111   1.836  16.061  0.0675  0.3357  0.2226
  563MPD2    C5 8406   4.032   1.757  15.987 -0.0429  0.5792 -0.0092
  563MPD2     H 8407   3.984   1.779  16.362  0.3122 -4.9962  0.7750
  563MPD2    H1 8408   4.187   1.893  16.008  1.0707 -3.1707 -2.0730
  563MPD2    H2 8409   3.884   1.602  15.991  3.7679 -2.1283 -1.0109
  563MPD2    H3 8410   4.052   1.755  15.881 -0.5064  0.9716 -0.1034
  563MPD2     N 8411   4.198   1.880  16.290 -0.3510 -0.1350  0.1871
  563MPD2    H5 8412   4.187   1.874  16.390  2.3116 -0.4416  0.4632
  563MPD2    N1 8413   3.818   1.601  16.241  0.4989  0.3919  0.0868
  563MPD2    H7 8414   3.764   1.539  16.182  2.0347 -0.3606 -0.5296
  564TMC3    C1 8415   3.708   1.475  16.411 -0.7376  0.4764  0.4912
  564TMC3    C2 8416   3.623   1.431  16.311  0.0297 -0.2812 -0.1612
  564TMC3    C3 8417   3.543   1.330  16.352  0.1787  0.2792  0.3886
  564TMC3    C4 8418   3.728   1.418  16.537  0.2664  0.4827  0.7344
  564TMC3    C5 8419   3.647   1.310  16.569 -0.0745  0.0600  0.3794
  564TMC3    C6 8420   3.546   1.277  16.480  0.2449 -0.0248 -0.9722
  564TMC3     C 8421   3.798   1.579  16.372  0.1339  0.7952 -0.0962
  564TMC3     O 8422   3.861   1.628  16.465  0.1514  0.6181  0.0193
  564TMC3     H 8423   3.607   1.478  16.215  1.7056 -0.2260 -0.4270
  564TMC3    H1 8424   3.808   1.460  16.597  1.7743 -1.5209  0.1317
  564TMC3    H2 8425   3.463   1.218  16.517 -0.4028  0.8790 -0.9822
  564TMC3    C7 8426   3.732   1.199  16.588 -0.5547 -0.0185  0.2131
  564TMC3    C8 8427   3.498   1.226  16.265 -1.1401  0.8757  0.3012
  564TMC3    O1 8428   3.837   1.220  16.642  0.5226  0.1685 -0.3396
  564TMC3    O2 8429   3.446   1.134  16.329  0.5329  0.6314 -0.0318
  565TMC3    C1 8430   0.718   3.355  10.670 -0.3074 -0.6134  0.4065
  565TMC3    C2 8431   0.617   3.293  10.607 -0.5995 -0.2243  0.1742
  565TMC3    C3 8432   0.626   3.159  10.583  0.5543  0.5680  0.0344
  565TMC3    C4 8433   0.819   3.287  10.728  0.0128  0.1388  0.3342
  565TMC3    C5 8434   0.813   3.155  10.713  0.0171 -0.0860 -0.0783
  565TMC3    C6 8435   0.734   3.087  10.629 -0.6190  0.8587 -0.2269
  565TMC3     C 8436   0.706   3.497  10.678  0.0300 -0.3938  0.2473
  565TMC3     O 8437   0.668   3.557  10.581  0.2522  0.3456  0.0592
  565TMC3     H 8438   0.536   3.351  10.565 -1.7581 -2.2040 -0.2947
  565TMC3    H1 8439   0.893   3.338  10.788  2.3874 -1.0843 -1.5537
  565TMC3    H2 8440   0.722   2.980  10.630 -2.1917  1.0121 -2.8188
  565TMC3    C7 8441   0.895   3.078  10.799  0.1294 -0.3793  0.7940
  565TMC3    C8 8442   0.498   3.091  10.579 -0.1641  0.2434  0.4343
  565TMC3    O1 8443   0.904   2.958  10.775 -0.5503 -0.0106 -0.2478
  565TMC3    O2 8444   0.407   3.148  10.640 -0.0391  0.5539 -0.1497
  566MPD2     C 8445   0.887   0.331  14.171 -0.3247 -0.5530 -0.5174
  566MPD2    C1 8446   1.016   0.291  14.199 -0.0535  0.1645 -0.2214
  566MPD2    C2 8447   1.047   0.158  14.223 -0.1485  0.3272  0.0881
  566MPD2    C3 8448   0.951   0.064  14.205  0.6410 -0.1639  0.5644
  566MPD2    C4 8449   0.822   0.103  14.170  0.0318  0.1336  0.0862
  566MPD2    C5 8450   0.793   0.237  14.158 -0.2367  1.0027 -0.2520
  566MPD2     H 8451   1.152   0.138  14.240 -0.3870  0.7386  2.0248
  566MPD2    H1 8452   0.742   0.033  14.149  0.1445 -0.7239  2.5260
  566MPD2    H2 8453   0.862   0.437  14.167 -0.8222 -0.6878 -0.9787
  566MPD2    H3 8454   0.692   0.272  14.139  0.9613  3.2542 -2.5658
  566MPD2     N 8455   0.984   4.663  14.197  0.3722  0.9703  0.0549
  566MPD2    H5 8456   0.904   4.602  14.183  0.4831  0.9567 -0.4931
  566MPD2    N1 8457   1.113   0.392  14.194  0.7475 -0.1715  0.0867
  566MPD2    H7 8458   1.094   0.483  14.154  0.6911 -0.0782  0.3204
  567TMC3    C1 8459   1.345   0.444  14.180  0.4128 -0.1213  0.6343
  567TMC3    C2 8460   1.346   0.410  14.049 -0.5775  0.6820  0.1658
  567TMC3    C3 8461   1.466   0.361  13.994 -0.3972  0.4766  0.2067
  567TMC3    C4 8462   1.456   0.438  14.257  0.1515  0.5751 -0.3012
  567TMC3    C5 8463   1.568   0.383  14.203  0.0400 -0.7263 -0.2250
  567TMC3    C6 8464   1.578   0.349  14.072  0.4253 -0.0075  0.2711
  567TMC3     C 8465   1.237   0.374  14.243 -0.4102  0.0838 -0.1069
  567TMC3     O 8466   1.277   0.311  14.340  0.2569 -0.2333  0.1457
  567TMC3     H 8467   1.261   0.418  13.982 -1.4336 -0.4380  1.1258
  567TMC3    H1 8468   1.465   0.475  14.359  1.7371 -0.4918 -0.0633
  567TMC3    H2 8469   1.670   0.304  14.036  0.1470 -2.8438  3.1425
  567TMC3    C7 8470   1.677   0.352  14.282  0.2331 -0.0165 -0.0959
  567TMC3    C8 8471   1.480   0.339  13.844 -0.3224  1.1808  0.2249
  567TMC3    O1 8472   1.791   0.375  14.237 -0.0445 -0.1655  0.0217
  567TMC3    O2 8473   1.377   0.311  13.786 -0.4963 -0.0348  0.4469
  568MPD2     C 8474   3.529   4.474  16.200  0.6017 -0.2733 -0.2543
  568MPD2    C1 8475   3.556   4.554  16.310  0.1874  0.4240 -0.3079
  568MPD2    C2 8476   3.537   4.692  16.300  0.0817 -0.2436  1.2447
  568MPD2    C3 8477   3.499   0.007  16.176 -0.6430  0.3181  0.1237
  568MPD2    C4 8478   3.479   4.660  16.066 -0.6282 -0.1542 -1.0424
  568MPD2    C5 8479   3.498   4.520  16.079  0.9707 -0.8345 -0.3910
  568MPD2     H 8480   3.579   0.020  16.376 -2.5087 -0.0287  2.4646
  568MPD2    H1 8481   3.438   4.699  15.974  1.4580 -1.0468 -2.3802
  568MPD2    H2 8482   3.541   4.366  16.205  0.1189 -0.2048  2.2618
  568MPD2    H3 8483   3.481   4.451  15.998 -0.9292 -0.8484  0.0127
  568MPD2     N 8484   3.493   0.150  16.170 -0.1723  0.0992  0.1666
  568MPD2    H5 8485   3.521   0.204  16.251  1.8473  0.2566 -0.6478
  568MPD2    N1 8486   3.592   4.493  16.433 -0.2233  0.5550 -0.8309
  568MPD2    H7 8487   3.608   4.393  16.423  1.6032  0.7084  0.5799
  569TMC3    C1 8488   3.436   0.364  16.092 -0.1354  0.3936 -0.1337
  569TMC3    C2 8489   3.383   0.406  16.212  0.0132 -0.1256  0.6491
  569TMC3    C3 8490   3.320   0.522  16.231 -0.1955 -0.0281 -0.2518
  569TMC3    C4 8491   3.427   0.449  15.987 -0.1983  0.9480  0.4164
  569TMC3    C5 8492   3.372   0.574  16.005 -0.2030 -0.1912  0.2205
  569TMC3    C6 8493   3.320   0.616  16.126  0.1543  0.2682 -0.1902
  569TMC3     C 8494   3.449   0.221  16.059  0.8880  0.6501 -0.1382
  569TMC3     O 8495   3.404   0.176  15.954 -0.0611 -0.1376 -0.4455
  569TMC3     H 8496   3.392   0.330  16.289 -1.7322 -0.4414  0.5308
  569TMC3    H1 8497   3.464   0.424  15.888 -0.4808  0.4753  0.4303
  569TMC3    H2 8498   3.260   0.705  16.141 -0.0410  0.5275 -2.5696
  569TMC3    C7 8499   3.423   0.671  15.928  0.0800 -0.2435 -0.3509
  569TMC3    C8 8500   3.358   0.578  16.361  0.1051 -0.0497  0.5668
  569TMC3    O1 8501   3.463   0.649  15.814  0.2125  0.1711  0.0707
  569TMC3    O2 8502   3.465   0.533  16.402  0.4141  0.1739 -0.1555
  570TMC3    C1 8503   3.364   3.567  16.305  0.5256  1.0519  0.3446
  570TMC3    C2 8504   3.454   3.602  16.203  0.5793 -0.7929 -0.5804
  570TMC3    C3 8505   3.453   3.729  16.163  0.4442 -0.0189 -0.0152
  570TMC3    C4 8506   3.275   3.657  16.358  0.6073 -0.0352 -0.4780
  570TMC3    C5 8507   3.289   3.785  16.319  0.5396 -0.1393  0.2330
  570TMC3    C6 8508   3.381   3.824  16.227  0.0068 -0.4024  0.0372
  570TMC3     C 8509   3.411   3.471  16.399 -0.6445 -0.0245 -0.0731
  570TMC3     O 8510   3.454   3.364  16.361  0.4332 -0.1525 -0.0396
  570TMC3     H 8511   3.524   3.524  16.173 -1.3834 -1.9965 -2.0114
  570TMC3    H1 8512   3.202   3.642  16.436  1.0451 -0.0961 -0.0844
  570TMC3    H2 8513   3.385   3.929  16.200  1.8117 -0.2902  0.7337
  570TMC3    C7 8514   3.283   3.879  16.433  0.5754 -0.2169 -0.3887
  570TMC3    C8 8515   3.554   3.777  16.073  0.6170 -0.1585  0.0176
  570TMC3    O1 8516   3.311   3.823  16.536 -0.4358  0.0941  0.5452
  570TMC3    O2 8517   3.576   3.898  16.082  0.0659 -0.0847 -0.9619
  571MPD2     C 8518   0.929   0.844   0.101  0.7306 -0.8671  0.2344
  571MPD2    C1 8519   0.849   0.806   0.207 -0.3657  0.4446  0.5099
  571MPD2    C2 8520   0.770   0.900   0.268 -0.6801 -0.4269 -0.1955
  571MPD2    C3 8521   0.782   1.037   0.232 -0.4029  0.8047  0.3158
  571MPD2    C4 8522   0.864   1.067   0.124 -0.6200 -0.0546  0.8302
  571MPD2    C5 8523   0.920   0.967   0.055 -0.3319 -0.4551 -0.1425
  571MPD2     H 8524   0.696   0.879   0.345  1.9510 -0.4093  2.3069
  571MPD2    H1 8525   0.879   1.170   0.096  1.1161 -1.2075 -2.4688
  571MPD2    H2 8526   0.992   0.771   0.051  1.9132 -0.2583  0.8319
  571MPD2    H3 8527   0.979   1.001  17.717  0.3529 -1.9487 -0.2685
  571MPD2     N 8528   0.741   1.141   0.316  0.4995 -0.1265  1.0862
  571MPD2    H5 8529   0.782   1.232   0.298  0.1443 -0.4321 -1.1742
  571MPD2    N1 8530   0.841   0.664   0.234 -0.3019  0.0660 -0.1619
  571MPD2    H7 8531   0.894   0.611   0.165  0.2953  0.9996 -0.4234
  572TMC3    C1 8532   0.659   1.263   0.511 -0.8917 -0.0579  0.3363
  572TMC3    C2 8533   0.587   1.257   0.627 -0.1215 -0.1941 -0.3135
  572TMC3    C3 8534   0.622   1.345   0.728  0.8351 -0.3053  0.6413
  572TMC3    C4 8535   0.740   1.367   0.477  0.7497  0.3616 -0.5908
  572TMC3    C5 8536   0.758   1.460   0.574 -0.3617  0.6234 -0.5523
  572TMC3    C6 8537   0.707   1.452   0.706  0.2135 -0.2635  0.0904
  572TMC3     C 8538   0.667   1.132   0.431  0.8425  0.8360  0.6456
  572TMC3     O 8539   0.600   1.039   0.476 -0.1885  0.1076  0.3073
  572TMC3     H 8540   0.545   1.167   0.670  0.2592 -0.6368 -0.8530
  572TMC3    H1 8541   0.787   1.379   0.380  0.3435 -0.3354 -0.8686
  572TMC3    H2 8542   0.734   1.515   0.791  0.8906 -0.3009 -0.0955
  572TMC3    C7 8543   0.857   1.563   0.543  0.7550  0.1832 -0.1425
  572TMC3    C8 8544   0.647   1.274   0.846  0.6672  0.1402 -0.5075
  572TMC3    O1 8545   0.874   1.581   0.425 -0.1216  0.1420  0.2041
  572TMC3    O2 8546   0.700   1.164   0.846 -0.6754  0.1731  0.1812
  573MPD2     C 8547   3.154   0.853   0.949  1.0857 -0.2116  1.0297
  573MPD2    C1 8548   3.187   0.970   1.003  0.2745 -0.3582  0.1314
  573MPD2    C2 8549   3.162   1.097   0.945  0.4300 -0.2527  0.0646
  573MPD2    C3 8550   3.119   1.095   0.812  0.9234 -0.0092  0.7717
  573MPD2    C4 8551   3.081   0.974   0.762 -1.0777  0.5999  0.9898
  573MPD2    C5 8552   3.089   0.852   0.826  0.2937 -0.6650 -0.2891
  573MPD2     H 8553   3.188   1.189   0.996  0.0077  0.9717 -1.9436
  573MPD2    H1 8554   3.035   0.974   0.664 -0.6711 -1.8510  0.8065
  573MPD2    H2 8555   3.155   0.762   1.008 -1.5364 -2.1626 -1.9273
  573MPD2    H3 8556   3.048   0.766   0.773 -0.3625 -0.0196 -0.8390
  573MPD2     N 8557   3.115   1.211   0.728 -0.1504  0.6171 -0.8427
  573MPD2    H5 8558   3.076   1.192   0.636 -0.2328 -1.0849 -0.4530
  573MPD2    N1 8559   3.244   0.946   1.131 -0.0967  0.3301  0.0214
  573MPD2    H7 8560   3.248   0.858   1.181  0.4825 -0.3453 -1.2274
  574TMC3    C1 8561   3.182   1.444   0.649 -0.2113 -0.8496 -0.1514
  574TMC3    C2 8562   3.188   1.569   0.691  0.1998  0.3892  0.4232
  574TMC3    C3 8563   3.178   1.670   0.593  0.0880 -0.0147 -0.4819
  574TMC3    C4 8564   3.190   1.406   0.518 -0.4879  0.1697 -0.5792
  574TMC3    C5 8565   3.163   1.508   0.425  0.5799 -0.2930  0.6005
  574TMC3    C6 8566   3.155   1.639   0.461 -0.4715  0.6544 -0.1400
  574TMC3     C 8567   3.168   1.336   0.753 -0.1490 -1.0431  0.4383
  574TMC3     O 8568   3.224   1.358   0.855 -0.5457  0.1981 -0.2452
  574TMC3     H 8569   3.194   1.601   0.795 -2.8885 -1.3250  1.1201
  574TMC3    H1 8570   3.186   1.300   0.496 -1.6531 -0.1663  1.1989
  574TMC3    H2 8571   3.140   1.728   0.400 -1.1242  0.8382  0.2902
  574TMC3    C7 8572   3.145   1.480   0.282 -0.1802 -0.4097  0.5119
  574TMC3    C8 8573   3.167   1.805   0.654 -0.4892  0.6442 -0.3922
  574TMC3    O1 8574   3.187   1.562   0.200 -0.5698  0.2844 -0.7505
  574TMC3    O2 8575   3.224   1.820   0.760 -0.0510 -0.3874  0.3747
  575TMC3    C1 8576   4.499   2.921  10.895 -0.3056 -0.6777 -0.0157
  575TMC3    C2 8577   4.467   2.788  10.921  0.7406 -0.4516 -0.1907
  575TMC3    C3 8578   4.508   2.689  10.838  0.3684 -0.0200  0.1457
  575TMC3    C4 8579   4.588   2.949  10.787  0.2362 -0.8335  0.0136
  575TMC3    C5 8580   4.630   2.848  10.708  0.1625 -0.2347  0.5043
  575TMC3    C6 8581   4.581   2.718  10.723 -0.7830  0.0474 -0.7342
  575TMC3     C 8582   4.444   3.025  10.994  0.3013  0.1242 -0.0649
  575TMC3     O 8583   4.386   2.985  11.096  0.1824 -0.4345 -0.2349
  575TMC3     H 8584   4.387   2.757  10.988  0.9754 -0.7214 -0.0336
  575TMC3    H1 8585   4.611   3.053  10.764 -1.1220 -0.8765 -1.5066
  575TMC3    H2 8586   4.608   2.635  10.659 -2.4233 -1.3004  0.3159
  575TMC3    C7 8587   0.012   2.888  10.633  0.1384  0.3980  0.2828
  575TMC3    C8 8588   4.465   2.551  10.858  0.0791  0.8323  0.2976
  575TMC3    O1 8589   0.048   3.003  10.646 -0.3730 -0.3124  0.3761
  575TMC3    O2 8590   4.431   2.522  10.973  0.1624  0.0707  0.0545
  576MPD2     C 8591   4.466   4.207  12.765  0.2686  0.3195  0.6347
  576MPD2    C1 8592   4.452   4.335  12.710  0.0138 -0.6498 -0.0805
  576MPD2    C2 8593   4.393   4.427  12.788  0.3981 -0.6771  0.4619
  576MPD2    C3 8594   4.338   4.397  12.915 -0.4891  0.3715 -1.0406
  576MPD2    C4 8595   4.340   4.268  12.954 -0.4483 -0.4093  0.2105
  576MPD2    C5 8596   4.402   4.171  12.880 -0.7405  0.1388  0.2754
  576MPD2     H 8597   4.386   4.529  12.751  0.1728 -0.7618  0.2691
  576MPD2    H1 8598   4.290   4.230  13.042  1.6949 -1.5338  0.9309
  576MPD2    H2 8599   4.517   4.128  12.712 -1.8012 -1.2260  0.9355
  576MPD2    H3 8600   4.401   4.074  12.927  2.4484  0.7551  1.6564
  576MPD2     N 8601   4.279   4.507  12.983  0.7770  0.0110 -0.1597
  576MPD2    H5 8602   4.297   4.591  12.930  0.3287  0.8323  0.9890
  576MPD2    N1 8603   4.507   4.370  12.586  0.2275 -0.2140  0.1299
  576MPD2    H7 8604   4.471   4.451  12.537 -1.3375 -1.0749 -0.1506
  577TMC3    C1 8605   4.603   4.339  12.372  0.1393  1.2660 -0.4852
  577TMC3    C2 8606   4.679   4.259  12.282  0.6114 -0.2164 -0.0441
  577TMC3    C3 8607   4.701   4.302  12.156  0.1199  0.6414 -0.0556
  577TMC3    C4 8608   4.567   4.464  12.329  0.2917 -0.2188  0.1616
  577TMC3    C5 8609   4.577   4.493  12.197  0.0454  0.4267  0.3407
  577TMC3    C6 8610   4.658   4.421  12.112 -0.2255 -1.3135  0.4078
  577TMC3     C 8611   4.590   4.291  12.508  0.3758  0.4241 -0.2640
  577TMC3     O 8612   4.647   4.185  12.530 -0.5284  0.0603  0.4837
  577TMC3     H 8613   4.720   4.168  12.325  1.0579  0.5173  1.0655
  577TMC3    H1 8614   4.505   4.523  12.396  0.2102  1.4801 -1.4184
  577TMC3    H2 8615   4.672   4.445  12.008  0.0249 -1.9115  0.3002
  577TMC3    C7 8616   4.559   4.628  12.168 -0.0550 -0.0100 -0.4469
  577TMC3    C8 8617   0.049   4.215  12.068 -0.5028 -0.7602  0.0891
  577TMC3    O1 8618   4.517   4.696  12.260  0.0549 -0.5033  0.0630
  577TMC3    O2 8619   0.099   4.132  12.137  0.2588  0.0739  0.0361
  578MPD2     C 8620   2.590   4.402   0.590 -0.0386  0.1190  0.3050
  578MPD2    C1 8621   2.612   4.270   0.568 -0.1202 -0.1749  0.0926
  578MPD2    C2 8622   2.742   4.226   0.569  0.4956 -0.0038 -0.5574
  578MPD2    C3 8623   2.846   4.312   0.614 -0.1791 -0.0410  0.6622
  578MPD2    C4 8624   2.811   4.436   0.654  0.0900 -0.5534  0.1813
  578MPD2    C5 8625   2.683   4.481   0.641 -0.6070 -0.4286 -0.3158
  578MPD2     H 8626   2.773   4.124   0.549  0.9188 -0.1730  0.9411
  578MPD2    H1 8627   2.885   4.510   0.685 -0.5327  0.2021 -0.1240
  578MPD2    H2 8628   2.492   4.442   0.568 -0.5673 -1.3284  0.0564
  578MPD2    H3 8629   2.669   4.582   0.677  0.1738 -0.3123 -0.3299
  578MPD2     N 8630   2.976   4.248   0.628  0.1218  0.1319  0.1053
  578MPD2    H5 8631   2.988   4.157   0.584  0.1219 -1.0145  2.4509
  578MPD2    N1 8632   2.501   4.196   0.518  0.5783 -0.1766  0.1858
  578MPD2    H7 8633   2.409   4.239   0.510  0.6034  0.2206  2.0852
  579TMC3    C1 8634   3.205   4.251   0.664  0.2233 -0.2392 -0.7952
  579TMC3    C2 8635   3.323   4.313   0.625 -0.0748  0.3411  0.4995
  579TMC3    C3 8636   3.435   4.240   0.630 -0.8230  0.5817  0.9576
  579TMC3    C4 8637   3.198   4.117   0.701  0.6328  0.2301  0.6273
  579TMC3    C5 8638   3.314   4.043   0.693 -0.0821  0.6884  0.0691
  579TMC3    C6 8639   3.436   4.105   0.671  0.2013 -0.3145  0.0843
  579TMC3     C 8640   3.085   4.323   0.662 -0.9393 -0.9532  0.8788
  579TMC3     O 8641   3.101   4.439   0.703 -0.4890 -0.3749 -0.6977
  579TMC3     H 8642   3.326   4.414   0.587  3.7896 -0.3443 -1.0313
  579TMC3    H1 8643   3.100   4.075   0.721  0.3696  0.6574  0.2481
  579TMC3    H2 8644   3.524   4.042   0.670  0.3227 -0.1516  0.4324
  579TMC3    C7 8645   3.317   3.901   0.731 -0.0718 -0.1390 -0.3948
  579TMC3    C8 8646   3.556   4.314   0.641  0.8960  0.0304 -0.4149
  579TMC3    O1 8647   3.428   3.860   0.771 -0.5701 -0.2097 -0.1406
  579TMC3    O2 8648   3.552   4.428   0.669  0.2924  0.3733 -0.0138
  580TMC3    C1 8649   2.591   3.533  12.092  0.5057  0.0339  1.1047
  580TMC3    C2 8650   2.713   3.533  12.028  1.2798  0.1381 -0.3996
  580TMC3    C3 8651   2.785   3.418  12.005  0.4400 -0.0742 -0.0010
  580TMC3    C4 8652   2.527   3.414  12.109 -0.0465  0.1846 -0.0709
  580TMC3    C5 8653   2.600   3.299  12.082 -0.0353 -0.0202 -0.2328
  580TMC3    C6 8654   2.729   3.298  12.028  0.4073  0.5426  0.6415
  580TMC3     C 8655   2.517   3.660  12.093 -0.1264  0.1047  0.0788
  580TMC3     O 8656   2.555   3.749  12.016  0.5733 -0.2974 -0.4176
  580TMC3     H 8657   2.748   3.623  11.979  0.5558  1.2662  1.1518
  580TMC3    H1 8658   2.425   3.407  12.146  0.4197  0.8026  1.3420
  580TMC3    H2 8659   2.778   3.201  12.022 -0.9255 -0.2032  1.8107
  580TMC3    C7 8660   2.535   3.175  12.128  0.3766 -0.4895  1.1841
  580TMC3    C8 8661   2.889   3.427  11.902  0.3575 -0.3384  0.4248
  580TMC3    O1 8662   2.447   3.204  12.209  0.6734 -1.2727 -0.0680
  580TMC3    O2 8663   2.887   3.355  11.800  0.1042  0.9941 -0.2726
  581MPD2     C 8664   4.482   2.285  15.004  0.3682 -0.0655 -0.0417
  581MPD2    C1 8665   4.568   2.391  15.018  0.2406  0.1447  0.4871
  581MPD2    C2 8666   4.542   2.501  14.941  0.1876 -0.0396 -0.4377
  581MPD2    C3 8667   4.425   2.510  14.866 -0.1189  0.0577  0.2149
  581MPD2    C4 8668   4.338   2.403  14.866 -0.0330 -0.1354 -0.3387
  581MPD2    C5 8669   4.366   2.290  14.927  0.2076 -0.5677 -0.6498
  581MPD2     H 8670   4.601   2.589  14.962 -0.7331  0.9982 -2.2237
  581MPD2    H1 8671   4.240   2.393  14.820 -0.2950 -0.0946  0.2058
  581MPD2    H2 8672   4.511   2.191  15.051  1.0680 -0.0136 -0.3690
  581MPD2    H3 8673   4.312   2.196  14.930  1.4987 -1.2449  2.2450
  581MPD2     N 8674   4.396   2.637  14.808 -0.0956  0.0856  0.2076
  581MPD2    H5 8675   4.456   2.717  14.826 -1.4805  1.1155  0.2696
  581MPD2    N1 8676   4.669   2.382  15.114  0.1191 -0.0142 -0.1193
  581MPD2    H7 8677   4.660   2.298  15.170 -2.9889  1.0247  0.9770
  582TMC3    C1 8678   0.082   2.471  15.269 -0.3990  0.3171  0.4930
  582TMC3    C2 8679   0.199   2.542  15.303  0.1822 -0.1903  0.3604
  582TMC3    C3 8680   0.202   2.622  15.415 -0.3052  0.4048 -0.5147
  582TMC3    C4 8681   4.712   2.471  15.359  0.0412 -0.3714 -0.2801
  582TMC3    C5 8682   4.714   2.560  15.468 -0.6180 -0.1153 -0.2129
  582TMC3    C6 8683   0.090   2.636  15.497 -0.3982 -0.0179 -0.1615
  582TMC3     C 8684   0.036   2.467  15.135  0.3636 -0.4320  0.0825
  582TMC3     O 8685   0.084   2.543  15.054 -0.0676 -0.0522 -0.1521
  582TMC3     H 8686   0.269   2.553  15.221  0.4003  1.3728  0.7753
  582TMC3    H1 8687   4.615   2.426  15.339 -0.5361 -0.4530  2.6608
  582TMC3    H2 8688   0.110   2.680  15.594 -1.1269 -1.0055  0.4504
  582TMC3    C7 8689   4.585   2.623  15.496  0.6411  0.1859 -0.3708
  582TMC3    C8 8690   0.315   2.713  15.422 -0.0762  0.3749  0.2882
  582TMC3    O1 8691   4.483   2.550  15.509 -0.2123  0.3477  0.0681
  582TMC3    O2 8692   0.286   2.830  15.444  0.7247  0.7377 -0.2413
  583MPD2     C 8693   4.651   0.084  16.850 -0.2348  0.0326 -0.2577
  583MPD2    C1 8694   4.703   0.211  16.852 -0.5400  0.3176  0.4389
  583MPD2    C2 8695   4.684   0.299  16.955 -0.6187  0.0256 -0.3714
  583MPD2    C3 8696   4.607   0.260  17.064  0.1572 -0.1014 -0.2824
  583MPD2    C4 8697   4.547   0.135  17.056 -0.2304 -0.0481 -0.3510
  583MPD2    C5 8698   4.560   0.054  16.950  0.0605 -0.0408 -0.1396
  583MPD2     H 8699   4.722   0.400  16.960  1.0264 -0.7086  1.9451
  583MPD2    H1 8700   4.477   0.106  17.134 -0.1552 -0.9610 -0.6261
  583MPD2    H2 8701   4.659   0.025  16.759  2.2491 -1.6885  1.0700
  583MPD2    H3 8702   4.491   4.709  16.937 -0.4904  0.4988 -0.5955
  583MPD2     N 8703   4.579   0.349  17.174 -0.0584  0.4476  0.9690
  583MPD2    H5 8704   4.599   0.447  17.156 -0.9999  0.6599  1.0303
  583MPD2    N1 8705   0.059   0.250  16.752  0.1771  0.8084  0.5597
  583MPD2    H7 8706   0.070   0.351  16.744 -0.5977  0.6944 -2.1901
  584TMC3    C1 8707   4.458   0.424  17.365 -0.0557 -0.3557  0.3091
  584TMC3    C2 8708   4.430   0.537  17.302  0.1421  0.1655  0.1148
  584TMC3    C3 8709   4.367   0.634  17.366  0.0542 -0.1627 -0.4213
  584TMC3    C4 8710   4.436   0.407  17.501 -0.0271 -0.1047 -0.0257
  584TMC3    C5 8711   4.369   0.511  17.567 -0.1900 -0.0229  0.5990
  584TMC3    C6 8712   4.335   0.628  17.501 -0.3220 -0.1775  0.2580
  584TMC3     C 8713   4.510   0.310  17.288  0.3566 -0.0884 -0.1007
  584TMC3     O 8714   4.485   0.204  17.342 -0.0932  0.8465  0.1482
  584TMC3     H 8715   4.408   0.539  17.195  2.1628  1.3106 -0.2817
  584TMC3    H1 8716   4.459   0.310  17.544 -1.3759 -0.8701 -1.0514
  584TMC3    H2 8717   4.281   0.706  17.553 -0.3762  0.6837 -1.0701
  584TMC3    C7 8718   4.353   0.500  17.714  0.2547  0.2924 -0.1019
  584TMC3    C8 8719   4.340   0.760  17.298 -0.2456  0.1042  0.0743
  584TMC3    O1 8720   4.317   0.396   0.018  0.2462  0.9540  0.1745
  584TMC3    O2 8721   4.237   0.822  17.317 -0.2846  0.3513  0.2447
  585MPD2     C 8722   0.465   3.392   0.451 -0.0295 -0.4397  0.0545
  585MPD2    C1 8723   0.434   3.408   0.318  0.0708  0.4613 -0.8343
  585MPD2    C2 8724   0.374   3.299   0.251  0.3564  0.2247  0.1600
  585MPD2    C3 8725   0.334   3.190   0.320 -0.0332 -0.1493 -0.0636
  585MPD2    C4 8726   0.357   3.180   0.449  0.1913  0.5548 -0.0972
  585MPD2    C5 8727   0.419   3.281   0.515 -0.2856  0.3587  0.1469
  585MPD2     H 8728   0.358   3.305   0.144  1.0821  2.7863  0.1867
  585MPD2    H1 8729   0.322   3.097   0.508 -1.0286  2.8515  2.4214
  585MPD2    H2 8730   0.520   3.469   0.505  0.4145  0.4884 -1.6917
  585MPD2    H3 8731   0.423   3.273   0.623 -1.2066 -1.9498  0.0050
  585MPD2     N 8732   0.258   3.097   0.246  0.0811 -0.1019  0.5727
  585MPD2    H5 8733   0.247   3.131   0.151  0.2298 -0.8115  0.2975
  585MPD2    N1 8734   0.446   3.537   0.255  0.0170  0.5553 -0.3494
  585MPD2    H7 8735   0.441   3.618   0.315 -0.0214  0.1532  0.1884
  586TMC3    C1 8736   0.091   2.954   0.194  0.0426 -0.3563 -0.4999
  586TMC3    C2 8737   0.162   2.862   0.117  0.1689  0.5355  0.7420
  586TMC3    C3 8738   0.139   2.872  17.730 -0.2634  0.2543 -0.3675
  586TMC3    C4 8739   0.016   3.055   0.141 -0.0292  0.1734 -0.2398
  586TMC3    C5 8740   4.734   3.055   0.005  0.8723  0.4956  0.1467
  586TMC3    C6 8741   0.055   2.961  17.671 -0.2180  0.4553  0.0311
  586TMC3     C 8742   0.172   3.002   0.296 -0.5282 -0.2127  0.3369
  586TMC3     O 8743   0.137   2.974   0.410 -0.7016 -0.2644  0.6038
  586TMC3     H 8744   0.226   2.786   0.161 -1.9741 -0.6304  1.8393
  586TMC3    H1 8745   4.709   3.134   0.200  0.3152  0.6362 -0.6095
  586TMC3    H2 8746   0.028   2.962  17.566  0.6313 -0.3361 -0.1864
  586TMC3    C7 8747   4.624   3.140  17.697 -0.3004  0.7472  0.1392
  586TMC3    C8 8748   0.176   2.759  17.646  0.2048 -0.3217  0.5439
  586TMC3    O1 8749   4.539   3.173   0.029  0.4244  0.1320  0.8376
  586TMC3    O2 8750   0.169   2.644  17.690 -0.7457  0.0008  0.1103
  587TMC3    C1 8751   1.395   2.509  16.376 -0.3926  0.6108 -0.4891
  587TMC3    C2 8752   1.524   2.543  16.339  0.1954  0.7667 -0.0860
  587TMC3    C3 8753   1.621   2.497  16.426  1.0584  0.0788 -0.2054
  587TMC3    C4 8754   1.362   2.426  16.484 -0.1649  0.0990 -0.1908
  587TMC3    C5 8755   1.466   2.380  16.560  0.5128 -0.0259  0.2445
  587TMC3    C6 8756   1.597   2.413  16.536 -0.3580 -0.2655  0.3399
  587TMC3     C 8757   1.296   2.609  16.342  0.6571 -0.0770  0.8094
  587TMC3     O 8758   1.332   2.718  16.300 -0.1192 -0.6327 -0.0992
  587TMC3     H 8759   1.531   2.597  16.245 -1.9252  0.1897 -0.5672
  587TMC3    H1 8760   1.262   2.414  16.524 -0.2247  0.5291 -0.2056
  587TMC3    H2 8761   1.675   2.373  16.599  1.2507 -0.0698 -1.5624
  587TMC3    C7 8762   1.433   2.261  16.644 -0.5708 -0.3210  0.2562
  587TMC3    C8 8763   1.749   2.567  16.431 -0.3449  0.3060 -0.3536
  587TMC3    O1 8764   1.327   2.198  16.626 -0.0400  0.5654 -0.0535
  587TMC3    O2 8765   1.837   2.530  16.507 -0.5533 -0.2391  0.0455
  588TMC3    C1 8766   4.059   0.171   9.772 -0.6623  0.1434 -0.1547
  588TMC3    C2 8767   4.073   0.037   9.755 -0.2031 -0.1469 -0.0449
  588TMC3    C3 8768   4.168   4.717   9.832  0.1682 -0.2021 -0.2582
  588TMC3    C4 8769   4.131   0.243   9.864  0.1172  0.3642 -0.4056
  588TMC3    C5 8770   4.222   0.179   9.943 -0.2525 -0.6026  0.0878
  588TMC3    C6 8771   4.246   0.048   9.921  0.5527 -0.3625 -0.2962
  588TMC3     C 8772   3.924   0.219   9.750 -0.4633 -0.6189 -0.7551
  588TMC3     O 8773   3.842   0.150   9.806 -0.4390 -0.6296  0.2124
  588TMC3     H 8774   4.000   4.723   9.692  0.7923 -2.9530  1.0787
  588TMC3    H1 8775   4.102   0.344   9.892  1.2720 -0.1552  2.6283
  588TMC3    H2 8776   4.324   0.003   9.982  0.7091 -1.6639 -1.4529
  588TMC3    C7 8777   4.279   0.246  10.057  0.2965  0.3061  0.0666
  588TMC3    C8 8778   4.190   4.576   9.811  0.0151  1.0993 -0.1164
  588TMC3    O1 8779   4.345   0.181  10.134  0.2592  0.3990  0.4327
  588TMC3    O2 8780   4.163   4.534   9.701  0.1410  0.3592 -0.6097
  589TMC3    C1 8781   4.035   2.737   1.304  0.1034  0.2074  0.0290
  589TMC3    C2 8782   4.125   2.834   1.338 -1.2117 -0.5725  0.3502
  589TMC3    C3 8783   4.257   2.819   1.306 -0.1491 -0.5488  0.7663
  589TMC3    C4 8784   4.068   2.632   1.228  0.1041  0.1823 -0.5086
  589TMC3    C5 8785   4.203   2.615   1.196  0.3222  0.6594  0.1427
  589TMC3    C6 8786   4.302   2.710   1.231 -0.3532 -0.0048  0.1655
  589TMC3     C 8787   3.894   2.764   1.318 -0.3987 -0.5041 -0.2102
  589TMC3     O 8788   3.811   2.728   1.236 -0.9372  0.4079  0.3207
  589TMC3     H 8789   4.105   2.919   1.402 -1.5595  2.2259 -3.4703
  589TMC3    H1 8790   4.000   2.548   1.227 -0.1745  0.4052 -0.2828
  589TMC3    H2 8791   4.409   2.704   1.216 -0.2456 -1.4353  1.6143
  589TMC3    C7 8792   4.238   2.482   1.150  0.1244 -0.1812 -0.1083
  589TMC3    C8 8793   4.356   2.905   1.366  0.0162  0.3075  0.5112
  589TMC3    O1 8794   4.160   2.386   1.168  0.0461  0.3093  0.3262
  589TMC3    O2 8795   4.345   3.023   1.346 -0.1131 -0.2431 -0.4572
  590MPD2     C 8796   2.441   0.393  16.631 -0.1896 -0.0820  0.2160
  590MPD2    C1 8797   2.386   0.515  16.612 -0.4904  0.0945 -0.8059
  590MPD2    C2 8798   2.476   0.620  16.581  0.6936 -0.1546  0.7069
  590MPD2    C3 8799   2.617   0.589  16.574 -0.6255  0.0153  0.4898
  590MPD2    C4 8800   2.666   0.467  16.609  0.2964  0.0488 -0.6285
  590MPD2    C5 8801   2.574   0.366  16.632  0.4295 -0.1114 -0.1725
  590MPD2     H 8802   2.436   0.716  16.550 -0.9007 -0.9679  0.2295
  590MPD2    H1 8803   2.773   0.448  16.612 -0.0165 -1.5793  0.2055
  590MPD2    H2 8804   2.377   0.307  16.646  0.6853 -0.9695 -1.2303
  590MPD2    H3 8805   2.608   0.265  16.654  1.3610 -0.3050 -2.4574
  590MPD2     N 8806   2.715   0.686  16.547 -0.9163 -0.4250  0.2975
  590MPD2    H5 8807   2.813   0.663  16.532 -0.2265  1.5853  1.6524
  590MPD2    N1 8808   2.245   0.529  16.599 -0.5186 -0.2612 -0.0682
  590MPD2    H7 8809   2.199   0.443  16.625  0.2915 -0.4891  0.6233
  591TMC3    C1 8810   2.791   0.897  16.474 -0.1532  0.4353  0.2611
  591TMC3    C2 8811   2.869   0.838  16.382 -0.6582 -0.1314  1.0747
  591TMC3    C3 8812   2.914   0.914  16.280  0.5768  0.2969  0.2050
  591TMC3    C4 8813   2.761   1.031  16.470  1.1758  0.5326 -0.4951
  591TMC3    C5 8814   2.818   1.110  16.374  0.3731 -0.6672 -0.0161
  591TMC3    C6 8815   2.901   1.052  16.282 -0.2669 -0.0059  0.1391
  591TMC3     C 8816   2.689   0.821  16.540 -0.4778  0.3457 -0.0150
  591TMC3     O 8817   2.587   0.877  16.567  0.0071 -0.7478 -0.4601
  591TMC3     H 8818   2.886   0.731  16.376  2.5964  0.5737 -2.3926
  591TMC3    H1 8819   2.695   1.072  16.545  1.7222 -0.4872  0.5441
  591TMC3    H2 8820   2.931   1.110  16.196 -2.5570 -1.9545 -1.9744
  591TMC3    C7 8821   2.738   1.233  16.344 -0.8436 -0.2760  0.2646
  591TMC3    C8 8822   2.990   0.850  16.175  0.2523  0.1335  0.3588
  591TMC3    O1 8823   2.630   1.242  16.400 -0.4574  0.0917 -0.2640
  591TMC3    O2 8824   3.019   0.728  16.193  0.0546 -0.5128  0.5808
  592MPD2     C 8825   3.474   3.145  11.612 -0.0957 -0.0913  0.4768
  592MPD2    C1 8826   3.394   3.175  11.713  0.4842  0.4017  0.1007
  592MPD2    C2 8827   3.293   3.086  11.747  0.0355 -0.4426  0.2272
  592MPD2    C3 8828   3.259   2.974  11.670  0.3670  0.5924 -0.0347
  592MPD2    C4 8829   3.344   2.957  11.559  0.7119 -0.3075 -0.8508
  592MPD2    C5 8830   3.451   3.039  11.535 -0.3084  0.4171 -0.4581
  592MPD2     H 8831   3.221   3.097  11.828 -0.6261 -0.3383 -0.3704
  592MPD2    H1 8832   3.339   2.868  11.497 -0.1182 -1.2405  0.5562
  592MPD2    H2 8833   3.553   3.210  11.575 -0.6498  0.4604  0.2733
  592MPD2    H3 8834   3.518   3.017  11.453 -1.0687 -3.2089 -0.1082
  592MPD2     N 8835   3.178   2.874  11.728 -0.6915 -0.5223 -0.3649
  592MPD2    H5 8836   3.140   2.898  11.819 -2.0609  2.2754 -1.6520
  592MPD2    N1 8837   3.413   3.300  11.780  0.5459  0.0311  0.2307
  592MPD2    H7 8838   3.488   3.357  11.742 -0.1834 -0.2233 -1.6148
  593TMC3    C1 8839   3.384   3.481  11.915 -0.1427  0.2785 -0.1451
  593TMC3    C2 8840   3.366   3.525  12.042  0.1084  0.1508 -0.1573
  593TMC3    C3 8841   3.434   3.626  12.095  0.3273 -0.1453  0.0830
  593TMC3    C4 8842   3.477   3.552  11.842  0.6374  0.3537  0.0526
  593TMC3    C5 8843   3.528   3.670  11.892  0.4200  1.2475  0.2700
  593TMC3    C6 8844   3.513   3.705  12.019  0.1317  0.2130 -0.4362
  593TMC3     C 8845   3.335   3.353  11.882  0.7171 -0.2278 -0.2226
  593TMC3     O 8846   3.246   3.300  11.944  0.2632  0.5431  0.7888
  593TMC3     H 8847   3.295   3.463  12.095 -0.9481  0.4126 -1.2608
  593TMC3    H1 8848   3.487   3.526  11.738  0.5417 -0.4987  0.2571
  593TMC3    H2 8849   3.548   3.799  12.058 -0.4865  0.2600  0.0149
  593TMC3    C7 8850   3.640   3.717  11.818 -0.3104 -0.1113 -1.0948
  593TMC3    C8 8851   3.415   3.645  12.238  0.5873  0.4280 -0.0648
  593TMC3    O1 8852   3.637   3.685  11.698  0.7019  0.9947  0.0030
  593TMC3    O2 8853   3.322   3.590  12.296  0.8322 -0.4551  0.1304
  594MPD2     C 8854   1.591   1.902  13.733  0.4191 -0.2929  0.5536
  594MPD2    C1 8855   1.582   1.880  13.867 -0.0743  0.4443  0.6005
  594MPD2    C2 8856   1.691   1.918  13.945  0.1288 -0.0766 -0.2404
  594MPD2    C3 8857   1.792   1.990  13.888  0.6301  0.3476 -0.7938
  594MPD2    C4 8858   1.790   2.029  13.763  0.5095  0.3184  0.0746
  594MPD2    C5 8859   1.694   1.976  13.679 -0.1279 -0.5554  0.2556
  594MPD2     H 8860   1.703   1.884  14.047  1.5426 -0.0900 -0.4158
  594MPD2    H1 8861   1.853   2.111  13.729 -1.5267  2.4186  1.3320
  594MPD2    H2 8862   1.526   1.848  13.665  3.3673 -0.4892 -2.1305
  594MPD2    H3 8863   1.691   1.998  13.573  2.2736 -0.9460  0.1003
  594MPD2     N 8864   1.888   2.032  13.985  0.3567  0.5679  0.9864
  594MPD2    H5 8865   1.876   2.003  14.081 -0.5301 -0.1743  0.6502
  594MPD2    N1 8866   1.472   1.811  13.910  0.3132 -0.3398 -0.3911
  594MPD2    H7 8867   1.413   1.753  13.851  1.3571 -2.0762  0.2521
  595TMC3    C1 8868   2.281   2.170  14.200  0.2553 -0.0673 -0.9874
  595TMC3    C2 8869   2.213   2.152  14.080 -0.7044  0.0628 -0.6211
  595TMC3    C3 8870   2.075   2.125  14.090  0.0827 -0.2520 -0.4374
  595TMC3    C4 8871   2.218   2.160  14.317 -0.3195  1.1492  0.4064
  595TMC3    C5 8872   2.089   2.119  14.323 -0.2326  0.0992 -0.0850
  595TMC3    C6 8873   2.013   2.111  14.213 -0.5753  1.1460  0.1438
  595TMC3     C 8874   2.425   2.170  14.207  0.2193 -0.2068 -0.5109
  595TMC3     O 8875   2.477   2.135  14.315 -0.5155  0.6940  0.1352
  595TMC3     H 8876   2.266   2.132  13.988  0.5721 -0.3647  0.2118
  595TMC3    H1 8877   2.270   2.192  14.407 -0.1033  0.6048  0.4745
  595TMC3    H2 8878   1.907   2.091  14.227 -0.5345  1.5359  1.0104
  595TMC3    C7 8879   2.014   2.153  14.445 -0.2318  0.0990  1.1813
  595TMC3    C8 8880   2.006   2.094  13.963  0.5390 -0.4852  0.0386
  595TMC3    O1 8881   1.903   2.203  14.426  0.2327 -0.1769 -0.8212
  595TMC3    O2 8882   2.068   2.131  13.866 -0.1341 -0.0321  0.2036
  596MPD2     C 8883   1.397   4.713  16.337  0.6380  0.5923 -0.4372
  596MPD2    C1 8884   1.269   4.700  16.393 -0.2808  0.0821  1.0083
  596MPD2    C2 8885   1.165   4.703  16.303  0.2861 -0.5882 -0.2651
  596MPD2    C3 8886   1.189   4.708  16.166  0.0479 -0.7861 -0.2972
  596MPD2    C4 8887   1.317   4.707  16.111  0.4874  0.0602  0.0134
  596MPD2    C5 8888   1.419   4.717  16.201 -0.1529 -0.0959  0.2063
  596MPD2     H 8889   1.061   4.703  16.333  0.3029 -0.0982 -0.2059
  596MPD2    H1 8890   1.350   4.720  16.009 -0.9969 -2.0875 -0.7501
  596MPD2    H2 8891   1.483   4.727  16.401 -0.0360 -0.6089  0.7143
  596MPD2    H3 8892   1.520   4.726  16.163 -1.1079  1.4303 -1.9747
  596MPD2     N 8893   1.084   4.679  16.067  0.6069 -0.3387  0.0073
  596MPD2    H5 8894   1.101   4.701  15.969 -0.4797  1.8752  0.3382
  596MPD2    N1 8895   1.243   4.684  16.531 -0.6546  0.1860 -0.4523
  596MPD2    H7 8896   1.147   4.666  16.560  0.1037 -4.7844 -1.0318
  597TMC3    C1 8897   1.274   4.625  16.749  0.4174  0.0987 -0.3655
  597TMC3    C2 8898   1.344   4.538  16.821 -0.1628  0.4043 -0.8070
  597TMC3    C3 8899   1.285   4.468  16.927 -0.8089  0.1374  0.2213
  597TMC3    C4 8900   1.145   4.662  16.785 -0.1777 -0.6399 -0.2550
  597TMC3    C5 8901   1.091   4.600  16.896 -1.2301 -0.4770 -0.0715
  597TMC3    C6 8902   1.157   4.505  16.965  1.1191  0.2941 -0.1576
  597TMC3     C 8903   1.340   4.672  16.629 -0.0839 -0.5031 -0.7511
  597TMC3     O 8904   1.462   4.684  16.625 -0.1652 -0.2062  0.1442
  597TMC3     H 8905   1.447   4.520  16.793  0.3742  2.4090 -0.1707
  597TMC3    H1 8906   1.082   4.722  16.721 -0.3509  0.4271  0.9367
  597TMC3    H2 8907   1.110   4.468  17.056  0.0948 -0.5221 -1.0259
  597TMC3    C7 8908   0.994   4.679  16.973  0.3437 -0.5642 -0.6851
  597TMC3    C8 8909   1.347   4.365  17.008 -0.2925  0.2535  0.1894
  597TMC3    O1 8910   0.946   4.612  17.067  0.1357 -0.2894 -0.1660
  597TMC3    O2 8911   1.282   4.334  17.103  0.5755  0.6139  0.4376
  598TMC3    C1 8912   3.870   1.260  15.497 -0.0751 -0.8131  0.5233
  598TMC3    C2 8913   3.751   1.196  15.475 -0.6505 -0.2763 -0.0517
  598TMC3    C3 8914   3.720   1.172  15.344 -0.6280  0.1555 -0.7405
  598TMC3    C4 8915   3.945   1.313  15.399  0.1044 -0.4603  0.0450
  598TMC3    C5 8916   3.913   1.286  15.273  0.6440 -0.2690 -0.1825
  598TMC3    C6 8917   3.799   1.214  15.237  0.9714  0.1352 -0.2085
  598TMC3     C 8918   3.914   1.293  15.630  0.1997  0.3496  0.5184
  598TMC3     O 8919   3.952   1.407  15.658 -0.1078  0.8355  0.0485
  598TMC3     H 8920   3.703   1.152  15.562  0.3350 -0.2118  0.5277
  598TMC3    H1 8921   4.035   1.361  15.438 -0.2464  0.1866  0.0706
  598TMC3    H2 8922   3.756   1.200  15.139  1.1962  1.1881 -0.4547
  598TMC3    C7 8923   4.004   1.305  15.162 -0.2237 -0.3434 -0.4183
  598TMC3    C8 8924   3.628   1.054  15.328 -0.2714  0.1545 -0.0361
  598TMC3    O1 8925   3.966   1.279  15.052  0.5146 -0.2430  0.1780
  598TMC3    O2 8926   3.553   1.026  15.420 -0.5875  0.0360  0.3482
  599MPD2     C 8927   4.258   3.782  15.759 -0.4239  0.5761 -0.3421
  599MPD2    C1 8928   4.285   3.650  15.786 -0.4813 -0.0983  0.3685
  599MPD2    C2 8929   4.201   3.576  15.864 -0.9024 -0.4819 -0.7464
  599MPD2    C3 8930   4.097   3.646  15.920 -0.3290  0.1915 -0.2157
  599MPD2    C4 8931   4.067   3.774  15.892 -0.2226  0.0234  0.1553
  599MPD2    C5 8932   4.147   3.843  15.804 -0.1457 -0.1454  0.3059
  599MPD2     H 8933   4.219   3.474  15.897  0.7391  0.1352  0.3055
  599MPD2    H1 8934   3.976   3.820  15.930  0.2720 -0.3649  1.8052
  599MPD2    H2 8935   4.321   3.838  15.691  1.8779 -2.4847 -0.7071
  599MPD2    H3 8936   4.127   3.945  15.772 -0.2603 -0.5249 -0.7976
  599MPD2     N 8937   4.001   3.590  16.013 -0.1425 -0.2890  0.3358
  599MPD2    H5 8938   3.935   3.658  16.049  0.4769  0.9070 -0.7890
  599MPD2    N1 8939   4.399   3.599  15.726 -0.4722  0.4695  0.1893
  599MPD2    H7 8940   4.466   3.668  15.695  1.6253 -1.1389  1.1608
  600TMC3    C1 8941   3.886   3.430  16.137  0.2933  1.3078 -0.8579
  600TMC3    C2 8942   3.855   3.300  16.159 -0.4244  0.6278  0.0424
  600TMC3    C3 8943   3.787   3.270  16.273 -0.2853 -0.4171 -0.4964
  600TMC3    C4 8944   3.842   3.537  16.221  0.7626  0.2489 -0.4753
  600TMC3    C5 8945   3.770   3.495  16.335  0.1081 -0.4382 -0.8660
  600TMC3    C6 8946   3.745   3.367  16.360  0.7958 -0.1986 -0.0813
  600TMC3     C 8947   3.996   3.459  16.049 -0.2629  0.2972 -0.0540
  600TMC3     O 8948   4.036   3.357  15.988  0.2326 -0.3103 -0.3693
  600TMC3     H 8949   3.890   3.218  16.098 -0.0267  0.4752  0.4723
  600TMC3    H1 8950   3.857   3.643  16.205  1.6653  0.0426 -0.9592
  600TMC3    H2 8951   3.696   3.341  16.453  0.3885  0.9172  0.0137
  600TMC3    C7 8952   3.783   3.579  16.450  0.2545  0.0115 -0.6627
  600TMC3    C8 8953   3.756   3.134  16.298  0.0180 -0.0011 -0.0059
  600TMC3    O1 8954   3.781   3.704  16.447  0.6495  0.6743 -0.6137
  600TMC3    O2 8955   3.822   3.050  16.235  0.5986  0.4085 -0.1858
  601MPD2     C 8956   1.273   1.870   0.622  0.3460  0.1152 -0.2194
  601MPD2    C1 8957   1.207   1.840   0.507  0.3135  0.7385  1.0635
  601MPD2    C2 8958   1.088   1.766   0.518 -0.2035  0.4613  0.6262
  601MPD2    C3 8959   1.034   1.716   0.636  0.6109  0.4627 -0.3423
  601MPD2    C4 8960   1.102   1.753   0.748 -0.2197  0.3139 -0.8376
  601MPD2    C5 8961   1.208   1.845   0.745 -0.0838  0.0626 -0.2226
  601MPD2     H 8962   1.037   1.734   0.428 -0.9106  1.7574  0.5668
  601MPD2    H1 8963   1.057   1.731   0.844  0.0940  1.5445 -0.4070
  601MPD2    H2 8964   1.365   1.927   0.623 -0.1097  0.8578  0.0995
  601MPD2    H3 8965   1.249   1.874   0.841  2.5695  0.9010 -1.5908
  601MPD2     N 8966   0.919   1.630   0.647  0.1730  0.2378 -0.7593
  601MPD2    H5 8967   0.887   1.604   0.740  0.4741  1.7722 -0.2323
  601MPD2    N1 8968   1.253   1.858   0.376  0.6753  0.3814  0.2069
  601MPD2    H7 8969   1.187   1.844   0.300  0.2121 -0.6922  0.8153
  602TMC3    C1 8970   1.387   1.946   0.198 -0.2363 -0.7258  0.1202
  602TMC3    C2 8971   1.453   2.063   0.170  0.5648 -0.2910 -0.3557
  602TMC3    C3 8972   1.457   2.104   0.040  0.5857 -0.4245  0.4003
  602TMC3    C4 8973   1.317   1.869   0.104 -0.3299  0.3398 -0.0224
  602TMC3    C5 8974   1.335   1.911  17.721  0.2450  0.3653  0.4842
  602TMC3    C6 8975   1.408   2.024  17.684  0.6897 -0.8769  0.9749
  602TMC3     C 8976   1.374   1.918   0.346 -0.2662  0.2607 -0.1886
  602TMC3     O 8977   1.466   1.957   0.423  0.4072  0.3903  0.4550
  602TMC3     H 8978   1.492   2.127   0.248  1.5271 -1.5627  0.2139
  602TMC3    H1 8979   1.260   1.780   0.126  0.5460  0.2357  1.8244
  602TMC3    H2 8980   1.421   2.043  17.579 -0.1082  1.7534  1.3596
  602TMC3    C7 8981   1.251   1.858  17.623  0.5540 -0.1101  0.3271
  602TMC3    C8 8982   1.505   2.240   0.018  0.3124  0.8833 -0.0888
  602TMC3    O1 8983   1.204   1.747  17.643  0.1488 -0.4792 -0.2676
  602TMC3    O2 8984   1.577   2.297   0.099 -0.3183 -0.0264 -0.4458
  603TMC3    C1 8985   4.041   2.329  10.810  0.6818  0.2828  0.0448
  603TMC3    C2 8986   4.056   2.373  10.938 -0.2093 -0.4032  0.3278
  603TMC3    C3 8987   4.095   2.497  10.960  0.4862  0.0656 -0.3160
  603TMC3    C4 8988   4.071   2.410  10.704 -0.5659 -0.3667  0.0855
  603TMC3    C5 8989   4.123   2.534  10.737 -0.2863 -0.6973  0.1853
  603TMC3    C6 8990   4.141   2.577  10.870 -0.1455 -0.3731 -0.3615
  603TMC3     C 8991   3.987   2.195  10.782  0.0711  0.0464  0.7762
  603TMC3     O 8992   3.933   2.172  10.677  0.3304 -0.1757 -0.1667
  603TMC3     H 8993   4.028   2.319  11.028  0.0622 -1.3621 -0.1658
  603TMC3    H1 8994   4.071   2.369  10.603 -0.6888  1.5336 -0.6854
  603TMC3    H2 8995   4.168   2.681  10.887 -0.0565 -0.4090 -0.2856
  603TMC3    C7 8996   4.141   2.626  10.623 -0.4268  0.1170 -0.2971
  603TMC3    C8 8997   4.115   2.530  11.096  0.0176  0.9905  0.7878
  603TMC3    O1 8998   4.236   2.702  10.628 -0.2894  0.3645 -1.3592
  603TMC3    O2 8999   4.146   2.443  11.179 -0.3461  0.8030 -0.4552
  604MPD2     C 9000   4.590   1.185  16.170 -0.3005 -0.7465  0.0831
  604MPD2    C1 9001   4.598   1.049  16.193 -0.5276  0.5309  0.9766
  604MPD2    C2 9002   4.665   0.969  16.108 -0.6877 -0.1315 -0.4034
  604MPD2    C3 9003   4.711   1.026  15.984 -0.2903  0.4803 -0.3486
  604MPD2    C4 9004   4.713   1.158  15.968  0.5785  0.5604 -0.5253
  604MPD2    C5 9005   4.651   1.241  16.056 -0.4789  0.1586  0.2589
  604MPD2     H 9006   4.688   0.864  16.121 -0.0113  0.0068 -0.4961
  604MPD2    H1 9007   0.016   1.209  15.881 -0.0790  0.5845 -0.8171
  604MPD2    H2 9008   4.529   1.249  16.233  0.2070 -0.9725  0.8108
  604MPD2    H3 9009   4.643   1.345  16.029 -0.4582 -0.3456 -1.6957
  604MPD2     N 9010   0.049   0.941  15.898 -0.3937  0.1633  0.0320
  604MPD2    H5 9011   0.122   0.994  15.853 -0.3572  0.4408  0.4167
  604MPD2    N1 9012   4.541   1.006  16.316  0.5407  0.4996 -0.5536
  604MPD2    H7 9013   4.494   1.079  16.368  0.6612  0.2675 -0.1236
  605TMC3    C1 9014   4.502   0.873  16.494  0.6154  0.4697  0.3865
  605TMC3    C2 9015   4.582   0.911  16.600 -0.3724  0.5711 -0.2544
  605TMC3    C3 9016   4.520   0.934  16.720 -0.0806  0.6192  0.1593
  605TMC3    C4 9017   4.364   0.847  16.504  0.1953 -0.3507 -0.1645
  605TMC3    C5 9018   4.310   0.889  16.625 -0.6410  1.0251  0.2657
  605TMC3    C6 9019   4.386   0.936  16.729  0.0230  0.1315  0.3097
  605TMC3     C 9020   4.558   0.883  16.363 -0.2688  0.5014  0.2918
  605TMC3     O 9021   4.585   0.773  16.316 -0.1758  0.2768 -0.5816
  605TMC3     H 9022   4.688   0.920  16.582  0.0267 -2.7138  0.4315
  605TMC3    H1 9023   4.306   0.838  16.413  1.4849 -3.2032 -0.7129
  605TMC3    H2 9024   4.341   0.982  16.817  0.8346  1.9379 -0.2216
  605TMC3    C7 9025   4.171   0.914  16.628 -0.3391 -0.3316  0.5013
  605TMC3    C8 9026   4.606   0.989  16.822  0.1039  0.7908  0.2003
  605TMC3    O1 9027   4.123   0.987  16.714  0.1268 -0.1883  0.1005
  605TMC3    O2 9028   4.714   0.930  16.847 -0.1375  0.0782 -0.5268
  606TMC3    C1 9029   1.381   3.594   0.688 -0.0107 -0.0273 -0.4826
  606TMC3    C2 9030   1.458   3.640   0.795  0.4851 -0.5305 -0.2756
  606TMC3    C3 9031   1.569   3.714   0.762 -0.7756 -0.0258 -0.4116
  606TMC3    C4 9032   1.407   3.627   0.560 -0.0544  0.3801 -0.5372
  606TMC3    C5 9033   1.527   3.692   0.535  0.5987 -0.7681 -0.8453
  606TMC3    C6 9034   1.611   3.733   0.631 -1.0704 -0.5538 -0.6269
  606TMC3     C 9035   1.268   3.515   0.718 -0.6431  0.1920  0.3503
  606TMC3     O 9036   1.200   3.548   0.811 -0.7286 -0.3255  0.0254
  606TMC3     H 9037   1.430   3.624   0.898 -0.9910 -1.1386 -0.7615
  606TMC3    H1 9038   1.322   3.613   0.493  0.1653  0.4931 -0.8381
  606TMC3    H2 9039   1.699   3.790   0.604 -1.1653  0.6894  1.7693
  606TMC3    C7 9040   1.556   3.733   0.399 -0.4997 -0.2420  0.5314
  606TMC3    C8 9041   1.646   3.795   0.855  0.1970 -0.3662 -0.1883
  606TMC3    O1 9042   1.670   3.750   0.363 -0.3472  0.1899 -0.2961
  606TMC3    O2 9043   1.751   3.836   0.811 -0.2639 -0.4284 -0.1915
  607MPD2     C 9044   3.239   2.334  11.860 -0.2139 -0.0703  0.8645
  607MPD2    C1 9045   3.319   2.444  11.883 -0.3313 -0.6396 -0.1817
  607MPD2    C2 9046   3.315   2.495  12.012 -0.7591  0.3489  0.0041
  607MPD2    C3 9047   3.260   2.417  12.115  0.6287  0.6676  0.3239
  607MPD2    C4 9048   3.197   2.296  12.089 -0.3003  0.0829  0.5771
  607MPD2    C5 9049   3.179   2.262  11.959 -0.5378 -0.1065 -0.5711
  607MPD2     H 9050   3.363   2.589  12.034  0.0033 -0.2162  0.7421
  607MPD2    H1 9051   3.150   2.235  12.166  0.2269 -0.5609  0.3898
  607MPD2    H2 9052   3.238   2.302  11.757  2.9811 -1.0367  1.1462
  607MPD2    H3 9053   3.130   2.170  11.929 -0.3999  0.3400 -2.1870
  607MPD2     N 9054   3.282   2.472  12.241  0.1244  0.0321  0.0893
  607MPD2    H5 9055   3.329   2.562  12.246 -0.4982  0.2868  1.5224
  607MPD2    N1 9056   3.403   2.509  11.786 -0.4119 -0.2229 -0.0728
  607MPD2    H7 9057   3.480   2.564  11.822 -0.7234  1.9657 -2.7975
  608TMC3    C1 9058   3.535   2.563  11.612 -0.0100 -0.2834 -0.3808
  608TMC3    C2 9059   3.534   2.689  11.666  0.2756  0.0211 -0.1428
  608TMC3    C3 9060   3.639   2.777  11.640  0.4933 -1.0372 -1.2940
  608TMC3    C4 9061   3.620   2.529  11.511  0.1165 -0.7320 -0.1349
  608TMC3    C5 9062   3.715   2.628  11.472  0.0096  0.3975 -0.0192
  608TMC3    C6 9063   3.738   2.738  11.547  0.2402 -0.1612  0.1505
  608TMC3     C 9064   3.418   2.484  11.651 -0.2508  0.3700 -0.5669
  608TMC3     O 9065   3.360   2.413  11.573  0.3699  0.0357 -0.3196
  608TMC3     H 9066   3.459   2.724  11.737 -0.5618 -2.8778  0.4145
  608TMC3    H1 9067   3.607   2.440  11.450 -1.3615 -0.4851 -0.1688
  608TMC3    H2 9068   3.808   2.812  11.509 -0.0394 -1.1690 -2.3610
  608TMC3    C7 9069   3.708   2.645  11.326  0.1579 -0.0927  0.2002
  608TMC3    C8 9070   3.674   2.879  11.736  0.3076 -0.6689 -0.0925
  608TMC3    O1 9071   3.683   2.761  11.284 -0.6975 -0.1558 -0.9485
  608TMC3    O2 9072   3.749   2.972  11.696  0.3817 -0.3802  0.1836
  609TMC3    C1 9073   1.951   1.994   9.262  0.1512 -0.6196  0.1909
  609TMC3    C2 9074   1.836   1.938   9.216 -0.3818  0.4870 -0.1474
  609TMC3    C3 9075   1.842   1.813   9.152 -0.6517 -0.8747  0.8057
  609TMC3    C4 9076   2.063   1.923   9.262  0.1017  0.2599 -0.7140
  609TMC3    C5 9077   2.061   1.800   9.205  0.4801 -0.0549  0.6672
  609TMC3    C6 9078   1.953   1.742   9.147 -0.6484  0.0577  0.0449
  609TMC3     C 9079   1.932   2.108   9.345  0.2154  0.7616  0.9939
  609TMC3     O 9080   1.814   2.130   9.376  0.2273  0.8597 -0.1594
  609TMC3     H 9081   1.749   2.003   9.207  0.2540  1.4375  0.6320
  609TMC3    H1 9082   2.160   1.950   9.301 -1.0680  0.1437  2.2628
  609TMC3    H2 9083   1.956   1.644   9.101  1.0258 -0.3026  0.9433
  609TMC3    C7 9084   2.184   1.730   9.214  0.0605 -0.3483  0.9672
  609TMC3    C8 9085   1.711   1.771   9.106 -0.2183  0.1132 -0.2530
  609TMC3    O1 9086   2.284   1.805   9.219 -0.4566 -0.3578 -0.0681
  609TMC3    O2 9087   1.628   1.854   9.081  0.2168  0.1013  0.1024
  610TMC3    C1 9088   3.847   2.523  12.818  0.2614  0.1976  0.5788
  610TMC3    C2 9089   3.902   2.596  12.711  0.4099 -0.2958 -0.1794
  610TMC3    C3 9090   4.029   2.562  12.677  0.2463  0.7884  0.4427
  610TMC3    C4 9091   3.906   2.413  12.866 -0.0459 -0.4989 -0.7063
  610TMC3    C5 9092   4.034   2.383  12.824  0.2999  0.5801 -0.6085
  610TMC3    C6 9093   4.100   2.471  12.743  0.7261  0.3857 -0.3841
  610TMC3     C 9094   3.705   2.533  12.835 -0.0763  0.2136  0.2598
  610TMC3     O 9095   3.639   2.433  12.828 -0.2367 -0.2908 -0.1156
  610TMC3     H 9096   3.840   2.677  12.673  1.1184  0.0961 -0.4953
  610TMC3    H1 9097   3.845   2.340  12.917  0.6625 -0.0992  0.7233
  610TMC3    H2 9098   4.200   2.450  12.706  1.4543  1.4569  1.0352
  610TMC3    C7 9099   4.113   2.269  12.870 -0.5860  0.3930  0.9343
  610TMC3    C8 9100   4.101   2.666  12.601  0.1265  0.0742  0.0273
  610TMC3    O1 9101   4.220   2.250  12.815  0.2853  0.1395  0.1093
  610TMC3    O2 9102   4.217   2.678  12.644  0.2634  0.2549 -0.4561
  611MPD2     C 9103   2.918   3.038  10.793  0.1951 -0.2790  0.3650
  611MPD2    C1 9104   2.966   2.933  10.718  0.1496 -0.7016  0.0913
  611MPD2    C2 9105   3.078   2.947  10.639  0.0127  0.6130 -0.3801
  611MPD2    C3 9106   3.128   3.069  10.616 -0.1016  0.0914  0.0486
  611MPD2    C4 9107   3.075   3.171  10.688 -0.2695  0.1225 -0.0181
  611MPD2    C5 9108   2.972   3.161  10.776 -0.4011 -0.1297  0.1907
  611MPD2     H 9109   3.116   2.859  10.588  0.4852  1.0265 -0.7421
  611MPD2    H1 9110   3.110   3.272  10.669  1.8102 -0.9859 -2.0342
  611MPD2    H2 9111   2.835   3.031  10.862 -0.7859  0.7013 -0.7225
  611MPD2    H3 9112   2.931   3.248  10.826  0.9930 -0.1431  1.3375
  611MPD2     N 9113   3.231   3.092  10.524  0.4359  0.6769  0.0767
  611MPD2    H5 9114   3.267   3.186  10.509 -0.0021  0.7431 -0.5485
  611MPD2    N1 9115   2.911   2.800  10.728 -0.2977  0.1710 -0.2279
  611MPD2    H7 9116   2.961   2.732  10.671 -0.5451 -0.4519  0.2971
  612TMC3    C1 9117   3.377   3.055  10.354 -0.3255  0.2824 -0.5462
  612TMC3    C2 9118   3.488   2.983  10.325 -0.0577  0.3579 -0.1330
  612TMC3    C3 9119   3.536   2.976  10.200 -0.0159  0.2122  0.8401
  612TMC3    C4 9120   3.302   3.112  10.252  0.0361 -0.2808 -0.3659
  612TMC3    C5 9121   3.373   3.125  10.129 -0.0167  0.5378  0.7484
  612TMC3    C6 9122   3.488   3.061  10.099  0.7158 -0.3298  0.2513
  612TMC3     C 9123   3.292   2.996  10.449  0.2971  0.2960  0.1210
  612TMC3     O 9124   3.274   2.876  10.439  0.2089 -0.4529  0.0060
  612TMC3     H 9125   3.521   2.928  10.413 -0.6245 -1.2315 -0.9069
  612TMC3    H1 9126   3.213   3.167  10.276  0.8740  0.4686  0.9978
  612TMC3    H2 9127   3.546   3.085  10.010 -1.3799 -2.0505 -1.5963
  612TMC3    C7 9128   3.287   3.155  10.018  1.0607 -0.3129 -0.0739
  612TMC3    C8 9129   3.666   2.931  10.181  0.2698 -0.4438  0.3357
  612TMC3    O1 9130   3.197   3.231  10.042 -0.1304  0.0838 -0.2278
  612TMC3    O2 9131   3.704   2.926  10.066  0.2927  0.5603  0.1902
  613MPD2     C 9132   2.483   0.046  16.945 -0.1443 -0.0902  0.2791
  613MPD2    C1 9133   2.433   4.673  16.884  0.3594 -0.2308  0.6861
  613MPD2    C2 9134   2.303   4.682  16.830 -0.6051  0.3978  0.6160
  613MPD2    C3 9135   2.233   0.065  16.825  0.1378 -0.3727  0.1608
  613MPD2    C4 9136   2.292   0.175  16.881  0.4203 -0.3471  0.0222
  613MPD2    C5 9137   2.410   0.164  16.952 -0.0339  0.5994  0.2598
  613MPD2     H 9138   2.252   4.604  16.775 -0.1317  1.5618 -1.4953
  613MPD2    H1 9139   2.234   0.266  16.890 -0.3254 -1.0505  2.5680
  613MPD2    H2 9140   2.575   0.047  17.003  1.5874 -0.2486 -2.4737
  613MPD2    H3 9141   2.455   0.245  17.009 -0.6316 -0.1292  1.7601
  613MPD2     N 9142   2.109   0.076  16.769 -0.4109  0.5257 -0.0115
  613MPD2    H5 9143   2.062   4.725  16.750 -0.0366  0.7696 -2.0844
  613MPD2    N1 9144   2.513   4.562  16.872 -0.2516 -0.0486 -0.4200
  613MPD2    H7 9145   2.612   4.579  16.887 -0.0974 -0.9598 -0.4215
  614TMC3    C1 9146   2.586   4.357  16.785  0.2338 -0.4252 -0.5348
  614TMC3    C2 9147   2.534   4.237  16.750 -0.9759  0.8693 -0.0939
  614TMC3    C3 9148   2.550   4.185  16.626 -0.6229  0.7036  0.1370
  614TMC3    C4 9149   2.672   4.420  16.707  0.1438  0.6326 -0.9899
  614TMC3    C5 9150   2.694   4.367  16.589 -0.4001 -0.5901  0.5989
  614TMC3    C6 9151   2.627   4.256  16.538 -0.4220  0.1546  0.7047
  614TMC3     C 9152   2.471   4.436  16.833  1.1631  0.1241 -0.0936
  614TMC3     O 9153   2.358   4.392  16.805 -0.1871  0.4423  0.4124
  614TMC3     H 9154   2.479   4.183  16.826  0.6951 -0.4054  0.1975
  614TMC3    H1 9155   2.702   4.523  16.721  0.2449  0.4092  0.3850
  614TMC3    H2 9156   2.647   4.220  16.438 -2.7829 -0.7737  0.5716
  614TMC3    C7 9157   2.762   4.449  16.493 -0.8508 -0.4135  0.0259
  614TMC3    C8 9158   2.427   4.134  16.555 -0.2149 -0.5495 -0.0899
  614TMC3    O1 9159   2.842   4.530  16.538  0.3406 -0.0994 -0.0651
  614TMC3    O2 9160   2.441   4.086  16.448 -0.0117  0.4653  0.8127
  615MPD2     C 9161   1.162   1.740  16.567 -0.6463  0.6143  0.5587
  615MPD2    C1 9162   1.239   1.847  16.538 -0.8637 -0.2964  0.5000
  615MPD2    C2 9163   1.193   1.946  16.458  0.1861  0.8743  0.5011
  615MPD2    C3 9164   1.060   1.946  16.416 -0.0494 -0.3131  0.1098
  615MPD2    C4 9165   0.983   1.842  16.454 -0.2148 -0.1618  0.1104
  615MPD2    C5 9166   1.036   1.732  16.523 -0.1411  0.1049 -0.0088
  615MPD2     H 9167   1.264   2.025  16.433  0.9568  0.2396  0.6861
  615MPD2    H1 9168   0.883   1.823  16.417  0.3078 -1.3866 -0.6962
  615MPD2    H2 9169   1.191   1.675  16.649  1.5500  0.0494 -0.6433
  615MPD2    H3 9170   0.972   1.655  16.563 -1.2542  1.9463  1.7146
  615MPD2     N 9171   1.005   2.055  16.337  0.2151  0.5961  0.3586
  615MPD2    H5 9172   0.904   2.053  16.324 -0.0533 -3.4690  3.2094
  615MPD2    N1 9173   1.371   1.851  16.590  0.2626 -0.0735  0.2367
  615MPD2    H7 9174   1.426   1.934  16.570  1.4040 -0.9107 -0.1377
  616TMC3    C1 9175   1.579   1.792  16.680 -1.4621 -0.3357 -0.2167
  616TMC3    C2 9176   1.656   1.745  16.784 -0.6545 -0.2513  0.0179
  616TMC3    C3 9177   1.778   1.797  16.815 -0.1288 -0.1348  0.4446
  616TMC3    C4 9178   1.635   1.877  16.587  0.3350 -0.8842 -0.3115
  616TMC3    C5 9179   1.757   1.928  16.622  0.0314  0.1427  0.3635
  616TMC3    C6 9180   1.823   1.896  16.736 -0.2089 -0.0496 -0.3700
  616TMC3     C 9181   1.444   1.750  16.656 -0.4639 -0.3157  0.3214
  616TMC3     O 9182   1.413   1.643  16.702  0.5259 -0.5318 -0.1202
  616TMC3     H 9183   1.609   1.668  16.844  1.9490 -0.8945  1.2348
  616TMC3    H1 9184   1.585   1.898  16.493 -0.2884  0.6895  0.3649
  616TMC3    H2 9185   1.906   1.957  16.770 -0.4820  0.7991 -1.2453
  616TMC3    C7 9186   1.806   2.046  16.543 -0.0918  0.4530 -0.3092
  616TMC3    C8 9187   1.851   1.734  16.922 -0.2593 -0.3348  0.0443
  616TMC3    O1 9188   1.720   2.095  16.467  0.1279  0.2677 -0.0529
  616TMC3    O2 9189   1.789   1.656  17.000  0.0711  0.1736 -0.5942
  617MPD2     C 9190   4.675   4.098  13.874  0.2200  0.3023  0.4719
  617MPD2    C1 9191   4.675   4.103  14.016  0.4815  0.1358  0.2863
  617MPD2    C2 9192   4.559   4.060  14.081  0.4367 -0.4434 -0.6582
  617MPD2    C3 9193   4.447   4.018  14.012 -0.3306  0.1692 -0.1026
  617MPD2    C4 9194   4.453   4.014  13.874  0.6511 -0.6514 -0.7607
  617MPD2    C5 9195   4.570   4.046  13.807 -0.3701  0.4802  0.2615
  617MPD2     H 9196   4.552   4.069  14.188  0.9337 -1.3427 -0.5470
  617MPD2    H1 9197   4.365   4.006  13.812  0.8832 -0.1151 -1.1531
  617MPD2    H2 9198   0.023   4.125  13.812 -0.8991 -2.0169 -2.1089
  617MPD2    H3 9199   4.567   4.053  13.699 -1.2849  1.3597  0.3497
  617MPD2     N 9200   4.332   3.976  14.084  0.0982  0.4065 -0.1694
  617MPD2    H5 9201   4.248   3.969  14.027  0.3797 -0.9569 -0.4141
  617MPD2    N1 9202   0.059   4.151  14.062  0.8223 -1.2008 -0.4480
  617MPD2    H7 9203   0.117   4.184  13.986 -0.7373 -0.1002 -1.1644
  618TMC3    C1 9204   0.247   4.191  14.199 -0.0415 -0.0846 -0.4455
  618TMC3    C2 9205   0.345   4.121  14.272  0.4876  0.3040  0.4138
  618TMC3    C3 9206   0.470   4.100  14.223 -0.5783  0.7991  0.3220
  618TMC3    C4 9207   0.286   4.263  14.088  0.4895  0.4391  0.2862
  618TMC3    C5 9208   0.413   4.238  14.035 -0.2874 -0.0406  0.3302
  618TMC3    C6 9209   0.501   4.144  14.093  0.1423  0.4168  0.0853
  618TMC3     C 9210   0.109   4.134  14.193 -0.0983  0.8053 -0.1767
  618TMC3     O 9211   0.068   4.076  14.291  0.1207  0.2854 -0.3462
  618TMC3     H 9212   0.310   4.076  14.364 -1.3648  1.7091  0.3947
  618TMC3    H1 9213   0.221   4.335  14.039 -0.5715 -0.4472  0.3886
  618TMC3    H2 9214   0.586   4.102  14.040 -1.1989  0.0222 -1.7281
  618TMC3    C7 9215   0.386   4.225  13.892  0.7771  0.2896  0.3829
  618TMC3    C8 9216   0.577   4.099  14.321  0.7864  0.3272 -0.3172
  618TMC3    O1 9217   0.275   4.252  13.852 -0.7555 -0.1901 -0.3424
  618TMC3    O2 9218   0.547   4.108  14.444 -0.2351  0.0390  0.6845
  619MPD2     C 9219   1.666   0.846  13.512 -0.2016  0.1508  0.3428
  619MPD2    C1 9220   1.578   0.917  13.423 -0.0013  0.2092 -0.2747
  619MPD2    C2 9221   1.458   0.861  13.378 -0.0307  0.3042 -0.4603
  619MPD2    C3 9222   1.440   0.727  13.406  0.5506  0.5824 -0.4110
  619MPD2    C4 9223   1.517   0.665  13.497 -0.1513 -0.0332 -0.1507
  619MPD2    C5 9224   1.632   0.718  13.549  0.9309  0.7559  0.4491
  619MPD2     H 9225   1.399   0.920  13.309  0.2544  1.2093  0.0676
  619MPD2    H1 9226   1.508   0.559  13.519 -1.1949  0.3431  1.2703
  619MPD2    H2 9227   1.762   0.884  13.546  0.3422  0.7874 -1.9427
  619MPD2    H3 9228   1.707   0.659  13.600 -1.8091 -2.0860  1.1904
  619MPD2     N 9229   1.327   0.655  13.354 -0.3374 -0.3208 -0.6003
  619MPD2    H5 9230   1.292   0.587  13.421  0.7995  1.3898  1.7172
  619MPD2    N1 9231   1.607   1.048  13.384  0.0932  0.4910  0.4772
  619MPD2    H7 9232   1.534   1.102  13.338  0.5050 -1.9049 -3.0642
  620TMC3    C1 9233   1.700   1.266  13.398  0.1377 -0.0141 -0.9852
  620TMC3    C2 9234   1.652   1.294  13.270  0.5061 -0.2830  0.1887
  620TMC3    C3 9235   1.642   1.428  13.233  0.0865  0.0123  0.4415
  620TMC3    C4 9236   1.751   1.358  13.482 -0.4826  0.3198 -0.4079
  620TMC3    C5 9237   1.734   1.496  13.452  0.3631  0.8678  0.0630
  620TMC3    C6 9238   1.673   1.522  13.329 -0.8625 -0.6939  0.1822
  620TMC3     C 9239   1.709   1.126  13.441 -0.0718  0.1387 -0.5047
  620TMC3     O 9240   1.796   1.099  13.521  0.3929 -0.2706  0.2902
  620TMC3     H 9241   1.630   1.211  13.204  3.2420  0.8997 -2.2422
  620TMC3    H1 9242   1.788   1.325  13.578  1.3170  2.1260 -0.4638
  620TMC3    H2 9243   1.641   1.623  13.306 -0.9160 -0.9826 -0.9705
  620TMC3    C7 9244   1.659   1.568  13.544 -0.5245  0.2231  0.3263
  620TMC3    C8 9245   1.519   1.461  13.163  1.5130  0.6175 -0.4588
  620TMC3    O1 9246   1.641   1.683  13.508  0.4459  0.0850 -0.1786
  620TMC3    O2 9247   1.439   1.540  13.211 -0.6498  1.2620  0.0969
  621MPD2     C 9248   1.682   1.910  10.555  0.1271  0.5119 -0.7309
  621MPD2    C1 9249   1.712   1.809  10.466  0.7192  0.0341 -0.1202
  621MPD2    C2 9250   1.781   1.842  10.354  0.0813 -0.0785  0.1602
  621MPD2    C3 9251   1.837   1.971  10.339  0.1528  0.4682 -0.1455
  621MPD2    C4 9252   1.811   2.066  10.437  0.2833 -0.0904 -0.3885
  621MPD2    C5 9253   1.734   2.034  10.544 -0.0021 -0.2717  0.2812
  621MPD2     H 9254   1.783   1.769  10.274  0.8120 -1.0610  1.0570
  621MPD2    H1 9255   1.872   2.155  10.441 -3.8955  2.8222 -1.3576
  621MPD2    H2 9256   1.643   1.892  10.655 -0.4218  1.4744 -0.7803
  621MPD2    H3 9257   1.717   2.106  10.623 -1.1775 -0.1896 -0.0550
  621MPD2     N 9258   1.898   2.001  10.216  0.1555  0.7581  0.5882
  621MPD2    H5 9259   1.913   1.923  10.153  0.0210  0.8804  0.4044
  621MPD2    N1 9260   1.662   1.673  10.486  0.1959  0.3835  0.1976
  621MPD2    H7 9261   1.704   1.600  10.428 -0.9170  0.9128 -1.2811
  622TMC3    C1 9262   1.570   1.480  10.595 -0.0279 -0.2338 -0.3802
  622TMC3    C2 9263   1.481   1.432  10.682  0.7550  0.0431  0.3294
  622TMC3    C3 9264   1.476   1.299  10.701  0.1272  0.0676 -0.4385
  622TMC3    C4 9265   1.634   1.395  10.504  0.3224  0.4371 -0.2162
  622TMC3    C5 9266   1.619   1.261  10.522 -0.5378 -0.0752 -1.0457
  622TMC3    C6 9267   1.554   1.211  10.626  0.1502  0.2695 -0.1542
  622TMC3     C 9268   1.586   1.629  10.593  0.5762  0.5158 -0.5418
  622TMC3     O 9269   1.534   1.692  10.686  0.0574 -0.0941 -0.1135
  622TMC3     H 9270   1.433   1.502  10.750 -1.4217 -1.1453  0.0204
  622TMC3    H1 9271   1.687   1.437  10.420 -1.4982 -3.3383 -3.2254
  622TMC3    H2 9272   1.512   1.111  10.623  1.6338 -0.3918  1.2757
  622TMC3    C7 9273   1.615   1.172  10.414  0.0692  0.1487  0.5732
  622TMC3    C8 9274   1.339   1.255  10.708 -0.4575  0.1367 -0.2026
  622TMC3    O1 9275   1.612   1.048  10.438 -0.2705  0.0306 -0.1401
  622TMC3    O2 9276   1.316   1.137  10.734  0.4141 -0.1259  0.5628
  623MPD2     C 9277   0.289   1.885  16.285  0.9680 -0.5888  0.2176
  623MPD2    C1 9278   0.192   1.808  16.353 -0.4753  0.6721  0.8906
  623MPD2    C2 9279   0.219   1.675  16.382 -0.9072 -1.2233 -0.9432
  623MPD2    C3 9280   0.338   1.616  16.344 -0.3544  0.4119 -0.1042
  623MPD2    C4 9281   0.434   1.695  16.285  0.5602  0.1034 -0.1827
  623MPD2    C5 9282   0.409   1.828  16.253  0.5486 -0.0590  0.7770
  623MPD2     H 9283   0.150   1.604  16.426  1.0421 -2.2940  0.4108
  623MPD2    H1 9284   0.530   1.655  16.257  0.3124  0.1093 -1.0469
  623MPD2    H2 9285   0.270   1.988  16.257  0.7239 -0.6258  0.2447
  623MPD2    H3 9286   0.484   1.879  16.194 -0.9207  0.0615 -0.9974
  623MPD2     N 9287   0.372   1.495  16.402 -0.2335 -0.4859 -0.3502
  623MPD2    H5 9288   0.321   1.452  16.478  0.8938 -2.0002 -0.4418
  623MPD2    N1 9289   0.069   1.857  16.392  0.2931  0.2934  0.0083
  623MPD2    H7 9290   0.002   1.790  16.430 -0.3318  0.7380 -0.3199
  624TMC3    C1 9291   0.580   1.112  16.532 -0.1141 -0.0933 -0.2669
  624TMC3    C2 9292   0.520   1.123  16.651 -0.0444 -0.2679 -0.6997
  624TMC3    C3 9293   0.451   1.235  16.681  0.5434  0.4322 -0.9370
  624TMC3    C4 9294   0.565   1.208  16.433 -0.0896  1.0035  0.4543
  624TMC3    C5 9295   0.503   1.321  16.464  0.3802  0.1958 -0.1589
  624TMC3    C6 9296   0.440   1.335  16.589 -0.4193 -0.1169 -0.0646
  624TMC3     C 9297   0.659   0.996  16.502 -0.3478 -0.1242  0.2291
  624TMC3     O 9298   0.666   0.956  16.384 -0.3974 -0.0419 -0.5128
  624TMC3     H 9299   0.525   1.040  16.720  0.0852 -0.2082 -0.6379
  624TMC3    H1 9300   0.612   1.191  16.337 -2.6068  1.5435 -0.8726
  624TMC3    H2 9301   0.405   1.435  16.612  0.5909  0.2146  0.0232
  624TMC3    C7 9302   0.484   1.423  16.368 -0.1677 -0.3071  0.3168
  624TMC3    C8 9303   0.348   1.225  16.779  0.3715 -0.3656  0.3006
  624TMC3    O1 9304   0.561   1.426  16.276 -0.2001 -0.7830  0.2608
  624TMC3    O2 9305   0.338   1.119  16.839 -0.0484 -0.7714  0.0902
  625MPD2     C 9306   0.730   2.366   0.205  0.3714 -0.6236 -0.0028
  625MPD2    C1 9307   0.818   2.455   0.264 -0.4359 -0.4813 -0.3711
  625MPD2    C2 9308   0.800   2.487   0.398  0.3307 -0.1348  0.1841
  625MPD2    C3 9309   0.703   2.417   0.471  0.5377 -1.4815  0.6914
  625MPD2    C4 9310   0.611   2.328   0.409  0.1858 -0.1991  0.0530
  625MPD2    C5 9311   0.623   2.311   0.272 -0.1962  0.3813  0.1466
  625MPD2     H 9312   0.857   2.569   0.440  0.1565 -0.5224  1.1886
  625MPD2    H1 9313   0.529   2.282   0.461  1.3131 -2.2826 -0.0244
  625MPD2    H2 9314   0.737   2.336   0.101  1.7373 -0.0695 -0.0820
  625MPD2    H3 9315   0.559   2.245   0.214 -0.5915  0.6577  0.2697
  625MPD2     N 9316   0.686   2.452   0.604  0.2566 -0.0033  0.2014
  625MPD2    H5 9317   0.739   2.527   0.647 -1.2583  0.3253  1.4746
  625MPD2    N1 9318   0.928   2.517   0.195 -0.2155  0.0241 -0.3030
  625MPD2    H7 9319   0.998   2.581   0.232 -1.0347  0.7421  0.0000
  626TMC3    C1 9320   1.081   2.551   0.010 -0.1945  0.3876 -0.1996
  626TMC3    C2 9321   1.082   2.585  17.625 -0.5237  0.5939  0.0295
  626TMC3    C3 9322   1.187   2.654  17.576  0.4163 -0.2745 -0.1056
  626TMC3    C4 9323   1.183   2.593   0.097  0.3283  0.3433  0.1575
  626TMC3    C5 9324   1.291   2.667   0.040  0.0990  0.1307  0.3570
  626TMC3    C6 9325   1.289   2.692  17.654 -0.0394 -0.3073  0.3872
  626TMC3     C 9326   0.963   2.488   0.063 -0.6785  0.2800  0.0960
  626TMC3     O 9327   0.891   2.446  17.722  0.1419  0.6869  0.1232
  626TMC3     H 9328   0.989   2.569  17.572  1.6996 -0.2275 -3.6637
  626TMC3    H1 9329   1.181   2.566   0.202  2.1151  1.4758  0.4891
  626TMC3    H2 9330   1.372   2.746  17.610  0.2026  0.2428  1.5363
  626TMC3    C7 9331   1.378   2.751   0.120 -0.2427  0.1284  0.8513
  626TMC3    C8 9332   1.177   2.701  17.433 -0.0179  0.4000  0.3130
  626TMC3    O1 9333   1.487   2.779   0.071  0.1145  0.2159  0.0220
  626TMC3    O2 9334   1.256   2.788  17.400 -0.4131 -1.3321  1.1546
  627MPD2     C 9335   3.765   3.015  14.477  0.3864  0.1993 -0.2637
  627MPD2    C1 9336   3.751   2.925  14.584 -0.3499 -0.0299  0.7722
  627MPD2    C2 9337   3.662   2.823  14.581 -0.3462 -0.3077 -1.3172
  627MPD2    C3 9338   3.586   2.799  14.466  0.2199  0.1506 -0.3579
  627MPD2    C4 9339   3.599   2.882  14.348 -0.0726 -0.0176 -0.7276
  627MPD2    C5 9340   3.688   2.987  14.359 -0.0360 -0.4989 -0.3187
  627MPD2     H 9341   3.642   2.748  14.656  1.1116  1.3999  0.7666
  627MPD2    H1 9342   3.555   2.864  14.251 -0.9969  0.5193 -0.4034
  627MPD2    H2 9343   3.829   3.103  14.478  1.0297 -0.2636 -1.2493
  627MPD2    H3 9344   3.692   3.048  14.270  1.0310 -0.5644 -0.3137
  627MPD2     N 9345   3.502   2.688  14.483 -1.3873 -0.2284  0.4424
  627MPD2    H5 9346   3.496   2.642  14.573 -2.2148  1.1474  1.0746
  627MPD2    N1 9347   3.844   2.913  14.687  0.1962 -0.0441 -0.1261
  627MPD2    H7 9348   3.852   2.831  14.745 -0.8525 -1.5700 -2.1421
  628TMC3    C1 9349   4.058   2.949  14.778  0.5818  0.5423 -0.1870
  628TMC3    C2 9350   4.105   2.833  14.731 -0.2387 -0.0863  0.2373
  628TMC3    C3 9351   4.238   2.811  14.754 -0.0732 -0.9149 -0.5649
  628TMC3    C4 9352   4.130   3.035  14.853  0.4718 -1.0805  1.3387
  628TMC3    C5 9353   4.260   3.006  14.875 -0.2390 -0.3868 -0.2783
  628TMC3    C6 9354   4.315   2.887  14.842 -0.0359  0.4270  0.5981
  628TMC3     C 9355   3.947   3.006  14.708 -0.4291  0.1899  0.2455
  628TMC3     O 9356   3.953   3.126  14.683  0.1720 -0.4983  0.3616
  628TMC3     H 9357   4.051   2.764  14.668 -1.5662  0.6897  0.5274
  628TMC3    H1 9358   4.089   3.126  14.897 -0.3002 -1.6157  1.7280
  628TMC3    H2 9359   4.423   2.879  14.843  0.0851  1.7647 -0.6867
  628TMC3    C7 9360   4.353   3.110  14.867  0.4622  0.1676  0.8675
  628TMC3    C8 9361   4.280   2.672  14.744 -0.4061 -0.2306 -0.2003
  628TMC3    O1 9362   4.464   3.090  14.909  0.0950 -0.2916  0.1821
  628TMC3    O2 9363   4.188   2.596  14.718  0.3391  0.2260 -0.0345
  629MPD2     C 9364   2.307   1.552  17.120  0.2148  0.7640  0.4038
  629MPD2    C1 9365   2.318   1.601  16.995 -0.5361  0.5265 -0.0664
  629MPD2    C2 9366   2.213   1.666  16.931 -0.2261 -0.2986  0.1614
  629MPD2    C3 9367   2.091   1.678  16.984 -0.4648  0.0041  0.1270
  629MPD2    C4 9368   2.074   1.612  17.103  0.2072 -0.1602  0.6717
  629MPD2    C5 9369   2.181   1.560  17.171 -0.1459  0.1086  0.0315
  629MPD2     H 9370   2.235   1.707  16.833 -2.3263  1.6040  0.4738
  629MPD2    H1 9371   1.981   1.586  17.152 -0.2418 -0.0217 -0.0992
  629MPD2    H2 9372   2.395   1.527  17.178  1.5590  1.3437 -1.4002
  629MPD2    H3 9373   2.163   1.521  17.270 -0.7510 -0.1044 -0.1585
  629MPD2     N 9374   1.988   1.739  16.902 -0.3629 -0.4160  0.2599
  629MPD2    H5 9375   2.022   1.795  16.825 -0.7909 -0.5284 -0.0097
  629MPD2    N1 9376   2.457   1.603  16.943  0.4930  0.5113  0.0609
  629MPD2    H7 9377   2.533   1.577  17.004  1.5273 -0.0260 -1.4575
  630TMC3    C1 9378   2.649   1.645  16.809 -1.3248  0.4311 -0.0978
  630TMC3    C2 9379   2.712   1.736  16.728 -0.3042  0.1805 -0.5052
  630TMC3    C3 9380   2.846   1.719  16.712 -0.0222  0.2028 -0.5603
  630TMC3    C4 9381   2.720   1.550  16.881  0.1443 -0.4069  0.0941
  630TMC3    C5 9382   2.854   1.544  16.867 -0.0156  0.5503  0.8503
  630TMC3    C6 9383   2.920   1.626  16.783  0.7368  0.4280  0.0317
  630TMC3     C 9384   2.503   1.654  16.826 -0.0753 -0.4089 -0.2746
  630TMC3     O 9385   2.440   1.717  16.745 -0.0362 -0.1201  0.1485
  630TMC3     H 9386   2.658   1.812  16.674  2.0177  2.3156  0.1775
  630TMC3    H1 9387   2.679   1.483  16.957  1.7309 -0.3838  0.9638
  630TMC3    H2 9388   3.024   1.600  16.769  0.3699 -1.6581  1.1608
  630TMC3    C7 9389   2.932   1.485  16.979 -0.2251 -0.0537  0.6100
  630TMC3    C8 9390   2.927   1.808  16.635 -0.1146  0.5585 -0.5385
  630TMC3    O1 9391   3.025   1.553  17.020 -0.0235  0.9971  0.6891
  630TMC3    O2 9392   3.025   1.861  16.693  0.3327 -0.3182 -0.0218
  631MPD2     C 9393   1.057   2.227  15.414  0.0680  0.4766  0.5056
  631MPD2    C1 9394   0.973   2.142  15.492 -0.1503 -0.4651 -0.6547
  631MPD2    C2 9395   0.954   2.160  15.628  0.2419 -0.4013 -0.3275
  631MPD2    C3 9396   1.017   2.267  15.688 -0.1228  0.6421 -0.1784
  631MPD2    C4 9397   1.101   2.346  15.614  0.2798 -0.5532 -0.0604
  631MPD2    C5 9398   1.120   2.330  15.479 -0.5493 -0.5147 -0.3655
  631MPD2     H 9399   0.902   2.087  15.689 -0.4820 -0.1725 -0.6726
  631MPD2    H1 9400   1.137   2.441  15.653 -1.1400 -0.2508  0.5085
  631MPD2    H2 9401   1.078   2.211  15.309 -0.7594  0.2389  0.3788
  631MPD2    H3 9402   1.191   2.396  15.431  1.3364 -1.1012  1.6414
  631MPD2     N 9403   0.988   2.290  15.826  0.2083 -0.5547  0.0881
  631MPD2    H5 9404   0.934   2.225  15.882 -0.2075 -0.3916 -0.1273
  631MPD2    N1 9405   0.921   2.025  15.426 -0.4903 -0.1505  0.6437
  631MPD2    H7 9406   0.944   2.026  15.327  1.9560 -1.4714  1.2095
  632TMC3    C1 9407   0.810   1.838  15.379 -0.0876 -0.2790 -0.1134
  632TMC3    C2 9408   0.681   1.806  15.389 -0.4991 -0.1902  0.6346
  632TMC3    C3 9409   0.628   1.750  15.280  0.3005 -0.3020 -1.0721
  632TMC3    C4 9410   0.895   1.817  15.274 -0.2473 -0.1357  0.1732
  632TMC3    C5 9411   0.827   1.757  15.167  0.0939  0.0095  0.5753
  632TMC3    C6 9412   0.698   1.722  15.164 -0.7101 -0.1413 -0.0134
  632TMC3     C 9413   0.852   1.926  15.480  0.0667  0.5634 -0.2989
  632TMC3     O 9414   0.822   1.899  15.595  0.4233 -0.3241  0.1723
  632TMC3     H 9415   0.624   1.821  15.480 -0.7873 -3.7693  1.0501
  632TMC3    H1 9416   0.997   1.851  15.273 -0.2062 -0.2309  1.1420
  632TMC3    H2 9417   0.655   1.681  15.074 -1.5816  1.4326 -0.3110
  632TMC3    C7 9418   0.894   1.765  15.039 -0.2268 -0.3026 -0.0952
  632TMC3    C8 9419   0.489   1.749  15.285 -0.2475 -0.3611 -0.7073
  632TMC3    O1 9420   0.823   1.777  14.941  0.3771  0.2367 -0.7730
  632TMC3    O2 9421   0.437   1.683  15.373 -0.6120  0.1482 -0.1303
  633MPD2     C 9422   0.709   4.416  17.508  0.0816  0.5927 -0.0577
  633MPD2    C1 9423   0.694   4.332  17.402  0.5896  0.2845 -0.2845
  633MPD2    C2 9424   0.704   4.194  17.420  0.3617  0.1373 -1.0074
  633MPD2    C3 9425   0.728   4.140  17.548 -0.2470  0.7196  0.0507
  633MPD2    C4 9426   0.744   4.229  17.653  0.2947 -0.2586 -0.2549
  633MPD2    C5 9427   0.737   4.367  17.630  0.2483 -0.2105 -0.2274
  633MPD2     H 9428   0.704   4.137  17.327  0.4475 -3.2030  1.0544
  633MPD2    H1 9429   0.757   4.194   0.008 -1.2760  1.7751  0.6445
  633MPD2    H2 9430   0.708   4.524  17.504 -0.9373  0.5118 -1.8961
  633MPD2    H3 9431   0.748   4.430  17.717 -1.1846  1.7862 -1.4815
  633MPD2     N 9432   0.767   4.005  17.567 -0.0382 -0.1327 -0.4912
  633MPD2    H5 9433   0.774   3.986  17.667 -0.7869  0.5171 -0.3118
  633MPD2    N1 9434   0.663   4.377  17.274 -0.0330  0.4753 -0.4448
  633MPD2    H7 9435   0.654   4.302  17.205 -0.6040 -0.5804  0.7784
  634TMC3    C1 9436   0.624   4.520  17.099  0.5474 -0.2349 -0.0199
  634TMC3    C2 9437   0.692   4.431  17.020 -0.2854  0.3259 -0.3060
  634TMC3    C3 9438   0.702   4.465  16.887  0.1758  0.0981 -0.2145
  634TMC3    C4 9439   0.585   4.640  17.055 -0.3447 -0.7470 -0.6496
  634TMC3    C5 9440   0.598   4.671  16.922 -0.1710 -0.4588 -0.7290
  634TMC3    C6 9441   0.651   4.583  16.833  0.0966 -0.1597 -0.1666
  634TMC3     C 9442   0.646   4.511  17.238 -0.7020  0.2073 -0.3323
  634TMC3     O 9443   0.643   4.611  17.309  0.8434  0.0396 -0.8522
  634TMC3     H 9444   0.754   4.355  17.067  1.5294  1.2006 -1.2772
  634TMC3    H1 9445   0.547   4.711  17.127  1.1335 -0.3074 -0.2855
  634TMC3    H2 9446   0.637   4.599  16.727  1.2606 -1.3778 -0.4976
  634TMC3    C7 9447   0.546   0.059  16.866 -0.5083 -0.3482 -0.3459
  634TMC3    C8 9448   0.791   4.389  16.800  0.4882  0.4937 -0.5612
  634TMC3    O1 9449   0.545   0.077  16.746  0.0684 -0.1082  0.0801
  634TMC3    O2 9450   0.820   4.276  16.836 -0.5648 -0.8361  0.2363
  635TMC3    C1 9451   0.746   0.458   0.309 -0.7261  0.5281 -0.7135
  635TMC3    C2 9452   0.764   0.411   0.172  0.8921  0.2339 -0.1806
  635TMC3    C3 9453   0.712   0.293   0.137 -0.6803  1.0552  0.0391
  635TMC3    C4 9454   0.676   0.394   0.398 -0.4047 -0.1966 -0.2918
  635TMC3    C5 9455   0.627   0.270   0.361  0.5499 -1.2213  0.5429
  635TMC3    C6 9456   0.639   0.224   0.230 -0.8233 -0.2387 -0.2829
  635TMC3     C 9457   0.763   0.602   0.326 -0.5198 -0.1932  0.3423
  635TMC3     O 9458   0.710   0.651   0.428  0.3576  0.6258  0.0781
  635TMC3     H 9459   0.805   0.470   0.091  0.2046  2.1981  0.9190
  635TMC3    H1 9460   0.683   0.422   0.502  0.0602  1.9486 -0.9065
  635TMC3    H2 9461   0.604   0.122   0.218 -1.5976  0.1135 -1.0000
  635TMC3    C7 9462   0.551   0.196   0.461 -0.7476 -0.2368  1.0415
  635TMC3    C8 9463   0.752   0.218   0.014 -0.5535  0.5966 -0.6790
  635TMC3    O1 9464   0.542   0.251   0.569 -0.1171  1.0089  0.4084
  635TMC3    O2 9465   0.687   0.116  17.744 -0.2379  0.2954 -0.5587
  636MPD2     C 9466   1.681   0.482  15.947  0.0993 -0.0517 -0.0187
  636MPD2    C1 9467   1.619   0.517  16.067 -1.2530 -1.0906  0.0374
  636MPD2    C2 9468   1.646   0.445  16.181  0.2257 -0.2423 -0.2647
  636MPD2    C3 9469   1.740   0.340  16.179  0.3427 -0.5805 -0.5124
  636MPD2    C4 9470   1.819   0.320  16.068 -0.1991 -0.0532 -0.2941
  636MPD2    C5 9471   1.786   0.390  15.952  0.3276 -0.8665  0.1264
  636MPD2     H 9472   1.583   0.468  16.266 -1.5643  0.1773 -1.7085
  636MPD2    H1 9473   1.891   0.240  16.052 -0.5891 -0.4922  0.1413
  636MPD2    H2 9474   1.660   0.539  15.858  1.3196 -1.9119 -1.4865
  636MPD2    H3 9475   1.841   0.365  15.861  1.0406  2.2492 -0.2732
  636MPD2     N 9476   1.752   0.257  16.294  0.6864 -0.0129 -0.2171
  636MPD2    H5 9477   1.689   0.274  16.372  2.3906  1.4548  0.8290
  636MPD2    N1 9478   1.512   0.611  16.070 -0.4246  0.6063  0.2527
  636MPD2    H7 9479   1.467   0.633  16.158  0.9629 -0.8293  1.3338
  637TMC3    C1 9480   1.842   0.104  16.450  1.2216 -0.4194  0.2988
  637TMC3    C2 9481   1.888   0.190  16.546 -0.0907 -0.8468 -0.2539
  637TMC3    C3 9482   1.911   0.147  16.672  0.3306  0.1434  0.7573
  637TMC3    C4 9483   1.847   4.703  16.478  0.3348 -0.0488 -0.5034
  637TMC3    C5 9484   1.857   4.667  16.610  0.4184  0.2423 -0.2442
  637TMC3    C6 9485   1.885   0.020  16.711 -0.4065  0.6178  0.4464
  637TMC3     C 9486   1.845   0.153  16.311 -0.3309 -1.0293  0.5601
  637TMC3     O 9487   1.930   0.115  16.234 -0.2538 -0.1182 -0.4221
  637TMC3     H 9488   1.883   0.297  16.529 -0.4063 -0.8338 -0.0784
  637TMC3    H1 9489   1.832   4.631  16.398 -0.4198  1.8992 -2.1216
  637TMC3    H2 9490   1.896   4.731  16.816 -0.6863  1.3721  0.6621
  637TMC3    C7 9491   1.929   4.552  16.630  0.4599  0.1271  0.6653
  637TMC3    C8 9492   2.042   0.188  16.728  0.0878  0.6111  0.1388
  637TMC3    O1 9493   2.019   4.563  16.714 -0.1413  0.3655  0.0685
  637TMC3    O2 9494   2.080   0.304  16.718 -0.2501 -0.0576 -0.7459
  638MPD2     C 9495   1.894   3.742  14.996  0.2823 -0.0456  0.1217
  638MPD2    C1 9496   1.826   3.668  14.901 -0.4367 -0.1321 -0.3248
  638MPD2    C2 9497   1.796   3.536  14.922 -0.1452  0.1735 -0.2771
  638MPD2    C3 9498   1.841   3.475  15.035  0.3559  0.0768  0.4001
  638MPD2    C4 9499   1.920   3.546  15.117  0.5578  0.5382 -0.1014
  638MPD2    C5 9500   1.944   3.681  15.106  0.3029 -0.1315 -0.6272
  638MPD2     H 9501   1.742   3.481  14.846 -0.7281  1.0447 -0.4826
  638MPD2    H1 9502   1.969   3.497  15.200  1.0323  3.7419  1.4999
  638MPD2    H2 9503   1.904   3.849  14.983  2.0122  0.3418  4.7331
  638MPD2    H3 9504   2.005   3.739  15.174  1.3388 -0.4056 -1.3197
  638MPD2     N 9505   1.805   3.345  15.069 -0.2935  0.1309  0.2066
  638MPD2    H5 9506   1.855   3.303  15.147  1.0514  2.2641  0.5001
  638MPD2    N1 9507   1.813   3.713  14.770  0.5883  0.3855 -0.1684
  638MPD2    H7 9508   1.783   3.810  14.766  1.7590  0.7329 -0.2919
  639TMC3    C1 9509   1.671   3.149  15.082  0.2684  0.0296 -0.1494
  639TMC3    C2 9510   1.542   3.107  15.063 -0.5471  0.4373 -0.6311
  639TMC3    C3 9511   1.498   3.019  15.157  0.3176 -0.1102  0.1158
  639TMC3    C4 9512   1.752   3.110  15.188  0.2912 -0.4560 -0.0065
  639TMC3    C5 9513   1.703   3.019  15.272  0.3641  0.1947  0.4654
  639TMC3    C6 9514   1.579   2.958  15.249  0.1348  0.1520 -0.1476
  639TMC3     C 9515   1.702   3.268  15.008  0.4095 -0.4061 -0.4484
  639TMC3     O 9516   1.630   3.298  14.910 -0.1153  0.4189  0.1854
  639TMC3     H 9517   1.480   3.137  14.979  0.5258  2.2847 -0.7626
  639TMC3    H1 9518   1.845   3.164  15.203  0.1417 -0.4916  1.0678
  639TMC3    H2 9519   1.533   2.886  15.315  0.5112  1.2302  1.2967
  639TMC3    C7 9520   1.786   2.957  15.373 -0.9047 -0.3085  0.3358
  639TMC3    C8 9521   1.391   2.943  15.106  0.3234 -0.1833 -0.7181
  639TMC3    O1 9522   1.734   2.873  15.440 -0.1176  0.2201 -0.1184
  639TMC3    O2 9523   1.425   2.844  15.043 -0.0668 -0.0252 -0.8124
  640MPD2     C 9524   2.667   2.893  10.359 -0.7372  0.4509  0.1824
  640MPD2    C1 9525   2.603   2.949  10.248 -0.4175 -0.5053  0.3463
  640MPD2    C2 9526   2.566   3.082  10.253  0.1374 -0.6074  0.3175
  640MPD2    C3 9527   2.599   3.163  10.362  0.2048 -0.1221 -0.0450
  640MPD2    C4 9528   2.669   3.102  10.461 -0.7741 -0.0434  0.6081
  640MPD2    C5 9529   2.711   2.976  10.457 -0.1814  0.7054 -0.2823
  640MPD2     H 9530   2.505   3.115  10.170  0.9363  0.4223  0.1497
  640MPD2    H1 9531   2.693   3.167  10.545  0.7006 -1.6678  1.4299
  640MPD2    H2 9532   2.681   2.786  10.367  3.7360  1.0479  0.4319
  640MPD2    H3 9533   2.773   2.929  10.534 -0.8786 -0.2302 -0.2843
  640MPD2     N 9534   2.563   3.305  10.371 -0.2892  0.1257  0.2148
  640MPD2    H5 9535   2.610   3.344  10.452 -0.7124  1.4424 -0.1687
  640MPD2    N1 9536   2.580   2.857  10.134 -0.5573 -0.4746  0.0292
  640MPD2    H7 9537   2.636   2.773  10.138  0.2769  0.0718 -0.1386
  641TMC3    C1 9538   2.510   2.775   9.922  0.6954  0.1335  0.2859
  641TMC3    C2 9539   2.590   2.660   9.933 -0.2979  0.3579 -0.3190
  641TMC3    C3 9540   2.631   2.593   9.827  0.4827  0.4193  0.4726
  641TMC3    C4 9541   2.442   2.796   9.807 -0.0689 -0.1198  0.4963
  641TMC3    C5 9542   2.471   2.711   9.707  0.1512 -0.1611 -0.4870
  641TMC3    C6 9543   2.569   2.619   9.706 -0.1203 -0.0053  0.5417
  641TMC3     C 9544   2.501   2.878  10.021 -0.4544 -0.2788 -1.5328
  641TMC3     O 9545   2.424   2.970  10.003  0.5954 -0.0025  0.6049
  641TMC3     H 9546   2.634   2.639  10.029  1.1396 -0.6532 -1.1949
  641TMC3    H1 9547   2.383   2.886   9.802  0.8129  0.4613  0.6696
  641TMC3    H2 9548   2.599   2.557   9.622 -1.2085  0.7558 -0.4171
  641TMC3    C7 9549   2.404   2.733   9.585 -0.0707 -0.5004  0.2755
  641TMC3    C8 9550   2.751   2.514   9.830  0.0135 -0.4546  0.0197
  641TMC3    O1 9551   2.445   2.683   9.480 -0.6591 -0.4873  0.4460
  641TMC3    O2 9552   2.842   2.571   9.885  0.1843 -0.1980  0.0530
  642TMC3    C1 9553   3.366   3.380  12.606  0.1950 -0.2106  1.1282
  642TMC3    C2 9554   3.484   3.421  12.568  0.0186 -0.0540  0.5168
  642TMC3    C3 9555   3.530   3.369  12.452 -0.5740 -0.0446  0.1810
  642TMC3    C4 9556   3.289   3.286  12.545 -0.1388 -0.6551 -0.8523
  642TMC3    C5 9557   3.342   3.236  12.435 -0.4087 -0.2390  0.2518
  642TMC3    C6 9558   3.463   3.280  12.386 -0.2805  0.2331 -0.1913
  642TMC3     C 9559   3.304   3.468  12.703 -0.2031  0.2489  0.7109
  642TMC3     O 9560   3.373   3.512  12.799  0.0372  0.0074 -0.1084
  642TMC3     H 9561   3.524   3.512  12.613 -0.9217  1.0768 -0.9489
  642TMC3    H1 9562   3.186   3.282  12.579 -0.1678 -2.0311 -1.0674
  642TMC3    H2 9563   3.491   3.245  12.287 -0.7702 -1.5238  0.2997
  642TMC3    C7 9564   3.272   3.133  12.363 -0.5119  0.5338 -0.5083
  642TMC3    C8 9565   3.667   3.393  12.411  0.1178 -0.1296 -0.2923
  642TMC3    O1 9566   3.292   3.103  12.250 -0.2675  0.4159  0.5407
  642TMC3    O2 9567   3.693   3.382  12.291  0.1376 -0.5051 -0.1654
  643TMC3    C1 9568   3.492   1.985   0.347  0.1113 -0.1734 -0.1199
  643TMC3    C2 9569   3.366   1.941   0.321 -0.3402 -0.4128 -0.1606
  643TMC3    C3 9570   3.319   1.964   0.198  0.4342 -0.0041 -0.3438
  643TMC3    C4 9571   3.573   2.043   0.249  0.0700  0.0985  0.3525
  643TMC3    C5 9572   3.526   2.062   0.124  0.1170 -0.3598  0.3101
  643TMC3    C6 9573   3.397   2.027   0.103  0.0064 -0.3292  0.6577
  643TMC3     C 9574   3.559   1.898   0.442  0.3288  0.0776 -0.6377
  643TMC3     O 9575   3.514   1.784   0.474  0.3306 -0.3209  0.3013
  643TMC3     H 9576   3.294   1.910   0.395 -0.1622  0.2542  0.2921
  643TMC3    H1 9577   3.662   2.097   0.278  0.5192 -0.6432  0.3758
  643TMC3    H2 9578   3.366   2.026  17.746  1.1548  0.0505  0.3209
  643TMC3    C7 9579   3.546   2.200   0.076 -0.0222 -0.3449  0.3535
  643TMC3    C8 9580   3.177   1.986   0.191  0.3579  0.2085  0.3927
  643TMC3    O1 9581   3.454   2.265   0.030  0.6121 -0.0762  0.0921
  643TMC3    O2 9582   3.097   1.925   0.264  0.0007  0.4404  0.0793
  644MPD2     C 9583   2.776   3.564  10.247 -0.6776 -0.4725  0.1123
  644MPD2    C1 9584   2.759   3.533  10.111  0.0876 -0.4101  0.0208
  644MPD2    C2 9585   2.729   3.631  10.016 -0.1700 -0.1181  0.2887
  644MPD2    C3 9586   2.722   3.760  10.065  0.2797 -0.7240 -0.3337
  644MPD2    C4 9587   2.727   3.786  10.198 -0.9041 -0.1381  0.3778
  644MPD2    C5 9588   2.750   3.688  10.291 -0.3918  0.3693 -0.4239
  644MPD2     H 9589   2.704   3.608   9.913  0.5583 -1.3199  0.3749
  644MPD2    H1 9590   2.695   3.885  10.228  1.3953 -0.0826  2.6129
  644MPD2    H2 9591   2.787   3.485  10.321  1.7799  0.4700  0.7611
  644MPD2    H3 9592   2.739   3.711  10.396  1.9961 -2.9463  0.5435
  644MPD2     N 9593   2.717   3.866   9.975  0.0532 -0.7137 -0.3319
  644MPD2    H5 9594   2.728   3.838   9.878 -0.0089  1.8447 -1.0711
  644MPD2    N1 9595   2.772   3.400  10.068 -0.1844  0.0349  0.5852
  644MPD2    H7 9596   2.795   3.335  10.141 -0.4844 -0.6821  0.0374
  645TMC3    C1 9597   2.686   4.083   9.879  0.0121  0.1601  0.7361
  645TMC3    C2 9598   2.704   4.219   9.893  0.1449 -0.2446  0.4869
  645TMC3    C3 9599   2.675   4.294   9.776  0.0040  0.3322 -0.4943
  645TMC3    C4 9600   2.656   4.023   9.763  0.2737  0.1556  0.5058
  645TMC3    C5 9601   2.643   4.102   9.649  0.1615 -0.2583  0.3285
  645TMC3    C6 9602   2.648   4.238   9.662  1.1168  0.5095 -0.3237
  645TMC3     C 9603   2.719   4.003  10.001  1.0580  0.2800  0.5054
  645TMC3     O 9604   2.727   4.068  10.104 -0.6952  0.0937  0.4753
  645TMC3     H 9605   2.732   4.263   9.988  0.9411 -0.4325  0.3385
  645TMC3    H1 9606   2.621   3.921   9.760 -0.2289  0.2534  3.0443
  645TMC3    H2 9607   2.633   4.285   9.565 -0.6319  0.4836 -0.0673
  645TMC3    C7 9608   2.621   4.047   9.512 -0.5053 -0.3965  0.2802
  645TMC3    C8 9609   2.708   4.436   9.785  0.7391 -0.2041  0.4379
  645TMC3    O1 9610   2.584   4.124   9.425 -0.7718  0.0714  0.0894
  645TMC3    O2 9611   2.745   4.479   9.889 -0.0783 -0.4219  0.5535
  646MPD2     C 9612   1.670   2.078  14.630  0.3151  0.3709 -0.3213
  646MPD2    C1 9613   1.600   2.120  14.739 -0.5185 -0.2365 -0.3696
  646MPD2    C2 9614   1.484   2.194  14.727  0.5836 -1.0252  0.2784
  646MPD2    C3 9615   1.432   2.228  14.603 -0.3135  0.3564 -0.1685
  646MPD2    C4 9616   1.497   2.173  14.492  0.1731  0.0561  0.3073
  646MPD2    C5 9617   1.615   2.099  14.505  0.4973 -0.4959 -0.3772
  646MPD2     H 9618   1.440   2.245  14.812  0.6281 -0.1407 -0.2185
  646MPD2    H1 9619   1.464   2.195  14.392 -1.8438  0.4945  1.0665
  646MPD2    H2 9620   1.756   2.014  14.641 -0.0560  0.1399  1.2072
  646MPD2    H3 9621   1.663   2.061  14.416  2.4568  0.2140  0.3819
  646MPD2     N 9622   1.318   2.309  14.587 -0.0817 -0.4502 -0.4504
  646MPD2    H5 9623   1.273   2.344  14.671  2.1067  2.4359 -0.4909
  646MPD2    N1 9624   1.660   2.080  14.865  0.0270  0.1991 -0.1489
  646MPD2    H7 9625   1.734   2.012  14.851  1.8618  1.8697  1.4165
  647TMC3    C1 9626   1.683   2.047  15.099 -0.3065 -0.3355  1.0894
  647TMC3    C2 9627   1.618   1.994  15.201  0.1625 -1.1751  0.0515
  647TMC3    C3 9628   1.688   1.933  15.294  0.3616 -0.3890  0.7420
  647TMC3    C4 9629   1.820   2.030  15.079 -0.6461 -0.1416 -0.3844
  647TMC3    C5 9630   1.884   1.950  15.173 -0.0888 -0.2349 -0.2971
  647TMC3    C6 9631   1.821   1.905  15.282 -0.2841  0.3969 -0.0884
  647TMC3     C 9632   1.607   2.103  14.989  0.5533  0.0117 -0.5036
  647TMC3     O 9633   1.497   2.152  15.010  0.0687 -0.0701  0.1741
  647TMC3     H 9634   1.512   2.015  15.201  0.7481  1.7501  3.1789
  647TMC3    H1 9635   1.874   2.064  14.991  1.8183  1.6582  1.8457
  647TMC3    H2 9636   1.874   1.844  15.354 -0.9980  3.0193  2.6836
  647TMC3    C7 9637   2.013   1.890  15.148  0.4082  0.1544  0.0833
  647TMC3    C8 9638   1.623   1.868  15.412 -0.7558 -0.2130 -0.6064
  647TMC3    O1 9639   2.092   1.876  15.239  0.3510 -0.1129  0.4032
  647TMC3    O2 9640   1.667   1.760  15.445  0.1614  0.3640  0.8596
  648TMC3    C1 9641   0.877   4.628  15.968 -1.2863 -0.5095  0.0588
  648TMC3    C2 9642   0.928   4.548  15.877  0.3465  0.4856  0.2574
  648TMC3    C3 9643   0.858   4.529  15.763 -0.1668 -0.4797 -0.4353
  648TMC3    C4 9644   0.755   4.683  15.953  0.1248  0.3549 -0.0053
  648TMC3    C5 9645   0.689   4.680  15.838 -0.0842  0.1307  0.1953
  648TMC3    C6 9646   0.740   4.599  15.739 -0.2049 -0.2553 -0.0457
  648TMC3     C 9647   0.955   4.655  16.094 -1.0787  0.1545  0.0911
  648TMC3     O 9648   0.896   4.641  16.200 -0.1091 -0.4270 -0.2959
  648TMC3     H 9649   1.023   4.498  15.895 -0.6863 -1.6255 -0.1487
  648TMC3    H1 9650   0.708   4.724  16.042 -0.3348  0.8073 -0.4580
  648TMC3    H2 9651   0.675   4.572  15.656  0.3411 -0.8013 -0.3004
  648TMC3    C7 9652   0.592   0.042  15.799 -0.5173  0.0624 -1.0756
  648TMC3    C8 9653   0.884   4.420  15.667  0.0261 -0.2445  0.5743
  648TMC3    O1 9654   0.532   0.023  15.694 -0.2822  0.0695 -0.0597
  648TMC3    O2 9655   0.819   4.420  15.566  0.1227  0.5625  0.6000
  649TMC3    C1 9656   0.356   0.757  12.847 -0.8534  0.1968 -0.5310
  649TMC3    C2 9657   0.451   0.665  12.818 -0.6847  0.0775  0.5863
  649TMC3    C3 9658   0.464   0.553  12.899 -0.0511 -0.3471  0.1980
  649TMC3    C4 9659   0.274   0.740  12.946  0.0688  0.2600 -0.3502
  649TMC3    C5 9660   0.300   0.633  13.031  0.1861  0.6994 -0.2401
  649TMC3    C6 9661   0.395   0.543  13.017  0.5245  0.6298  0.0315
  649TMC3     C 9662   0.329   0.873  12.766  0.5227  0.0794 -1.2426
  649TMC3     O 9663   0.221   0.931  12.782 -0.1936  0.3865 -0.2100
  649TMC3     H 9664   0.497   0.672  12.720  0.0688 -0.3470  0.9128
  649TMC3    H1 9665   0.208   0.816  12.987 -0.3154 -0.1596 -0.1951
  649TMC3    H2 9666   0.419   0.461  13.083 -1.4576 -0.1955 -0.2882
  649TMC3    C7 9667   0.212   0.614  13.145 -0.6225  0.4303  0.2969
  649TMC3    C8 9668   0.556   0.445  12.868 -0.5413  0.8370  0.2788
  649TMC3    O1 9669   0.098   0.658  13.134 -0.3063  0.2690  0.0580
  649TMC3    O2 9670   0.518   0.338  12.906  0.2993 -0.8411  0.4248
  650TMC3    C1 9671   2.644   2.616  12.902 -0.1994 -0.1209  1.0399
  650TMC3    C2 9672   2.570   2.706  12.970  0.1051  0.7645  0.3236
  650TMC3    C3 9673   2.500   2.803  12.902 -0.6572 -0.1626 -0.5712
  650TMC3    C4 9674   2.659   2.626  12.764 -0.6075 -0.2178 -0.4688
  650TMC3    C5 9675   2.590   2.729  12.702 -0.2143  0.0060 -0.5750
  650TMC3    C6 9676   2.507   2.818  12.764 -0.1700 -0.4509  0.0569
  650TMC3     C 9677   2.709   2.505  12.974  0.6715 -0.6076  0.2930
  650TMC3     O 9678   2.707   2.505  13.092 -0.7511  0.1047 -0.6643
  650TMC3     H 9679   2.556   2.682  13.075 -0.1225  0.3705  0.2040
  650TMC3    H1 9680   2.726   2.556  12.716 -0.3291  0.2524 -0.7679
  650TMC3    H2 9681   2.474   2.903  12.706 -0.9780  0.0041  1.1881
  650TMC3    C7 9682   2.562   2.697  12.564  0.5234  0.1012 -0.0062
  650TMC3    C8 9683   2.400   2.885  12.964 -0.0934 -0.3436  0.2305
  650TMC3    O1 9684   2.584   2.582  12.537  0.6104  0.2334 -0.4454
  650TMC3    O2 9685   2.444   2.970  13.043 -0.1737  0.0550  0.0940
  651MPD2     C 9686   1.329   0.235  10.506 -1.0483  0.2004 -0.5109
  651MPD2    C1 9687   1.336   0.343  10.591  0.4477 -0.0490  0.1867
  651MPD2    C2 9688   1.456   0.409  10.598  0.2164 -0.6275  0.1761
  651MPD2    C3 9689   1.567   0.359  10.535 -0.4873  0.0676 -0.0633
  651MPD2    C4 9690   1.561   0.241  10.465  0.3888  0.7228 -0.2360
  651MPD2    C5 9691   1.438   0.186  10.445  0.0506  0.4276 -0.3203
  651MPD2     H 9692   1.458   0.499  10.659  1.6993 -0.1511 -0.5710
  651MPD2    H1 9693   1.639   0.192  10.409  0.8470 -1.8585  2.6475
  651MPD2    H2 9694   1.240   0.175  10.492 -1.2462  0.1833  0.8103
  651MPD2    H3 9695   1.432   0.101  10.378 -0.0251  1.0949 -1.1522
  651MPD2     N 9696   1.692   0.426  10.546  0.4498 -0.5261  0.9560
  651MPD2    H5 9697   1.678   0.511  10.599 -0.6005 -0.9253  1.3244
  651MPD2    N1 9698   1.225   0.397  10.663 -0.2315  0.5408  0.0640
  651MPD2    H7 9699   1.244   0.486  10.708 -0.1850  0.0070  1.1174
  652TMC3    C1 9700   2.160   0.464  10.548 -0.2485 -0.2780  0.1017
  652TMC3    C2 9701   2.051   0.385  10.570 -0.3133 -0.0480  0.5324
  652TMC3    C3 9702   1.932   0.453  10.568 -0.4332  0.4621 -0.1399
  652TMC3    C4 9703   2.155   0.596  10.515 -0.0288 -0.2087  0.9169
  652TMC3    C5 9704   2.029   0.657  10.529 -0.5552 -0.1431 -0.0712
  652TMC3    C6 9705   1.919   0.588  10.551  0.5024  0.3931  0.8982
  652TMC3     C 9706   2.284   0.396  10.551 -0.3933 -0.0943 -0.0826
  652TMC3     O 9707   2.294   0.295  10.617  0.4751  0.2053  0.1832
  652TMC3     H 9708   2.060   0.279  10.590 -2.5856  0.0127  1.8423
  652TMC3    H1 9709   2.248   0.650  10.499  1.2123 -2.9110 -1.1301
  652TMC3    H2 9710   1.822   0.635  10.562 -0.0658 -0.7533  0.7555
  652TMC3    C7 9711   2.004   0.802  10.508 -0.3020  0.2420  0.0357
  652TMC3    C8 9712   1.818   0.373  10.531 -0.5159 -0.6592 -0.3805
  652TMC3    O1 9713   1.897   0.847  10.534  0.1612  0.2799 -0.0584
  652TMC3    O2 9714   1.846   0.260  10.498  0.3907  0.2885  0.1204
  653MPD2     C 9715   0.401   4.314  17.534 -0.5136  1.1725  0.8498
  653MPD2    C1 9716   0.347   4.406  17.444 -0.4566 -0.1306  0.9435
  653MPD2    C2 9717   0.305   4.352  17.323  0.4475 -0.3659 -0.2734
  653MPD2    C3 9718   0.310   4.219  17.296 -0.4897 -0.5573 -0.0081
  653MPD2    C4 9719   0.358   4.128  17.391 -0.2506  0.3642 -0.3094
  653MPD2    C5 9720   0.401   4.178  17.511 -0.2047  0.2856 -0.6353
  653MPD2     H 9721   0.264   4.417  17.246  1.4678  3.6781  2.5709
  653MPD2    H1 9722   0.368   4.021  17.377  0.0137  0.3245  0.1881
  653MPD2    H2 9723   0.454   4.344  17.624  4.3483 -0.3087 -1.5033
  653MPD2    H3 9724   0.431   4.104  17.584  1.5321  1.5665 -0.0672
  653MPD2     N 9725   0.235   4.191  17.175 -0.7606 -0.5104 -0.1954
  653MPD2    H5 9726   0.194   4.266  17.120 -2.6913 -1.2946  0.1823
  653MPD2    N1 9727   0.359   4.543  17.458 -0.1666 -0.0599 -0.1082
  653MPD2    H7 9728   0.319   4.592  17.378  0.3016  1.1521  0.4057
  654TMC3    C1 9729   0.143   4.053  17.008  0.5140  0.1012 -0.2410
  654TMC3    C2 9730   0.056   4.143  16.963  0.2067  0.5849  0.6811
  654TMC3    C3 9731   4.716   4.103  16.851  1.0152  0.0936 -0.1934
  654TMC3    C4 9732   0.181   3.942  16.946 -0.0896 -1.0667 -0.2122
  654TMC3    C5 9733   0.118   3.913  16.827 -0.7455 -0.5668 -0.4411
  654TMC3    C6 9734   0.013   3.984  16.785  0.0607  0.4107 -0.0532
  654TMC3     C 9735   0.198   4.062  17.142 -0.4709 -0.9554  0.0477
  654TMC3     O 9736   0.238   3.956  17.188 -0.4984  0.1646 -0.1543
  654TMC3     H 9737   0.030   4.230  17.022 -1.8240 -0.6873  1.6530
  654TMC3    H1 9738   0.266   3.888  16.985 -0.3376 -1.8189 -0.7104
  654TMC3    H2 9739   4.691   3.946  16.702 -1.7139 -0.0006  1.4276
  654TMC3    C7 9740   0.165   3.819  16.731  0.5718 -0.0453  0.6034
  654TMC3    C8 9741   4.604   4.183  16.803 -0.8399  0.5642 -0.5851
  654TMC3    O1 9742   0.102   3.806  16.626  0.4398  1.0102  0.6547
  654TMC3    O2 9743   4.544   4.258  16.879 -0.2852 -0.0266  0.2285
  655MPD2     C 9744   1.629   0.127  15.810  0.4578  0.1524 -0.1935
  655MPD2    C1 9745   1.516   0.148  15.733  0.0809 -0.0060  0.3058
  655MPD2    C2 9746   1.510   0.097  15.608 -0.1051  0.4613 -0.0539
  655MPD2    C3 9747   1.612   0.010  15.556  0.2924 -0.4024  0.6076
  655MPD2    C4 9748   1.726   4.733  15.629 -0.4074 -0.1792 -0.3237
  655MPD2    C5 9749   1.735   0.053  15.757 -0.4047 -0.8896  0.1123
  655MPD2     H 9750   1.411   0.113  15.568  0.1780 -1.4764 -1.5013
  655MPD2    H1 9751   1.816   4.684  15.594  1.8063  2.4685  1.6260
  655MPD2    H2 9752   1.641   0.175  15.906  1.1907 -1.3540  0.4701
  655MPD2    H3 9753   1.823   0.039  15.818  0.3962  1.7610 -0.4500
  655MPD2     N 9754   1.598   4.694  15.423  0.1363 -0.1505  0.4870
  655MPD2    H5 9755   1.677   4.656  15.371 -0.2837 -1.1234  0.5579
  655MPD2    N1 9756   1.407   0.230  15.770  0.5761  0.0384 -0.5235
  655MPD2    H7 9757   1.338   0.255  15.699 -1.9727 -1.8668  1.2883
  656TMC3    C1 9758   1.259   0.338  15.910 -0.1046 -0.2373 -0.8886
  656TMC3    C2 9759   1.162   0.287  15.991 -0.1485  0.4035  0.4071
  656TMC3    C3 9760   1.035   0.330  15.973  0.0888  0.1191  1.1587
  656TMC3    C4 9761   1.220   0.414  15.801  0.0554  0.8543 -0.0478
  656TMC3    C5 9762   1.085   0.441  15.785  1.2014 -0.0271 -0.3223
  656TMC3    C6 9763   0.990   0.396  15.863 -0.3740  0.0234  0.0388
  656TMC3     C 9764   1.384   0.271  15.900 -0.4816  0.5686 -0.5588
  656TMC3     O 9765   1.436   0.234  16.008 -0.2276 -0.0235 -0.1954
  656TMC3     H 9766   1.192   0.210  16.062 -0.3959 -0.7826 -0.7867
  656TMC3    H1 9767   1.296   0.450  15.733 -0.6473 -0.3546 -1.4732
  656TMC3    H2 9768   0.882   0.400  15.854 -0.4326  1.5300  1.4743
  656TMC3    C7 9769   1.040   0.522  15.671 -0.9387  0.0785 -0.1893
  656TMC3    C8 9770   0.928   0.279  16.061  0.3433 -0.2157  0.3163
  656TMC3    O1 9771   1.127   0.549  15.593  0.9597 -0.0378  0.0875
  656TMC3    O2 9772   0.811   0.264  16.028 -0.5294 -0.2725  0.0465
  657TMC3    C1 9773   0.678   4.151  15.043 -0.5300 -0.6669 -0.2831
  657TMC3    C2 9774   0.677   4.112  15.175 -0.5370 -0.3734 -0.2938
  657TMC3    C3 9775   0.576   4.148  15.248 -0.0428  0.2096  0.0386
  657TMC3    C4 9776   0.579   4.233  14.986 -0.2929 -0.2002 -0.6282
  657TMC3    C5 9777   0.471   4.255  15.068  0.0615  0.7875  0.0679
  657TMC3    C6 9778   0.464   4.220  15.199  0.0411  0.1531  0.8175
  657TMC3     C 9779   0.734   4.061  14.940 -1.3256  0.2467  1.0181
  657TMC3     O 9780   0.664   4.045  14.843  0.1665 -0.7651 -0.3386
  657TMC3     H 9781   0.758   4.050  15.212 -0.2746  0.4311  0.4636
  657TMC3    H1 9782   0.569   4.249  14.879  2.2597  1.6376 -0.6034
  657TMC3    H2 9783   0.385   4.258  15.262 -1.3438 -2.6582  0.7594
  657TMC3    C7 9784   0.340   4.277  14.996 -0.4803 -1.0024 -0.2449
  657TMC3    C8 9785   0.582   4.134  15.388 -0.1109  0.1392  0.1534
  657TMC3    O1 9786   0.329   4.230  14.882  0.0629 -0.1377 -0.6881
  657TMC3    O2 9787   0.535   4.234  15.444  0.0086  0.3232 -0.2810
  658MPD2     C 9788   1.869   0.117  14.694 -0.2640 -0.4119 -0.0487
  658MPD2    C1 9789   1.738   0.143  14.712  0.2798 -0.4836 -0.7076
  658MPD2    C2 9790   1.662   0.194  14.615 -0.4284  1.0508  0.6052
  658MPD2    C3 9791   1.724   0.242  14.501 -0.4221 -0.2185 -0.1724
  658MPD2    C4 9792   1.859   0.235  14.493  0.0725 -0.2086 -0.1214
  658MPD2    C5 9793   1.932   0.181  14.585  0.6847 -0.3058 -1.0699
  658MPD2     H 9794   1.555   0.204  14.630 -0.4338  0.4051  0.9730
  658MPD2    H1 9795   1.918   0.269  14.410  0.3083  0.0589  0.1543
  658MPD2    H2 9796   1.934   0.074  14.769 -1.1954  0.2062  1.1198
  658MPD2    H3 9797   2.040   0.176  14.575  0.7842  0.0946 -0.2140
  658MPD2     N 9798   1.641   0.296  14.401 -0.4022 -0.1565 -0.0307
  658MPD2    H5 9799   1.542   0.299  14.419 -0.1360  0.7597  1.2523
  658MPD2    N1 9800   1.663   0.095  14.820 -0.0223 -0.7694 -0.1192
  658MPD2    H7 9801   1.562   0.098  14.821  0.0314  1.5809 -1.6326
  659TMC3    C1 9802   1.601   4.716  15.010 -0.5051  0.0131 -0.3068
  659TMC3    C2 9803   1.613   4.715  15.145  0.2773  0.3929 -0.0698
  659TMC3    C3 9804   1.504   4.671  15.209 -0.9324 -0.4520  0.4869
  659TMC3    C4 9805   1.495   4.673  14.942  0.2241 -0.5651 -0.0219
  659TMC3    C5 9806   1.393   4.610  15.015 -0.2431 -0.5716 -0.3095
  659TMC3    C6 9807   1.388   4.632  15.148  0.1595  0.1576  0.3971
  659TMC3     C 9808   1.711   0.037  14.932  0.6020  0.1241  0.2009
  659TMC3     O 9809   1.820   0.046  14.993 -0.0383 -0.0150  0.2806
  659TMC3     H 9810   1.700   0.009  15.200 -0.1955  1.5494  0.0326
  659TMC3    H1 9811   1.500   4.663  14.835  1.2870  2.0665 -0.2198
  659TMC3    H2 9812   1.311   4.594  15.213 -0.1028 -2.0049 -1.1794
  659TMC3    C7 9813   1.277   4.556  14.951 -0.4833 -0.2177 -0.2528
  659TMC3    C8 9814   1.480   4.699  15.345  0.2436  0.1321 -0.3280
  659TMC3    O1 9815   1.192   4.505  15.022  0.2265 -0.3666 -0.2533
  659TMC3    O2 9816   1.371   4.734  15.390 -0.5125  0.1256  0.1986
  660MPD2     C 9817   4.546   3.579  12.924 -0.5214 -0.5821 -0.6910
  660MPD2    C1 9818   4.416   3.614  12.953  0.6254  0.1320 -0.1658
  660MPD2    C2 9819   4.341   3.526  13.030  0.5680  0.8972  0.6597
  660MPD2    C3 9820   4.394   3.401  13.065 -1.0412  0.1230  0.3326
  660MPD2    C4 9821   4.525   3.369  13.030 -0.0227 -0.0689 -0.0402
  660MPD2    C5 9822   4.596   3.458  12.958 -0.5108  0.5431 -0.6097
  660MPD2     H 9823   4.243   3.552  13.069  0.3497  0.4676  0.3986
  660MPD2    H1 9824   4.580   3.281  13.059 -0.2357  0.2690  1.3757
  660MPD2    H2 9825   4.600   3.642  12.855  0.2526  1.9051  2.1873
  660MPD2    H3 9826   4.692   3.428  12.916  0.4226  2.7831 -0.0699
  660MPD2     N 9827   4.299   3.310  13.126  0.4045  0.1275 -0.7923
  660MPD2    H5 9828   4.211   3.350  13.155 -1.1792 -2.7843 -1.5747
  660MPD2    N1 9829   4.358   3.729  12.892  0.0661 -0.2259  0.0599
  660MPD2    H7 9830   4.421   3.780  12.831  0.8944  1.4070  2.2904
  661TMC3    C1 9831   4.182   3.878  12.836 -0.4568 -0.8501  0.2786
  661TMC3    C2 9832   4.255   3.912  12.726 -0.1658 -0.1909  0.4306
  661TMC3    C3 9833   4.186   3.966  12.626 -0.5286  0.4559 -0.4358
  661TMC3    C4 9834   4.053   3.912  12.851  0.0016  0.2826 -0.5580
  661TMC3    C5 9835   3.984   3.976  12.749  0.5725 -0.2497 -0.3869
  661TMC3    C6 9836   4.052   4.005  12.636 -0.1233 -0.5274  0.2809
  661TMC3     C 9837   4.230   3.773  12.918  0.3111 -0.2298  1.0266
  661TMC3     O 9838   4.148   3.731  13.002  0.4959 -0.2860  0.5408
  661TMC3     H 9839   4.358   3.880  12.716 -0.5754 -1.2097 -0.5461
  661TMC3    H1 9840   4.011   3.898  12.950  1.0288  0.1290 -0.1495
  661TMC3    H2 9841   4.010   4.074  12.564 -2.1119 -2.1680 -0.1106
  661TMC3    C7 9842   3.841   3.949  12.741  0.7135 -0.0003  0.0170
  661TMC3    C8 9843   4.256   4.001  12.510 -0.0994  0.3057  0.2825
  661TMC3    O1 9844   3.785   3.953  12.853 -0.3076  0.2947 -0.5136
  661TMC3    O2 9845   4.197   4.069  12.427  0.3580  0.6618  0.1996
  662MPD2     C 9846   0.275   2.591  17.169 -0.5883 -0.0586 -0.4313
  662MPD2    C1 9847   0.258   2.518  17.284  0.0684 -0.1847 -1.3857
  662MPD2    C2 9848   0.240   2.584  17.406  0.3692  0.2615  0.1540
  662MPD2    C3 9849   0.223   2.727  17.404 -1.1446 -0.6716  0.1153
  662MPD2    C4 9850   0.245   2.794  17.287  0.1726  0.1172  0.1756
  662MPD2    C5 9851   0.269   2.725  17.174 -0.7489 -0.0182 -0.6629
  662MPD2     H 9852   0.226   2.530  17.499  1.1321 -0.3050 -0.0688
  662MPD2    H1 9853   0.245   2.902  17.281  0.7026  0.1822  1.5196
  662MPD2    H2 9854   0.290   2.539  17.075 -1.8269 -2.8638  0.9123
  662MPD2    H3 9855   0.277   2.783  17.083 -1.0407 -0.9876 -1.3034
  662MPD2     N 9856   0.183   2.803  17.512 -0.2295  0.4615 -0.1756
  662MPD2    H5 9857   0.168   2.903  17.503  1.1693  0.6632 -0.2802
  662MPD2    N1 9858   0.233   2.381  17.282 -0.7086 -0.3834 -0.0787
  662MPD2    H7 9859   0.200   2.345  17.371 -0.1275 -1.0915 -0.1574
  663TMC3    C1 9860   0.202   2.166  17.210  0.3558 -0.4584 -0.1180
  663TMC3    C2 9861   0.262   2.110  17.323  0.1693 -0.2105 -0.5298
  663TMC3    C3 9862   0.268   1.970  17.328  0.2595 -0.3734 -0.7024
  663TMC3    C4 9863   0.138   2.089  17.120 -0.5137 -0.0063  0.0414
  663TMC3    C5 9864   0.116   1.957  17.151 -0.7267 -0.1842 -0.1034
  663TMC3    C6 9865   0.181   1.896  17.256 -0.2184 -0.2732  0.5498
  663TMC3     C 9866   0.228   2.301  17.173 -0.2786  0.1400 -0.7343
  663TMC3     O 9867   0.230   2.322  17.051  0.5121 -0.8663  0.0737
  663TMC3     H 9868   0.338   2.170  17.371 -0.4849 -1.7216  2.3522
  663TMC3    H1 9869   0.090   2.128  17.031  1.5474  0.0693 -1.0397
  663TMC3    H2 9870   0.159   1.793  17.281 -2.5075  0.0346 -0.1307
  663TMC3    C7 9871   0.009   1.885  17.085 -0.0166 -0.1436 -0.0814
  663TMC3    C8 9872   0.282   1.909  17.463  0.2577 -0.0884  0.3923
  663TMC3    O1 9873   4.723   1.926  16.971  0.4873 -0.0237  0.2098
  663TMC3    O2 9874   0.249   1.793  17.476  0.1302 -0.0923 -0.3426
  664MPD2     C 9875   3.310   1.091   0.342 -0.0891  0.1334 -0.0815
  664MPD2    C1 9876   3.396   1.205   0.339 -0.1313 -0.1725  0.0065
  664MPD2    C2 9877   3.449   1.250   0.461 -1.1392  0.1041  0.3134
  664MPD2    C3 9878   3.433   1.173   0.572 -0.4532  0.4617 -0.3192
  664MPD2    C4 9879   3.362   1.056   0.576  0.3764 -0.1928  0.1473
  664MPD2    C5 9880   3.305   1.022   0.459 -0.2334  0.2205  0.3192
  664MPD2     H 9881   3.484   1.353   0.459  1.7949 -0.9273 -1.0986
  664MPD2    H1 9882   3.347   0.996   0.665  0.0260  0.3613  0.4653
  664MPD2    H2 9883   3.259   1.046   0.258  1.2765 -0.7709 -0.4146
  664MPD2    H3 9884   3.242   0.934   0.464  0.3734 -0.1275  1.8339
  664MPD2     N 9885   3.481   1.228   0.695 -0.0477  0.0546 -0.4126
  664MPD2    H5 9886   3.517   1.323   0.689 -0.5729  0.1555 -1.9906
  664MPD2    N1 9887   3.409   1.277   0.217 -0.8122  0.2658 -0.0173
  664MPD2    H7 9888   3.453   1.368   0.225  0.6701 -0.3836 -0.7530
  665TMC3    C1 9889   3.529   1.245   0.921  0.1599  0.1673 -0.9416
  665TMC3    C2 9890   3.566   1.195   1.039  0.4678 -0.2719 -0.4589
  665TMC3    C3 9891   3.599   1.283   1.139  0.5939  0.6653  0.3145
  665TMC3    C4 9892   3.510   1.382   0.912 -1.0569  0.3457 -0.2740
  665TMC3    C5 9893   3.540   1.466   1.019 -0.4274  0.5351 -0.5987
  665TMC3    C6 9894   3.575   1.416   1.135  0.3976  0.1026 -0.0274
  665TMC3     C 9895   3.485   1.158   0.815 -0.2445 -0.3090 -0.2473
  665TMC3     O 9896   3.494   1.039   0.830 -0.0458  0.7936  0.0692
  665TMC3     H 9897   3.564   1.088   1.057  1.2299 -0.3434 -0.8149
  665TMC3    H1 9898   3.465   1.428   0.825 -1.3164  0.0576 -0.2939
  665TMC3    H2 9899   3.588   1.476   1.224 -1.3243  0.5434 -0.0843
  665TMC3    C7 9900   3.588   1.601   0.985  0.4301 -0.2188 -0.2799
  665TMC3    C8 9901   3.646   1.220   1.264  0.4479 -0.7960  0.0861
  665TMC3    O1 9902   3.606   1.629   0.867 -0.1994 -0.0398 -0.4789
  665TMC3    O2 9903   3.613   1.281   1.365  0.1775  0.3662 -0.2315
  666TMC3    C1 9904   2.047   2.119  10.079  0.4655 -0.6806 -0.3235
  666TMC3    C2 9905   2.100   2.006  10.032 -0.1667 -0.2939  0.9692
  666TMC3    C3 9906   2.183   2.015   9.927  0.4540  0.1691 -0.0477
  666TMC3    C4 9907   2.077   2.239  10.025 -0.1836 -0.3260  0.0818
  666TMC3    C5 9908   2.163   2.243   9.921 -0.7640 -0.3047 -1.0514
  666TMC3    C6 9909   2.206   2.127   9.866  0.0783  0.1216  0.2964
  666TMC3     C 9910   1.946   2.125  10.180  0.3532  0.3845 -0.4726
  666TMC3     O 9911   1.915   2.233  10.222  0.1284  0.1391 -0.1360
  666TMC3     H 9912   2.092   1.914  10.090  1.2644 -0.9773  0.0624
  666TMC3    H1 9913   2.026   2.330  10.053 -0.2256  0.0470 -1.1896
  666TMC3    H2 9914   2.272   2.131   9.780 -0.7429  0.3011 -0.3364
  666TMC3    C7 9915   2.281   2.329   9.960  0.2563 -0.0977  0.2986
  666TMC3    C8 9916   2.291   1.920   9.942  0.2487  0.0942  0.0320
  666TMC3    O1 9917   2.386   2.285   9.913  0.1650  0.1012 -0.9374
  666TMC3    O2 9918   2.274   1.799   9.951 -0.1810 -1.0687 -0.0105
  667MPD2     C 9919   3.538   1.053  14.534 -0.1936  0.0296 -0.9099
  667MPD2    C1 9920   3.463   1.032  14.648 -0.1718 -0.8196  0.2493
  667MPD2    C2 9921   3.371   0.935  14.649  0.6939 -0.5970 -1.0598
  667MPD2    C3 9922   3.353   0.849  14.544  0.2764 -0.0787  0.2742
  667MPD2    C4 9923   3.423   0.872  14.424 -0.9993 -0.2963  0.1952
  667MPD2    C5 9924   3.517   0.968  14.424 -0.0388  0.9210  0.1148
  667MPD2     H 9925   3.309   0.927  14.737  1.5726 -0.8970 -0.4622
  667MPD2    H1 9926   3.424   0.811  14.335  3.1863  1.7664 -1.1848
  667MPD2    H2 9927   3.607   1.136  14.524  0.6662 -0.6568 -0.6891
  667MPD2    H3 9928   3.570   0.991  14.332 -1.5151  0.6620 -0.8132
  667MPD2     N 9929   3.292   0.722  14.551 -0.0529 -0.5365 -0.3120
  667MPD2    H5 9930   3.303   0.665  14.468  0.1246  1.1485 -1.4485
  667MPD2    N1 9931   3.465   1.110  14.767 -0.0964  0.1034 -0.7705
  667MPD2    H7 9932   3.400   1.088  14.843 -0.3474  2.4967 -0.3003
  668TMC3    C1 9933   3.528   1.256  14.933  0.2656  0.1702 -0.0563
  668TMC3    C2 9934   3.592   1.368  14.980 -0.2882 -0.1861 -0.3551
  668TMC3    C3 9935   3.563   1.422  15.104 -0.1218  0.0907 -0.2325
  668TMC3    C4 9936   3.434   1.197  15.015 -0.0185 -0.3947 -0.1700
  668TMC3    C5 9937   3.408   1.251  15.137 -0.1776  0.0565 -0.7579
  668TMC3    C6 9938   3.476   1.360  15.187  0.0789 -0.5149  0.6200
  668TMC3     C 9939   3.558   1.203  14.802 -0.4060  0.2115 -0.2563
  668TMC3     O 9940   3.668   1.231  14.747  0.2645  0.2357  0.4454
  668TMC3     H 9941   3.647   1.425  14.907 -0.6670 -0.6005 -0.9723
  668TMC3    H1 9942   3.385   1.101  15.006  0.2776 -0.5186 -0.4734
  668TMC3    H2 9943   3.459   1.399  15.286 -1.0728 -0.0329  0.2289
  668TMC3    C7 9944   3.307   1.195  15.226 -0.0893  0.7251 -0.2105
  668TMC3    C8 9945   3.668   1.501  15.168 -0.6751  0.6643  0.0892
  668TMC3    O1 9946   3.305   1.239  15.340  0.0805  0.1909  0.5355
  668TMC3    O2 9947   3.670   1.500  15.287 -0.4779 -0.1121  0.1726
  669TMC3    C1 9948   1.226   1.596  14.256  0.7631  0.0456  1.0152
  669TMC3    C2 9949   1.105   1.602  14.185 -0.6984 -0.0033  0.2298
  669TMC3    C3 9950   1.099   1.670  14.065 -0.5361 -0.3297  0.8750
  669TMC3    C4 9951   1.338   1.650  14.201 -0.0239  0.0648 -0.4362
  669TMC3    C5 9952   1.332   1.708  14.078  0.0400 -0.2520 -0.1659
  669TMC3    C6 9953   1.216   1.726  14.010 -1.2053 -0.9738 -0.6367
  669TMC3     C 9954   1.236   1.517  14.376 -0.3669  0.8841 -0.3378
  669TMC3     O 9955   1.142   1.435  14.393 -0.2050 -0.3013 -0.7475
  669TMC3     H 9956   1.017   1.557  14.227 -1.4688  0.8043 -0.5188
  669TMC3    H1 9957   1.436   1.640  14.247 -0.4613 -0.6356  0.3534
  669TMC3    H2 9958   1.199   1.806  13.938  1.0040 -0.0451 -0.1212
  669TMC3    C7 9959   1.440   1.799  14.044 -0.3228  0.3178  0.0618
  669TMC3    C8 9960   0.974   1.666  13.986 -0.6994  0.0937  0.4081
  669TMC3    O1 9961   1.479   1.867  14.138 -0.6047 -0.1401  0.9150
  669TMC3    O2 9962   0.967   1.736  13.885  0.0343 -0.0226 -0.6641
  670MPD2     C 9963   4.379   3.739  13.665  0.2257  0.3837 -0.7484
  670MPD2    C1 9964   4.506   3.690  13.688  0.6366 -0.0709  0.3596
  670MPD2    C2 9965   4.533   3.630  13.815 -0.0319 -0.5922 -0.9635
  670MPD2    C3 9966   4.435   3.622  13.909  0.5684 -0.0766  0.0468
  670MPD2    C4 9967   4.311   3.672  13.882  0.1800  0.5027 -0.0569
  670MPD2    C5 9968   4.286   3.746  13.769 -0.1258  0.8394 -0.0442
  670MPD2     H 9969   4.627   3.582  13.839  0.4265  0.5880 -0.3914
  670MPD2    H1 9970   4.239   3.678  13.962 -0.3856  1.8280 -0.6563
  670MPD2    H2 9971   4.339   3.773  13.570 -1.3063 -1.2108 -0.6807
  670MPD2    H3 9972   4.186   3.787  13.755 -0.7900 -0.7620 -0.0606
  670MPD2     N 9973   4.460   3.565  14.034  0.0668  0.0415  0.2516
  670MPD2    H5 9974   4.554   3.529  14.045 -1.1220 -2.4873  2.1484
  670MPD2    N1 9975   4.614   3.702  13.593 -0.9018  0.0601 -0.9189
  670MPD2    H7 9976   4.707   3.678  13.624 -0.9328  0.9924 -0.0976
  671TMC3    C1 9977   4.425   3.446  14.233  0.2230 -0.3586 -0.0347
  671TMC3    C2 9978   4.551   3.477  14.271 -0.1508  0.5432  0.7010
  671TMC3    C3 9979   4.621   3.392  14.351  1.0294  0.5640  0.3135
  671TMC3    C4 9980   4.364   3.332  14.275 -0.3960  0.7618 -0.9263
  671TMC3    C5 9981   4.442   3.239  14.346  0.1367  0.1869 -0.2113
  671TMC3    C6 9982   4.572   3.270  14.386 -0.0118 -0.4540 -0.4434
  671TMC3     C 9983   4.362   3.510  14.121 -0.5780 -0.9051 -0.3168
  671TMC3     O 9984   4.240   3.503  14.117 -0.1497  0.2608  0.3235
  671TMC3     H 9985   4.599   3.574  14.261  0.6481  0.1303  0.5401
  671TMC3    H1 9986   4.261   3.305  14.254 -0.3112 -1.3873  1.4225
  671TMC3    H2 9987   4.625   3.200  14.450 -1.0660  0.1288  1.0776
  671TMC3    C7 9988   4.461   3.137  14.244 -0.5903 -0.1824 -0.7090
  671TMC3    C8 9989   0.025   3.416  14.368 -0.4508  0.0654  0.4476
  671TMC3    O1 9990   4.371   3.129  14.159 -0.2068 -0.0338 -0.1003
  671TMC3    O2 9991   0.073   3.518  14.313 -0.0520 -0.2010 -0.7959
  672MPD2     C 9992   4.516   4.150   1.151 -0.0071  0.2206 -0.4566
  672MPD2    C1 9993   4.647   4.118   1.142  0.4434  0.1789 -0.5557
  672MPD2    C2 9994   4.737   4.169   1.234 -0.3324  0.2808  0.2123
  672MPD2    C3 9995   4.702   4.273   1.330 -0.1867  0.4913 -0.5950
  672MPD2    C4 9996   4.566   4.310   1.329 -0.0681  0.3321  0.5877
  672MPD2    C5 9997   4.477   4.243   1.247 -0.2883 -0.4241 -0.3855
  672MPD2     H 9998   0.106   4.150   1.218 -0.1832 -0.3585  1.9352
  672MPD2    H1 9999   4.532   4.397   1.384  1.1364  1.0046  0.2798
  672MPD2    H210000   4.441   4.110   1.084  0.0178 -1.4309  0.4977
  672MPD2    H310001   4.376   4.280   1.238 -0.1251  0.2809  0.6975
  672MPD2     N10002   0.050   4.361   1.391 -0.1430 -0.3452  0.1696
  672MPD2    H510003   0.013   4.444   1.435  0.9876 -0.4938  1.3957
  672MPD2    N110004   4.699   4.018   1.050 -0.1877 -0.7994  0.1375
  672MPD2    H710005   0.060   3.992   1.048  0.0450 -0.0488  1.4394
  673TMC3    C110006   4.724   3.946   0.835  0.2321 -0.4650 -0.0185
  673TMC3    C210007   0.098   3.878   0.875  0.1691 -0.4497 -0.1418
  673TMC3    C310008   0.198   3.857   0.785 -0.5746  0.1178 -0.1986
  673TMC3    C410009   4.704   4.004   0.712 -0.5756  0.0414  0.8542
  673TMC3    C510010   0.073   3.983   0.626 -0.2330  0.5476 -0.3643
  673TMC3    C610011   0.185   3.917   0.662  0.1741 -0.5910 -0.0610
  673TMC3     C10012   4.630   3.989   0.933  0.0557 -0.6458 -0.3628
  673TMC3     O10013   4.518   4.031   0.892 -0.6206  0.4527  0.2965
  673TMC3     H10014   0.105   3.819   0.967 -0.1489 -0.1951  0.0440
  673TMC3    H110015   4.610   4.041   0.674 -1.2194 -0.9763  1.4378
  673TMC3    H210016   0.264   3.924   0.587  1.4055 -3.8778  0.9249
  673TMC3    C710017   0.079   4.080   0.516  0.7546  0.2767  0.0290
  673TMC3    C810018   0.270   3.735   0.787 -0.1322 -0.0294 -0.0687
  673TMC3    O110019   0.121   4.042   0.407 -0.3021 -0.7799  0.1184
  673TMC3    O210020   0.300   3.691   0.680 -0.9471  0.5192 -0.2802
  674MPD2     C10021   0.604   3.196  17.309 -0.3060 -0.6948  0.6847
  674MPD2    C110022   0.562   3.183  17.443  0.8800  0.4573 -0.0154
  674MPD2    C210023   0.493   3.293  17.503  0.4720  1.3501 -0.0163
  674MPD2    C310024   0.496   3.416  17.439  0.2975 -0.1691  0.5131
  674MPD2    C410025   0.527   3.419  17.303 -0.1931  0.5570  0.0971
  674MPD2    C510026   0.583   3.309  17.241  0.5277  0.1945 -0.6139
  674MPD2     H10027   0.458   3.287  17.605 -0.0337  1.0067 -0.2086
  674MPD2    H110028   0.528   3.511  17.246  2.0405  0.1629 -0.4847
  674MPD2    H210029   0.667   3.118  17.266  1.1479  1.7620 -1.6455
  674MPD2    H310030   0.626   3.316  17.142  1.7264  0.9042 -0.0375
  674MPD2     N10031   0.474   3.534  17.523  0.0312  0.3010 -0.6806
  674MPD2    H510032   0.467   3.516  17.622 -0.4905  1.0174 -0.5836
  674MPD2    N110033   0.580   3.059  17.507  0.2482 -0.1126 -0.0409
  674MPD2    H710034   0.643   2.993  17.463  0.7303 -0.3423  0.9921
  675TMC3    C110035   0.592   2.929  17.697 -0.2104  0.4050  0.0799
  675TMC3    C210036   0.519   2.843   0.029  0.4332 -0.3128  0.5877
  675TMC3    C310037   0.596   2.777   0.118 -0.3765 -0.2441  0.6977
  675TMC3    C410038   0.726   2.951  17.700 -0.0138  0.0175  0.3412
  675TMC3    C510039   0.799   2.869   0.024 -0.3987  0.7046  0.2846
  675TMC3    C610040   0.736   2.784   0.116 -0.7133 -0.1940 -0.6816
  675TMC3     C10041   0.516   3.024  17.619  0.6786 -0.0061  0.5792
  675TMC3     O10042   0.414   3.069  17.674  0.2770  0.5016  0.4407
  675TMC3     H10043   0.411   2.833   0.024  0.7607 -2.5194 -2.0926
  675TMC3    H110044   0.764   3.031  17.636 -1.0679 -0.7756 -1.2748
  675TMC3    H210045   0.798   2.708   0.162 -0.0430 -0.4220 -1.9620
  675TMC3    C710046   0.919   2.923   0.069 -0.1478 -0.0533  0.4412
  675TMC3    C810047   0.545   2.758   0.252 -0.0454  0.0291 -0.6088
  675TMC3    O110048   0.970   2.891   0.176  0.5854  0.1611 -0.4314
  675TMC3    O210049   0.427   2.717   0.262  0.2879 -0.3129  0.6484
  676MPD2     C10050   3.408   2.060  10.981  0.3967  0.4805  0.0181
  676MPD2    C110051   3.276   2.051  10.950 -0.2762  0.1225 -0.5319
  676MPD2    C210052   3.238   1.963  10.846 -0.0002  0.1747  0.0147
  676MPD2    C310053   3.336   1.888  10.780 -0.5943  0.3320  0.3908
  676MPD2    C410054   3.460   1.901  10.825 -0.0156  0.1041 -0.4760
  676MPD2    C510055   3.504   1.995  10.916  0.1288 -0.2135 -0.1662
  676MPD2     H10056   3.133   1.963  10.822 -0.2458 -1.6098  1.0839
  676MPD2    H110057   3.537   1.837  10.783 -1.1264 -0.6792 -1.3586
  676MPD2    H210058   3.432   2.128  11.063  2.4293  2.0166 -1.8633
  676MPD2    H310059   3.608   1.993  10.946 -0.2641  0.2812  1.2522
  676MPD2     N10060   3.292   1.799  10.688  0.5848 -0.0368  0.1650
  676MPD2    H510061   3.194   1.774  10.695  0.3603  0.2295 -2.1230
  676MPD2    N110062   3.174   2.129  11.011 -0.5697 -0.1062 -0.4904
  676MPD2    H710063   3.080   2.094  10.997 -0.6872 -0.9394  2.4353
  677TMC3    C110064   3.057   2.294  11.126  0.1577  0.4752 -0.4660
  677TMC3    C210065   2.952   2.206  11.139  0.1293  0.9903  0.0716
  677TMC3    C310066   2.826   2.263  11.152  0.3337  0.4157  0.0966
  677TMC3    C410067   3.043   2.434  11.114 -0.7382 -0.0881 -0.9116
  677TMC3    C510068   2.912   2.482  11.130  0.8676 -0.3740 -0.1142
  677TMC3    C610069   2.803   2.396  11.152 -0.3823  0.5981  0.1948
  677TMC3     C10070   3.189   2.246  11.080  0.6804 -0.6453 -0.1956
  677TMC3     O10071   3.283   2.327  11.087  0.2503  0.9991 -0.4472
  677TMC3     H10072   2.960   2.097  11.136 -2.3303  0.8548 -1.0912
  677TMC3    H110073   3.130   2.498  11.107 -0.2344 -0.4320  2.1254
  677TMC3    H210074   2.701   2.431  11.159 -0.3277  0.7827  0.0673
  677TMC3    C710075   2.879   2.626  11.139 -0.7961 -0.2056 -0.0577
  677TMC3    C810076   2.709   2.176  11.124 -0.1513  0.1014 -0.3273
  677TMC3    O110077   2.758   2.646  11.147 -0.1753 -0.2965 -0.2176
  677TMC3    O210078   2.707   2.131  11.012 -0.4390  0.5944  0.0212
  678MPD2     C10079   0.122   2.946   1.478  0.6686 -0.9280  0.1818
  678MPD2    C110080   0.087   2.819   1.500  0.0124  0.0686 -0.0154
  678MPD2    C210081   4.692   2.776   1.485 -0.0885 -0.1886  0.0657
  678MPD2    C310082   4.595   2.866   1.436  0.1734  0.4479  0.4489
  678MPD2    C410083   4.630   3.006   1.429 -0.0684  0.1500  0.8917
  678MPD2    C510084   0.024   3.041   1.463  0.6860  0.2206 -0.3308
  678MPD2     H10085   4.676   2.669   1.493  0.8672 -0.3608 -0.3502
  678MPD2    H110086   4.551   3.077   1.412  0.9629  1.1591  0.2679
  678MPD2    H210087   0.219   2.990   1.500  0.0990  0.3336  0.1903
  678MPD2    H310088   0.054   3.143   1.485  0.1670  0.4196 -0.5443
  678MPD2     N10089   4.459   2.825   1.417 -0.9423 -0.5461  0.1651
  678MPD2    H510090   4.443   2.725   1.424 -2.0314 -0.2666  1.7594
  678MPD2    N110091   0.182   2.712   1.526  0.4224 -0.1219  0.5427
  678MPD2    H710092   0.141   2.625   1.558 -1.0207  0.2775 -0.1825
  679TMC3    C110093   0.311   2.385   1.574  0.2265  0.0893 -0.1179
  679TMC3    C210094   0.338   2.513   1.609  0.1540 -0.3733  0.2682
  679TMC3    C310095   0.389   2.597   1.507  0.0492  0.3223  0.5272
  679TMC3    C410096   0.328   2.339   1.447 -0.3438 -0.4844 -0.5978
  679TMC3    C510097   0.381   2.422   1.349 -0.2095  0.5696 -0.5948
  679TMC3    C610098   0.405   2.556   1.380 -0.6554 -0.2829  0.2463
  679TMC3     C10099   0.232   2.303   1.654  0.0401  0.3059  0.3681
  679TMC3     O10100   0.157   2.226   1.606 -0.1385 -0.3032  0.4505
  679TMC3     H10101   0.309   2.555   1.704 -0.3283 -0.8243  0.3232
  679TMC3    H110102   0.315   2.231   1.437 -0.3369 -0.7263  1.9550
  679TMC3    H210103   0.413   2.623   1.296  1.2668 -0.5031  0.2518
  679TMC3    C710104   0.354   2.385   1.213 -0.3974 -0.5713 -0.2990
  679TMC3    C810105   0.323   2.724   1.509  0.1671 -0.7079  0.7572
  679TMC3    O110106   0.358   2.479   1.131  0.0936 -0.1170 -0.1841
  679TMC3    O210107   0.390   2.811   1.454  0.1244 -0.2971 -0.3531
  680MPD2     C10108   4.046   1.095  13.879  0.2966  0.2028  0.3605
  680MPD2    C110109   4.173   1.058  13.833 -0.1893  0.9599 -0.1730
  680MPD2    C210110   4.274   1.147  13.839  0.4902 -0.2605  0.9018
  680MPD2    C310111   4.259   1.263  13.903  0.8014 -0.2972  0.5780
  680MPD2    C410112   4.134   1.298  13.944 -0.8870 -0.8059 -0.6460
  680MPD2    C510113   4.028   1.216  13.925  0.0055  0.5293  0.1350
  680MPD2     H10114   4.373   1.117  13.804  0.5331  1.0796 -0.1699
  680MPD2    H110115   4.124   1.397  13.987  2.5393 -1.3367  1.3273
  680MPD2    H210116   3.966   1.023  13.867  0.6151 -0.1278  0.2222
  680MPD2    H310117   3.928   1.251  13.946  0.3957  1.8649 -0.2121
  680MPD2     N10118   4.369   1.353  13.929  0.8466 -0.1161 -0.1069
  680MPD2    H510119   4.356   1.444  13.971  0.1845 -0.6659  0.8544
  680MPD2    N110120   4.186   0.931  13.774 -0.4489  0.6916 -0.4641
  680MPD2    H710121   4.098   0.891  13.746 -0.5039  1.6404 -1.6449
  681TMC3    C110122   4.300   0.732  13.712 -0.2046 -0.1194  0.1744
  681TMC3    C210123   4.204   0.659  13.779 -0.2165  0.8576  0.1352
  681TMC3    C310124   4.205   0.521  13.771  0.3895  0.1198 -0.4381
  681TMC3    C410125   4.410   0.672  13.655 -0.7187 -0.0626  0.5666
  681TMC3    C510126   4.403   0.537  13.653  0.7492 -0.1194  0.0733
  681TMC3    C610127   4.305   0.459  13.701  0.0333  0.6031 -0.3170
  681TMC3     C10128   4.309   0.873  13.735  0.6140  0.9524 -0.3496
  681TMC3     O10129   4.421   0.925  13.729  0.3518  0.1390 -0.1573
  681TMC3     H10130   4.131   0.709  13.842 -0.0668  1.1238  0.0984
  681TMC3    H110131   4.491   0.734  13.616 -1.9847 -0.4443 -2.6820
  681TMC3    H210132   4.307   0.351  13.693  0.2248  0.6285 -0.6187
  681TMC3    C710133   4.530   0.469  13.639  0.0093 -0.6499 -0.4275
  681TMC3    C810134   4.129   0.439  13.863  0.6312  0.2532 -1.0449
  681TMC3    O110135   4.552   0.361  13.696 -0.3999  0.3459 -0.0937
  681TMC3    O210136   4.105   0.319  13.831 -0.3357 -0.1044  0.0289
  682MPD2     C10137   2.226   2.857  11.314 -0.7840 -0.5930  0.3339
  682MPD2    C110138   2.120   2.814  11.245  0.2803 -0.5780 -0.2882
  682MPD2    C210139   1.992   2.841  11.299 -0.1876  0.1565  0.0469
  682MPD2    C310140   1.977   2.922  11.402  0.1295  1.0638  0.9161
  682MPD2    C410141   2.090   2.978  11.457 -0.6148 -0.8024  0.1522
  682MPD2    C510142   2.213   2.950  11.415  0.3792 -0.3729  0.1017
  682MPD2     H10143   1.902   2.803  11.253  1.3261  0.6641 -3.4011
  682MPD2    H110144   2.083   3.053  11.535 -1.3575 -0.7773  0.0634
  682MPD2    H210145   2.327   2.825  11.289 -1.1838 -1.1585 -0.5157
  682MPD2    H310146   2.300   2.985  11.470 -1.2559  1.6105  1.3961
  682MPD2     N10147   1.853   2.959  11.465  0.0780 -0.1018 -0.0631
  682MPD2    H510148   1.856   3.027  11.540  0.5319  1.6619 -1.6720
  682MPD2    N110149   2.135   2.731  11.128  0.0955  0.4807 -0.2586
  682MPD2    H710150   2.053   2.693  11.083  0.5965  0.4525 -1.1356
  683TMC3    C110151   1.517   3.003  11.712  0.0672 -0.1229  0.7656
  683TMC3    C210152   1.396   2.994  11.659 -0.0167  0.2409 -0.2171
  683TMC3    C310153   1.380   2.957  11.528 -0.1563 -0.1487  0.1895
  683TMC3    C410154   1.630   3.001  11.637  0.2498  0.3322  0.0054
  683TMC3    C510155   1.615   2.957  11.507 -0.2364  0.3137 -0.6415
  683TMC3    C610156   1.492   2.925  11.454  0.6013  0.8033 -0.3425
  683TMC3     C10157   1.536   2.975  11.852 -0.7672 -0.1939 -0.3856
  683TMC3     O10158   1.647   3.008  11.895 -0.4018 -0.0705 -0.1700
  683TMC3     H10159   1.308   3.020  11.717 -0.0117 -1.8667  0.7387
  683TMC3    H110160   1.727   3.014  11.683  0.4095 -0.3377 -0.1539
  683TMC3    H210161   1.489   2.874  11.359  2.3226  0.8867 -0.4314
  683TMC3    C710162   1.729   2.905  11.431 -0.5845  0.0767  0.2170
  683TMC3    C810163   1.263   2.878  11.501  0.3118 -0.4859  0.4559
  683TMC3    O110164   1.708   2.816  11.351  0.0413  0.0768 -0.1950
  683TMC3    O210165   1.161   2.921  11.550  0.3756  0.1163 -0.2665
  684MPD2     C10166   4.397   2.543  16.680  0.4855 -0.3826  0.0507
  684MPD2    C110167   4.518   2.487  16.642  0.2853 -0.5556  0.4220
  684MPD2    C210168   4.634   2.562  16.645  0.2795  0.3659 -0.2918
  684MPD2    C310169   4.635   2.694  16.689  0.3207  0.1038  0.0314
  684MPD2    C410170   4.513   2.749  16.714 -0.5147  0.1483  0.7903
  684MPD2    C510171   4.404   2.677  16.713  0.4047 -0.1856  0.7359
  684MPD2     H10172   4.723   2.514  16.605  0.0038  0.9317 -1.5710
  684MPD2    H110173   4.507   2.850  16.752  3.4479  0.8980 -0.6474
  684MPD2    H210174   4.305   2.485  16.686 -0.3185  0.9526  0.5831
  684MPD2    H310175   4.308   2.725  16.728  0.1394 -0.7032  0.7356
  684MPD2     N10176   0.012   2.774  16.692  0.0842 -0.0288  0.0959
  684MPD2    H510177   0.001   2.875  16.685 -1.0095 -0.1976 -0.6126
  684MPD2    N110178   4.523   2.353  16.601 -0.4478 -0.8903 -0.4882
  684MPD2    H710179   4.618   2.320  16.583 -1.0511 -1.8267 -1.9588
  685TMC3    C110180   4.465   2.140  16.516  0.5884 -0.0836  0.1523
  685TMC3    C210181   4.373   2.066  16.450  0.1380  1.1802  0.7489
  685TMC3    C310182   4.415   1.959  16.363  0.6303 -0.3437 -1.0306
  685TMC3    C410183   4.602   2.110  16.503 -0.0527 -0.3597 -0.6770
  685TMC3    C510184   4.637   2.005  16.421  0.8481 -0.4263 -0.3384
  685TMC3    C610185   4.548   1.928  16.359 -0.1705 -0.2912  0.0399
  685TMC3     C10186   4.418   2.275  16.560  0.4179 -0.5761  1.2790
  685TMC3     O10187   4.311   2.314  16.520  0.2942 -0.0009  0.0876
  685TMC3     H10188   4.269   2.095  16.457 -0.2933 -0.1449 -0.2332
  685TMC3    H110189   4.680   2.163  16.555 -0.4182 -1.4939  1.0591
  685TMC3    H210190   4.585   1.849  16.295 -0.6492 -0.3177 -0.2054
  685TMC3    C710191   0.038   1.992  16.393  0.5156 -0.5034  0.1262
  685TMC3    C810192   4.329   1.905  16.256  0.0080 -0.4337 -0.2472
  685TMC3    O110193   0.105   2.093  16.397 -0.5829 -0.1940 -0.5100
  685TMC3    O210194   4.392   1.858  16.166 -0.1436 -0.3203  0.5249
  686MPD2     C10195   0.169   2.252  15.996  0.3634 -0.1629 -0.0843
  686MPD2    C110196   0.259   2.142  15.995 -0.7020 -0.7623 -0.3253
  686MPD2    C210197   0.391   2.166  16.029  0.2735 -0.0984  0.8300
  686MPD2    C310198   0.442   2.292  16.046  0.7827  0.2141 -0.2364
  686MPD2    C410199   0.354   2.402  16.033  0.1174  0.2154 -0.6037
  686MPD2    C510200   0.216   2.377  16.013  0.4879  0.0669 -0.9530
  686MPD2     H10201   0.460   2.082  16.031 -0.8522 -1.0051  1.1541
  686MPD2    H110202   0.384   2.506  16.041 -0.9845  0.4319  0.8976
  686MPD2    H210203   0.064   2.243  15.972  0.3255 -0.0017  0.0210
  686MPD2    H310204   0.138   2.452  16.008 -2.1960 -2.5402  1.5072
  686MPD2     N10205   0.576   2.326  16.062  0.5292 -0.0446 -0.7005
  686MPD2    H510206   0.611   2.418  16.036 -0.4239 -0.0204 -1.8822
  686MPD2    N110207   0.205   2.010  15.974  0.1221  0.1371  0.2649
  686MPD2    H710208   0.104   1.999  15.970  0.2044  0.3759 -2.3912
  687TMC3    C110209   0.786   2.288  16.121 -0.4843 -0.0717  0.2886
  687TMC3    C210210   0.838   2.360  16.020 -0.1091 -0.1487  0.0176
  687TMC3    C310211   0.974   2.390  16.021 -0.0458  0.0756  0.1272
  687TMC3    C410212   0.864   2.241  16.222 -0.6519 -0.3409  0.1909
  687TMC3    C510213   1.001   2.261  16.219 -0.0450  0.1219 -1.1941
  687TMC3    C610214   1.056   2.345  16.122  0.3225 -0.2870 -0.1634
  687TMC3     C10215   0.657   2.234  16.110  0.4561  0.2947 -0.9194
  687TMC3     O10216   0.635   2.131  16.172 -0.3209 -0.0212  0.1487
  687TMC3     H10217   0.785   2.365  15.926  0.7160 -0.5132 -0.4623
  687TMC3    H110218   0.814   2.184  16.299  2.7611 -0.0646  2.6377
  687TMC3    H210219   1.163   2.347  16.108  0.1215 -0.9065 -1.7572
  687TMC3    C710220   1.077   2.157  16.278 -0.2783 -0.1622 -0.2176
  687TMC3    C810221   1.042   2.394  15.901  0.3505 -0.3430 -0.2217
  687TMC3    O110222   1.198   2.160  16.258  0.3102 -0.6741 -0.3210
  687TMC3    O210223   1.161   2.420  15.896 -0.2844  0.8725  0.0599
  688MPD2     C10224   0.703   0.350  17.099 -0.2494  0.1186 -0.4400
  688MPD2    C110225   0.712   0.223  17.162 -0.7886  0.0341  0.2168
  688MPD2    C210226   0.803   0.131  17.112  0.5862 -0.1897 -0.1376
  688MPD2    C310227   0.869   0.156  16.986  0.0101  0.5495 -0.0217
  688MPD2    C410228   0.849   0.269  16.918 -0.7020  0.5304 -0.6885
  688MPD2    C510229   0.770   0.365  16.972 -0.8714  0.7486 -0.3725
  688MPD2     H10230   0.804   0.034  17.161  0.4784  1.4062  3.0038
  688MPD2    H110231   0.901   0.290  16.825 -1.2264  0.4530 -1.0039
  688MPD2    H210232   0.636   0.429  17.130 -0.0012 -0.3653  1.3220
  688MPD2    H310233   0.765   0.456  16.913  1.5512  0.3139 -1.2403
  688MPD2     N10234   0.966   0.067  16.926  0.1489  0.2636  0.4492
  688MPD2    H510235   1.028   0.099  16.852 -1.1383  2.3548  0.2672
  688MPD2    N110236   0.635   0.186  17.278  0.4057  0.1614  0.3854
  688MPD2    H710237   0.654   0.095  17.318  0.8052  0.2579  0.4195
  689TMC3    C110238   0.510   0.195  17.465  0.1398  0.4507 -0.0303
  689TMC3    C210239   0.485   0.271  17.579  0.7872  0.2215 -0.0424
  689TMC3    C310240   0.418   0.210  17.686 -0.0308  0.7352 -0.0568
  689TMC3    C410241   0.458   0.070  17.452 -0.1685 -0.3191 -0.1012
  689TMC3    C510242   0.396   0.016  17.558 -0.1096  0.3760 -0.6052
  689TMC3    C610243   0.380   0.084  17.678  0.6063  0.3750  0.7871
  689TMC3     C10244   0.566   0.269  17.359  0.3052  1.1894  0.1734
  689TMC3     O10245   0.560   0.392  17.347  1.0479 -0.1665 -0.0122
  689TMC3     H10246   0.540   0.364  17.575  0.1936  0.5743 -0.0508
  689TMC3    H110247   0.467   0.019  17.357  2.1116  2.1884 -1.2336
  689TMC3    H210248   0.325   0.041   0.015 -1.2560 -1.3123 -1.2867
  689TMC3    C710249   0.386   4.609  17.577 -0.6240 -0.1912 -0.4083
  689TMC3    C810250   0.367   0.292   0.053 -0.1566  0.1877 -0.5218
  689TMC3    O110251   0.405   4.564  17.692 -0.1049  0.3633  0.4714
  689TMC3    O210252   0.301   0.234   0.142  0.2698 -0.0264  0.2022
  690MPD2     C10253   2.822   1.970  15.904 -0.3469 -0.2967  0.8193
  690MPD2    C110254   2.720   2.022  15.829  0.5924 -0.0831 -0.4363
  690MPD2    C210255   2.728   2.044  15.694  0.3245 -0.7272 -0.1864
  690MPD2    C310256   2.846   2.032  15.628  0.3294 -0.3464  0.7487
  690MPD2    C410257   2.948   1.975  15.698  0.1696 -0.0098  1.2505
  690MPD2    C510258   2.935   1.955  15.830  0.3221 -0.1071 -0.3573
  690MPD2     H10259   2.647   2.103  15.653  0.9401 -0.5064 -1.0928
  690MPD2    H110260   3.041   1.944  15.652 -0.3823  0.2917 -0.0841
  690MPD2    H210261   2.826   1.955  16.012  1.9671  1.4832  0.9767
  690MPD2    H310262   3.013   1.902  15.884  1.1930 -0.0227 -1.5317
  690MPD2     N10263   2.856   2.072  15.492 -0.5680 -0.3505 -0.1264
  690MPD2    H510264   2.770   2.109  15.455 -1.7730 -2.8608  0.1399
  690MPD2    N110265   2.593   2.039  15.884 -0.1805 -0.2849  0.0159
  690MPD2    H710266   2.515   2.071  15.826 -0.9880 -1.7190  0.3191
  691TMC3    C110267   2.411   2.029  16.044  0.7126  0.1398 -0.0758
  691TMC3    C210268   2.333   2.104  15.961  0.9248  0.6805 -0.5919
  691TMC3    C310269   2.209   2.140  16.005  0.3480 -0.2993 -0.2991
  691TMC3    C410270   2.364   1.986  16.159  0.7364 -0.1747  0.2713
  691TMC3    C510271   2.230   2.003  16.187 -0.0988 -0.0095 -0.3632
  691TMC3    C610272   2.161   2.094  16.121 -0.6896  0.6164 -0.2421
  691TMC3     C10273   2.555   2.013  16.015 -0.0003  0.0364 -0.0233
  691TMC3     O10274   2.622   1.967  16.103  0.0473  0.2643 -0.1614
  691TMC3     H10275   2.372   2.150  15.871 -2.0595  2.4253 -0.9804
  691TMC3    H110276   2.427   1.919  16.218  1.4115  2.0374  2.0638
  691TMC3    H210277   2.054   2.108  16.135 -0.6073  0.7132  0.2605
  691TMC3    C710278   2.185   1.921  16.293 -0.1753  0.3232 -0.1132
  691TMC3    C810279   2.116   2.177  15.897 -0.1893  0.2049  0.5035
  691TMC3    O110280   2.271   1.887  16.371 -0.9292  0.1771 -0.1524
  691TMC3    O210281   2.145   2.139  15.781 -0.1509  0.5290 -0.2312
  692TMC3    C110282   4.577   3.444  15.703  0.1505 -0.1917 -0.6174
  692TMC3    C210283   4.661   3.546  15.737 -0.5948 -0.4737 -0.1463
  692TMC3    C310284   0.054   3.514  15.757 -0.5225 -0.1571 -0.7417
  692TMC3    C410285   4.619   3.309  15.697  0.4371 -1.1208  0.5842
  692TMC3    C510286   0.016   3.288  15.698 -0.5485  0.4332  0.2251
  692TMC3    C610287   0.094   3.389  15.747  0.3929 -0.6528  0.8986
  692TMC3     C10288   4.438   3.468  15.736  0.2103  0.4169  0.0012
  692TMC3     O10289   4.374   3.368  15.762 -0.5351  0.2655 -0.1723
  692TMC3     H10290   4.641   3.647  15.703  2.9992  0.6369  1.1236
  692TMC3    H110291   4.548   3.229  15.681 -1.2405  0.5296 -0.1922
  692TMC3    H210292   0.201   3.371  15.744  0.2886 -1.0168 -0.3596
  692TMC3    C710293   0.043   3.150  15.733 -0.5716  0.2448 -0.3986
  692TMC3    C810294   0.090   3.559  15.890  0.1515 -0.5037 -0.4981
  692TMC3    O110295   4.734   3.061  15.660  0.1381 -0.5237  0.1325
  692TMC3    O210296   0.160   3.481  15.952  0.0521  0.4055  0.6839
  693MPD2     C10297   3.834   1.382  11.665  0.0773 -0.1850 -0.0652
  693MPD2    C110298   3.812   1.318  11.543 -1.4272  0.2686  0.2614
  693MPD2    C210299   3.897   1.239  11.482 -0.4388 -0.8888 -0.4318
  693MPD2    C310300   4.028   1.230  11.540 -0.2923  0.8519  0.7485
  693MPD2    C410301   4.056   1.305  11.654 -0.7097  0.4097  0.6363
  693MPD2    C510302   3.957   1.379  11.719 -0.0019  0.1409 -0.0082
  693MPD2     H10303   3.885   1.189  11.386  0.2923 -1.2856 -0.3155
  693MPD2    H110304   4.155   1.303  11.698  0.8049  0.4687 -2.7556
  693MPD2    H210305   3.757   1.444  11.710 -0.3326  0.8620 -2.2189
  693MPD2    H310306   3.974   1.441  11.807  1.7608  0.2285 -0.4238
  693MPD2     N10307   4.138   1.170  11.475  0.2719 -0.5663 -0.9181
  693MPD2    H510308   4.225   1.196  11.520 -0.1082 -0.9027  0.0108
  693MPD2    N110309   3.680   1.324  11.500  0.0287  0.1900 -0.2969
  693MPD2    H710310   3.606   1.360  11.559  0.2143  0.6284 -0.3359
  694TMC3    C110311   3.480   1.265  11.376  0.5178 -0.1816  0.9146
  694TMC3    C210312   3.419   1.237  11.260 -0.2410 -0.5299 -0.5372
  694TMC3    C310313   3.276   1.233  11.262 -0.9337  0.0831  0.5868
  694TMC3    C410314   3.409   1.278  11.500  0.8451  0.5782  0.1310
  694TMC3    C510315   3.274   1.273  11.496  0.1848 -0.1220  0.6957
  694TMC3    C610316   3.203   1.259  11.376 -0.2256  0.2408  0.6229
  694TMC3     C10317   3.628   1.277  11.375  0.5965 -0.0927  0.6022
  694TMC3     O10318   3.690   1.254  11.275  0.0626  0.4366  0.0239
  694TMC3     H10319   3.481   1.217  11.173 -0.0173 -0.7662 -0.3238
  694TMC3    H110320   3.457   1.267  11.597  0.6671 -0.8794  0.0443
  694TMC3    H210321   3.094   1.262  11.376 -0.2444 -0.4725  0.0595
  694TMC3    C710322   3.201   1.275  11.627 -0.1491 -0.2574  0.5247
  694TMC3    C810323   3.205   1.197  11.139  0.2314 -0.3610  0.3609
  694TMC3    O110324   3.272   1.305  11.725 -0.0601  0.3410 -0.3207
  694TMC3    O210325   3.085   1.203  11.150 -0.2221 -0.1372  0.1769
  695MPD2     C10326   0.387   3.525  13.544  0.7448 -0.6021  0.2155
  695MPD2    C110327   0.347   3.466  13.659  0.1788  0.6656  0.5564
  695MPD2    C210328   0.218   3.416  13.669 -0.7007  0.9567  0.9541
  695MPD2    C310329   0.125   3.423  13.563  0.3262 -0.4620  0.2588
  695MPD2    C410330   0.169   3.493  13.450 -0.2148  0.4815 -0.7691
  695MPD2    C510331   0.297   3.534  13.440  0.0594  0.1369  0.0842
  695MPD2     H10332   0.194   3.351  13.753  0.8196 -0.4203  0.3453
  695MPD2    H110333   0.114   3.499  13.357 -1.1673 -0.7936 -0.2868
  695MPD2    H210334   0.486   3.564  13.520  0.9373 -1.2376 -0.0247
  695MPD2    H310335   0.334   3.589  13.355  0.2604 -1.9710 -1.2066
  695MPD2     N10336   0.005   3.350  13.573 -0.0072 -0.3308 -0.0808
  695MPD2    H510337   4.716   3.321  13.666 -0.1352 -0.3068 -0.1098
  695MPD2    N110338   0.436   3.453  13.767  0.0037 -0.7834 -0.4585
  695MPD2    H710339   0.390   3.446  13.858  2.3183 -0.0992  0.7701
  696TMC3    C110340   4.544   3.245  13.488  0.3838 -0.5532  0.2944
  696TMC3    C210341   4.564   3.125  13.555  0.0409 -0.2529 -0.0262
  696TMC3    C310342   4.449   3.067  13.608  0.2062 -0.1802  0.1812
  696TMC3    C410343   4.419   3.295  13.461  0.6069  0.4930 -0.5331
  696TMC3    C510344   4.306   3.234  13.515  0.4343 -0.2785 -0.2830
  696TMC3    C610345   4.323   3.124  13.590 -0.3527 -0.4976  0.0487
  696TMC3     C10346   4.656   3.332  13.466  1.0143  0.2691 -0.4995
  696TMC3     O10347   4.647   3.397  13.362 -0.0128 -0.4199  0.1844
  696TMC3     H10348   4.661   3.081  13.572  0.6728  1.3179  0.4221
  696TMC3    H110349   4.407   3.392  13.414 -3.2165 -0.0227 -0.6254
  696TMC3    H210350   4.234   3.077  13.632 -0.6236  0.8473  1.0010
  696TMC3    C710351   4.179   3.312  13.527  0.1840  0.4969  0.5570
  696TMC3    C810352   4.467   3.007  13.744 -0.2769 -0.2019 -0.2401
  696TMC3    O110353   4.141   3.358  13.417 -0.5506  0.3957 -0.0172
  696TMC3    O210354   4.370   3.011  13.822  0.5511 -0.0515  0.2708
  697MPD2     C10355   3.760   0.026  15.760 -0.1224  0.2019  0.0529
  697MPD2    C110356   3.784   0.006  15.626  0.0367  0.3826  0.0099
  697MPD2    C210357   3.772   0.119  15.543 -0.7285 -0.4417 -0.3724
  697MPD2    C310358   3.758   0.248  15.586  0.8376  0.5596  0.7444
  697MPD2    C410359   3.737   0.267  15.720 -0.2101 -0.5328  0.1841
  697MPD2    C510360   3.736   0.158  15.803 -0.2001  0.2328  0.8661
  697MPD2     H10361   3.767   0.107  15.435  2.8265  1.5200 -0.7481
  697MPD2    H110362   3.707   0.362  15.763  0.5453  0.3589 -1.2840
  697MPD2    H210363   3.770   4.687  15.836  0.4922  0.6782  0.4492
  697MPD2    H310364   3.717   0.171  15.909 -0.3185 -0.5897  0.9445
  697MPD2     N10365   3.765   0.357  15.494  0.0748 -0.2005 -0.1951
  697MPD2    H510366   3.787   0.330  15.399  0.7818  1.0149 -0.3838
  697MPD2    N110367   3.822   4.624  15.564 -0.4769 -0.5317 -0.0463
  697MPD2    H710368   3.827   4.617  15.463 -1.3863  2.8202 -0.3074
  698TMC3    C110369   3.788   0.588  15.423 -0.3000  0.5973  0.5545
  698TMC3    C210370   3.837   0.713  15.452 -0.2719 -0.1880 -0.2575
  698TMC3    C310371   3.881   0.786  15.347  0.3156 -0.6441 -0.4793
  698TMC3    C410372   3.769   0.549  15.291 -0.1215  0.7135 -0.3563
  698TMC3    C510373   3.802   0.641  15.192 -0.3422  0.2844  0.0965
  698TMC3    C610374   3.879   0.751  15.214  0.4192 -0.2157 -0.4106
  698TMC3     C10375   3.764   0.492  15.533  0.9485 -0.6884 -1.0650
  698TMC3     O10376   3.755   0.544  15.642 -0.1462  0.0655  0.2597
  698TMC3     H10377   3.871   0.730  15.554 -1.4239 -0.0140  0.0938
  698TMC3    H110378   3.717   0.457  15.272  1.1094  0.0199 -0.3681
  698TMC3    H210379   3.885   0.822  15.132  1.1885 -1.0155 -1.0470
  698TMC3    C710380   3.776   0.605  15.046  0.4586 -0.1946  0.4391
  698TMC3    C810381   3.962   0.902  15.391 -0.3461 -0.2778  1.0906
  698TMC3    O110382   3.832   0.663  14.952 -0.4332 -0.0147 -0.3219
  698TMC3    O210383   3.907   0.957  15.487  0.0943 -0.0951 -0.3562
  699TMC3    C110384   4.213   3.100  13.198  0.5666 -0.5566 -0.5462
  699TMC3    C210385   4.244   2.978  13.252 -0.1140 -0.4094 -1.1181
  699TMC3    C310386   4.154   2.927  13.337 -0.3873  0.1169 -0.1856
  699TMC3    C410387   4.092   3.165  13.209 -0.4555 -0.0900  0.1778
  699TMC3    C510388   4.002   3.104  13.287  0.4467  0.7913 -0.9015
  699TMC3    C610389   4.025   2.988  13.352 -0.0553 -0.4153 -0.1407
  699TMC3     C10390   4.323   3.175  13.147  0.4748  0.8686 -0.0299
  699TMC3     O10391   4.430   3.111  13.148 -0.0744  0.0832 -0.4238
  699TMC3     H10392   4.344   2.936  13.243  0.4998  0.6129  0.7828
  699TMC3    H110393   4.075   3.259  13.158 -1.4518 -0.4515 -0.1499
  699TMC3    H210394   3.958   2.951  13.428  1.5437 -1.7094  0.6295
  699TMC3    C710395   3.884   3.171  13.338  0.1308 -0.1333  0.3473
  699TMC3    C810396   4.186   2.843  13.451 -0.3129 -0.9526  0.7380
  699TMC3    O110397   3.819   3.109  13.420  0.0234  0.6225  0.1390
  699TMC3    O210398   4.089   2.806  13.512 -0.4711 -0.7310 -0.0950
  700TMC3    C110399   2.967   0.149  17.352 -0.2083  0.6831  0.0055
  700TMC3    C210400   3.069   0.065  17.312 -0.0196 -0.1472  0.3894
  700TMC3    C310401   3.196   0.075  17.365 -0.6533 -0.1799  0.2361
  700TMC3    C410402   2.993   0.241  17.453 -0.7115  0.6091 -0.0924
  700TMC3    C510403   3.130   0.255  17.496 -0.0619  0.3026  0.0398
  700TMC3    C610404   3.232   0.183  17.445  0.7648 -0.1529 -0.0817
  700TMC3     C10405   2.872   0.205  17.255  0.7806  0.3729 -0.9369
  700TMC3     O10406   2.805   0.129  17.187 -0.6721  0.1687 -0.0583
  700TMC3     H10407   3.045   0.002  17.227  0.6568 -0.0466  0.1217
  700TMC3    H110408   2.915   0.312  17.480  0.2404  2.1251 -1.3509
  700TMC3    H210409   3.334   0.184  17.480  0.7749 -0.7069 -0.1021
  700TMC3    C710410   3.164   0.361  17.590  0.5490  0.6015 -0.5400
  700TMC3    C810411   3.304   4.732  17.304  0.0810 -0.1680 -0.2774
  700TMC3    O110412   3.266   0.341  17.656 -0.1023 -0.2926 -0.3574
  700TMC3    O210413   3.277   4.687  17.194 -0.6817  0.1861 -0.5892
  701TMC3    C110414   3.446   4.015  15.610 -0.5580 -0.6697  0.2143
  701TMC3    C210415   3.476   4.014  15.480  0.4827 -0.4878  0.5002
  701TMC3    C310416   3.533   4.131  15.432 -0.0356  0.3470  0.2983
  701TMC3    C410417   3.450   4.125  15.684  0.3141  0.0247  0.1352
  701TMC3    C510418   3.490   4.239  15.630 -0.8576 -0.5072 -0.0725
  701TMC3    C610419   3.549   4.243  15.510  0.1632 -1.0201 -0.3553
  701TMC3     C10420   3.380   3.903  15.673  0.4010  0.4763 -0.0308
  701TMC3     O10421   3.322   3.923  15.777 -0.0022 -0.0720 -0.7073
  701TMC3     H10422   3.428   3.947  15.409 -0.5043  0.4447  0.2757
  701TMC3    H110423   3.429   4.124  15.790  1.7314  1.6866  0.4387
  701TMC3    H210424   3.578   4.339  15.468 -1.0659  1.0409  3.5328
  701TMC3    C710425   3.421   4.361  15.666 -0.4914  0.2126  0.5147
  701TMC3    C810426   3.551   4.157  15.288 -0.2856 -0.7108  0.3998
  701TMC3    O110427   3.459   4.463  15.609 -0.0810  0.3786  0.0476
  701TMC3    O210428   3.644   4.224  15.249  0.1989  0.5345 -0.1394
  702MPD2     C10429   3.179   2.242  10.226  0.1517 -0.3521 -0.1628
  702MPD2    C110430   3.094   2.163  10.295 -0.6598 -0.0648  0.2414
  702MPD2    C210431   2.988   2.216  10.363  0.1302  0.0208  0.0727
  702MPD2    C310432   2.970   2.351  10.369 -0.2894  0.2019  0.1592
  702MPD2    C410433   3.057   2.430  10.299  0.8394  0.6030 -0.4572
  702MPD2    C510434   3.154   2.378  10.220 -0.0400 -0.0980 -0.2403
  702MPD2     H10435   2.923   2.152  10.422  0.5757  0.5465  1.1347
  702MPD2    H110436   3.046   2.537  10.309  0.4926  0.5894 -0.7133
  702MPD2    H210437   3.265   2.195  10.180  0.6327  0.4809 -0.1285
  702MPD2    H310438   3.219   2.435  10.154  0.6649  1.6674  1.9902
  702MPD2     N10439   2.878   2.417  10.452  0.3792 -0.1148 -0.2528
  702MPD2    H510440   2.879   2.518  10.459 -0.4876 -0.1492  0.3579
  702MPD2    N110441   3.105   2.019  10.302  0.1612 -0.0547 -0.3784
  702MPD2    H710442   3.038   1.965  10.356  0.6242  1.6003  1.9135
  703TMC3    C110443   2.724   2.445  10.631  0.0193  0.4412  0.0255
  703TMC3    C210444   2.631   2.398  10.713 -0.3640  0.0729  0.6594
  703TMC3    C310445   2.597   2.462  10.825 -0.4968 -0.6415  0.5609
  703TMC3    C410446   2.793   2.550  10.674  0.8494  0.1265 -0.0337
  703TMC3    C510447   2.752   2.625  10.780 -0.3027 -0.1672 -0.2551
  703TMC3    C610448   2.648   2.583  10.859 -0.0851  0.5087  0.1246
  703TMC3     C10449   2.784   2.359  10.531  0.6086  0.2569  0.0892
  703TMC3     O10450   2.743   2.243  10.530 -0.4773 -0.5292  0.0534
  703TMC3     H10451   2.580   2.309  10.678 -0.1750  0.0434  0.4618
  703TMC3    H110452   2.881   2.589  10.623  0.9432 -1.7542 -1.2907
  703TMC3    H210453   2.614   2.654  10.933  1.9474 -0.1473  1.6897
  703TMC3    C710454   2.798   2.761  10.799  0.8230  0.2030 -0.2916
  703TMC3    C810455   2.504   2.388  10.906  0.9208 -0.3026  0.0337
  703TMC3    O110456   2.728   2.829  10.868  0.0844  0.2621 -0.5249
  703TMC3    O210457   2.456   2.283  10.866 -0.1469  0.0355 -0.5446
  704TMC3    C110458   0.088   0.053  12.452  0.3099 -0.1182  0.1839
  704TMC3    C210459   0.135   0.046  12.320  0.3457  0.7571  0.7605
  704TMC3    C310460   0.173   4.668  12.273 -0.6162  0.4293  0.5128
  704TMC3    C410461   0.064   4.675  12.522 -0.4544  0.0577 -0.2047
  704TMC3    C510462   0.103   4.554  12.468 -0.1528  0.0466  0.2364
  704TMC3    C610463   0.162   4.552  12.346 -0.4096 -0.7225 -0.1842
  704TMC3     C10464   0.010   0.174  12.489 -0.0161 -0.0030  0.5135
  704TMC3     O10465   4.684   0.164  12.590 -0.4878 -0.1262 -0.1025
  704TMC3     H10466   0.141   0.136  12.261  0.3775  0.9879  1.1179
  704TMC3    H110467   0.009   4.678  12.615 -1.4174 -1.5850 -0.7217
  704TMC3    H210468   0.191   4.453  12.314  0.6946 -0.6851  0.6950
  704TMC3    C710469   0.135   4.444  12.559 -0.4423 -0.7792  0.1805
  704TMC3    C810470   0.211   4.658  12.132  0.5523  0.7885 -0.5764
  704TMC3    O110471   0.180   4.340  12.509  0.7449 -0.1351  0.2817
  704TMC3    O210472   0.189   0.026  12.072  0.0505  0.3265  0.0846
  705MPD2     C10473   0.450   3.190  16.606 -0.0007  0.6393 -0.2840
  705MPD2    C110474   0.395   3.252  16.493 -0.3360 -0.1996 -0.8228
  705MPD2    C210475   0.269   3.304  16.498 -0.4000 -0.0828  0.1074
  705MPD2    C310476   0.203   3.319  16.617 -0.2153  0.2300  0.2565
  705MPD2    C410477   0.254   3.261  16.731  0.1109  0.2647 -0.0892
  705MPD2    C510478   0.378   3.195  16.721  0.6090 -0.5825 -0.3658
  705MPD2     H10479   0.209   3.327  16.411 -0.6288  1.3472  0.6347
  705MPD2    H110480   0.216   3.269  16.832 -2.0871  0.9830 -0.9687
  705MPD2    H210481   0.549   3.145  16.607 -0.5506 -0.5616  0.5395
  705MPD2    H310482   0.416   3.150  16.812  3.3839  0.7312 -0.8758
  705MPD2     N10483   0.079   3.382  16.627 -0.1973 -0.8109 -0.0405
  705MPD2    H510484   0.040   3.374  16.721  1.5022 -0.4863  0.6868
  705MPD2    N110485   0.459   3.257  16.360 -0.0813  0.5200  0.2870
  705MPD2    H710486   0.410   3.306  16.287 -1.3905 -0.2120  0.6753
  706TMC3    C110487   0.623   3.087  15.968 -0.2579  0.0278  0.2698
  706TMC3    C210488   0.575   3.195  15.899  0.0587  0.3189  0.1948
  706TMC3    C310489   0.539   3.305  15.979 -0.9723  0.8881  0.2675
  706TMC3    C410490   0.647   3.088  16.104 -0.1398  1.1240 -0.1349
  706TMC3    C510491   0.593   3.195  16.178  0.1593 -0.2806  0.6368
  706TMC3    C610492   0.541   3.302  16.112  0.5762  0.6738  0.5179
  706TMC3     C10493   0.665   2.967  15.890  0.3493 -0.1509  0.0334
  706TMC3     O10494   0.722   2.876  15.954  0.0407 -0.3014  0.0641
  706TMC3     H10495   0.561   3.205  15.792  0.7076  0.2381  0.1020
  706TMC3    H110496   0.669   2.994  16.154  1.4115  1.8705  0.5875
  706TMC3    H210497   0.510   3.386  16.173  2.6260  1.5684  0.3063
  706TMC3    C710498   0.571   3.180  16.321  0.7078  0.4539 -0.6710
  706TMC3    C810499   0.485   3.423  15.904  0.6746 -0.2991  0.0792
  706TMC3    O110500   0.623   3.092  16.386  0.3438  0.8229 -0.2292
  706TMC3    O210501   0.450   3.394  15.792  0.5724 -0.4415 -0.5623
  707TMC3    C110502   3.356   0.189   1.934 -0.1038  0.0848  0.5068
  707TMC3    C210503   3.277   0.226   2.036 -0.2759  0.0005  0.3255
  707TMC3    C310504   3.266   0.136   2.138  0.5223 -0.1633  0.2023
  707TMC3    C410505   3.449   0.088   1.939 -0.3557  0.1849  0.3347
  707TMC3    C510506   3.444   0.005   2.047  0.4281  0.4888 -0.8816
  707TMC3    C610507   3.356   0.028   2.148 -0.4881 -0.4515  0.0669
  707TMC3     C10508   3.348   0.268   1.814 -0.6788 -0.0463 -0.0455
  707TMC3     O10509   3.292   0.374   1.829  0.7122 -0.2416  0.0531
  707TMC3     H10510   3.200   0.300   2.016  1.6976  2.6247  2.6269
  707TMC3    H110511   3.532   0.078   1.870  0.9271 -1.9550  2.1972
  707TMC3    H210512   3.330   4.682   2.214 -0.2379 -0.1530  0.5408
  707TMC3    C710513   3.530   4.626   2.051  0.3370 -0.1646  0.0606
  707TMC3    C810514   3.264   0.208   2.258  0.6014  0.2804  0.4676
  707TMC3    O110515   3.582   4.586   1.950 -0.1948  0.2689 -0.1251
  707TMC3    O210516   3.284   0.137   2.359 -0.0970 -0.1934  0.1555
  708MPD2     C10517   2.809   1.591  14.016  0.0059  0.5067  0.3891
  708MPD2    C110518   2.759   1.509  14.123  0.2112 -0.3446  0.1771
  708MPD2    C210519   2.761   1.374  14.111  0.1526  0.5470  0.1175
  708MPD2    C310520   2.815   1.308  14.004  0.1108  0.0589  0.2056
  708MPD2    C410521   2.880   1.386  13.907  0.1536  0.6732  0.0632
  708MPD2    C510522   2.869   1.526  13.914  0.0106  0.6719  0.4156
  708MPD2     H10523   2.731   1.325  14.203 -0.7138  0.7817 -0.0371
  708MPD2    H110524   2.951   1.345  13.837 -0.5357 -0.3509 -0.0383
  708MPD2    H210525   2.821   1.699  14.012  0.6826  0.3248 -2.6049
  708MPD2    H310526   2.927   1.582  13.842  1.3718 -2.3863 -0.8361
  708MPD2     N10527   2.823   1.171  13.988 -0.1736 -0.1660  0.0817
  708MPD2    H510528   2.889   1.142  13.917 -1.5315 -0.5166 -1.0430
  708MPD2    N110529   2.732   1.557  14.251 -0.6477 -0.4313 -0.0844
  708MPD2    H710530   2.703   1.492  14.324  0.8572  0.7106  1.5209
  709TMC3    C110531   2.676   1.719  14.413  0.3974 -0.1360  0.6495
  709TMC3    C210532   2.579   1.806  14.379 -0.3699 -0.5065  0.7534
  709TMC3    C310533   2.466   1.744  14.339 -0.0454 -0.1374 -0.3716
  709TMC3    C410534   2.651   1.613  14.493 -0.0274  1.4903  0.7654
  709TMC3    C510535   2.525   1.570  14.486  0.2632  0.7600  0.2813
  709TMC3    C610536   2.433   1.620  14.397  0.1393  0.5096  0.0204
  709TMC3     C10537   2.747   1.686  14.290 -0.4389 -0.0978 -0.9186
  709TMC3     O10538   2.766   1.789  14.227  0.0436 -0.1199 -1.1187
  709TMC3     H10539   2.609   1.902  14.340 -0.1920 -1.2737 -0.9916
  709TMC3    H110540   2.722   1.571  14.564 -0.6910 -0.9817 -0.0304
  709TMC3    H210541   2.338   1.579  14.365  0.9866  0.2007 -2.1404
  709TMC3    C710542   2.517   1.432  14.521  0.5220 -0.9211  0.2556
  709TMC3    C810543   2.413   1.783  14.208  0.3117  0.0478 -0.0729
  709TMC3    O110544   2.467   1.368  14.429 -0.1131 -0.2994 -0.4203
  709TMC3    O210545   2.298   1.745  14.176  0.0729  0.5080  0.1293
  710TMC3    C110546   0.094   2.602   0.406  0.1342  0.3103 -0.6660
  710TMC3    C210547   0.165   2.535   0.300  0.4421 -0.1643 -0.4265
  710TMC3    C310548   0.222   2.412   0.331 -0.3407 -0.3623 -0.6576
  710TMC3    C410549   0.082   2.549   0.533  0.7036  0.2562  0.4710
  710TMC3    C510550   0.155   2.431   0.556 -0.2396  0.5580 -0.4625
  710TMC3    C610551   0.228   2.363   0.457 -0.2329 -0.2142  0.4181
  710TMC3     C10552   4.714   2.671   0.353  0.0534 -0.4862 -0.0056
  710TMC3     O10553   4.675   2.643   0.242 -0.2396 -0.2795  0.1808
  710TMC3     H10554   0.154   2.568   0.198  1.6078 -2.7733 -1.3994
  710TMC3    H110555   0.015   2.587   0.610 -1.0573 -0.4401 -0.7109
  710TMC3    H210556   0.290   2.276   0.476 -2.7468 -1.4443  2.9747
  710TMC3    C710557   0.177   2.399   0.699  0.4988 -0.3813  0.3331
  710TMC3    C810558   0.257   2.324   0.224 -0.4261  0.3605  0.1978
  710TMC3    O110559   0.195   2.492   0.778  0.1065  0.5492  0.3463
  710TMC3    O210560   0.249   2.362   0.107 -0.3334  0.6302 -0.2761
  711TMC3    C110561   3.655   3.879  14.888  0.0251 -0.3020  0.5831
  711TMC3    C210562   3.667   3.901  15.019 -0.1712 -0.3869 -0.0489
  711TMC3    C310563   3.779   3.964  15.064 -0.3157  0.2976 -0.3752
  711TMC3    C410564   3.749   3.922  14.798  0.1472 -0.4290  0.2479
  711TMC3    C510565   3.858   3.992  14.841  0.5723  0.2293  0.6424
  711TMC3    C610566   3.864   4.009  14.974 -0.1974  0.2436 -0.0968
  711TMC3     C10567   3.618   3.741  14.857 -0.5833  0.4143  0.4919
  711TMC3     O10568   3.593   3.709  14.744 -0.2896  0.6499 -0.3558
  711TMC3     H10569   3.597   3.863  15.092 -1.1059 -1.7225 -1.6548
  711TMC3    H110570   3.725   3.909  14.693  0.1391 -0.9914  0.3185
  711TMC3    H210571   3.952   4.060  15.013 -1.0172  0.4318  1.5122
  711TMC3    C710572   3.985   3.948  14.796 -0.5638 -0.2941  0.7069
  711TMC3    C810573   3.846   3.884  15.168  0.6325 -0.0856 -0.6005
  711TMC3    O110574   4.082   3.990  14.846  0.4143 -0.1658  0.5161
  711TMC3    O210575   3.774   3.807  15.227 -0.6532  0.1855  0.5142
  712MPD2     C10576   0.991   0.048  13.805 -0.1346 -0.6147 -0.2434
  712MPD2    C110577   0.889   0.056  13.715  0.0686  1.1263  0.4493
  712MPD2    C210578   0.890   0.163  13.629 -0.3402 -0.5917  0.5495
  712MPD2    C310579   0.976   0.267  13.640 -0.2773 -0.3051 -0.4651
  712MPD2    C410580   1.072   0.269  13.745  0.3021 -0.1982  0.0537
  712MPD2    C510581   1.087   0.154  13.820  0.3652 -0.4175 -0.2878
  712MPD2     H10582   0.824   0.168  13.543  0.5121  0.8910 -0.0173
  712MPD2    H110583   1.141   0.352  13.756  1.9383 -1.1815 -2.8460
  712MPD2    H210584   0.999   4.703  13.875  1.3452 -0.7599 -0.5685
  712MPD2    H310585   1.151   0.165  13.907  0.9647  0.1356 -0.8032
  712MPD2     N10586   0.986   0.377  13.542 -0.3455 -0.1439 -0.3335
  712MPD2    H510587   1.077   0.423  13.542  0.6559 -2.1086 -0.2683
  712MPD2    N110588   0.787   4.699  13.694  0.2019 -0.7256  0.4698
  712MPD2    H710589   0.727   4.708  13.613  1.3127  1.6533 -0.1024
  713TMC3    C110590   0.943   0.514  13.352  0.0560  0.0796  0.1648
  713TMC3    C210591   1.077   0.522  13.324 -0.3782 -0.2287 -0.5972
  713TMC3    C310592   1.114   0.623  13.231 -0.7272  0.2569 -0.0591
  713TMC3    C410593   0.850   0.588  13.292 -0.0274 -0.2596  0.3689
  713TMC3    C510594   0.891   0.684  13.201 -1.0073 -0.0765 -0.7374
  713TMC3    C610595   1.023   0.706  13.172  1.2335  0.4060  0.0211
  713TMC3     C10596   0.898   0.413  13.436 -0.6675  0.4100  0.0033
  713TMC3     O10597   0.791   0.359  13.404 -0.1537 -0.2006 -0.3359
  713TMC3     H10598   1.147   0.450  13.365  1.0066  2.1743  1.2623
  713TMC3    H110599   0.752   0.597  13.337 -0.3517 -0.0949 -0.3711
  713TMC3    H210600   1.058   0.773  13.095 -0.7151  1.0385 -0.3119
  713TMC3    C710601   0.797   0.768  13.127  0.2497 -0.4682 -0.0287
  713TMC3    C810602   1.250   0.686  13.242  0.2107  0.2505 -1.1855
  713TMC3    O110603   0.845   0.820  13.027 -0.4033  0.4205  0.5532
  713TMC3    O210604   1.280   0.768  13.153  0.3792  0.1831 -0.7147
  714MPD2     C10605   3.351   2.928   0.781 -0.4389 -0.6039  0.0542
  714MPD2    C110606   3.362   3.010   0.886 -0.1660  0.3475  0.0846
  714MPD2    C210607   3.248   3.080   0.921 -0.0255 -0.0929  0.5372
  714MPD2    C310608   3.137   3.075   0.844  0.2553  0.2027  0.2076
  714MPD2    C410609   3.130   2.994   0.732 -0.8711 -0.5729 -0.5631
  714MPD2    C510610   3.234   2.916   0.700 -0.0707 -0.0530  0.7700
  714MPD2     H10611   3.236   3.134   1.015  1.8688 -1.8862  1.7920
  714MPD2    H110612   3.038   2.999   0.674 -0.9548  1.5976 -0.2420
  714MPD2    H210613   3.443   2.881   0.751 -0.6961  0.1024 -1.8666
  714MPD2    H310614   3.227   2.854   0.611 -0.0372 -0.1555  0.8396
  714MPD2     N10615   3.033   3.163   0.878  0.1335  0.1945  0.1960
  714MPD2    H510616   3.032   3.201   0.972 -0.7471  0.6222  0.0159
  714MPD2    N110617   3.483   3.004   0.963 -0.3622 -0.0065  0.0754
  714MPD2    H710618   3.548   2.935   0.928  0.8938  1.6232 -0.7487
  715TMC3    C110619   3.647   3.084   1.105  0.2218  0.1060 -0.4826
  715TMC3    C210620   3.741   3.025   1.029 -0.1142 -0.3775  0.0700
  715TMC3    C310621   3.872   3.032   1.061 -0.0358 -0.5804 -0.0621
  715TMC3    C410622   3.686   3.154   1.216  0.9523  0.6719  0.5882
  715TMC3    C510623   3.815   3.160   1.251  0.5565 -0.2964  0.7291
  715TMC3    C610624   3.909   3.090   1.178 -0.2811 -0.3843  0.2394
  715TMC3     C10625   3.507   3.086   1.070  0.9962 -0.7648  0.0956
  715TMC3     O10626   3.433   3.166   1.126 -0.5999  0.2501 -0.1127
  715TMC3     H10627   3.709   2.982   0.934 -1.7893  0.4788  0.2421
  715TMC3    H110628   3.614   3.207   1.277  0.3194 -2.1919  2.3241
  715TMC3    H210629   4.006   3.083   1.226 -0.3669  1.8101  0.7117
  715TMC3    C710630   3.868   3.246   1.356 -0.1143  0.1519 -0.2827
  715TMC3    C810631   3.969   2.968   0.979  0.6015 -0.0712  0.3405
  715TMC3    O110632   3.989   3.241   1.376 -0.3340  0.0521 -0.2553
  715TMC3    O210633   3.934   2.920   0.872 -0.4426  0.3101  0.5403
  716MPD2     C10634   2.955   2.306   9.874  0.0126 -0.0375  0.5920
  716MPD2    C110635   2.861   2.306   9.771  0.1700  0.5278 -0.0479
  716MPD2    C210636   2.856   2.195   9.685  0.3695 -0.0598  0.6268
  716MPD2    C310637   2.944   2.092   9.690 -0.5888  0.7455  0.8586
  716MPD2    C410638   3.049   2.113   9.772 -0.0368 -0.1872 -0.3286
  716MPD2    C510639   3.053   2.214   9.866 -0.4381 -0.9311  0.1457
  716MPD2     H10640   2.773   2.188   9.616 -2.0283  2.1263  3.2902
  716MPD2    H110641   3.135   2.047   9.774  0.0147 -0.1523 -1.4614
  716MPD2    H210642   2.960   2.379   9.954  1.0365 -0.3172  0.7785
  716MPD2    H310643   3.140   2.228   9.930  0.4417 -1.0983 -1.0129
  716MPD2     N10644   2.925   1.980   9.611  0.3614  0.1408  0.3834
  716MPD2    H510645   2.864   1.991   9.531  1.4795  1.7176 -0.2572
  716MPD2    N110646   2.755   2.397   9.757  0.0715  0.8396 -0.2969
  716MPD2    H710647   2.675   2.369   9.702 -0.4175  2.9960 -0.6870
  717TMC3    C110648   2.972   1.761   9.528 -0.0763  0.0526 -0.2446
  717TMC3    C210649   2.840   1.737   9.500  0.5026  0.6606  0.0987
  717TMC3    C310650   2.812   1.625   9.429 -0.2514  0.0991 -0.1111
  717TMC3    C410651   3.068   1.675   9.491 -0.0817 -0.9137  0.3789
  717TMC3    C510652   3.032   1.562   9.424 -0.2319 -0.0108  0.1177
  717TMC3    C610653   2.903   1.529   9.395 -0.3236 -0.2496 -0.1886
  717TMC3     C10654   3.006   1.867   9.618 -1.1283 -0.2328 -0.0917
  717TMC3     O10655   3.081   1.828   9.705 -0.2586 -0.2227  0.1237
  717TMC3     H10656   2.764   1.813   9.512  0.3579  0.7223 -1.1441
  717TMC3    H110657   3.169   1.712   9.503 -0.1646  0.0574 -1.8879
  717TMC3    H210658   2.875   1.431   9.359  0.5979 -1.5647  2.6105
  717TMC3    C710659   3.124   1.451   9.426  0.3159  0.4558 -0.0973
  717TMC3    C810660   2.685   1.616   9.367 -0.1291 -0.4077 -0.1851
  717TMC3    O110661   3.092   1.350   9.372  0.1359  0.6588  0.5278
  717TMC3    O210662   2.635   1.720   9.322  0.1405  0.1609 -0.1863
  718MPD2     C10663   2.215   0.109  13.535 -0.0105 -0.0037  0.2992
  718MPD2    C110664   2.311   0.040  13.462 -0.0833  0.4749 -0.0955
  718MPD2    C210665   2.260   4.662  13.395  0.0329  0.2761 -0.2451
  718MPD2    C310666   2.127   4.648  13.375 -0.6763 -0.1943 -0.6892
  718MPD2    C410667   2.035   4.713  13.463 -0.3086 -0.6245 -0.6230
  718MPD2    C510668   2.079   0.074  13.539 -0.2360  0.0022  0.0739
  718MPD2     H10669   2.322   4.590  13.342 -0.5165  1.4402 -2.4755
  718MPD2    H110670   1.929   4.693  13.462 -0.3969 -0.2630  2.7189
  718MPD2    H210671   2.248   0.196  13.592  0.8536 -0.1306 -0.0045
  718MPD2    H310672   2.007   0.118  13.607  2.6288  1.6000  2.0615
  718MPD2     N10673   2.087   4.568  13.264 -0.0380 -0.5187  0.1863
  718MPD2    H510674   2.154   4.511  13.213 -1.0013  0.4468 -2.1412
  718MPD2    N110675   2.447   0.080  13.456  0.0275  0.0519  0.8524
  718MPD2    H710676   2.474   0.161  13.511  1.3293 -0.1209  0.4676
  719TMC3    C110677   2.654   0.114  13.343  0.7229  0.1529 -0.5148
  719TMC3    C210678   2.731   0.054  13.247  0.5152 -0.1087  0.0893
  719TMC3    C310679   2.777   0.122  13.144  0.4745 -0.7184  0.0022
  719TMC3    C410680   2.627   0.249  13.336 -0.1022  0.6990  0.4646
  719TMC3    C510681   2.684   0.321  13.231  0.5397 -0.0269 -0.8794
  719TMC3    C610682   2.761   0.259  13.138  0.4995  0.0691  0.2578
  719TMC3     C10683   2.535   0.026  13.367  0.0301  0.8781 -0.1637
  719TMC3     O10684   2.523   4.657  13.300  0.1610  0.6094 -0.3676
  719TMC3     H10685   2.754   4.687  13.266 -0.4509 -0.4627 -0.7357
  719TMC3    H110686   2.570   0.292  13.417 -0.0234  0.2389  0.7673
  719TMC3    H210687   2.790   0.311  13.047 -0.7519  0.1343 -0.1097
  719TMC3    C710688   2.662   0.465  13.227  0.5018  0.1854 -0.2112
  719TMC3    C810689   2.742   0.067  13.016 -0.2520 -1.3082  0.1792
  719TMC3    O110690   2.626   0.506  13.333 -0.8333 -0.7066  0.1079
  719TMC3    O210691   2.778   0.117  12.910  0.1994  0.2069 -0.2620
  720MPD2     C10692   0.379   1.831  14.009  0.0433  0.8408  0.4082
  720MPD2    C110693   0.414   1.959  14.010 -0.0280 -0.8252 -1.0960
  720MPD2    C210694   0.525   1.997  14.083  0.0049  0.4923 -0.7662
  720MPD2    C310695   0.613   1.902  14.113 -0.2528  0.1030  0.1296
  720MPD2    C410696   0.581   1.766  14.114  0.5595  0.0476  0.6449
  720MPD2    C510697   0.461   1.735  14.059 -0.5821 -0.2869 -0.6227
  720MPD2     H10698   0.554   2.099  14.103  2.7144 -0.3009 -0.5953
  720MPD2    H110699   0.637   1.678  14.141 -1.6841 -1.4795  0.3223
  720MPD2    H210700   0.287   1.793  13.965 -0.1400  0.6144  0.9812
  720MPD2    H310701   0.426   1.635  14.036  1.1326 -1.1013  0.2828
  720MPD2     N10702   0.739   1.947  14.161 -0.2867 -0.7164 -0.3500
  720MPD2    H510703   0.768   2.041  14.134  0.1532 -0.0464  2.4251
  720MPD2    N110704   0.336   2.050  13.939 -0.3196 -0.0294  0.1330
  720MPD2    H710705   0.271   2.006  13.875 -0.8660  0.1598  0.5521
  721TMC3    C110706   0.947   1.938  14.262  0.7563 -0.4479  0.2554
  721TMC3    C210707   1.016   1.900  14.378  0.1363  0.1440  1.1340
  721TMC3    C310708   1.143   1.942  14.378 -0.6239  0.2959 -0.0142
  721TMC3    C410709   0.998   2.023  14.163 -0.1275  0.1902 -0.2240
  721TMC3    C510710   1.127   2.062  14.182  0.0196  0.1012  0.1845
  721TMC3    C610711   1.199   2.025  14.291  0.0881  0.2037 -0.7259
  721TMC3     C10712   0.822   1.877  14.240 -0.0238  0.7345 -0.2284
  721TMC3     O10713   0.795   1.767  14.290  0.0875 -0.0269  0.7601
  721TMC3     H10714   0.973   1.826  14.444 -1.3602 -0.7218 -0.7813
  721TMC3    H110715   0.949   2.043  14.069  0.0154 -0.8644 -0.5303
  721TMC3    H210716   1.305   2.044  14.295 -0.0484  0.5134  1.2777
  721TMC3    C710717   1.190   2.115  14.061 -0.1946 -0.8402 -0.4407
  721TMC3    C810718   1.216   1.897  14.490  0.1889 -0.6774  0.2399
  721TMC3    O110719   1.140   2.078  13.953 -0.3737  0.2689  0.1650
  721TMC3    O210720   1.339   1.890  14.478 -0.2461  0.1166 -0.1676
  722MPD2     C10721   4.246   0.708  13.306 -0.4453  0.4051  0.4399
  722MPD2    C110722   4.258   0.838  13.271  0.4209  0.4103  0.3380
  722MPD2    C210723   4.176   0.890  13.172 -0.0370 -0.6996 -0.2661
  722MPD2    C310724   4.081   0.809  13.109  0.1097 -0.0040 -0.2258
  722MPD2    C410725   4.064   0.682  13.152 -0.6471 -0.3411  0.5705
  722MPD2    C510726   4.145   0.633  13.249 -0.6575  0.1672  0.2886
  722MPD2     H10727   4.199   0.987  13.129 -1.9481  0.2402  0.8381
  722MPD2    H110728   3.987   0.621  13.107  0.3274 -0.4870 -0.8996
  722MPD2    H210729   4.305   0.666  13.387 -0.1385 -0.2731 -0.1278
  722MPD2    H310730   4.128   0.531  13.282  0.6199 -0.6478 -1.5971
  722MPD2     N10731   4.012   0.868  13.000 -0.2835  0.1360 -0.2254
  722MPD2    H510732   4.034   0.967  12.988 -0.2640 -0.3084 -3.9861
  722MPD2    N110733   4.362   0.918  13.319  0.2147  0.5150  0.4321
  722MPD2    H710734   4.369   1.013  13.284 -1.7633  0.6291  0.3580
  723TMC3    C110735   3.891   0.896  12.808 -0.7476  0.9972 -0.9872
  723TMC3    C210736   3.812   0.837  12.715  0.3972 -0.0676  0.1734
  723TMC3    C310737   3.788   0.912  12.603  0.6442 -0.1579  0.0099
  723TMC3    C410738   3.953   1.018  12.786  0.6790  0.3168  0.3675
  723TMC3    C510739   3.939   1.069  12.661  0.0156 -0.2093 -0.1449
  723TMC3    C610740   3.863   1.014  12.561  0.0194  0.5681 -0.3274
  723TMC3     C10741   3.922   0.811  12.916  0.2026  0.3896 -0.2934
  723TMC3     O10742   3.859   0.708  12.934 -0.4514  0.1240 -0.3827
  723TMC3     H10743   3.749   0.755  12.746  0.4523 -1.0575 -2.3542
  723TMC3    H110744   4.008   1.062  12.869  0.1273  0.3645  0.7057
  723TMC3    H210745   3.837   1.074  12.474  0.6877  2.7608  0.9712
  723TMC3    C710746   3.983   1.211  12.651 -0.0782  0.4574  0.9179
  723TMC3    C810747   3.678   0.886  12.523  0.4446 -0.7529 -0.2235
  723TMC3    O110748   3.972   1.264  12.542 -0.0602  0.0978  0.4497
  723TMC3    O210749   3.628   0.981  12.467 -0.0281 -0.6601  0.3891
  724TMC3    C110750   0.343   3.786  10.984 -0.5488  0.4574  0.4693
  724TMC3    C210751   0.347   3.767  10.849 -0.1339  0.0855  0.0769
  724TMC3    C310752   0.279   3.870  10.783  0.1844 -0.5527  0.4515
  724TMC3    C410753   0.266   3.876  11.056 -0.4232 -0.0094  0.8318
  724TMC3    C510754   0.181   3.953  10.980  0.4542 -0.8101  0.3359
  724TMC3    C610755   0.186   3.953  10.846  1.3016  0.1948 -0.6668
  724TMC3     C10756   0.414   3.684  11.063  0.9477 -0.6659 -0.5291
  724TMC3     O10757   0.418   3.706  11.181 -0.0014 -0.1287 -0.1539
  724TMC3     H10758   0.433   3.721  10.801  1.0756  0.8840  1.4806
  724TMC3    H110759   0.273   3.889  11.163  1.3592 -0.8536  0.8195
  724TMC3    H210760   0.114   4.015  10.793  0.2371  0.2318  0.8138
  724TMC3    C710761   0.125   4.076  11.031 -0.7234 -1.0694  0.0027
  724TMC3    C810762   0.335   3.916  10.659 -0.5009  0.5917 -0.3192
  724TMC3    O110763   0.134   4.166  10.949 -0.1379  0.4520 -0.6089
  724TMC3    O210764   0.385   3.829  10.588  0.3491  0.1080 -0.2418
  725TMC3    C110765   1.699   2.577  12.873 -0.0159  0.7815 -0.0150
  725TMC3    C210766   1.569   2.590  12.838  0.6753  0.0920 -0.3396
  725TMC3    C310767   1.508   2.482  12.778 -0.1368  0.2173 -0.4495
  725TMC3    C410768   1.779   2.473  12.834 -0.4551 -0.1462 -0.4534
  725TMC3    C510769   1.710   2.377  12.766  0.3612  0.0679  0.3443
  725TMC3    C610770   1.578   2.373  12.747 -0.3342  0.2837  0.7464
  725TMC3     C10771   1.752   2.691  12.940  0.9516  0.0018 -0.3920
  725TMC3     O10772   1.679   2.788  12.947 -0.6724  0.2496 -0.1961
  725TMC3     H10773   1.506   2.668  12.879  0.1782 -0.7074  0.4185
  725TMC3    H110774   1.887   2.483  12.827 -0.6947  0.6741 -2.8598
  725TMC3    H210775   1.535   2.302  12.678  1.5715  0.1173 -0.2777
  725TMC3    C710776   1.796   2.293  12.690 -0.1473  0.2641 -0.1929
  725TMC3    C810777   1.378   2.505  12.729  0.9057 -0.5306  0.0024
  725TMC3    O110778   1.909   2.332  12.658 -0.0736 -0.2912  0.2258
  725TMC3    O210779   1.308   2.412  12.699 -0.4981  0.1589  0.4869
  726MPD2     C10780   3.923   3.936   9.931 -0.1685  0.4494  0.6315
  726MPD2    C110781   3.934   4.049  10.017  0.2252 -0.3104 -0.0524
  726MPD2    C210782   3.965   4.029  10.148 -0.6042  0.2294 -0.4265
  726MPD2    C310783   3.983   3.905  10.199  0.0865 -0.7161 -0.0506
  726MPD2    C410784   3.975   3.797  10.113  0.2954  0.5307  0.4449
  726MPD2    C510785   3.954   3.816   9.977  0.4927 -0.9387 -0.3058
  726MPD2     H10786   3.971   4.117  10.211 -0.1328  1.2656 -1.9225
  726MPD2    H110787   4.007   3.698  10.142  2.4707  1.3329  0.8031
  726MPD2    H210788   3.914   3.944   9.824  0.0397 -1.1963  0.4797
  726MPD2    H310789   3.953   3.744   9.896 -0.9590 -0.2068 -0.9347
  726MPD2     N10790   4.020   3.893  10.332  0.0112 -0.6287 -0.0691
  726MPD2    H510791   4.034   3.980  10.381  2.8796 -0.7504 -0.6647
  726MPD2    N110792   3.913   4.183   9.979 -0.1066 -0.2989  0.4319
  726MPD2    H710793   3.900   4.246  10.058 -0.3642 -2.3455  2.0243
  727TMC3    C110794   3.864   4.380   9.875  0.2416  1.2820 -0.2768
  727TMC3    C210795   3.925   4.451   9.976 -0.2269  1.6279  0.1424
  727TMC3    C310796   3.880   4.578   9.997  0.3939  0.3501 -0.7041
  727TMC3    C410797   3.770   4.438   9.791 -0.0459  0.0615  0.6136
  727TMC3    C510798   3.725   4.561   9.823 -1.1332  0.7664 -0.5457
  727TMC3    C610799   3.771   4.629   9.933 -0.2946 -0.1075 -0.4227
  727TMC3     C10800   3.872   4.233   9.863 -0.2268  0.0683  0.5713
  727TMC3     O10801   3.835   4.175   9.763  0.3622 -0.1824  0.0868
  727TMC3     H10802   4.007   4.414  10.037  1.5659 -1.1673 -3.9876
  727TMC3    H110803   3.718   4.379   9.717  0.0581  0.2673  0.3777
  727TMC3    H210804   3.714   4.718   9.960  1.9169  1.6562 -1.5233
  727TMC3    C710805   3.596   4.603   9.761  0.0987 -0.0296 -0.6433
  727TMC3    C810806   3.931   4.655  10.110  0.3054  0.0721  0.3816
  727TMC3    O110807   3.517   4.517   9.727 -0.1760  0.0180 -0.3731
  727TMC3    O210808   4.009   4.599  10.187  0.1385  0.1166  0.1137
  728TMC3    C110809   2.969   2.105  15.270  0.2889  0.4256  0.4371
  728TMC3    C210810   3.079   2.068  15.188  0.9339  0.0477  0.4775
  728TMC3    C310811   3.077   2.095  15.054  0.1991 -0.2433 -0.5940
  728TMC3    C410812   2.878   2.187  15.221  0.4298 -0.3750  0.5664
  728TMC3    C510813   2.881   2.219  15.088 -0.2961 -0.3601  0.9424
  728TMC3    C610814   2.979   2.182  15.003  0.3998 -0.0378 -0.7773
  728TMC3     C10815   2.976   2.077  15.415  0.6369 -0.0404 -0.3694
  728TMC3     O10816   3.090   2.050  15.448  0.1352  0.7040  0.3652
  728TMC3     H10817   3.157   2.004  15.226  0.4446 -1.7050 -1.4590
  728TMC3    H110818   2.808   2.240  15.284 -1.1192  0.4147 -1.7886
  728TMC3    H210819   2.973   2.198  14.896 -0.2536 -0.8446 -0.8678
  728TMC3    C710820   2.821   2.342  15.050 -0.0324 -0.3616 -0.2897
  728TMC3    C810821   3.196   2.068  14.964  0.7419  0.3052  0.3191
  728TMC3    O110822   2.703   2.345  15.081 -0.0696  0.7140  0.1132
  728TMC3    O210823   3.176   2.046  14.847  0.6588  0.0095  0.0242
  729MPD2     C10824   0.857   3.815  16.787  0.0705  0.0376 -0.2216
  729MPD2    C110825   0.974   3.757  16.839  0.2617  0.1709 -0.5287
  729MPD2    C210826   0.959   3.698  16.957  0.3508  0.0613  0.0016
  729MPD2    C310827   0.843   3.707  17.024 -0.1202 -0.2750 -0.2880
  729MPD2    C410828   0.730   3.759  16.974 -0.5087  0.2150 -0.2223
  729MPD2    C510829   0.737   3.812  16.848 -0.3895  0.0370  0.0982
  729MPD2     H10830   1.039   3.639  16.999  2.0082 -0.8128 -4.3366
  729MPD2    H110831   0.639   3.760  17.033  1.4848  1.1308  2.8312
  729MPD2    H210832   0.854   3.868  16.692 -1.5244  0.4852  0.0844
  729MPD2    H310833   0.650   3.855  16.802 -1.0120  0.9408  2.1300
  729MPD2     N10834   0.837   3.668  17.152 -0.5408  0.3576  0.6305
  729MPD2    H510835   0.757   3.711  17.198 -1.4502 -1.4978  0.8151
  729MPD2    N110836   1.097   3.765  16.761 -0.1357  0.3486  0.9605
  729MPD2    H710837   1.100   3.818  16.674 -0.1442  0.8854  1.2872
  730TMC3    C110838   0.922   3.627  17.364  0.8023  0.1869 -0.4686
  730TMC3    C210839   1.046   3.658  17.404  0.3820  0.3818  0.7875
  730TMC3    C310840   1.053   3.747  17.504  0.9686  0.5241 -0.1878
  730TMC3    C410841   0.811   3.694  17.411  0.2646  0.5311  0.5038
  730TMC3    C510842   0.828   3.786  17.504 -0.4442 -0.7996  0.1166
  730TMC3    C610843   0.946   3.809  17.558 -0.1918  0.5181  0.0739
  730TMC3     C10844   0.931   3.593  17.226 -0.7446 -0.2976 -0.9003
  730TMC3     O10845   1.010   3.509  17.189  0.1266 -0.1564  0.2165
  730TMC3     H10846   1.137   3.621  17.360 -0.5988  0.6724 -1.4811
  730TMC3    H110847   0.712   3.669  17.373 -0.0106  0.2867  1.3842
  730TMC3    H210848   0.965   3.891  17.626  2.1244  0.3707 -0.3846
  730TMC3    C710849   0.757   3.906  17.472 -0.2650 -1.1419 -0.2996
  730TMC3    C810850   1.182   3.806  17.535  0.8015 -0.6668 -0.3620
  730TMC3    O110851   0.699   3.901  17.363 -0.7941 -0.5720 -0.1986
  730TMC3    O210852   1.261   3.822  17.443 -0.2541  0.0748 -0.1008
  731MPD2     C10853   1.523   2.107  12.184  0.1908 -0.1580 -0.7919
  731MPD2    C110854   1.397   2.101  12.137  0.1616 -0.1280 -0.0554
  731MPD2    C210855   1.328   1.984  12.158  0.0123 -0.3331 -0.2452
  731MPD2    C310856   1.387   1.881  12.230  0.3247 -0.3375  0.6709
  731MPD2    C410857   1.501   1.906  12.305 -0.0030 -0.8703 -0.2085
  731MPD2    C510858   1.575   2.020  12.276 -0.1401 -0.3443  0.1102
  731MPD2     H10859   1.246   1.958  12.092  1.5054 -0.5718 -2.0091
  731MPD2    H110860   1.550   1.831  12.365 -0.0048 -1.8233 -1.3904
  731MPD2    H210861   1.594   2.185  12.160  1.9741 -2.1054 -1.8663
  731MPD2    H310862   1.673   2.044  12.317 -0.8297  0.7025  1.1453
  731MPD2     N10863   1.324   1.761  12.262  0.0904  0.1694  0.1155
  731MPD2    H510864   1.376   1.707  12.330 -0.2517 -0.4146 -0.0804
  731MPD2    N110865   1.362   2.198  12.045  0.2526  0.2946 -0.0029
  731MPD2    H710866   1.429   2.270  12.021 -0.2533 -0.2098 -2.9125
  732TMC3    C110867   1.238   2.340  11.900 -0.3273 -0.8362 -0.0102
  732TMC3    C210868   1.122   2.383  11.851 -0.0761  0.3973 -0.9016
  732TMC3    C310869   1.119   2.504  11.789  0.7835  0.1462 -0.0546
  732TMC3    C410870   1.360   2.396  11.863 -0.2011 -0.5518 -0.1878
  732TMC3    C510871   1.356   2.512  11.790 -0.4932 -0.8623  1.0887
  732TMC3    C610872   1.236   2.569  11.756 -0.6242  0.5304 -0.2413
  732TMC3     C10873   1.234   2.226  11.993  0.2659 -0.6576 -0.8854
  732TMC3     O10874   1.124   2.174  12.016  0.2295  0.0041 -0.3981
  732TMC3     H10875   1.031   2.327  11.874  0.3540 -0.1850 -0.6213
  732TMC3    H110876   1.458   2.350  11.877 -0.4827 -0.8274  0.8486
  732TMC3    H210877   1.235   2.674  11.727 -2.0942  0.3154 -0.9689
  732TMC3    C710878   1.481   2.565  11.739 -0.5584  1.5705 -0.3610
  732TMC3    C810879   0.996   2.581  11.792  0.5059  0.1198 -0.4923
  732TMC3    O110880   1.475   2.654  11.654 -0.3371  0.3055  0.3198
  732TMC3    O210881   1.003   2.706  11.784  0.1311  0.0062 -0.0047
  733TMC3    C110882   1.873   4.271  12.984 -0.1516  0.0241  0.1640
  733TMC3    C210883   1.864   4.368  13.082  0.5679  0.8698 -0.6099
  733TMC3    C310884   1.966   4.455  13.104  0.5639 -1.1640 -0.4847
  733TMC3    C410885   1.989   4.259  12.911  0.3132 -0.1966 -0.1826
  733TMC3    C510886   2.087   4.356  12.932  0.2025 -0.5837  0.5244
  733TMC3    C610887   2.082   4.452  13.030  0.5251  0.0394  0.3063
  733TMC3     C10888   1.753   4.205  12.935  0.1153  0.5431 -1.3223
  733TMC3     O10889   1.655   4.227  12.999  0.8454  0.1558  0.1780
  733TMC3     H10890   1.767   4.381  13.129 -0.4151  0.4903 -2.5278
  733TMC3    H110891   2.007   4.172  12.850  0.0742  0.1540 -0.7455
  733TMC3    H210892   2.158   4.530  13.031  1.1748 -0.5965  0.9302
  733TMC3    C710893   2.213   4.353  12.854 -0.2776 -0.4230 -0.0559
  733TMC3    C810894   1.958   4.531  13.226  0.0844  0.4544 -0.7681
  733TMC3    O110895   2.197   4.343  12.734  0.2831 -0.7580 -0.0260
  733TMC3    O210896   1.852   4.570  13.273  0.4090 -0.0831 -0.4078
  734MPD2     C10897   3.653   3.046  12.220  0.3861 -0.6263 -0.2716
  734MPD2    C110898   3.600   2.919  12.204  0.6819  0.6076 -0.4472
  734MPD2    C210899   3.597   2.856  12.081 -0.0811  0.6992  0.4350
  734MPD2    C310900   3.638   2.918  11.973  0.1608  0.0007 -0.7718
  734MPD2    C410901   3.680   3.052  11.980 -0.0992 -0.1893 -0.3240
  734MPD2    C510902   3.694   3.109  12.101  0.0764  0.1966 -0.0660
  734MPD2     H10903   3.554   2.758  12.067 -0.2510  0.6980  0.9440
  734MPD2    H110904   3.710   3.113  11.895 -0.9926  0.5478 -0.1081
  734MPD2    H210905   3.660   3.099  12.315  1.2425  0.6201 -1.0323
  734MPD2    H310906   3.745   3.205  12.103 -1.5367  1.0907 -1.0647
  734MPD2     N10907   3.628   2.847  11.854  0.8819  0.0691  0.4822
  734MPD2    H510908   3.577   2.761  11.874 -0.0353  0.5308  0.1415
  734MPD2    N110909   3.549   2.862  12.322  0.4407  0.1978  0.0342
  734MPD2    H710910   3.571   2.910  12.408 -0.3602  0.6549 -0.0126
  735TMC3    C110911   3.426   2.714  12.445  0.7416 -0.1415 -0.4068
  735TMC3    C210912   3.328   2.622  12.431  0.3748  0.3157 -1.1563
  735TMC3    C310913   3.365   2.492  12.449  0.5918  0.4170 -0.3740
  735TMC3    C410914   3.548   2.677  12.492  0.6451 -0.0344  0.1214
  735TMC3    C510915   3.587   2.551  12.481  0.0885  0.6500 -0.3020
  735TMC3    C610916   3.496   2.450  12.465 -0.1852 -0.0441 -0.3408
  735TMC3     C10917   3.447   2.774  12.315  0.2569  0.2200 -0.1034
  735TMC3     O10918   3.380   2.733  12.221 -0.2777  0.0792  0.0534
  735TMC3     H10919   3.231   2.644  12.388  0.6666  1.1884 -1.3743
  735TMC3    H110920   3.621   2.753  12.517 -0.3483  1.1990 -0.6767
  735TMC3    H210921   3.513   2.343  12.458 -0.7702 -0.1650  0.0906
  735TMC3    C710922   3.719   2.514  12.437  0.0727  0.4281 -0.3047
  735TMC3    C810923   3.295   2.403  12.361 -0.0852 -0.2304  0.1841
  735TMC3    O110924   3.782   2.606  12.382 -0.5172 -0.4885 -0.1650
  735TMC3    O210925   3.295   2.284  12.389 -0.2277 -0.5349  0.1458
  736MPD2     C10926   3.933   2.233  12.520  0.5988 -0.0364  0.0539
  736MPD2    C110927   3.896   2.343  12.448  0.5592  0.5830 -0.1084
  736MPD2    C210928   3.981   2.399  12.357 -0.1609 -0.7212 -0.2742
  736MPD2    C310929   4.110   2.348  12.336 -0.4120 -0.0673  0.2410
  736MPD2    C410930   4.147   2.239  12.407  0.2007 -0.5644 -0.7609
  736MPD2    C510931   4.056   2.180  12.491  0.2067  0.9757 -0.6044
  736MPD2     H10932   3.942   2.486  12.306  1.8663  0.2746 -0.1380
  736MPD2    H110933   4.252   2.213  12.397  1.1820  2.9768  0.3282
  736MPD2    H210934   3.873   2.197  12.602  1.6571 -0.0672  0.8075
  736MPD2    H310935   4.089   2.096  12.552 -0.6575  1.4924  0.5832
  736MPD2     N10936   4.198   2.396  12.231  0.3868 -1.0287  0.5083
  736MPD2    H510937   4.286   2.348  12.216  0.7870  0.3332 -1.4060
  736MPD2    N110938   3.765   2.392  12.475  0.0741  0.1468  0.8088
  736MPD2    H710939   3.711   2.333  12.537 -0.1731 -0.6492 -0.1733
  737TMC3    C110940   4.245   2.516  12.038  0.3267 -0.2497  0.2089
  737TMC3    C210941   4.189   2.606  11.944 -0.1458 -0.8614 -0.6718
  737TMC3    C310942   4.246   2.619  11.826  0.2405  0.4523  0.5396
  737TMC3    C410943   4.345   2.429  12.008 -0.3273 -0.2295 -0.2512
  737TMC3    C510944   4.385   2.426  11.875 -0.4650  0.2604 -0.3604
  737TMC3    C610945   4.345   2.530  11.784 -0.3531  0.7234 -0.1403
  737TMC3     C10946   4.173   2.514  12.163  0.1595 -0.0200  0.4538
  737TMC3     O10947   4.096   2.606  12.188  0.4907 -0.1942  0.1675
  737TMC3     H10948   4.112   2.677  11.973 -2.1311 -2.8407 -1.0917
  737TMC3    H110949   4.362   2.343  12.072  3.0284  0.8230  0.2517
  737TMC3    H210950   4.388   2.534  11.684  0.3924 -0.0041  0.1552
  737TMC3    C710951   4.457   2.308  11.818 -0.1528  0.1484 -0.3867
  737TMC3    C810952   4.173   2.701  11.732 -0.5835 -0.1789 -0.1658
  737TMC3    O110953   4.485   2.210  11.885 -0.7741 -0.1042  0.7013
  737TMC3    O210954   4.123   2.794  11.785 -0.7106  0.1748  0.3517
  738MPD2     C10955   4.158   1.099  15.483  0.1063  0.8453  0.3033
  738MPD2    C110956   4.162   1.038  15.359 -0.0118 -0.0097 -0.1137
  738MPD2    C210957   4.271   1.076  15.278 -0.0989  0.1468 -0.4972
  738MPD2    C310958   4.368   1.171  15.324  0.2517 -0.7761  0.1734
  738MPD2    C410959   4.361   1.207  15.454 -0.2005 -0.1261 -0.3849
  738MPD2    C510960   4.258   1.179  15.532  0.0842  0.2549  0.4505
  738MPD2     H10961   4.287   1.030  15.182  0.7213 -1.8096  0.5673
  738MPD2    H110962   4.439   1.275  15.488 -0.4906 -0.7287  1.5166
  738MPD2    H210963   4.084   1.072  15.557 -0.8653  0.2637 -0.8921
  738MPD2    H310964   4.254   1.224  15.631 -1.0475 -0.6702  0.8239
  738MPD2     N10965   4.485   1.201  15.254 -0.7206  0.4178  0.2765
  738MPD2    H510966   4.548   1.270  15.294 -2.3586  0.9323  1.9982
  738MPD2    N110967   4.061   0.951  15.310 -0.1210  0.5476  0.0233
  738MPD2    H710968   4.083   0.906  15.222 -2.7203  1.9070 -1.2967
  739TMC3    C110969   4.653   1.192  15.090 -0.0970 -0.3519  0.0575
  739TMC3    C210970   4.685   1.190  14.961 -0.3827  0.0095 -0.0826
  739TMC3    C310971   0.071   1.230  14.919 -0.6799 -0.1183  0.2872
  739TMC3    C410972   0.005   1.220  15.189 -0.0504  0.3505 -0.1672
  739TMC3    C510973   0.126   1.272  15.148 -0.9555 -0.6921 -0.7264
  739TMC3    C610974   0.158   1.277  15.013 -0.0053  0.2863 -0.9847
  739TMC3     C10975   4.519   1.159  15.129  0.1167 -0.6774 -0.0610
  739TMC3     O10976   4.460   1.086  15.047  0.6467 -0.5453  0.3642
  739TMC3     H10977   4.612   1.159  14.888  0.3948 -0.2748 -0.7352
  739TMC3    H110978   4.725   1.207  15.295  0.6179 -2.1336 -0.3596
  739TMC3    H210979   0.252   1.317  14.976 -0.8188  1.3990 -1.8216
  739TMC3    C710980   0.233   1.260  15.244  0.2145 -0.1108 -0.2674
  739TMC3    C810981   0.086   1.276  14.782 -0.6657 -0.5562  0.3456
  739TMC3    O110982   0.211   1.220  15.360  0.2790  0.0669 -0.0557
  739TMC3    O210983   4.721   1.282  14.714  0.1015  0.2145  0.1511
  740TMC3    C110984   0.504   2.407  14.351 -0.0030 -0.1108  0.0072
  740TMC3    C210985   0.585   2.353  14.445  0.2168 -0.1681 -0.3742
  740TMC3    C310986   0.706   2.309  14.409 -0.3766  0.1726 -0.5595
  740TMC3    C410987   0.544   2.415  14.223  0.2215 -0.3389 -0.3881
  740TMC3    C510988   0.662   2.362  14.180  0.1726 -0.0643  0.6460
  740TMC3    C610989   0.745   2.313  14.277  0.1551 -0.6776  0.2219
  740TMC3     C10990   0.375   2.450  14.394  0.2153 -0.9793  0.5122
  740TMC3     O10991   0.321   2.533  14.321 -0.2415 -0.3111  1.0798
  740TMC3     H10992   0.551   2.346  14.547 -0.3069  3.3121 -0.2993
  740TMC3    H110993   0.470   2.442  14.149  0.7776  1.1246 -0.4078
  740TMC3    H210994   0.844   2.277  14.255 -0.5568 -3.7012  1.8657
  740TMC3    C710995   0.698   2.340  14.050 -0.1528 -0.2128 -0.6771
  740TMC3    C810996   0.799   2.269  14.516  0.6788 -0.5016 -0.1659
  740TMC3    O110997   0.777   2.249  14.031  0.0169  0.5151 -0.1379
  740TMC3    O210998   0.889   2.197  14.474  0.4712  0.6292  0.0299
  741TMC3    C110999   4.652   1.864  13.997 -0.0795 -0.3613 -0.2207
  741TMC3    C211000   4.532   1.797  14.009 -0.7814  0.6894 -0.4818
  741TMC3    C311001   4.498   1.745  14.138 -0.0517 -0.2626  0.6192
  741TMC3    C411002   0.003   1.872  14.104 -0.0263 -0.3824  0.4075
  741TMC3    C511003   4.700   1.822  14.230 -0.5974 -0.0513  0.4951
  741TMC3    C611004   4.577   1.766  14.243  0.2437 -0.0301  0.2027
  741TMC3     C11005   4.706   1.906  13.867  0.3674 -0.1075  0.3311
  741TMC3     O11006   0.078   1.962  13.868  0.4972 -0.0661  0.3057
  741TMC3     H11007   4.467   1.773  13.926  1.2080 -1.7601 -1.3280
  741TMC3    H111008   0.102   1.915  14.091  0.3150 -1.8194 -1.7803
  741TMC3    H211009   4.553   1.712  14.334 -0.8563 -0.0420 -0.0971
  741TMC3    C711010   0.059   1.788  14.328 -0.3302 -0.0564 -0.1756
  741TMC3    C811011   4.377   1.664  14.153 -0.6511  0.4416 -0.3326
  741TMC3    O111012   0.034   1.692  14.401  0.3711  0.0763  0.0186
  741TMC3    O211013   4.314   1.646  14.050 -0.0732 -0.0898  0.0060
  742TMC3    C111014   4.678   0.500  15.086 -0.0818  0.1520 -0.3787
  742TMC3    C211015   4.596   0.416  15.021  0.2249 -0.3222  0.0896
  742TMC3    C311016   4.640   0.304  14.966  0.1100  0.2289 -0.6832
  742TMC3    C411017   0.069   0.466  15.119  0.6583 -0.0340 -0.0850
  742TMC3    C511018   0.121   0.352  15.061 -0.3750  0.1145 -0.1485
  742TMC3    C611019   0.038   0.272  14.982 -0.1244  0.1930  0.4821
  742TMC3     C11020   4.622   0.616  15.150  0.2774 -0.2950  0.3160
  742TMC3     O11021   4.501   0.617  15.153 -0.0199  0.5768 -0.3476
  742TMC3     H11022   4.499   0.448  14.985  0.5361 -0.6208 -0.9906
  742TMC3    H111023   0.126   0.520  15.193  1.3425 -0.3950 -0.3485
  742TMC3    H211024   0.080   0.181  14.940 -0.0753  1.1777 -1.6069
  742TMC3    C711025   0.255   0.301  15.092  0.2640  0.3150 -0.0047
  742TMC3    C811026   4.567   0.223  14.879  0.3288  0.4626 -0.6508
  742TMC3    O111027   0.288   0.203  15.021  0.2279  0.3371  0.1590
  742TMC3    O211028   4.632   0.166  14.794 -0.3686  0.3845 -0.1296
  743MPD2     C11029   3.750   1.318   2.572 -0.5318 -0.4706  0.0442
  743MPD2    C111030   3.768   1.329   2.440  0.0682  0.2312  0.2743
  743MPD2    C211031   3.845   1.441   2.394  0.0925  0.0204  0.4442
  743MPD2    C311032   3.891   1.537   2.476  0.3797 -0.2273  0.2334
  743MPD2    C411033   3.875   1.514   2.608 -0.1742 -0.0978 -0.0925
  743MPD2    C511034   3.807   1.409   2.662  0.7014  0.1886 -0.2366
  743MPD2     H11035   3.872   1.447   2.290 -0.0535  0.1241  0.4131
  743MPD2    H111036   3.899   1.585   2.687  0.3214 -1.0270  0.6034
  743MPD2    H211037   3.686   1.239   2.609 -0.7187  0.7391  2.2681
  743MPD2    H311038   3.780   1.397   2.766 -1.3519 -2.1008 -1.0512
  743MPD2     N11039   3.951   1.652   2.422  0.2905  0.6130  0.5473
  743MPD2    H511040   3.941   1.665   2.322  0.0910 -3.1853  0.0742
  743MPD2    N111041   3.724   1.229   2.353  0.1874  0.6960  0.0097
  743MPD2    H711042   3.660   1.159   2.389 -0.7363  0.9608 -1.1172
  744TMC3    C111043   3.720   1.093   2.155  0.2432  0.3507  0.3794
  744TMC3    C211044   3.642   0.990   2.205  0.5329  0.0608 -0.3841
  744TMC3    C311045   3.587   0.903   2.120 -0.0702  0.2587  0.1484
  744TMC3    C411046   3.727   1.125   2.017 -0.2929  0.4295 -0.3343
  744TMC3    C511047   3.677   1.032   1.930 -0.3984 -0.0995 -0.7818
  744TMC3    C611048   3.606   0.926   1.978 -0.5110 -0.1097 -1.0690
  744TMC3     C11049   3.780   1.205   2.229 -0.3023  0.4699 -0.3645
  744TMC3     O11050   3.872   1.261   2.169 -0.9888 -0.4966 -0.7911
  744TMC3     H11051   3.656   0.960   2.309  0.3947  1.9857  0.1897
  744TMC3    H111052   3.784   1.209   1.980 -1.0948  1.0993 -0.0395
  744TMC3    H211053   3.573   0.857   1.901 -1.7033 -0.7839  0.0518
  744TMC3    C711054   3.706   1.065   1.789  0.2891  0.2728  0.0888
  744TMC3    C811055   3.491   0.802   2.161  0.2200  0.4962 -0.2010
  744TMC3    O111056   3.742   1.181   1.763 -0.3730 -0.3037  0.3735
  744TMC3    O211057   3.426   0.752   2.070 -0.4643  0.0568  0.0569
  745TMC3    C111058   0.619   4.557  13.762  0.9456  0.2617  0.7123
  745TMC3    C211059   0.516   4.574  13.860  0.0666 -0.2732 -0.1950
  745TMC3    C311060   0.387   4.561  13.814 -0.4047 -0.3053 -0.0776
  745TMC3    C411061   0.598   4.525  13.636 -0.8786 -0.8137 -0.6215
  745TMC3    C511062   0.463   4.510  13.605  1.0060  0.6892 -0.6013
  745TMC3    C611063   0.357   4.538  13.685  0.5391 -0.6297 -0.6008
  745TMC3     C11064   0.744   4.615  13.791 -0.9249 -0.1246  0.2730
  745TMC3     O11065   0.764   4.625  13.912 -0.0451  0.2906  0.0508
  745TMC3     H11066   0.542   4.631  13.949 -1.8126 -1.6944  1.2489
  745TMC3    H111067   0.679   4.500  13.567 -0.4878  0.6159 -0.6761
  745TMC3    H211068   0.257   4.540  13.644  1.3408  0.0905 -2.5496
  745TMC3    C711069   0.427   4.521  13.462  0.5056 -0.1140 -0.6125
  745TMC3    C811070   0.264   4.581  13.900  0.3461  0.4630  0.1488
  745TMC3    O111071   0.330   4.590  13.431  0.4339  0.1147 -0.3413
  745TMC3    O211072   0.157   4.593  13.841 -0.3977 -0.3256  0.0175
  746TMC3    C111073   3.286   1.688  10.475  0.4371 -0.3071 -0.1608
  746TMC3    C211074   3.305   1.760  10.362 -0.0292  0.2778 -0.3909
  746TMC3    C311075   3.193   1.801  10.293  0.2161  0.5192 -0.5014
  746TMC3    C411076   3.158   1.648  10.510  0.0656  0.1052 -0.0311
  746TMC3    C511077   3.051   1.684  10.439 -0.1948  0.2139 -0.7161
  746TMC3    C611078   3.071   1.766  10.331  0.5918  0.2845  0.7891
  746TMC3     C11079   3.367   1.747  10.583 -0.4456 -0.3482  0.2985
  746TMC3     O11080   3.488   1.765  10.558 -0.0663  0.1871  0.2034
  746TMC3     H11081   3.403   1.791  10.328  0.4860 -1.8952 -0.9019
  746TMC3    H111082   3.145   1.602  10.607 -0.7468 -4.4143 -2.2762
  746TMC3    H211083   2.988   1.805  10.274 -0.0716  1.2323  2.4083
  746TMC3    C711084   2.917   1.637  10.470 -0.1132 -0.4723  0.2029
  746TMC3    C811085   3.214   1.940  10.263  0.0362 -0.1063  0.0933
  746TMC3    O111086   2.826   1.685  10.402 -0.3706  0.6708  0.1873
  746TMC3    O211087   3.325   1.977  10.229 -0.2970  0.3910  0.4843
  747TMC3    C111088   0.070   2.399  10.848 -0.2280 -0.3361  0.7763
  747TMC3    C211089   0.051   2.299  10.935  0.1376 -0.3919 -0.5433
  747TMC3    C311090   0.031   2.332  11.068 -0.2198 -0.3959  0.5798
  747TMC3    C411091   0.080   2.532  10.894  0.7356  0.0497  0.4757
  747TMC3    C511092   0.063   2.558  11.026  0.0542  0.1104  0.7414
  747TMC3    C611093   0.045   2.459  11.114 -0.0652  0.4014  0.0217
  747TMC3     C11094   0.046   2.377  10.703  0.7930  0.0254  0.1304
  747TMC3     O11095   0.057   2.478  10.633  0.0694 -0.3710  0.1258
  747TMC3     H11096   0.054   2.192  10.917 -0.3622 -0.8152  1.9961
  747TMC3    H111097   0.085   2.616  10.825 -1.0777 -0.3010 -0.0773
  747TMC3    H211098   0.026   2.487  11.217  0.1359  0.6694 -0.0140
  747TMC3    C711099   0.043   2.694  11.076 -0.1979  0.4631 -0.1237
  747TMC3    C811100   0.018   2.224  11.162 -0.0043 -0.1949 -0.1726
  747TMC3    O111101   4.704   2.717  11.170  1.0042  0.5526  0.0688
  747TMC3    O211102   0.079   2.121  11.139  0.5729 -0.2584  0.4306
  748MPD2     C11103   1.806   3.080   1.718  0.5625  0.3358 -0.3147
  748MPD2    C111104   1.890   2.994   1.777 -0.2513  0.1236 -0.9627
  748MPD2    C211105   2.006   2.954   1.707 -0.4493  0.4671 -0.3719
  748MPD2    C311106   2.044   3.018   1.591  0.1695  0.2974 -0.5517
  748MPD2    C411107   1.962   3.110   1.536 -0.0892 -0.9377 -0.4031
  748MPD2    C511108   1.844   3.139   1.602  0.3084  0.4158 -0.2203
  748MPD2     H11109   2.067   2.875   1.749  1.5041  1.3245 -1.6156
  748MPD2    H111110   1.990   3.165   1.446 -4.1701  0.2406 -0.9226
  748MPD2    H211111   1.717   3.120   1.767  0.6709 -0.7007  0.7239
  748MPD2    H311112   1.775   3.214   1.567  2.6571  2.4629 -0.4143
  748MPD2     N11113   2.169   2.979   1.542  0.4156  0.4224  0.0739
  748MPD2    H511114   2.213   2.902   1.592  0.5995 -0.2070 -1.0667
  748MPD2    N111115   1.850   2.932   1.896 -0.5310 -1.0417 -0.2917
  748MPD2    H711116   1.756   2.951   1.927 -0.2388  0.7711 -0.4733
  749TMC3    C111117   2.358   2.981   1.383  0.6281  0.0301 -0.5879
  749TMC3    C211118   2.447   2.930   1.474 -0.4451 -0.1687 -0.3269
  749TMC3    C311119   2.574   2.898   1.432 -1.4033  0.3133  0.0587
  749TMC3    C411120   2.397   3.004   1.252  0.2656 -0.3330  0.0284
  749TMC3    C511121   2.521   2.958   1.212 -0.0662 -0.1520 -0.1964
  749TMC3    C611122   2.611   2.926   1.304 -0.2628 -0.0716  0.1452
  749TMC3     C11123   2.225   3.024   1.421 -0.1325  0.0292 -0.6424
  749TMC3     O11124   2.167   3.096   1.340  0.0136 -0.0905  0.0071
  749TMC3     H11125   2.411   2.913   1.574 -1.6785 -1.0512 -0.9210
  749TMC3    H111126   2.321   3.022   1.177 -0.1123 -0.4693  0.3753
  749TMC3    H211127   2.710   2.903   1.266 -0.5166 -0.7055 -0.1351
  749TMC3    C711128   2.539   2.964   1.072  0.3823 -0.5981 -0.5995
  749TMC3    C811129   2.666   2.869   1.536 -0.3906 -0.1505  0.2599
  749TMC3    O111130   2.497   3.059   1.010 -0.2968 -0.0001 -0.0256
  749TMC3    O211131   2.629   2.876   1.654  0.0074  0.0977  0.1230
  750MPD2     C11132   2.899   4.394  11.675  0.3533 -0.1447  0.1481
  750MPD2    C111133   2.805   4.323  11.741 -0.1626  0.5050 -0.0609
  750MPD2    C211134   2.798   4.180  11.727 -0.6177  0.3772  0.3933
  750MPD2    C311135   2.887   4.119  11.640 -0.4084  0.0945 -0.1397
  750MPD2    C411136   2.986   4.192  11.576  0.0887  0.1414 -0.5126
  750MPD2    C511137   2.991   4.330  11.592  0.2324 -0.6249  0.1162
  750MPD2     H11138   2.720   4.124  11.777 -1.5898  0.2147 -1.2915
  750MPD2    H111139   3.065   4.137  11.526 -0.1152 -1.2447  0.6939
  750MPD2    H211140   2.907   4.502  11.670  2.4307 -0.2916  0.4420
  750MPD2    H311141   3.063   4.385  11.533 -1.5450  1.1488 -0.4111
  750MPD2     N11142   2.879   3.985  11.607  0.0076  0.4286 -0.8067
  750MPD2    H511143   2.936   3.951  11.529  0.9332 -1.0726  0.5302
  750MPD2    N111144   2.713   4.398  11.817 -0.3626 -0.6793 -0.3318
  750MPD2    H711145   2.710   4.500  11.812 -0.3628 -0.6507  0.2782
  751TMC3    C111146   2.791   3.763  11.598  0.6662 -0.4617 -0.0313
  751TMC3    C211147   2.718   3.670  11.670 -0.3177  0.3422 -0.2600
  751TMC3    C311148   2.713   3.546  11.612  0.4735 -0.8895  0.9087
  751TMC3    C411149   2.839   3.747  11.472  0.2023 -0.1773  0.1407
  751TMC3    C511150   2.836   3.622  11.420  0.3485 -0.0370  0.4190
  751TMC3    C611151   2.781   3.518  11.489 -0.0279  0.5643  0.1563
  751TMC3     C11152   2.790   3.898  11.663 -0.7472  0.1195 -0.1345
  751TMC3     O11153   2.744   3.906  11.773 -0.2906 -0.1690  0.2225
  751TMC3     H11154   2.678   3.699  11.766 -1.3970 -0.6915 -0.4111
  751TMC3    H111155   2.885   3.825  11.413  0.8761  0.2503  1.2196
  751TMC3    H211156   2.789   3.415  11.458 -2.8965 -0.0805  1.5877
  751TMC3    C711157   2.861   3.606  11.281  0.2848  0.1792  0.0809
  751TMC3    C811158   2.607   3.456  11.644  0.0053  0.3959 -0.0578
  751TMC3    O111159   2.927   3.692  11.227  0.0152 -0.0164  0.2344
  751TMC3    O211160   2.589   3.365  11.569 -0.1408 -0.6849  0.5954
  752TMC3    C111161   1.628   3.612  17.613 -0.2615 -0.0994 -0.7840
  752TMC3    C211162   1.675   3.567  17.728  0.2201 -0.2819  0.1102
  752TMC3    C311163   1.596   3.479   0.052 -1.0395  0.1314  0.2895
  752TMC3    C411164   1.494   3.594  17.578  0.5464  0.1183  0.1381
  752TMC3    C511165   1.416   3.516  17.655 -0.0475  0.5452 -0.3029
  752TMC3    C611166   1.472   3.439   0.013 -0.1856  0.1342 -0.2922
  752TMC3     C11167   1.723   3.670  17.522 -0.2237 -0.6901  0.4509
  752TMC3     O11168   1.826   3.703  17.570 -0.6271  0.1667  0.0266
  752TMC3     H11169   1.781   3.573   0.002  0.1176 -2.3812  1.1980
  752TMC3    H111170   1.465   3.633  17.481  1.4710 -0.3640 -0.3354
  752TMC3    H211171   1.410   3.365   0.061  0.6659  0.7169  1.7010
  752TMC3    C711172   1.282   3.466  17.614  0.1518  0.2021 -0.0216
  752TMC3    C811173   1.652   3.391   0.149  0.1623 -0.2908 -0.4291
  752TMC3    O111174   1.262   3.470  17.497 -0.6530 -0.7509  0.0802
  752TMC3    O211175   1.608   3.276   0.151 -0.0249  0.2018  0.0154
  753TMC3    C111176   3.472   4.626  13.198  0.1622 -0.0680 -0.4645
  753TMC3    C211177   3.449   4.653  13.331 -0.0798 -0.1047 -0.0644
  753TMC3    C311178   3.407   4.547  13.409 -0.4567  0.5254 -0.0659
  753TMC3    C411179   3.432   4.509  13.137 -0.2083 -0.5534 -0.2636
  753TMC3    C511180   3.381   4.414  13.219  0.0696 -0.0966  0.1635
  753TMC3    C611181   3.364   4.425  13.350  0.4815  0.1995  0.2217
  753TMC3     C11182   3.527   4.729  13.112  0.2252 -0.0201 -0.7576
  753TMC3     O11183   3.550   4.683  13.004  0.4697 -0.2668 -0.0269
  753TMC3     H11184   3.470   0.015  13.370  0.7737 -0.2297 -0.2049
  753TMC3    H111185   3.447   4.497  13.030  1.4522 -1.2833  0.0461
  753TMC3    H211186   3.334   4.344  13.415  0.8245 -0.2516 -0.1854
  753TMC3    C711187   3.307   4.322  13.141 -0.0453 -0.4360 -0.0360
  753TMC3    C811188   3.365   4.568  13.544  0.3122  0.1807 -0.8003
  753TMC3    O111189   3.329   4.322  13.020  0.2239  0.0737  0.3480
  753TMC3    O211190   3.269   4.497  13.588 -0.6892  0.1720 -0.0895
  754MPD2     C11191   2.603   3.758  13.390  0.1444  0.3554 -0.2458
  754MPD2    C111192   2.595   3.634  13.327  0.5998 -0.0126 -0.2158
  754MPD2    C211193   2.475   3.598  13.260  0.7642  0.7303  0.3226
  754MPD2    C311194   2.366   3.688  13.265  0.2068  0.6146 -0.0233
  754MPD2    C411195   2.376   3.813  13.319 -0.3438 -0.0647  0.0896
  754MPD2    C511196   2.493   3.845  13.379  0.3395 -0.3643 -0.6203
  754MPD2     H11197   2.454   3.496  13.231  0.3786  0.7289  0.5952
  754MPD2    H111198   2.291   3.879  13.312 -1.6703 -1.3593  3.8417
  754MPD2    H211199   2.686   3.776  13.457  0.1918  0.6266 -0.3762
  754MPD2    H311200   2.501   3.944  13.424 -0.4095 -1.1365  1.2119
  754MPD2     N11201   2.242   3.649  13.207 -0.3232  0.8027  0.1255
  754MPD2    H511202   2.160   3.704  13.229 -0.9141  0.0373 -0.1789
  754MPD2    N111203   2.691   3.535  13.367  0.7067 -0.1208  0.6368
  754MPD2    H711204   2.772   3.565  13.420  1.6479 -1.4699 -0.0642
  755MPD2     C11205   1.600   4.098  13.424  0.4668  0.3044  0.3927
  755MPD2    C111206   1.580   3.976  13.481  0.1630 -0.2998  0.4399
  755MPD2    C211207   1.631   3.866  13.417 -0.3021 -0.4885  0.4518
  755MPD2    C311208   1.692   3.876  13.294  0.3132  0.9709  0.3871
  755MPD2    C411209   1.710   4.001  13.243 -0.2618 -0.4722  0.0722
  755MPD2    C511210   1.652   4.112  13.299 -0.6235 -0.4220  0.0678
  755MPD2     H11211   1.627   3.770  13.466  1.5421  0.0595  1.6795
  755MPD2    H111212   1.767   4.017  13.152  3.2893 -0.4097  2.3342
  755MPD2    H211213   1.581   4.193  13.472 -0.6298  0.4154 -0.2886
  755MPD2    H311214   1.660   4.211  13.255  2.7563  0.7841  3.3144
  755MPD2     N11215   1.770   3.770  13.233 -1.0099  0.0954 -0.2858
  755MPD2    H511216   1.817   3.801  13.149  0.4708  1.5205  1.0712
  755MPD2    N111217   1.535   3.968  13.612 -0.2745 -0.1387  0.3835
  755MPD2    H711218   1.546   3.880  13.661 -0.4022 -0.2047  0.2950
  756MPD2     C11219   2.435   0.456   9.768 -0.2959  0.1228  0.3983
  756MPD2    C111220   2.369   0.342   9.816  1.2070  0.8274 -0.5770
  756MPD2    C211221   2.259   0.295   9.739  0.1231  0.0246  0.2918
  756MPD2    C311222   2.216   0.377   9.630  0.0906  0.9297  0.1065
  756MPD2    C411223   2.283   0.487   9.583  0.3144 -0.2187 -0.2740
  756MPD2    C511224   2.397   0.526   9.650  1.1984 -1.0696  0.0691
  756MPD2     H11225   2.207   0.204   9.767  0.5660 -1.3141 -3.3060
  756MPD2    H111226   2.247   0.550   9.503  3.8079  1.9224 -0.1683
  756MPD2    H211227   2.515   0.497   9.828 -0.6101  0.9369  0.2632
  756MPD2    H311228   2.446   0.618   9.621 -0.1687 -0.4723 -0.3270
  756MPD2     N11229   2.096   0.341   9.555  0.4849 -0.7032 -0.0629
  756MPD2    H511230   2.064   0.248   9.579  1.5188 -1.7746 -2.7051
  756MPD2    N111231   2.398   0.264   9.926 -0.0067  0.3096 -0.3870
  756MPD2    H711232   2.339   0.183   9.938  0.8166 -0.0692  1.0576
  757MPD2     C11233   1.917   4.225   9.424  0.3064 -0.3502 -0.1630
  757MPD2    C111234   1.974   4.298   9.527 -0.4327  0.6257 -0.0341
  757MPD2    C211235   1.965   4.438   9.526  0.7700  0.1355  0.0749
  757MPD2    C311236   1.894   4.502   9.422 -0.8661 -0.3733  0.1262
  757MPD2    C411237   1.854   4.423   9.317 -0.5783 -0.0895  0.3126
  757MPD2    C511238   1.851   4.287   9.327  0.3568 -0.2344 -0.0493
  757MPD2     H11239   2.000   4.495   9.611  0.4773  0.0649  0.2409
  757MPD2    H111240   1.822   4.474   9.227  0.4541  2.2004  1.2526
  757MPD2    H211241   1.911   4.117   9.438  0.0162 -0.5477 -1.7623
  757MPD2    H311242   1.800   4.231   9.249  2.2324 -1.8210 -0.1247
  757MPD2     N11243   1.876   4.642   9.424  0.0469 -0.4718 -0.1432
  757MPD2    H511244   1.929   4.699   9.490  0.0159  1.1993 -1.5584
  757MPD2    N111245   2.039   4.230   9.634  0.4278 -0.0060  0.4875
  757MPD2    H711246   2.027   4.129   9.634 -1.2373  0.1983 -2.8279
  758MPD2     C11247   2.389   2.823  16.163 -0.4611  0.1586 -0.4021
  758MPD2    C111248   2.428   2.740  16.266 -0.2513  0.2086 -0.5871
  758MPD2    C211249   2.438   2.797  16.393  0.4470 -0.1155 -0.4248
  758MPD2    C311250   2.410   2.931  16.417  0.5050  0.0337 -0.0280
  758MPD2    C411251   2.370   3.010  16.313 -0.1199  0.1856  0.2061
  758MPD2    C511252   2.359   2.954  16.190  0.7876  0.4880 -0.0846
  758MPD2     H11253   2.466   2.737  16.479 -0.4029 -0.9722 -0.7406
  758MPD2    H111254   2.341   3.113  16.328  0.7007  0.3169  0.9042
  758MPD2    H211255   2.386   2.783  16.063  0.0427  0.1191 -0.4033
  758MPD2    H311256   2.328   3.020  16.109 -0.6312 -1.1812 -0.8991
  758MPD2     N11257   2.435   2.995  16.540 -0.7026  0.2619  0.9814
  758MPD2    H511258   2.411   3.093  16.550  1.4420  0.8935 -0.0773
  758MPD2    N111259   2.454   2.605  16.247 -0.3730  0.0746 -0.5113
  758MPD2    H711260   2.447   2.564  16.155  0.7326 -0.8912 -0.1515
  759MPD2     C11261   0.936   2.164   9.902  0.3642 -0.4123 -0.1598
  759MPD2    C111262   0.991   2.123  10.024 -0.9553  0.8681  0.1243
  759MPD2    C211263   1.123   2.153  10.049 -0.3100 -0.7454  0.6073
  759MPD2    C311264   1.205   2.217   9.958 -0.5403 -0.1071  0.4666
  759MPD2    C411265   1.152   2.254   9.840 -0.3666 -0.3827 -0.0602
  759MPD2    C511266   1.020   2.231   9.817  0.0155 -0.2168 -0.5531
  759MPD2     H11267   1.166   2.110  10.139  0.2475 -0.5826  0.4241
  759MPD2    H111268   1.213   2.295   9.761 -1.1767  0.1549 -0.4085
  759MPD2    H211269   0.835   2.152   9.866 -0.9976  1.5285  2.9838
  759MPD2    H311270   0.987   2.271   9.722  2.1476  0.0587 -1.1802
  759MPD2     N11271   1.343   2.250   9.992  0.2271  0.4116 -0.4832
  759MPD2    H511272   1.368   2.206  10.080  0.3170 -3.1575 -2.2825
  759MPD2    N111273   0.909   2.060  10.127  0.4237  0.1617  0.1487
  759MPD2    H711274   0.963   2.029  10.208 -0.0132 -0.8682  0.0491
  760MPD2     C11275   0.832   3.887  11.990 -0.0168  0.1688 -0.0468
  760MPD2    C111276   0.929   3.822  11.917  0.0372  0.6007 -0.8434
  760MPD2    C211277   0.974   3.699  11.953  1.1360  0.8410  0.4590
  760MPD2    C311278   0.914   3.640  12.064  0.4046  0.3741 -0.4058
  760MPD2    C411279   0.827   3.708  12.131 -0.1248 -0.0399  0.0119
  760MPD2    C511280   0.784   3.831  12.102 -0.3800  0.7079  0.2539
  760MPD2     H11281   1.053   3.655  11.894  0.4472 -2.7763  2.1954
  760MPD2    H111282   0.769   3.652  12.203 -0.3659  0.9580  0.5983
  760MPD2    H211283   0.803   3.988  11.962  2.3523  0.7507 -0.4350
  760MPD2    H311284   0.718   3.891  12.163  0.4873  2.3728 -0.4422
  760MPD2     N11285   0.956   3.513  12.119 -0.1902 -0.0119  0.3956
  760MPD2    H511286   0.942   3.492  12.217  0.6068 -0.4781  0.4130
  760MPD2    N111287   0.994   3.884  11.804 -0.5242 -0.2140 -0.3158
  760MPD2    H711288   1.052   3.823  11.748 -1.3040  0.0615 -1.4308
  761MPD2     C11289   2.225   3.265  11.908  0.0809 -0.9465 -0.5958
  761MPD2    C111290   2.332   3.205  11.847  0.1126  0.3484 -0.4851
  761MPD2    C211291   2.428   3.288  11.788  1.0307 -0.6030  0.6962
  761MPD2    C311292   2.419   3.428  11.794 -0.2851  0.2057  0.5082
  761MPD2    C411293   2.310   3.482  11.859 -0.5197 -0.1368  0.7842
  761MPD2    C511294   2.224   3.400  11.919 -0.7469 -0.4900  0.2456
  761MPD2     H11295   2.519   3.242  11.751  0.6338 -1.8072  1.1819
  761MPD2    H111296   2.299   3.589  11.863 -2.5065 -0.3457  0.7509
  761MPD2    H211297   2.157   3.219  11.978 -0.5515 -0.4250 -0.8621
  761MPD2    H311298   2.142   3.438  11.979 -1.2284 -0.8706 -0.1739
  761MPD2     N11299   2.519   3.508  11.731  0.3556  0.5678  0.6510
  761MPD2    H511300   2.527   3.608  11.748  1.6980  0.4466  0.7583
  761MPD2    N111301   2.334   3.065  11.845  0.0689 -0.0209  0.3315
  761MPD2    H711302   2.251   3.020  11.881 -0.7078 -0.0182 -1.4472
  762MPD2     C11303   2.222   2.376  11.334  0.3198 -0.8118  0.1130
  762MPD2    C111304   2.326   2.465  11.350 -0.4457 -0.5509  0.3326
  762MPD2    C211305   2.418   2.486  11.248  0.0472 -0.3466  0.0141
  762MPD2    C311306   2.400   2.419  11.125 -0.6267 -0.8203 -0.1576
  762MPD2    C411307   2.300   2.323  11.113  0.0442 -0.6260 -0.5859
  762MPD2    C511308   2.213   2.301  11.218  0.6157  0.2053 -0.1134
  762MPD2     H11309   2.499   2.558  11.254 -0.7621  0.2652  3.3734
  762MPD2    H111310   2.276   2.267  11.024  2.2449  0.3858 -1.8117
  762MPD2    H211311   2.148   2.361  11.412 -1.7547  2.5434 -1.2099
  762MPD2    H311312   2.136   2.227  11.199  0.3349 -0.1217  2.2067
  762MPD2     N11313   2.488   2.453  11.026  0.2967  0.7150 -0.4343
  762MPD2    H511314   2.551   2.528  11.053  1.3755 -0.4184  0.2020
  762MPD2    N111315   2.333   2.519  11.477 -0.1406 -0.2140 -1.2343
  762MPD2    H711316   2.259   2.490  11.540 -0.2499  1.6904 -0.4941
  763MPD2     C11317   4.570   3.126  16.049 -0.2012  0.1085  0.3389
  763MPD2    C111318   4.432   3.103  16.075 -0.4518  0.5759  0.2981
  763MPD2    C211319   4.360   3.212  16.140 -0.4808 -0.0545 -0.0666
  763MPD2    C311320   4.428   3.327  16.169 -0.3248 -0.1633 -0.3191
  763MPD2    C411321   4.564   3.338  16.146  0.2604 -0.6505  0.9451
  763MPD2    C511322   4.638   3.242  16.092  0.5140  0.2936 -1.1639
  763MPD2     H11323   4.253   3.204  16.155 -0.1717 -2.1130  0.9946
  763MPD2    H111324   4.624   3.425  16.171 -0.2149  0.7827 -2.8920
  763MPD2    H211325   4.632   3.049  16.007  0.6442  0.0881  1.6182
  763MPD2    H311326   0.005   3.251  16.064  1.2113 -0.5749  1.1910
  763MPD2     N11327   4.367   3.447  16.211  0.3897 -0.4703  0.7144
  763MPD2    H511328   4.423   3.530  16.227 -0.6017 -0.6421  5.0248
  763MPD2    N111329   4.361   2.981  16.056  0.2077  0.1552  0.4772
  763MPD2    H711330   4.260   2.987  16.062  0.2689  0.1182  1.6122
  764MPD2     C11331   1.747   4.133   0.335 -0.0183  0.1322 -0.3865
  764MPD2    C111332   1.862   4.189   0.300 -0.2482 -0.0650 -0.1743
  764MPD2    C211333   1.952   4.221   0.405 -0.3856 -0.0950  0.3500
  764MPD2    C311334   1.918   4.210   0.540 -0.4682 -0.3296  0.6351
  764MPD2    C411335   1.793   4.161   0.568 -0.5900  0.3636  0.1024
  764MPD2    C511336   1.712   4.123   0.464  0.9172 -0.5321  1.0859
  764MPD2     H11337   2.038   4.282   0.379 -0.3441 -0.2678  0.0863
  764MPD2    H111338   1.757   4.138   0.668 -1.6130  0.9630 -0.1287
  764MPD2    H211339   1.672   4.110   0.260 -0.4074  0.3066 -0.0498
  764MPD2    H311340   1.627   4.060   0.486 -0.5620  1.7179  1.8786
  764MPD2     N11341   1.996   4.248   0.648  0.2680 -0.6788  0.0183
  764MPD2    H511342   1.936   4.240   0.730 -0.0417 -1.1625 -0.2614
  764MPD2    N111343   1.894   4.201   0.161 -0.4466  0.6254  0.4878
  764MPD2    H711344   1.991   4.219   0.138 -0.5510 -0.4745 -0.7596
  765MPD2     C11345   1.661   2.305  15.736 -0.1914 -0.1136 -0.0735
  765MPD2    C111346   1.685   2.385  15.848  0.5207 -0.6029  0.5425
  765MPD2    C211347   1.799   2.354  15.918  0.2302 -0.2804 -0.4702
  765MPD2    C311348   1.885   2.246  15.880 -0.2340 -0.1820  0.0210
  765MPD2    C411349   1.861   2.186  15.761  0.3460 -0.1688  0.4070
  765MPD2    C511350   1.746   2.217  15.689 -0.1837 -0.0233 -0.4400
  765MPD2     H11351   1.833   2.421  15.996  1.1118 -0.6757 -0.5081
  765MPD2    H111352   1.918   2.103  15.720  0.0696  0.2654 -0.8744
  765MPD2    H211353   1.576   2.331  15.674 -0.5610 -1.4392 -0.1107
  765MPD2    H311354   1.705   2.151  15.613  0.5156 -1.2451  0.2615
  765MPD2     N11355   2.004   2.234  15.955  0.4687 -1.0357  0.4880
  765MPD2    H511356   2.011   2.281  16.044  1.2654 -0.4442  0.1123
  765MPD2    N111357   1.601   2.497  15.883  0.1072 -0.3696  0.3845
  765MPD2    H711358   1.515   2.514  15.831  0.6077 -0.7649 -0.5695
  766MPD2     C11359   1.021   2.802  15.504  0.5338  0.7498  0.1241
  766MPD2    C111360   1.131   2.735  15.548  0.1682  0.0238 -0.1024
  766MPD2    C211361   1.203   2.663  15.459  0.3103  0.9131 -0.0037
  766MPD2    C311362   1.174   2.660  15.321  0.0048 -0.0383 -0.2227
  766MPD2    C411363   1.050   2.706  15.290  0.9127 -0.0680 -0.3343
  766MPD2    C511364   0.979   2.780  15.379 -0.6489 -0.0704  0.8567
  766MPD2     H11365   1.294   2.606  15.473  0.8142  2.1235  1.5453
  766MPD2    H111366   1.003   2.688  15.194  1.7063  0.2152 -0.7777
  766MPD2    H211367   0.958   2.862  15.569  0.8710 -0.0242  1.1595
  766MPD2    H311368   0.878   2.814  15.357 -0.5470  1.7749  3.1928
  766MPD2     N11369   1.256   2.605  15.218 -0.7321 -0.1103  0.7690
  766MPD2    H511370   1.222   2.622  15.124 -0.3671  0.2188  0.6977
  766MPD2    N111371   1.170   2.751  15.684  0.5054 -0.1708 -0.4543
  766MPD2    H711372   1.114   2.799  15.754  2.9542  0.9091  0.7550
  767MPD2     C11373   1.025   2.972  15.094  0.6150  0.6194 -0.2211
  767MPD2    C111374   1.152   2.930  15.054  0.0541 -0.1145 -0.5088
  767MPD2    C211375   1.157   2.861  14.933 -0.2219  0.1720 -0.6792
  767MPD2    C311376   1.048   2.807  14.873  0.2778 -0.7152  1.1438
  767MPD2    C411377   0.921   2.834  14.928 -0.1416 -0.5876 -0.4002
  767MPD2    C511378   0.911   2.924  15.036 -0.2229  0.1779 -1.0666
  767MPD2     H11379   1.254   2.831  14.894 -0.0422 -1.1443  0.7983
  767MPD2    H111380   0.833   2.788  14.886  1.0306 -2.9566 -0.2618
  767MPD2    H211381   1.022   3.040  15.178 -0.2285  1.6490 -1.0871
  767MPD2    H311382   0.811   2.940  15.075  0.0128  0.5589 -0.6255
  767MPD2     N11383   1.063   2.722  14.763  0.1042 -0.5462  0.0577
  767MPD2    H511384   1.159   2.693  14.748 -0.4514 -0.9251 -2.8399
  767MPD2    N111385   1.263   2.989  15.120 -0.5637  0.1669  0.1698
  767MPD2    H711386   1.238   3.062  15.185 -1.8542 -0.6451  0.5736
  768MPD2     C11387   1.779   1.150  10.954  0.0781  0.4142 -0.0524
  768MPD2    C111388   1.907   1.183  10.927  0.4537  0.5800 -0.1658
  768MPD2    C211389   1.999   1.150  11.025 -0.2037 -0.1510 -0.1753
  768MPD2    C311390   1.957   1.071  11.138  0.4664 -0.1821 -0.2013
  768MPD2    C411391   1.828   1.035  11.159 -0.1269 -0.3577 -0.3429
  768MPD2    C511392   1.741   1.082  11.065  0.1146  0.1999 -0.1644
  768MPD2     H11393   2.101   1.186  11.024 -0.0446 -0.6473 -1.2253
  768MPD2    H111394   1.794   0.970  11.238 -1.6338  0.4806 -0.2979
  768MPD2    H211395   1.696   1.194  10.900  0.5246 -0.0183 -1.0826
  768MPD2    H311396   1.636   1.058  11.073 -0.6867  3.3134 -1.0458
  768MPD2     N11397   2.046   1.050  11.254  0.2421  0.2785 -0.5543
  768MPD2    H511398   2.002   1.010  11.336 -0.4313  0.7022 -0.7064
  768MPD2    N111399   1.953   1.274  10.824  0.1319  0.3677  0.6302
  768MPD2    H711400   2.054   1.284  10.816 -0.0610  0.8577 -1.1590
  769MPD2     C11401   3.325   4.204  14.822 -0.1604  0.5343  0.4140
  769MPD2    C111402   3.302   4.075  14.874  0.0813 -0.2118  0.2107
  769MPD2    C211403   3.336   4.060  15.007  1.0177  0.5860  0.3329
  769MPD2    C311404   3.414   4.145  15.082 -0.5443  0.4072 -0.0958
  769MPD2    C411405   3.453   4.262  15.024 -0.7908 -0.1340 -0.1033
  769MPD2    C511406   3.404   4.294  14.897  0.7677  0.6055 -0.0933
  769MPD2     H11407   3.309   3.965  15.052 -0.5128  1.5617  1.4899
  769MPD2    H111408   3.509   4.333  15.085 -0.3831 -0.8482  0.3575
  769MPD2    H211409   3.297   4.234  14.721  1.1923  1.5682  0.3397
  769MPD2    H311410   3.430   4.389  14.852 -0.2116  1.7140  1.6714
  769MPD2     N11411   3.445   4.106  15.215  0.4197 -0.1823  0.2617
  769MPD2    H511412   3.381   4.037  15.254  0.0276  0.2666  0.4047
  769MPD2    N111413   3.231   3.979  14.801 -0.0593  0.1692 -0.3462
  769MPD2    H711414   3.189   4.005  14.712 -0.7485  0.6847  0.1299
  770MPD2     C11415   3.169   2.967  15.073  0.0579 -0.3172 -0.3086
  770MPD2    C111416   3.044   3.002  15.057  0.4911  0.2340 -0.1069
  770MPD2    C211417   3.013   3.125  14.997 -0.5098  0.0074  0.3149
  770MPD2    C311418   3.114   3.199  14.941 -0.2111 -0.1481 -0.1309
  770MPD2    C411419   3.249   3.166  14.958  0.0907 -0.4145 -0.1035
  770MPD2    C511420   3.274   3.045  15.022  0.0568 -0.2104 -0.2268
  770MPD2     H11421   2.911   3.160  14.989  0.2182  2.1242  0.2196
  770MPD2    H111422   3.328   3.232  14.924  1.1593 -0.4833  2.2645
  770MPD2    H211423   3.187   2.873  15.123  1.7288 -0.2788 -0.8367
  770MPD2    H311424   3.373   3.006  15.040  0.2245  0.5677  0.5527
  770MPD2     N11425   3.074   3.323  14.887  0.3319  0.1874 -0.6638
  770MPD2    H511426   2.978   3.353  14.894 -0.0613 -1.5455  1.2568
  770MPD2    N111427   2.952   2.919  15.112  0.4168  0.5333 -0.6118
  770MPD2    H711428   2.991   2.834  15.151  0.9453  1.6522  1.2828
  771MPD2     C11429   4.009   1.904  13.931 -0.0057  0.4762  0.1148
  771MPD2    C111430   3.952   2.015  13.873  0.0152  0.5494 -0.4604
  771MPD2    C211431   3.881   1.997  13.756 -0.5324  0.1310  0.6538
  771MPD2    C311432   3.861   1.881  13.691  0.4648  0.8296  0.2728
  771MPD2    C411433   3.927   1.769  13.745 -0.2608  0.2611 -0.7005
  771MPD2    C511434   3.999   1.781  13.864  0.6248 -0.3611  0.0537
  771MPD2     H11435   3.833   2.090  13.728 -0.7289 -0.2913 -0.3918
  771MPD2    H111436   3.940   1.673  13.698  1.6566  0.4524 -0.5613
  771MPD2    H211437   4.078   1.907  14.014  0.4322 -0.3751 -0.2170
  771MPD2    H311438   4.055   1.700  13.909 -2.2586 -1.9070  0.8716
  771MPD2     N11439   3.774   1.870  13.583  0.1915 -0.2469  0.1251
  771MPD2    H511440   3.710   1.948  13.578  2.8050  2.0162  1.6368
  771MPD2    N111441   3.965   2.145  13.929 -0.1227  0.0581  0.2762
  771MPD2    H711442   3.912   2.221  13.887  0.5088  0.6621  0.5664
  772MPD2     C11443   3.674   2.720  13.745  0.3858 -0.5909  0.1934
  772MPD2    C111444   3.647   2.652  13.866 -0.8033 -0.3145  0.7875
  772MPD2    C211445   3.516   2.638  13.910 -0.2526 -0.2847  0.5564
  772MPD2    C311446   3.413   2.698  13.833  0.2884  0.9138 -0.2711
  772MPD2    C411447   3.448   2.771  13.720 -0.2433  0.4933 -0.4278
  772MPD2    C511448   3.575   2.782  13.676 -0.0308 -0.1362  0.0503
  772MPD2     H11449   3.491   2.599  14.008 -0.9097 -0.5023  0.3016
  772MPD2    H111450   3.369   2.823  13.668 -0.9520 -0.0469  0.1114
  772MPD2    H211451   3.775   2.735  13.708  1.1751 -2.9988  1.4001
  772MPD2    H311452   3.590   2.842  13.588 -1.2070  0.9340  0.5752
  772MPD2     N11453   3.275   2.696  13.868  0.4524 -0.0602 -0.1470
  772MPD2    H511454   3.212   2.746  13.806  0.6029  0.3491  0.0268
  772MPD2    N111455   3.748   2.597  13.948  0.6118 -0.7810 -0.4739
  772MPD2    H711456   3.720   2.565  14.040 -0.4033  0.0533 -0.4947
  773MPD2     C11457   3.202   2.420   0.332  0.1701 -0.0662  0.6147
  773MPD2    C111458   3.268   2.523   0.275  0.3213  0.1267  0.4638
  773MPD2    C211459   3.404   2.535   0.284 -0.1140 -0.3342  0.2704
  773MPD2    C311460   3.474   2.445   0.357  0.1298  0.1561 -0.0810
  773MPD2    C411461   3.404   2.354   0.425  0.2243 -0.0997  0.0563
  773MPD2    C511462   3.272   2.336   0.405 -0.1169  0.4678 -0.8070
  773MPD2     H11463   3.452   2.620   0.237  1.1280 -1.1032  0.1500
  773MPD2    H111464   3.441   2.276   0.491 -1.3358  0.1789  1.2758
  773MPD2    H211465   3.098   2.399   0.308  0.2805  1.7789 -1.3812
  773MPD2    H311466   3.236   2.243   0.447  2.2358  0.4369  1.1098
  773MPD2     N11467   3.619   2.460   0.376  0.0779  0.6405  0.0036
  773MPD2    H511468   3.664   2.538   0.329 -0.5162 -0.1593 -1.9287
  773MPD2    N111469   3.195   2.617   0.194  0.0126  0.0107 -0.0596
  773MPD2    H711470   3.241   2.677   0.126 -1.7009 -0.0672 -1.2895
  774MPD2     C11471   2.308   2.574  13.496 -0.3636 -0.1699 -0.4503
  774MPD2    C111472   2.278   2.679  13.587 -0.9141  0.2056  0.2880
  774MPD2    C211473   2.344   2.799  13.583  0.2905  0.5149  0.0109
  774MPD2    C311474   2.443   2.823  13.493 -0.1901  0.3350  0.3974
  774MPD2    C411475   2.481   2.718  13.411 -0.0816 -0.1116  0.3950
  774MPD2    C511476   2.414   2.597  13.417  0.0021 -0.1328  0.6275
  774MPD2     H11477   2.312   2.880  13.648  0.5416  1.0089 -0.4879
  774MPD2    H111478   2.563   2.732  13.342  1.4258 -1.2474  1.9715
  774MPD2    H211479   2.260   2.477  13.497 -0.8716  0.1210  1.6565
  774MPD2    H311480   2.458   2.514  13.362  0.9879  0.7388  0.1093
  774MPD2     N11481   2.515   2.949  13.500 -0.1472  0.0202  0.8267
  774MPD2    H511482   2.495   3.018  13.571 -1.6468 -0.3093  0.7061
  774MPD2    N111483   2.166   2.660  13.672  0.6214  0.5052  0.3587
  774MPD2    H711484   2.113   2.575  13.654 -0.5383  0.9250  1.8398
  775MPD2     C11485   3.656   3.568  15.780 -1.2082 -0.0945  0.1505
  775MPD2    C111486   3.650   3.687  15.859  0.3900 -0.0947  0.4106
  775MPD2    C211487   3.699   3.808  15.811 -0.2924  0.1011 -0.0130
  775MPD2    C311488   3.754   3.809  15.682  0.9218 -0.1746 -0.0680
  775MPD2    C411489   3.745   3.703  15.602  0.6358 -0.6143  0.9350
  775MPD2    C511490   3.701   3.581  15.651  0.4398  0.2290 -0.3911
  775MPD2     H11491   3.694   3.899  15.870 -1.9510 -0.9974  1.5065
  775MPD2    H111492   3.782   3.712  15.500  0.7480  2.4348  1.2483
  775MPD2    H211493   3.623   3.469  15.811 -0.3088 -0.8872 -1.4007
  775MPD2    H311494   3.713   3.503  15.577  1.1202 -1.4758  1.5159
  775MPD2     N11495   3.809   3.930  15.626  0.3308 -0.7415 -0.5621
  775MPD2    H511496   3.828   3.930  15.526  0.9564  1.2025 -0.4460
  775MPD2    N111497   3.589   3.678  15.984 -0.0641 -0.7231  0.2992
  775MPD2    H711498   3.550   3.586  16.000 -0.8177 -0.5746 -0.6398
  776MPD2     C11499   1.920   4.620  11.604  0.5355  0.3387 -0.0390
  776MPD2    C111500   2.050   4.648  11.623 -0.0927  0.1954  0.2641
  776MPD2    C211501   2.106   0.001  11.537  0.5003 -0.2008  0.0795
  776MPD2    C311502   2.044   0.064  11.433 -0.7480 -0.7181 -0.0265
  776MPD2    C411503   1.906   0.040  11.432 -0.3655 -0.4090  0.8685
  776MPD2    C511504   1.844   4.682  11.507 -0.7289 -0.5901  0.0201
  776MPD2     H11505   2.208   0.020  11.566  0.9194 -2.2529 -0.0200
  776MPD2    H111506   1.836   0.093  11.368  1.6858  0.6126 -0.5205
  776MPD2    H211507   1.863   4.561  11.675  1.5303  1.2143  1.4795
  776MPD2    H311508   1.738   4.662  11.502 -1.1736  2.0663 -1.1160
  776MPD2     N11509   2.100   0.159  11.348  0.5748 -0.3628 -0.5446
  776MPD2    H511510   2.039   0.207  11.283  0.7644  0.5376 -0.0472
  776MPD2    N111511   2.124   4.587  11.725  0.6497 -0.0469  0.4125
  776MPD2    H711512   2.074   4.567  11.812  0.3362  0.7217  0.4063
  777MPD2     C11513   3.736   2.074   1.055  0.2854  0.1722  1.0611
  777MPD2    C111514   3.637   2.044   1.148 -0.0641  0.6983 -0.2773
  777MPD2    C211515   3.593   1.914   1.149  0.9034 -0.3276  0.1207
  777MPD2    C311516   3.652   1.816   1.072 -0.6448 -0.0620 -1.1628
  777MPD2    C411517   3.741   1.853   0.964 -0.2827 -0.0977 -0.1005
  777MPD2    C511518   3.784   1.981   0.966  0.1018 -0.9029 -0.6204
  777MPD2     H11519   3.528   1.883   1.230  0.4468 -1.2805 -0.6107
  777MPD2    H111520   3.781   1.782   0.892 -1.2005 -2.0216  1.2760
  777MPD2    H211521   3.762   2.179   1.047  0.0979  0.1808  0.5692
  777MPD2    H311522   3.857   2.014   0.893 -0.5178  3.0546  0.5181
  777MPD2     N11523   3.603   1.683   1.093 -0.4658  0.4817  0.3485
  777MPD2    H511524   3.563   1.660   1.183 -1.8300 -0.1482 -0.4218
  777MPD2    N111525   3.587   2.151   1.223  0.0628  0.3015 -0.0404
  777MPD2    H711526   3.635   2.239   1.212  1.2496 -0.4503 -0.8969
  778MPD2     C11527   3.914   1.641  15.227 -0.9206 -0.2587  0.1750
  778MPD2    C111528   3.846   1.647  15.106  0.2946 -0.5494  0.6403
  778MPD2    C211529   3.897   1.728  15.009 -0.5063 -0.7624 -0.6574
  778MPD2    C311530   4.021   1.782  15.024 -0.0532 -0.0562 -1.0684
  778MPD2    C411531   4.094   1.762  15.139  0.0941 -0.2578 -0.2574
  778MPD2    C511532   4.039   1.693  15.248  0.1786  0.2927  0.0845
  778MPD2     H11533   3.847   1.733  14.912 -0.5044 -0.3732 -0.6371
  778MPD2    H111534   4.190   1.810  15.157 -1.4760  1.9132  2.4095
  778MPD2    H211535   3.868   1.591  15.312 -1.2406 -0.9276 -0.3912
  778MPD2    H311536   4.086   1.681  15.344  0.2233  1.7348  0.2400
  778MPD2     N11537   4.071   1.852  14.911 -0.2758  0.1216 -0.0028
  778MPD2    H511538   4.015   1.837  14.828 -0.0519 -1.1264  0.0711
  778MPD2    N111539   3.734   1.579  15.075  0.5964 -0.1941 -0.1756
  778MPD2    H711540   3.708   1.572  14.977  0.4394  0.3259 -0.1720
  779MPD2     C11541   3.572   0.809  13.762 -0.0710  0.5184 -0.1014
  779MPD2    C111542   3.603   0.833  13.895 -0.6138 -0.6124  0.3737
  779MPD2    C211543   3.638   0.958  13.940 -0.4412  0.6178 -0.0924
  779MPD2    C311544   3.648   1.066  13.849  0.4804  0.0928  0.0217
  779MPD2    C411545   3.622   1.034  13.718  0.1039 -0.5614  0.5071
  779MPD2    C511546   3.597   0.908  13.673  0.3599 -0.0613 -0.8445
  779MPD2     H11547   3.654   0.982  14.044  0.0140 -0.3826  0.0627
  779MPD2    H111548   3.616   1.102  13.634 -1.3988 -1.5404 -0.1708
  779MPD2    H211549   3.551   0.713  13.716 -2.2227  0.7605  0.3735
  779MPD2    H311550   3.569   0.904  13.568 -0.8754  0.0716 -0.5292
  779MPD2     N11551   3.651   1.195  13.896 -0.0971 -0.0774 -0.1769
  779MPD2    H511552   3.669   1.204  13.996 -2.5531 -0.1504  0.2679
  779MPD2    N111553   3.606   0.713  13.973 -0.9751 -0.4319 -0.2395
  779MPD2    H711554   3.584   0.622  13.933 -1.7828  0.7987 -2.5583
  780MPD2     C11555   3.044   0.370   0.906 -0.0437 -0.3312  0.3047
  780MPD2    C111556   3.140   0.322   0.820 -0.6951  0.3248  0.1603
  780MPD2    C211557   3.276   0.349   0.834 -0.1355 -0.6079  0.3198
  780MPD2    C311558   3.318   0.450   0.916 -0.4453  0.1327  1.0716
  780MPD2    C411559   3.219   0.510   0.998  0.5840  0.1522 -0.2300
  780MPD2    C511560   3.087   0.465   0.992  0.2234  0.3640 -0.7541
  780MPD2     H11561   3.345   0.295   0.771 -0.9180  1.9892 -2.7509
  780MPD2    H111562   3.241   0.589   1.068  0.1819  0.3496 -0.3259
  780MPD2    H211563   2.942   0.334   0.916 -0.3143  0.5022  0.5690
  780MPD2    H311564   3.011   0.509   1.055  0.5058  0.0948 -0.2254
  780MPD2     N11565   3.448   0.506   0.899  0.0427 -0.7002  0.2193
  780MPD2    H511566   3.497   0.476   0.815 -1.4019  0.0194 -0.8936
  780MPD2    N111567   3.107   0.221   0.725  0.4441  0.0753  0.2873
  780MPD2    H711568   3.187   0.191   0.670  1.2900  2.5824  0.1470
  781MPD2     C11569   4.566   2.764  11.939  0.4186  0.3056  0.3696
  781MPD2    C111570   4.608   2.883  11.991  0.6328  0.0771  0.3854
  781MPD2    C211571   4.642   2.991  11.905 -0.3931 -0.2224 -0.1037
  781MPD2    C311572   4.626   2.975  11.768 -0.0881  0.2048  0.0416
  781MPD2    C411573   4.596   2.854  11.712  0.5180 -0.2761  0.0170
  781MPD2    C511574   4.573   2.752  11.801  0.4493  0.6165  0.0351
  781MPD2     H11575   4.674   3.087  11.945 -1.1610  1.4340 -3.4666
  781MPD2    H111576   4.599   2.847  11.604  2.3589 -1.9558  0.1769
  781MPD2    H211577   4.527   2.687  12.004  1.2275  0.2271  0.7663
  781MPD2    H311578   4.564   2.654  11.756  1.5719  0.0803  0.9643
  781MPD2     N11579   4.636   3.088  11.679 -0.3137  0.4083  0.7651
  781MPD2    H511580   4.627   3.064  11.581 -1.9538 -1.9345  1.4902
  781MPD2    N111581   4.605   2.888  12.132  0.5737  0.3783  0.3227
  781MPD2    H711582   4.584   2.800  12.178  1.5850  0.0771  0.2249
  782MPD2     C11583   3.266   4.013  10.894  0.6151  0.4040 -0.2264
  782MPD2    C111584   3.308   3.949  10.776  0.4165  0.7483 -0.2042
  782MPD2    C211585   3.445   3.945  10.752 -0.0345 -0.2964  0.1526
  782MPD2    C311586   3.535   4.004  10.835  0.1133  0.0806  0.1477
  782MPD2    C411587   3.488   4.061  10.950 -0.1789 -0.1648  0.1067
  782MPD2    C511588   3.352   4.069  10.975 -0.2302 -0.6349 -0.3802
  782MPD2     H11589   3.470   3.896  10.659  3.3565 -0.7435  1.3104
  782MPD2    H111590   3.556   4.105  11.021  0.0434  1.2818 -1.0126
  782MPD2    H211591   3.160   4.032  10.906  0.3386 -0.4366 -1.3405
  782MPD2    H311592   3.318   4.126  11.060  0.8160 -3.1256  1.7334
  782MPD2     N11593   3.671   3.997  10.812  0.5564 -0.5128  0.4651
  782MPD2    H511594   3.726   4.042  10.884  1.4633 -3.2064  1.4309
  782MPD2    N111595   3.210   3.896  10.682 -0.4475  0.4748  0.3143
  782MPD2    H711596   3.115   3.900  10.718 -0.5283  2.5568 -0.1282
  783MPD2     C11597   2.677   3.368  11.070 -0.2389  0.8367  0.1349
  783MPD2    C111598   2.770   3.467  11.097  0.1697 -0.5187 -0.5312
  783MPD2    C211599   2.834   3.538  10.993  0.4352 -0.0139 -0.2782
  783MPD2    C311600   2.826   3.486  10.865  0.0164  0.0344 -0.2764
  783MPD2    C411601   2.735   3.384  10.848 -0.2413  0.3010 -0.1200
  783MPD2    C511602   2.655   3.330  10.944  0.7144 -0.3872 -0.7688
  783MPD2     H11603   2.904   3.619  11.008  1.0331 -0.3106 -1.4785
  783MPD2    H111604   2.708   3.343  10.751  0.3725 -0.6155  0.1022
  783MPD2    H211605   2.609   3.331  11.146 -1.2610  2.0112 -0.1910
  783MPD2    H311606   2.584   3.251  10.920 -0.2248 -0.0538  0.9215
  783MPD2     N11607   2.889   3.556  10.763 -0.1652 -0.3843 -0.6755
  783MPD2    H511608   2.958   3.627  10.781 -0.6918  0.1272 -0.6664
  783MPD2    N111609   2.794   3.494  11.236 -0.2002 -0.6141 -0.4688
  783MPD2    H711610   2.729   3.452  11.302  0.8724 -1.1895  0.2125
  784MPD2     C11611   0.567   3.415   1.028 -0.2124 -0.8716  0.7183
  784MPD2    C111612   0.554   3.532   1.112 -0.2075  0.2568 -0.0433
  784MPD2    C211613   0.459   3.625   1.069  0.0969 -0.1492  0.4299
  784MPD2    C311614   0.402   3.613   0.944  0.3383 -0.4595 -0.2897
  784MPD2    C411615   0.427   3.508   0.858 -0.3737  0.0507  0.3664
  784MPD2    C511616   0.499   3.406   0.907 -0.2553 -0.8185  0.0032
  784MPD2     H11617   0.437   3.708   1.135 -2.4980 -1.0707  0.7321
  784MPD2    H111618   0.381   3.492   0.761  1.3389  0.4194 -0.4932
  784MPD2    H211619   0.630   3.333   1.061 -0.1957 -0.8972  0.6259
  784MPD2    H311620   0.507   3.308   0.861  3.1181 -0.1818 -0.7727
  784MPD2     N11621   0.308   3.716   0.913  0.0816 -0.2833 -0.3016
  784MPD2    H511622   0.285   3.780   0.987  2.8260  1.4675 -0.9695
  784MPD2    N111623   0.640   3.565   1.217  0.0040  0.1427 -0.1406
  784MPD2    H711624   0.626   3.645   1.278  2.2883  0.9591 -0.6933
  785MPD2     C11625   1.753   2.519  10.779  0.2327 -0.4385  0.1122
  785MPD2    C111626   1.652   2.609  10.812 -0.5233  0.1992 -0.3843
  785MPD2    C211627   1.534   2.600  10.737 -0.4744 -0.2673  0.0715
  785MPD2    C311628   1.506   2.492  10.654  1.2686  0.4271  0.5873
  785MPD2    C411629   1.601   2.395  10.636  0.0607 -0.3406  0.2852
  785MPD2    C511630   1.724   2.413  10.692  0.6761  0.0117 -0.3114
  785MPD2     H11631   1.456   2.673  10.756 -1.0211 -0.3550 -1.8281
  785MPD2    H111632   1.579   2.313  10.568 -0.3855  0.0729 -0.0710
  785MPD2    H211633   1.851   2.534  10.822  0.3695 -1.0030  0.0050
  785MPD2    H311634   1.803   2.346  10.660  0.6740  0.1591 -0.6210
  785MPD2     N11635   1.385   2.504  10.587  0.2528  0.1699  0.0865
  785MPD2    H511636   1.337   2.591  10.607 -3.0814 -0.8078 -3.7138
  785MPD2    N111637   1.676   2.726  10.894  0.1301 -0.5906 -0.0824
  785MPD2    H711638   1.600   2.791  10.904 -0.2451 -1.0110 -0.1997
  786MPD2     C11639   4.108   0.045  14.732  0.3117 -0.4290  0.0127
  786MPD2    C111640   4.229   0.036  14.674  0.1605  0.0844  0.3455
  786MPD2    C211641   4.343   0.083  14.738  0.0027 -0.4417  0.1854
  786MPD2    C311642   4.329   0.153  14.855  0.1000  0.4896 -0.3324
  786MPD2    C411643   4.204   0.164  14.916 -0.1555 -0.2201  0.4377
  786MPD2    C511644   4.095   0.101  14.863  0.1860 -0.1991  0.2518
  786MPD2     H11645   4.441   0.076  14.694 -0.2499 -0.9623 -0.2910
  786MPD2    H111646   4.193   0.210  15.014  1.9811  2.2437 -0.4705
  786MPD2    H211647   4.021   4.735  14.688 -1.0181  2.1578 -0.0654
  786MPD2    H311648   3.999   0.102  14.914 -0.7859  0.8608 -1.6017
  786MPD2     N11649   4.433   0.223  14.911 -0.3449 -0.7449 -0.2871
  786MPD2    H511650   4.405   0.269  14.997  0.9068 -1.0156  0.2581
  786MPD2    N111651   4.253   4.718  14.549 -0.7600  0.0961  0.0291
  786MPD2    H711652   4.350   4.702  14.523 -0.5661  0.5798  0.4606
  787MPD2     C11653   4.314   4.074  14.611  0.0204 -0.3885  0.1904
  787MPD2    C111654   4.399   4.139  14.529 -0.2458 -0.1429  0.4929
  787MPD2    C211655   4.533   4.090  14.519  0.3191 -0.4700  0.2192
  787MPD2    C311656   4.571   3.985  14.603 -0.4190 -0.9049  1.0350
  787MPD2    C411657   4.482   3.919  14.681 -0.7520  0.6859 -0.5503
  787MPD2    C511658   4.347   3.956  14.677 -0.5154  0.3339 -0.1780
  787MPD2     H11659   4.607   4.131  14.452  0.0422  1.9587  1.3920
  787MPD2    H111660   4.489   3.824  14.733 -1.2923 -0.0255 -1.7666
  787MPD2    H211661   4.211   4.106  14.624  0.2415  1.6002 -2.9446
  787MPD2    H311662   4.267   3.907  14.730  1.5831 -1.0111  1.7642
  787MPD2     N11663   4.706   3.937  14.601 -0.3080 -0.8058  0.4260
  787MPD2    H511664   0.034   3.981  14.536 -1.2068 -1.5261 -0.9604
  787MPD2    N111665   4.356   4.254  14.462  0.7773 -0.1141 -0.1676
  787MPD2    H711666   4.263   4.284  14.490  0.1566 -1.7378 -0.5126
  788MPD2     C11667   1.069   2.842   1.210 -0.1438 -0.4414 -0.6594
  788MPD2    C111668   1.042   2.789   1.089 -0.2154 -0.3381 -0.4262
  788MPD2    C211669   1.138   2.787   0.990 -0.2613  0.2551 -0.1754
  788MPD2    C311670   1.265   2.828   1.011 -0.6077  0.1664 -0.5318
  788MPD2    C411671   1.293   2.880   1.130 -0.4158  0.5892 -0.5818
  788MPD2    C511672   1.193   2.887   1.231 -0.2056  0.5670 -0.3150
  788MPD2     H11673   1.111   2.744   0.894  2.6825 -1.7498 -0.1331
  788MPD2    H111674   1.390   2.925   1.149  0.3949 -1.5266  0.3357
  788MPD2    H211675   1.001   2.845   1.294  1.3152 -1.2296  0.5531
  788MPD2    H311676   1.222   2.931   1.326  2.6413 -1.6073 -0.1779
  788MPD2     N11677   1.372   2.813   0.914  0.6647  0.2173  0.3837
  788MPD2    H511678   1.466   2.845   0.936  0.3226  1.8061 -0.4625
  788MPD2    N111679   0.913   2.728   1.071 -0.1997 -0.6067 -0.0144
  788MPD2    H711680   0.842   2.737   1.144  3.8890 -0.3089  3.9633
  789MPD2     C11681   1.961   2.781  16.399  0.3212 -0.3424 -1.2171
  789MPD2    C111682   1.832   2.781  16.346  0.1452 -0.4760 -0.5458
  789MPD2    C211683   1.787   2.896  16.281 -0.2729  0.4634  0.4180
  789MPD2    C311684   1.874   3.008  16.264 -1.1289 -0.8730  0.6470
  789MPD2    C411685   2.001   3.009  16.322  0.0003 -0.5110  0.7111
  789MPD2    C511686   2.035   2.894  16.387  0.2115 -0.4048 -0.0854
  789MPD2     H11687   1.684   2.893  16.247  0.0578  0.5238 -0.5866
  789MPD2    H111688   2.062   3.098  16.315 -0.9853  0.1299  0.2533
  789MPD2    H211689   2.005   2.702  16.459 -0.9241 -0.8341 -0.9504
  789MPD2    H311690   2.136   2.901  16.427  1.0637  0.4461 -2.3835
  789MPD2     N11691   1.831   3.133  16.211 -0.6304  0.2572  0.0133
  789MPD2    H511692   1.896   3.210  16.202  0.0572 -0.2391  0.7740
  789MPD2    N111693   1.735   2.681  16.353 -0.0454  0.0819  0.6264
  789MPD2    H711694   1.645   2.702  16.310  0.0070  2.2005  1.5609
  790MPD2     C11695   3.038   4.582  13.344  0.1658 -0.0444 -0.1608
  790MPD2    C111696   2.969   4.465  13.369 -0.3553  0.5093  0.5079
  790MPD2    C211697   2.906   4.405  13.262 -0.5971 -0.1208 -0.2125
  790MPD2    C311698   2.911   4.460  13.136  0.6328  0.5121  0.6561
  790MPD2    C411699   2.990   4.572  13.109 -0.0325  0.1187 -0.1310
  790MPD2    C511700   3.052   4.636  13.216  0.2314  0.4319 -0.9359
  790MPD2     H11701   2.853   4.311  13.272 -0.3984 -0.4842 -2.4140
  790MPD2    H111702   2.987   4.628  13.016 -1.3411 -0.3185 -0.3539
  790MPD2    H211703   3.082   4.640  13.424  0.9097 -1.2444  0.3118
  790MPD2    H311704   3.112   4.726  13.200  2.3267 -0.5246  1.5292
  790MPD2     N11705   2.843   4.388  13.037 -0.2127 -0.1136 -0.3714
  790MPD2    H511706   2.777   4.314  13.061  0.1959 -0.5932 -0.7291
  790MPD2    N111707   2.972   4.421  13.501  0.5756  0.2788 -0.0029
  790MPD2    H711708   3.028   4.466  13.573  0.5843  0.1413  0.0761
  791MPD2     C11709   2.320   4.062  13.106 -0.1001  0.5152 -0.6399
  791MPD2    C111710   2.358   4.031  12.977  0.4100 -0.1414  0.1315
  791MPD2    C211711   2.271   3.966  12.893  0.1958 -0.0448  0.4941
  791MPD2    C311712   2.140   3.941  12.936 -0.2017  0.4339 -0.0593
  791MPD2    C411713   2.099   3.971  13.069 -0.7699  0.2269 -0.4319
  791MPD2    C511714   2.187   4.035  13.149  0.4207  0.1836 -0.0192
  791MPD2     H11715   2.298   3.929  12.795 -0.4638 -1.3852  0.8222
  791MPD2    H111716   2.001   3.946  13.110 -0.4845 -0.5379 -0.2254
  791MPD2    H211717   2.390   4.115  13.170  0.9757 -0.5538 -0.9370
  791MPD2    H311718   2.170   4.059  13.253  0.9253  0.7336 -0.0599
  791MPD2     N11719   2.063   3.874  12.840 -0.2366 -0.0519  0.5983
  791MPD2    H511720   2.102   3.869  12.747 -0.2453 -3.1575  0.7738
  791MPD2    N111721   2.493   4.070  12.938  0.6768  0.5854  0.6680
  791MPD2    H711722   2.544   4.122  13.009 -1.5121 -0.7484  3.1523
  792MPD2     C11723   2.771   4.465  11.329 -0.4897 -0.2373 -0.3099
  792MPD2    C111724   2.717   4.539  11.228 -0.7401  0.1220 -0.4626
  792MPD2    C211725   2.579   4.560  11.220 -0.4325  0.0742 -0.2501
  792MPD2    C311726   2.493   4.505  11.313  0.1469  0.7571  0.9814
  792MPD2    C411727   2.547   4.424  11.408 -0.8868  0.0422  0.1624
  792MPD2    C511728   2.687   4.402  11.413 -0.0390  0.0393  0.0862
  792MPD2     H11729   2.530   4.619  11.144 -2.3373 -1.2087 -0.0217
  792MPD2    H111730   2.489   4.383  11.489  1.0269  0.0654  1.5469
  792MPD2    H211731   2.878   4.452  11.339 -0.1964  1.0818 -1.7873
  792MPD2    H311732   2.721   4.337  11.493  1.3794  0.1212 -0.4537
  792MPD2     N11733   2.348   4.513  11.306 -0.3296 -0.5605  0.3581
  792MPD2    H511734   2.293   4.455  11.370 -1.6111  0.8219  0.5245
  792MPD2    N111735   2.808   4.607  11.145  0.0275  0.1946 -0.5888
  792MPD2    H711736   2.907   4.589  11.156 -0.1594 -0.3650  0.1363
  793MPD2     C11737   1.975   4.678  10.446  0.0248 -0.2619 -0.4781
  793MPD2    C111738   2.097   4.710  10.512  0.2982 -0.1768 -0.3586
  793MPD2    C211739   2.091   4.690  10.651  0.3476 -0.0537 -0.4159
  793MPD2    C311740   1.981   4.642  10.715  0.4374  0.5152  0.0018
  793MPD2    C411741   1.856   4.639  10.646  0.1009  0.4189 -0.4668
  793MPD2    C511742   1.859   4.643  10.508 -0.1236 -0.0474 -0.0544
  793MPD2     H11743   2.181   4.713  10.706 -1.1925  1.2345  1.5305
  793MPD2    H111744   1.760   4.604  10.681  0.1646 -0.1105 -0.8104
  793MPD2    H211745   1.964   4.683  10.338 -0.9141  1.8031 -0.2909
  793MPD2    H311746   1.766   4.619  10.458 -1.0745 -0.5998  1.9603
  793MPD2     N11747   1.997   4.596  10.850  0.1093  0.4075 -0.1774
  793MPD2    H511748   2.094   4.601  10.878 -0.1532 -0.9445  0.9753
  793MPD2    N111749   2.216   0.015  10.449  0.1591  0.2695  0.0965
  793MPD2    H711750   2.297   0.032  10.508  1.8734  3.3820 -3.1503
  794MPD2     C11751   2.541   3.152   0.072  0.3472 -0.4243 -0.3478
  794MPD2    C111752   2.609   3.113  17.706 -0.6866  0.2011 -0.3545
  794MPD2    C211753   2.601   3.186  17.592 -0.3838 -0.0740 -0.8967
  794MPD2    C311754   2.508   3.293  17.585  0.4237  0.3445 -0.0338
  794MPD2    C411755   2.427   3.324  17.696  0.3572  0.7442  0.3562
  794MPD2    C511756   2.446   3.254   0.064  0.2282 -0.7872  0.0480
  794MPD2     H11757   2.661   3.161  17.505 -0.1623 -0.7913 -0.5352
  794MPD2    H111758   2.351   3.402  17.693 -1.1689 -0.7419  0.3118
  794MPD2    H211759   2.546   3.099   0.167  1.1068  2.0358  0.9885
  794MPD2    H311760   2.389   3.278   0.153  0.7412 -0.6588  0.3398
  794MPD2     N11761   2.497   3.382  17.475  0.0539  0.3013  0.1246
  794MPD2    H511762   2.448   3.469  17.492  0.6923  0.7907 -0.5356
  794MPD2    N111763   2.693   2.999  17.710 -0.5501  0.0871 -0.1491
  794MPD2    H711764   2.747   2.984  17.626 -0.9109 -3.8639  0.3115
  795MPD2     C11765   0.377   1.072  13.060 -0.6716  0.0669 -0.4788
  795MPD2    C111766   0.358   0.991  13.173  0.3326 -0.0776 -0.7117
  795MPD2    C211767   0.453   0.897  13.208 -0.1053  0.0924 -0.3474
  795MPD2    C311768   0.575   0.895  13.147 -0.1830 -0.1487  0.1752
  795MPD2    C411769   0.601   0.979  13.043  0.1750  0.7174  0.9655
  795MPD2    C511770   0.501   1.069  12.993  0.3934  0.6361  0.0074
  795MPD2     H11771   0.434   0.836  13.295  2.3859 -0.9654 -0.5602
  795MPD2    H111772   0.697   0.975  12.994 -0.3039  2.3504 -0.1182
  795MPD2    H211773   0.310   1.150  13.027 -0.0373  1.2010  0.9454
  795MPD2    H311774   0.517   1.140  12.913 -2.0363 -0.2283 -1.2349
  795MPD2     N11775   0.674   0.799  13.188 -0.0176  0.4416 -0.2115
  795MPD2    H511776   0.656   0.744  13.271 -0.6684  1.4913  0.3433
  795MPD2    N111777   0.230   1.004  13.236 -0.9363  0.7633  0.5946
  795MPD2    H711778   0.213   0.938  13.311  1.0306  1.9235  2.0690
  796MPD2     C11779   0.319   2.801  15.973 -0.1894 -0.0460  0.3503
  796MPD2    C111780   0.288   2.910  16.061 -0.9740 -0.3359 -0.3640
  796MPD2    C211781   0.223   3.023  16.019  0.0775 -0.0486  0.7521
  796MPD2    C311782   0.181   3.032  15.890 -0.1128  0.1769  0.6088
  796MPD2    C411783   0.206   2.922  15.810 -0.4297 -0.3905 -0.4803
  796MPD2    C511784   0.271   2.814  15.848 -0.0694 -0.1217 -0.4830
  796MPD2     H11785   0.200   3.104  16.087  4.1746  1.6965  0.0073
  796MPD2    H111786   0.172   2.924  15.707  1.4590 -0.4446 -1.1019
  796MPD2    H211787   0.367   2.714  16.015  2.5272  1.1762 -0.2314
  796MPD2    H311788   0.276   2.731  15.779 -2.0039 -0.6489 -0.0033
  796MPD2     N11789   0.120   3.149  15.841 -0.4190 -0.3098  0.0036
  796MPD2    H511790   0.124   3.237  15.890 -0.0641  0.0069 -0.6054
  796MPD2    N111791   0.323   2.895  16.195  0.0996  0.4187  0.0258
  796MPD2    H711792   0.392   2.823  16.218 -0.5017  0.0221  0.6173
  797MPD2     C11793   1.134   1.780  17.354 -1.0901  0.3766 -0.3673
  797MPD2    C111794   1.169   1.907  17.392  0.0822 -0.2329  0.3045
  797MPD2    C211795   1.161   2.013  17.301 -0.6163 -0.0583 -0.2289
  797MPD2    C311796   1.121   1.982  17.170  0.5146  0.5780 -0.1871
  797MPD2    C411797   1.091   1.855  17.137  0.4279 -0.3979 -0.0256
  797MPD2    C511798   1.102   1.752  17.225 -0.1128 -0.0957 -0.2453
  797MPD2     H11799   1.205   2.105  17.337 -2.2811  1.0314 -0.9762
  797MPD2    H111800   1.071   1.830  17.034 -0.4993  1.9062 -0.4041
  797MPD2    H211801   1.137   1.698  17.426  1.4899 -0.4494 -1.4070
  797MPD2    H311802   1.077   1.652  17.193 -1.7518  0.6875 -1.3921
  797MPD2     N11803   1.124   2.071  17.060  0.2415 -0.4782 -0.1704
  797MPD2    H511804   1.113   2.044  16.963 -0.3163 -0.2443 -0.1738
  797MPD2    N111805   1.225   1.941  17.516 -0.0861 -0.5425 -1.2065
  797MPD2    H711806   1.234   2.042  17.519 -0.0749 -0.5173 -2.4000
  798MPD2     C11807   1.513   2.594  17.390  0.4669 -0.2822  0.0699
  798MPD2    C111808   1.422   2.492  17.354  0.8969  0.2579 -0.0031
  798MPD2    C211809   1.399   2.401  17.455 -0.5756  0.0168  0.2318
  798MPD2    C311810   1.473   2.397  17.570  0.8175 -1.0577  0.0011
  798MPD2    C411811   1.566   2.489  17.601  0.2821 -0.1229 -0.2035
  798MPD2    C511812   1.587   2.586  17.504 -0.0595 -0.5517  0.1219
  798MPD2     H11813   1.342   2.320  17.412 -1.8590  1.8330 -1.5229
  798MPD2    H111814   1.619   2.482  17.695 -3.3740 -0.3433  1.8525
  798MPD2    H211815   1.539   2.669  17.316 -0.8015 -1.9987 -2.1112
  798MPD2    H311816   1.668   2.654  17.527 -1.5503  2.2265 -2.9225
  798MPD2     N11817   1.445   2.283  17.649  0.2730  0.1547 -0.0328
  798MPD2    H511818   1.363   2.227  17.627 -0.0795  0.2925  0.9067
  798MPD2    N111819   1.362   2.475  17.230  0.3827  0.3401  0.4153
  798MPD2    H711820   1.313   2.387  17.214  1.1546 -0.2054  1.0454
  799MPD2     C11821   4.488   3.374  14.796  0.5459  0.2310 -0.4772
  799MPD2    C111822   4.367   3.325  14.745  0.5093 -0.2484  0.2911
  799MPD2    C211823   4.310   3.399  14.646 -0.0995  0.4219  0.1714
  799MPD2    C311824   4.354   3.524  14.608 -0.7177  0.4848  0.4882
  799MPD2    C411825   4.480   3.560  14.643 -0.0111  0.2970 -0.1396
  799MPD2    C511826   4.545   3.480  14.736 -0.2368 -0.0242  0.8513
  799MPD2     H11827   4.217   3.358  14.610  0.4658  0.3479 -1.2166
  799MPD2    H111828   4.528   3.648  14.601  1.3519  0.4686  1.7439
  799MPD2    H211829   4.551   3.331  14.872 -0.2763 -0.1595 -0.0236
  799MPD2    H311830   4.648   3.501  14.765  0.1503 -0.3054 -0.3262
  799MPD2     N11831   4.288   3.605  14.505  0.2774 -0.4946  0.3200
  799MPD2    H511832   4.331   3.694  14.480 -0.5486 -0.4364 -0.8886
  799MPD2    N111833   4.306   3.206  14.790 -0.2184  0.1289  1.0244
  799MPD2    H711834   4.213   3.185  14.753  1.4003 -3.5082 -0.9920
  800MPD2     C11835   0.075   0.139  14.289 -0.7426  0.2767  0.6197
  800MPD2    C111836   0.208   0.105  14.320  0.2770 -0.4070 -0.0962
  800MPD2    C211837   0.279   0.023  14.239  0.1674 -0.5214  0.9877
  800MPD2    C311838   0.219   4.705  14.124 -1.1170  0.0618  0.1094
  800MPD2    C411839   0.090   4.737  14.095 -0.1507 -0.2733 -0.4444
  800MPD2    C511840   0.024   0.076  14.183  0.0687  0.9991 -0.1883
  800MPD2     H11841   0.385   0.008  14.257  0.5963 -0.8865 -1.8658
  800MPD2    H111842   0.039   4.717  14.001  1.7793  3.3259 -2.2710
  800MPD2    H211843   0.033   0.207  14.362 -2.1149 -1.6080  1.5838
  800MPD2    H311844   4.666   0.115  14.147 -0.5993  1.5579  2.1586
  800MPD2     N11845   0.296   4.631  14.030  0.2005  0.6873 -0.4291
  800MPD2    H511846   0.386   4.601  14.065  0.3142  0.5945 -0.7967
  800MPD2    N111847   0.262   0.143  14.444  0.0797 -0.2178  0.4997
  800MPD2    H711848   0.209   0.210  14.500 -2.4377 -0.8911 -1.0876
  801MPD2     C11849   0.196   0.749  14.807 -0.6831  0.1455  0.3733
  801MPD2    C111850   0.147   0.627  14.772  0.3546  0.9995  0.8936
  801MPD2    C211851   0.011   0.610  14.753 -0.6918 -0.6647  0.6443
  801MPD2    C311852   4.656   0.705  14.792  0.1189 -0.0639  0.1587
  801MPD2    C411853   4.709   0.826  14.838 -0.3928 -0.6328  0.4020
  801MPD2    C511854   0.108   0.848  14.843 -0.0190  0.1737 -1.0876
  801MPD2     H11855   4.730   0.511  14.715 -2.0914 -0.0448 -0.3163
  801MPD2    H111856   4.641   0.903  14.873  0.4947 -0.1021  0.9660
  801MPD2    H211857   0.301   0.773  14.800 -0.8486  0.8654  0.4498
  801MPD2    H311858   0.152   0.944  14.867  2.6431 -1.1028 -0.8800
  801MPD2     N11859   4.518   0.685  14.802  0.2062 -0.7987 -0.8553
  801MPD2    H511860   4.470   0.762  14.849 -0.5597 -0.9378 -1.4100
  801MPD2    N111861   0.227   0.520  14.745  0.6806  0.6025 -0.1570
  801MPD2    H711862   0.186   0.441  14.696 -0.4750  0.0576  1.6800
  802MPD2     C11863   3.761   1.085  17.627  0.9730 -0.1588 -0.1471
  802MPD2    C111864   3.876   1.021  17.670  0.2309 -0.1118 -0.1779
  802MPD2    C211865   3.874   0.880  17.673  0.6149 -0.6786  0.0287
  802MPD2    C311866   3.759   0.805  17.638  1.0663 -0.1231  0.4545
  802MPD2    C411867   3.646   0.871  17.592  0.8467  0.3811 -0.1136
  802MPD2    C511868   3.650   1.010  17.593  0.1327 -0.6653 -0.2734
  802MPD2     H11869   3.957   0.829  17.721  1.0891 -0.5112 -0.6101
  802MPD2    H111870   3.556   0.813  17.574 -0.6422  2.0383  2.0629
  802MPD2    H211871   3.741   1.191  17.639  0.0111 -0.0520 -2.6360
  802MPD2    H311872   3.563   1.067  17.564  1.3216  1.6575  0.6960
  802MPD2     N11873   3.765   0.662  17.644  0.2738  0.1506 -0.2386
  802MPD2    H511874   3.859   0.638  17.674 -0.6415 -1.5646  1.2286
  802MPD2    N111875   3.991   1.084  17.726 -0.0585 -0.0721  0.1940
  802MPD2    H711876   4.068   1.029   0.016 -0.1884  0.5858  1.4643
  803MPD2     C11877   0.312   3.671  12.095 -0.6551 -0.4026  0.1927
  803MPD2    C111878   0.422   3.756  12.104 -0.5209 -0.3758  0.4772
  803MPD2    C211879   0.462   3.789  12.232  0.3945 -0.0542 -0.1274
  803MPD2    C311880   0.398   3.742  12.345  1.0038 -0.5272  0.5088
  803MPD2    C411881   0.277   3.673  12.330 -0.5640  0.9380  0.0985
  803MPD2    C511882   0.233   3.638  12.205 -0.6199 -0.7789  0.4019
  803MPD2     H11883   0.550   3.851  12.243  0.4122  0.3352 -2.4587
  803MPD2    H111884   0.217   3.633  12.411 -2.1166  0.5141 -1.2673
  803MPD2    H211885   0.276   3.641  11.997  1.2445 -0.0416 -0.6152
  803MPD2    H311886   0.137   3.589  12.190 -1.0629  0.8876 -2.2473
  803MPD2     N11887   0.447   3.751  12.482  0.5754  0.0197 -0.0618
  803MPD2    H511888   0.375   3.729  12.550 -0.5648  0.9481 -0.9648
  803MPD2    N111889   0.487   3.818  11.995  0.2115  0.1330  0.2052
  803MPD2    H711890   0.557   3.890  12.011  2.3452 -1.6431 -1.2708
  804MPD2     C11891   4.372   1.026  17.168 -0.1274 -0.7278  1.2225
  804MPD2    C111892   4.477   0.942  17.196  0.1368  0.1092 -0.4491
  804MPD2    C211893   4.608   0.993  17.186  0.0229 -0.1620  0.0066
  804MPD2    C311894   4.634   1.130  17.177 -0.2877 -0.3628 -0.3832
  804MPD2    C411895   4.518   1.213  17.165 -0.4628 -0.0819  0.1195
  804MPD2    C511896   4.394   1.155  17.146  0.2791 -0.4876  0.8025
  804MPD2     H11897   4.690   0.924  17.195  0.2519  0.3006  1.4658
  804MPD2    H111898   4.520   1.321  17.151 -0.8105 -0.1727 -0.6278
  804MPD2    H211899   4.267   0.999  17.175 -1.2634  2.8812 -1.8894
  804MPD2    H311900   4.309   1.221  17.141  0.3961 -0.3790  0.3037
  804MPD2     N11901   0.029   1.182  17.183 -0.4502 -0.6350 -0.1682
  804MPD2    H511902   0.103   1.114  17.165  0.0817  0.0535 -0.5622
  804MPD2    N111903   4.461   0.806  17.242  0.4609 -0.1046 -0.0008
  804MPD2    H711904   4.545   0.749  17.246  0.6071  0.0830 -0.4845
  805MPD2     C11905   4.037   3.725  15.343 -0.5230  0.0629  0.0288
  805MPD2    C111906   4.068   3.839  15.273 -0.2873  0.4645  0.0994
  805MPD2    C211907   4.197   3.882  15.287  0.1155 -0.3035  0.5573
  805MPD2    C311908   4.289   3.815  15.362 -0.0581  0.2089  0.0119
  805MPD2    C411909   4.250   3.701  15.427  1.0703 -0.5370  0.0604
  805MPD2    C511910   4.127   3.659  15.425 -0.2095 -0.2438  0.2163
  805MPD2     H11911   4.219   3.971  15.230  0.3146 -0.5428  0.2554
  805MPD2    H111912   4.319   3.629  15.470  2.0943  1.6028  1.9889
  805MPD2    H211913   3.935   3.688  15.340 -0.1639 -0.9576  0.2601
  805MPD2    H311914   4.104   3.566  15.476 -2.6922  0.5102  0.5110
  805MPD2     N11915   4.424   3.853  15.356 -0.1906 -0.3672 -0.2954
  805MPD2    H511916   4.449   3.943  15.316  0.9099 -0.5909 -0.1139
  805MPD2    N111917   3.981   3.908  15.184  0.4296 -0.0929  0.2457
  805MPD2    H711918   4.024   3.985  15.134 -1.2892  0.4774 -0.3462
  806MPD2     C11919   0.574   2.907   0.741 -0.9034 -0.3705  0.2917
  806MPD2    C111920   0.699   2.928   0.681  0.8555  0.0913 -0.0762
  806MPD2    C211921   0.722   2.894   0.546  0.1988 -0.4921  0.2665
  806MPD2    C311922   0.617   2.826   0.481 -0.1986 -0.3441 -0.4145
  806MPD2    C411923   0.495   2.800   0.540 -0.2446 -0.1010 -0.3201
  806MPD2    C511924   0.472   2.860   0.662  1.0691 -0.1972  0.4165
  806MPD2     H11925   0.821   2.893   0.502 -0.3132  0.0009 -0.8986
  806MPD2    H111926   0.410   2.752   0.492 -1.1113  0.0991  1.0081
  806MPD2    H211927   0.553   2.945   0.840 -0.9128 -0.4311  0.3125
  806MPD2    H311928   0.372   2.857   0.704 -0.3005 -1.5542 -2.9541
  806MPD2     N11929   0.634   2.809   0.341 -0.0866  0.4254 -1.0437
  806MPD2    H511930   0.720   2.848   0.304 -0.7510  1.0001 -1.9800
  806MPD2    N111931   0.808   2.982   0.749 -0.3393  0.5199 -0.0844
  806MPD2    H711932   0.892   2.989   0.692 -1.8928  1.1149 -2.3065
  807MPD2     C11933   1.160   3.239   1.497  0.1534 -0.3663  0.8513
  807MPD2    C111934   1.048   3.257   1.423 -0.3318  0.1675 -0.1273
  807MPD2    C211935   0.926   3.277   1.485  0.3605 -0.3014 -0.2323
  807MPD2    C311936   0.925   3.326   1.613 -0.4949  0.0033 -0.5735
  807MPD2    C411937   1.044   3.341   1.680  0.3897  0.1018 -0.9025
  807MPD2    C511938   1.161   3.284   1.627  0.3060  0.2582 -0.5604
  807MPD2     H11939   0.840   3.252   1.423 -0.9845  0.0056  1.5213
  807MPD2    H111940   1.056   3.387   1.777  0.1196  0.3918 -1.0059
  807MPD2    H211941   1.258   3.217   1.456 -1.4494 -0.7279 -2.7971
  807MPD2    H311942   1.254   3.293   1.682  1.1743  1.0435 -2.1581
  807MPD2     N11943   0.798   3.351   1.676 -0.0168  0.3166  0.7332
  807MPD2    H511944   0.720   3.353   1.611 -1.2222 -0.5789  2.1491
  807MPD2    N111945   1.050   3.240   1.281  0.4498  0.7605  0.1715
  807MPD2    H711946   0.960   3.253   1.235  0.1892  1.6724  0.9343
  808MPD2     C11947   0.582   0.371  10.098  0.5065 -0.9960 -0.0537
  808MPD2    C111948   0.460   0.406  10.149  0.6819  1.0103 -0.3353
  808MPD2    C211949   0.394   0.524  10.115  0.0958  0.1349  0.0862
  808MPD2    C311950   0.445   0.599  10.012 -0.0379  0.9864  0.3369
  808MPD2    C411951   0.553   0.548   9.941  0.3637 -0.2795  0.4892
  808MPD2    C511952   0.628   0.441   9.986 -0.7290 -0.8385 -0.7169
  808MPD2     H11953   0.309   0.564  10.169  0.2526 -1.5314  1.5539
  808MPD2    H111954   0.597   0.599   9.856 -0.4259 -0.3486  0.0401
  808MPD2    H211955   0.642   0.288  10.134  1.6533  0.6242  1.7727
  808MPD2    H311956   0.724   0.420   9.940  0.0545 -0.1465  0.5987
  808MPD2     N11957   0.396   0.728   9.971  0.1513  0.0751  1.0312
  808MPD2    H511958   0.432   0.772   9.887  0.9210  0.5985  1.6392
  808MPD2    N111959   0.394   0.327  10.247  0.2983  0.3249  0.1492
  808MPD2    H711960   0.306   0.366  10.281  0.3325  0.4606  0.0811
  809MPD2     C11961   0.683   1.477   9.464  0.3528 -0.2397  0.5036
  809MPD2    C111962   0.732   1.427   9.580 -0.1607  0.4067  0.5769
  809MPD2    C211963   0.646   1.357   9.658 -0.2861 -0.8313  0.3218
  809MPD2    C311964   0.512   1.334   9.623 -0.2068  0.0252 -0.2503
  809MPD2    C411965   0.472   1.393   9.500  0.4224  0.6007 -0.0133
  809MPD2    C511966   0.558   1.456   9.417  0.2657 -0.0065 -0.1481
  809MPD2     H11967   0.679   1.338   9.760  0.6804  2.5609  0.6275
  809MPD2    H111968   0.369   1.383   9.466 -0.0064 -2.6813  2.2426
  809MPD2    H211969   0.748   1.535   9.400 -0.2746 -0.7076 -0.5790
  809MPD2    H311970   0.526   1.501   9.323  3.5689  0.3111 -1.1310
  809MPD2     N11971   0.416   1.260   9.699 -0.1481 -0.2686 -0.7813
  809MPD2    H511972   0.322   1.257   9.662 -0.4464  1.8674 -0.2025
  809MPD2    N111973   0.870   1.456   9.604  0.1836  0.4201 -0.2393
  809MPD2    H711974   0.913   1.516   9.534 -1.6410  1.0015 -0.8726
  810MPD2     C11975   4.436   4.223  11.011 -0.3053 -0.4851  0.0619
  810MPD2    C111976   4.451   4.283  10.891  0.1499 -0.7970  0.6993
  810MPD2    C211977   4.401   4.408  10.880  0.5978 -0.2175 -0.4250
  810MPD2    C311978   4.354   4.476  10.987  0.8600 -1.4836 -0.0678
  810MPD2    C411979   4.360   4.421  11.110  0.7495  0.3674 -0.3694
  810MPD2    C511980   4.402   4.291  11.119  0.2649  0.5838 -0.8433
  810MPD2     H11981   4.403   4.456  10.783 -1.9676  2.0060  0.6175
  810MPD2    H111982   4.328   4.472  11.200  0.1578  0.7943 -0.8159
  810MPD2    H211983   4.465   4.119  11.027 -0.7987 -1.1027 -3.0014
  810MPD2    H311984   4.387   4.239  11.213  0.5680  1.2165 -0.4512
  810MPD2     N11985   4.302   4.611  10.977  0.2542  0.1717  0.3026
  810MPD2    H511986   4.267   4.660  11.058 -0.7677 -0.9095  0.5128
  810MPD2    N111987   4.483   4.219  10.770 -0.2158  0.0063  0.2938
  810MPD2    H711988   4.460   4.258  10.679  2.1932  2.2422  0.6408
  811MPD2     C11989   4.341   4.096   9.947  0.3860  0.8013 -0.3724
  811MPD2    C111990   4.359   4.180  10.055  0.2730  0.4582 -0.5545
  811MPD2    C211991   4.313   4.312  10.048 -0.3953  0.2363 -0.1927
  811MPD2    C311992   4.266   4.373   9.929  0.5491  0.8772  0.1239
  811MPD2    C411993   4.243   4.281   9.824 -0.3508 -0.4800 -0.6233
  811MPD2    C511994   4.276   4.148   9.837  0.1350 -0.7752  0.3803
  811MPD2     H11995   4.325   4.379  10.132 -1.8089  0.6432 -0.3310
  811MPD2    H111996   4.210   4.315   9.726 -2.5209  0.3695  0.4140
  811MPD2    H211997   4.370   3.991   9.952  0.3055  0.8408  1.0698
  811MPD2    H311998   4.280   4.084   9.750  1.5944 -3.3151  2.3435
  811MPD2     N11999   4.250   4.514   9.915  0.9079  0.3883  0.1405
  811MPD2    H512000   4.261   4.565  10.001  1.0059 -1.0317  0.9777
  811MPD2    N112001   4.396   4.114  10.174 -0.6582 -0.8027  0.0301
  811MPD2    H712002   4.427   4.018  10.167 -0.6060 -0.6018 -2.4877
  812MPD2     C12003   3.343   4.304  11.666  0.2312 -0.0250 -0.9820
  812MPD2    C112004   3.349   4.390  11.771 -0.4108 -0.4938 -0.8232
  812MPD2    C212005   3.376   4.339  11.893  0.0854 -0.0479  0.0723
  812MPD2    C312006   3.388   4.208  11.923  0.5142  0.7172 -0.1118
  812MPD2    C412007   3.380   4.114  11.821  0.8761  0.2461  0.3309
  812MPD2    C512008   3.348   4.166  11.692 -0.2804  0.5846  0.2984
  812MPD2     H12009   3.369   4.406  11.978  2.1045 -2.2045  1.9464
  812MPD2    H112010   3.385   4.006  11.829 -0.4817  0.2208  0.7407
  812MPD2    H212011   3.324   4.333  11.563  0.7915  2.4492 -0.3943
  812MPD2    H312012   3.334   4.097  11.609  0.4235  0.4353  0.2972
  812MPD2     N12013   3.422   4.172  12.048 -0.0506  0.0063  0.7163
  812MPD2    H512014   3.461   4.244  12.108  0.6600 -0.8270  1.2457
  812MPD2    N112015   3.316   4.527  11.751 -0.5328 -0.6493 -0.1642
  812MPD2    H712016   3.275   4.556  11.663  0.6370 -1.3473 -0.9412
  813MPD2     C12017   3.043   1.504  13.545 -0.9637  0.6454  0.3957
  813MPD2    C112018   2.959   1.613  13.562 -0.7258 -0.2721 -0.5954
  813MPD2    C212019   2.827   1.598  13.552 -0.0430 -0.9677  0.4792
  813MPD2    C312020   2.768   1.472  13.536 -0.7361 -0.8935  0.4262
  813MPD2    C412021   2.847   1.360  13.536  0.0970 -0.4266 -0.1036
  813MPD2    C512022   2.984   1.384  13.555  0.2205  0.5710  0.1071
  813MPD2     H12023   2.763   1.684  13.571 -0.6267 -1.5416  1.0954
  813MPD2    H112024   2.813   1.258  13.522  0.4217 -0.5572  0.0451
  813MPD2    H212025   3.150   1.514  13.549 -1.0258  0.7627  1.9085
  813MPD2    H312026   3.053   1.301  13.569 -1.1708 -0.7295 -0.7298
  813MPD2     N12027   2.630   1.480  13.529 -0.4360 -0.3231  0.2288
  813MPD2    H512028   2.591   1.573  13.544 -1.6529 -1.1845  2.3272
  813MPD2    N112029   2.999   1.753  13.564 -0.4911  0.1751 -0.0818
  813MPD2    H712030   2.931   1.821  13.597  0.1122  1.1790 -0.8889
  814MPD2     C12031   2.969   2.723  12.378  0.8813  0.8340 -0.1702
  814MPD2    C112032   3.029   2.791  12.280 -0.1741 -0.2551  0.2922
  814MPD2    C212033   3.110   2.900  12.302  0.0581  0.1416 -0.5407
  814MPD2    C312034   3.116   2.950  12.425  0.4965  0.3509 -0.3355
  814MPD2    C412035   3.037   2.900  12.529 -0.1502  0.7160  0.3754
  814MPD2    C512036   2.980   2.781  12.505 -0.3747  0.1500  0.4246
  814MPD2     H12037   3.162   2.933  12.213  0.1660  0.6913 -0.2777
  814MPD2    H112038   3.026   2.941  12.628 -0.9589 -1.6440  1.2512
  814MPD2    H212039   2.921   2.626  12.370  2.8764 -0.2111  0.4024
  814MPD2    H312040   2.927   2.726  12.582 -0.7966  1.5599  1.1341
  814MPD2     N12041   3.195   3.063  12.451  0.2339 -0.5962 -0.4933
  814MPD2    H512042   3.196   3.089  12.549  0.4812  0.6215 -0.8098
  814MPD2    N112043   3.031   2.741  12.144 -0.1558  0.8080  0.4711
  814MPD2    H712044   3.085   2.800  12.080  0.0487 -0.3916 -0.4539
  815MPD2     C12045   3.410   1.085  12.062 -0.3098 -0.2434 -0.0488
  815MPD2    C112046   3.311   1.021  11.988 -0.8963  0.4698 -0.1876
  815MPD2    C212047   3.186   1.008  12.052 -1.0450  0.2859  0.3106
  815MPD2    C312048   3.167   1.040  12.191  0.4681  0.3202 -0.2064
  815MPD2    C412049   3.275   1.105  12.251 -0.4493  0.2360 -0.3063
  815MPD2    C512050   3.391   1.127  12.186 -0.3750  0.1438 -0.2997
  815MPD2     H12051   3.096   0.969  12.005 -2.0176  1.3312  1.2967
  815MPD2    H112052   3.264   1.141  12.353  1.8425  1.9216 -0.6663
  815MPD2    H212053   3.506   1.106  12.018 -1.3298  0.4926 -1.9286
  815MPD2    H312054   3.473   1.156  12.250  0.8663 -0.3230 -1.6912
  815MPD2     N12055   3.047   1.010  12.255  0.1758  1.1923 -0.7636
  815MPD2    H512056   2.976   0.961  12.202 -0.0050 -0.6510  1.1620
  815MPD2    N112057   3.337   0.987  11.853  0.3427  0.8523  0.3604
  815MPD2    H712058   3.433   1.009  11.828 -0.2645  0.1912 -2.4911
  816MPD2     C12059   3.658   4.675  17.429 -0.5374 -0.0260  0.0969
  816MPD2    C112060   3.549   4.668  17.341  0.2755 -0.0373  0.0908
  816MPD2    C212061   3.572   4.633  17.211  0.4261 -0.2270 -0.6281
  816MPD2    C312062   3.702   4.606  17.166  0.1072 -0.3562 -0.8195
  816MPD2    C412063   3.807   4.620  17.255  0.6473 -0.0139  0.4739
  816MPD2    C512064   3.782   4.653  17.380 -0.5298  0.7156  0.5752
  816MPD2     H12065   3.492   4.628  17.138 -1.1659  1.6044  0.9861
  816MPD2    H112066   3.911   4.603  17.233  0.0875 -3.8204  0.7312
  816MPD2    H212067   3.648   4.700  17.534  1.4270 -0.1723  0.3117
  816MPD2    H312068   3.872   4.658  17.440 -0.5967 -1.1541  0.8199
  816MPD2     N12069   3.725   4.571  17.029  0.1552 -0.3382 -0.2369
  816MPD2    H512070   3.650   4.580  16.961 -0.7609 -0.9907  0.6937
  816MPD2    N112071   3.416   4.715  17.386  0.4622  0.1627  0.0565
  816MPD2    H712072   3.413   0.010  17.483 -1.5545 -2.5000  0.8822
  817MPD2     C12073   3.378   2.602  10.040 -0.4002 -0.5713  0.2386
  817MPD2    C112074   3.296   2.576   9.930 -0.5425 -0.4228  0.5845
  817MPD2    C212075   3.190   2.654   9.902  0.3368 -0.6646  0.7071
  817MPD2    C312076   3.158   2.762   9.983  0.1771  0.3339  0.7105
  817MPD2    C412077   3.231   2.778  10.098  0.4142  0.6265  0.9334
  817MPD2    C512078   3.341   2.697  10.126 -0.2188 -0.4075  0.3762
  817MPD2     H12079   3.128   2.631   9.816  0.0101  3.1243 -0.0840
  817MPD2    H112080   3.208   2.853  10.173 -3.8482 -0.6678  0.9711
  817MPD2    H212081   3.462   2.540  10.070  0.0396 -0.0152  0.1462
  817MPD2    H312082   3.401   2.721  10.213 -0.6764 -3.0324  1.3856
  817MPD2     N12083   3.037   2.833   9.950 -0.0267 -0.2322  1.1391
  817MPD2    H512084   3.003   2.813   9.856 -2.4879  1.4174  1.6726
  817MPD2    N112085   3.321   2.460   9.847  0.8098 -0.2211  1.1691
  817MPD2    H712086   3.260   2.454   9.766  1.2920  0.5628  0.7498
  818MPD2     C12087   2.498   2.593  10.345  0.5658  0.1020 -1.1234
  818MPD2    C112088   2.359   2.610  10.356 -0.8489 -0.3554  0.1419
  818MPD2    C212089   2.281   2.560  10.255 -0.0955  0.5905 -0.3553
  818MPD2    C312090   2.338   2.474  10.159  0.0863 -0.1828  0.0140
  818MPD2    C412091   2.483   2.455  10.160  0.4340 -0.3070  0.4804
  818MPD2    C512092   2.559   2.514  10.248 -0.0174  0.6309  0.9039
  818MPD2     H12093   2.175   2.581  10.257 -0.4735 -1.4420  1.2679
  818MPD2    H112094   2.535   2.384  10.097  0.3323  1.5833 -1.7495
  818MPD2    H212095   2.568   2.631  10.419 -0.7313  0.0539  0.1192
  818MPD2    H312096   2.664   2.488  10.255 -0.0623  0.7766  2.1875
  818MPD2     N12097   2.247   2.416  10.063 -0.1186 -0.5708 -0.6418
  818MPD2    H512098   2.147   2.432  10.071 -0.0899 -0.5111 -0.3800
  818MPD2    N112099   2.299   2.657  10.470  0.4262 -0.0935 -0.8179
  818MPD2    H712100   2.198   2.669  10.468  0.3430 -0.9526 -2.4960
  819MPD2     C12101   0.276   3.821  15.062  0.2573 -0.3413 -0.0794
  819MPD2    C112102   0.265   3.696  15.117 -0.1137 -0.0239  0.1775
  819MPD2    C212103   0.377   3.634  15.170 -0.0891  0.4483 -0.0179
  819MPD2    C312104   0.499   3.699  15.158 -0.4182 -0.3117  0.0339
  819MPD2    C412105   0.511   3.824  15.094 -0.2839  0.1636 -0.2059
  819MPD2    C512106   0.402   3.880  15.046 -0.5679 -0.1936 -0.4976
  819MPD2     H12107   0.362   3.535  15.212  0.7838  0.7629  1.0487
  819MPD2    H112108   0.609   3.866  15.077  0.0561 -0.4749  0.1543
  819MPD2    H212109   0.187   3.869  15.025  1.4789  1.1285 -1.1215
  819MPD2    H312110   0.413   3.981  15.007  0.0444 -0.1184 -0.1149
  819MPD2     N12111   0.614   3.630  15.214 -0.0113 -0.3220 -0.0953
  819MPD2    H512112   0.590   3.536  15.242 -1.3115  0.3158  0.9385
  819MPD2    N112113   0.130   3.640  15.105 -0.0723 -0.2515 -1.2558
  819MPD2    H712114   0.056   3.695  15.063  0.8724  1.1760 -1.0391
  820MPD2     C12115   3.952   3.584  14.755  0.0855 -0.2570  0.1872
  820MPD2    C112116   4.016   3.705  14.787 -0.1370 -0.4605 -0.0814
  820MPD2    C212117   4.108   3.696  14.883 -0.2678 -0.3959  0.2965
  820MPD2    C312118   4.152   3.568  14.931 -0.0969 -0.5066  0.6075
  820MPD2    C412119   4.080   3.450  14.898  0.5184  0.1900 -0.0094
  820MPD2    C512120   3.981   3.461  14.806 -0.0328 -0.4633 -0.7595
  820MPD2     H12121   4.150   3.789  14.920  1.9938 -1.3383  0.0864
  820MPD2    H112122   4.106   3.353  14.939  0.7242 -0.0275 -0.6586
  820MPD2    H212123   3.865   3.590  14.690  0.4262  1.7190 -0.0829
  820MPD2    H312124   3.911   3.380  14.789 -1.4140  1.0801 -2.3554
  820MPD2     N12125   4.256   3.544  15.021  0.2316 -0.2261  0.0712
  820MPD2    H512126   4.248   3.456  15.070 -2.1146 -0.1188 -0.1134
  820MPD2    N112127   3.964   3.826  14.738 -0.2814  0.1319 -0.5684
  820MPD2    H712128   3.889   3.816  14.671 -0.6894 -0.4611 -0.0339
  821MPD2     C12129   0.393   4.508  13.158  0.3418  1.2826 -0.1491
  821MPD2    C112130   0.492   4.441  13.233 -0.3248 -0.2471 -0.1960
  821MPD2    C212131   0.587   4.363  13.159 -0.2950  0.6531  0.6626
  821MPD2    C312132   0.582   4.353  13.025  0.3779  0.0715  0.3908
  821MPD2    C412133   0.476   4.412  12.956 -0.0988 -0.0898 -0.5221
  821MPD2    C512134   0.385   4.486  13.025  0.1808 -0.7841  0.4886
  821MPD2     H12135   0.673   4.322  13.209  0.4121  1.6906  0.2981
  821MPD2    H112136   0.468   4.399  12.848 -1.7591  0.5068 -0.4761
  821MPD2    H212137   0.319   4.573  13.203  0.9386  1.0036  1.2443
  821MPD2    H312138   0.296   4.530  12.981  0.8754  1.2331  1.0589
  821MPD2     N12139   0.670   4.279  12.945 -0.7055  0.0078 -0.1349
  821MPD2    H512140   0.642   4.260  12.849  0.0460 -0.5268 -0.2552
  821MPD2    N112141   0.519   4.458  13.382  0.2328 -0.4169 -0.0749
  821MPD2    H712142   0.601   4.409  13.417  0.4811 -0.5363 -0.8336
  822MPD2     C12143   0.409   0.278  15.792  0.5564 -0.3909 -0.0652
  822MPD2    C112144   0.497   0.250  15.892 -0.0326 -0.1382  0.0206
  822MPD2    C212145   0.506   0.340  15.998  0.0711 -0.1940 -0.1932
  822MPD2    C312146   0.410   0.443  16.014 -0.1721  0.0323 -0.6313
  822MPD2    C412147   0.314   0.456  15.917  0.2767  0.0401  0.3436
  822MPD2    C512148   0.318   0.376  15.805  0.4089 -0.1336  0.1618
  822MPD2     H12149   0.586   0.335  16.071  0.7292 -2.2812 -1.0587
  822MPD2    H112150   0.237   0.532  15.908  0.4235  0.1513  0.0125
  822MPD2    H212151   0.406   0.233  15.693 -1.7923  1.7071 -0.9361
  822MPD2    H312152   0.238   0.390  15.733  1.2603 -0.8189 -0.9142
  822MPD2     N12153   0.429   0.535  16.125  0.2001 -0.1090 -0.7032
  822MPD2    H512154   0.517   0.528  16.175  0.1107  1.9207 -0.2522
  822MPD2    N112155   0.586   0.147  15.887  0.2365  0.0958  0.1553
  822MPD2    H712156   0.642   0.158  15.971  0.5660  1.7048 -0.2654
  823MPD2     C12157   0.314   0.511  16.955  0.0239  0.0748 -0.3260
  823MPD2    C112158   0.396   0.477  16.850 -0.0595  0.3313 -0.1315
  823MPD2    C212159   0.445   0.345  16.852  0.6108 -1.2322 -0.1547
  823MPD2    C312160   0.428   0.258  16.960 -0.2416 -0.0686 -0.2119
  823MPD2    C412161   0.349   0.303  17.062  0.2287 -0.0060 -0.2367
  823MPD2    C512162   0.294   0.426  17.056 -0.4428 -0.3218  0.4550
  823MPD2     H12163   0.508   0.305  16.773  0.4948  2.1351 -1.9689
  823MPD2    H112164   0.329   0.251  17.155  0.0238 -1.2928 -0.9959
  823MPD2    H212165   0.267   0.608  16.945 -0.9762 -0.2235  1.4530
  823MPD2    H312166   0.239   0.471  17.138 -1.5166 -0.9534  0.0889
  823MPD2     N12167   0.477   0.125  16.966  0.5703  0.0233 -0.3196
  823MPD2    H512168   0.460   0.079  17.055  0.6603 -0.0402 -0.3348
  823MPD2    N112169   0.402   0.571  16.745  0.7947 -0.5378  0.0773
  823MPD2    H712170   0.357   0.661  16.758  0.9433 -0.5700  0.8516
  824MPD2     C12171   0.970   4.171  15.518 -0.3104 -0.0351 -0.5725
  824MPD2    C112172   1.039   4.227  15.627 -0.8973 -0.0626 -1.3236
  824MPD2    C212173   1.160   4.172  15.658 -0.0841  0.3487 -0.4889
  824MPD2    C312174   1.209   4.065  15.602  0.2174 -0.6113  0.3120
  824MPD2    C412175   1.135   3.999  15.501  0.4794  0.1139 -0.1127
  824MPD2    C512176   1.026   4.064  15.452 -0.3503  0.4832 -0.5792
  824MPD2     H12177   1.225   4.219  15.731  1.1294 -1.2749 -0.5120
  824MPD2    H112178   1.178   3.933  15.427  0.3200  1.8221 -1.7366
  824MPD2    H212179   0.872   4.209  15.490 -0.5379  0.4626  0.9226
  824MPD2    H312180   0.973   4.019  15.370 -0.8462  2.2628 -1.2277
  824MPD2     N12181   1.331   4.013  15.648 -0.7372  0.2465  0.6719
  824MPD2    H512182   1.373   4.074  15.717  1.7949 -0.0439 -0.6400
  824MPD2    N112183   0.986   4.335  15.702  0.5029  0.1940 -0.7145
  824MPD2    H712184   1.038   4.365  15.783  0.4578 -1.0764 -0.2203
  825MPD2     C12185   2.180   3.974  15.681 -0.8092  0.8828  0.5128
  825MPD2    C112186   2.072   4.059  15.706 -0.6151  0.0339  0.5620
  825MPD2    C212187   2.086   4.197  15.719 -0.0340 -0.0175 -0.6154
  825MPD2    C312188   2.215   4.246  15.721  0.5567 -1.1806  0.3799
  825MPD2    C412189   2.318   4.162  15.711  0.6557  0.4547 -0.1289
  825MPD2    C512190   2.304   4.028  15.702  0.1591  0.1856  0.1492
  825MPD2     H12191   2.002   4.264  15.733 -0.3025 -0.6076  0.5948
  825MPD2    H112192   2.422   4.191  15.711  0.6199  0.5854  1.5337
  825MPD2    H212193   2.157   3.868  15.678 -1.5153  1.0710 -0.7115
  825MPD2    H312194   2.386   3.958  15.694 -1.7050 -1.8436 -1.3106
  825MPD2     N12195   2.242   4.385  15.720  0.4980 -0.0464  0.1184
  825MPD2    H512196   2.342   4.401  15.725  0.9201 -2.4400 -0.8844
  825MPD2    N112197   1.948   4.001  15.705  0.0458 -0.9651 -0.5262
  825MPD2    H712198   1.945   3.900  15.705 -2.8712 -0.8665 -0.3399
  826MPD2     C12199   1.867   4.167  14.250 -0.0862 -0.8774 -0.3936
  826MPD2    C112200   1.826   4.189  14.118  0.8117 -0.0009  0.8465
  826MPD2    C212201   1.704   4.251  14.084  0.5748 -0.1947  0.7035
  826MPD2    C312202   1.628   4.304  14.186 -0.3773 -0.4122 -0.6683
  826MPD2    C412203   1.672   4.303  14.321  0.3597  1.0164  0.1525
  826MPD2    C512204   1.785   4.223  14.348 -0.7793  0.2419  0.4901
  826MPD2     H12205   1.677   4.254  13.979 -0.5203  1.4255  1.0277
  826MPD2    H112206   1.611   4.351  14.397 -0.6485 -0.0075 -0.0167
  826MPD2    H212207   1.960   4.116  14.273 -0.0494 -0.6771 -0.0992
  826MPD2    H312208   1.806   4.205  14.452 -0.8654  0.6797  0.5858
  826MPD2     N12209   1.499   4.356  14.164 -0.6222 -0.1386 -0.5039
  826MPD2    H512210   1.434   4.371  14.241 -0.2896 -0.9393 -0.0643
  826MPD2    N112211   1.914   4.144  14.011  0.1726 -0.3937 -0.6620
  826MPD2    H712212   2.004   4.100  14.028  0.8093  1.5940  1.0774
  827MPD2     C12213   2.711   0.964  10.153  0.5172 -0.2551 -0.2227
  827MPD2    C112214   2.608   0.918  10.232  0.4934  0.0567 -0.4662
  827MPD2    C212215   2.478   0.949  10.193  0.2175 -0.7160 -0.2157
  827MPD2    C312216   2.450   1.032  10.088 -0.4794 -0.1426  0.1448
  827MPD2    C412217   2.559   1.065  10.000  0.1383 -0.1452 -0.8129
  827MPD2    C512218   2.689   1.032  10.036  0.6604  0.0115  0.6595
  827MPD2     H12219   2.401   0.919  10.264 -2.5330  1.5863 -2.2123
  827MPD2    H112220   2.543   1.131   9.916  0.2174 -0.6701 -1.2376
  827MPD2    H212221   2.819   0.955  10.165  0.5169  0.1217  0.0785
  827MPD2    H312222   2.769   1.048   9.964 -1.2962 -0.5647 -1.6675
  827MPD2     N12223   2.313   1.065  10.074  0.6223  0.1236 -0.5641
  827MPD2    H512224   2.245   1.038  10.144  1.6113 -0.3422  0.2089
  827MPD2    N112225   2.641   0.864  10.353 -0.7021  0.4075  0.3098
  827MPD2    H712226   2.737   0.869  10.386 -0.4037 -1.6330 -0.2939
  828MPD2     C12227   0.417   4.630  12.636 -0.2950  0.6481  0.1152
  828MPD2    C112228   0.410   0.014  12.573  0.5460 -0.0741  0.0055
  828MPD2    C212229   0.473   0.030  12.456 -0.2939  0.4673  0.6828
  828MPD2    C312230   0.524   4.665  12.380  0.0269  0.3878  0.6501
  828MPD2    C412231   0.536   4.542  12.439 -1.1198  0.2083 -0.3599
  828MPD2    C512232   0.475   4.525  12.563 -0.1387 -0.2572  0.0258
  828MPD2     H12233   0.460   0.131  12.420  4.2605  0.5122 -0.7526
  828MPD2    H112234   0.588   4.459  12.394  1.7692  2.3714 -0.9730
  828MPD2    H212235   0.368   4.611  12.731 -1.1331  0.8373 -0.2830
  828MPD2    H312236   0.474   4.423  12.599  2.0070 -0.3765 -0.2251
  828MPD2     N12237   0.577   4.687  12.253 -0.1444 -0.0811 -0.7317
  828MPD2    H512238   0.610   4.606  12.200  2.1887 -1.8293  3.3953
  828MPD2    N112239   0.357   0.140  12.629 -0.0332 -0.5428  0.0550
  828MPD2    H712240   0.381   0.221  12.574  1.0628 -1.0008 -0.1501
  829MPD2     C12241   0.247   0.901  12.261  0.0036  0.4698  0.2287
  829MPD2    C112242   0.151   0.920  12.358 -0.0151  0.2095 -0.1386
  829MPD2    C212243   0.137   0.830  12.454  0.6131 -0.2440  0.3457
  829MPD2    C312244   0.218   0.719  12.468  0.0254  0.1404 -0.4243
  829MPD2    C412245   0.317   0.701  12.377 -0.5315  0.1432 -0.1904
  829MPD2    C512246   0.330   0.793  12.282 -0.2794 -0.5900  0.3663
  829MPD2     H12247   0.056   0.850  12.522 -0.0818 -0.0169 -0.5509
  829MPD2    H112248   0.390   0.621  12.387 -1.5261 -0.4015  2.7719
  829MPD2    H212249   0.264   0.960  12.171  1.3981  1.0888  0.9011
  829MPD2    H312250   0.400   0.782  12.200 -0.2687 -0.0344  0.3005
  829MPD2     N12251   0.208   0.611  12.559  0.2101  0.3873  0.1047
  829MPD2    H512252   0.263   0.528  12.536 -0.7254 -0.3809  0.6152
  829MPD2    N112253   0.060   1.030  12.343  0.8074 -0.2742  0.0821
  829MPD2    H712254   0.083   1.100  12.274 -0.4497 -0.9550 -1.0478
  830MPD2     C12255   1.206   3.117  15.510 -0.0626 -0.1538 -0.5140
  830MPD2    C112256   1.141   3.188  15.411 -0.2947  0.5250  0.4041
  830MPD2    C212257   1.215   3.269  15.331 -0.3165  0.1158  0.6695
  830MPD2    C312258   1.349   3.292  15.352  0.4443  0.4294  0.2588
  830MPD2    C412259   1.419   3.225  15.445 -0.0519 -0.2184  0.1612
  830MPD2    C512260   1.339   3.138  15.522  0.5646  0.2577  0.1382
  830MPD2     H12261   1.164   3.328  15.256 -0.1469  1.6060  1.7176
  830MPD2    H112262   1.525   3.233  15.464  0.2137  0.3897 -1.5663
  830MPD2    H212263   1.150   3.061  15.585 -2.2497  0.5847 -1.6049
  830MPD2    H312264   1.369   3.076  15.605  2.2536 -0.4470 -1.0008
  830MPD2     N12265   1.408   3.389  15.268 -0.5662  0.2009  0.7220
  830MPD2    H512266   1.341   3.422  15.199  0.6131 -0.7133 -0.8574
  830MPD2    N112267   1.006   3.176  15.399  0.4864 -0.2190  0.4686
  830MPD2    H712268   0.952   3.134  15.474 -0.3206  1.5820  0.9022
  831MPD2     C12269   0.983   0.272  16.424  0.3139 -0.2283  0.3416
  831MPD2    C112270   0.912   0.249  16.312  0.8801 -0.3654 -0.1929
  831MPD2    C212271   0.778   0.211  16.318  0.4498  0.4640  0.6606
  831MPD2    C312272   0.716   0.209  16.444  0.4291 -0.3435  0.3490
  831MPD2    C412273   0.785   0.244  16.552 -0.0547  0.4205 -0.1527
  831MPD2    C512274   0.917   0.269  16.546 -0.3682  0.4183  0.1288
  831MPD2     H12275   0.740   0.170  16.226  0.2410  1.2673  0.3877
  831MPD2    H112276   0.738   0.245  16.650  1.2258 -2.0287  0.4934
  831MPD2    H212277   1.089   0.291  16.416  0.9253 -3.0261  1.6628
  831MPD2    H312278   0.966   0.299  16.638  0.7537 -0.7557 -0.0985
  831MPD2     N12279   0.579   0.172  16.465  0.0473 -0.4148 -0.0533
  831MPD2    H512280   0.536   0.183  16.556 -0.0665  0.9225 -0.2645
  831MPD2    N112281   0.982   0.255  16.188 -0.3780  0.0303 -0.0055
  831MPD2    H712282   1.080   0.281  16.188 -0.8419  1.7841  1.0371
  832MPD2     C12283   3.866   0.782  17.300 -0.5379  0.0882  0.0331
  832MPD2    C112284   3.848   0.918  17.292  0.7342  0.2549  0.4620
  832MPD2    C212285   3.725   0.967  17.255 -0.7813 -0.7115 -0.3702
  832MPD2    C312286   3.624   0.881  17.214 -0.5167  0.7347 -0.1880
  832MPD2    C412287   3.647   0.753  17.215 -0.2609  0.6196 -0.2271
  832MPD2    C512288   3.765   0.699  17.259 -0.0619 -0.3654  0.3255
  832MPD2     H12289   3.703   1.073  17.244  0.8814 -0.3396 -0.0758
  832MPD2    H112290   3.564   0.688  17.191  0.4603 -0.1388 -0.6817
  832MPD2    H212291   3.957   0.734  17.332 -0.5524 -0.2170 -0.3744
  832MPD2    H312292   3.782   0.596  17.287  0.3099 -0.6359 -0.8706
  832MPD2     N12293   3.504   0.917  17.158 -0.3166 -0.2101 -0.0949
  832MPD2    H512294   3.448   0.837  17.128  0.7608 -1.1955  0.5075
  832MPD2    N112295   3.962   0.992  17.333  0.2437 -0.4865 -0.0440
  832MPD2    H712296   4.043   0.942  17.367  1.1055  0.5930 -0.4915
  833MPD2     C12297   1.064   2.899  13.006 -0.1653 -0.2755  1.2947
  833MPD2    C112298   1.079   3.016  12.931 -0.1956 -0.0603 -0.7051
  833MPD2    C212299   1.213   3.047  12.904  0.3011  0.0256  0.4287
  833MPD2    C312300   1.321   2.975  12.952 -0.5532  0.5450 -0.2807
  833MPD2    C412301   1.302   2.866  13.029  0.0329  0.2050  0.7777
  833MPD2    C512302   1.172   2.828  13.053 -0.1871  0.1180 -0.0394
  833MPD2     H12303   1.236   3.126  12.833  1.0946 -1.1925 -0.6674
  833MPD2    H112304   1.381   2.802  13.067 -1.3922 -2.9092 -1.4607
  833MPD2    H212305   0.972   2.846  13.024 -0.8872 -0.1275 -1.9924
  833MPD2    H312306   1.145   2.744  13.115  0.6083 -0.4430 -0.4560
  833MPD2     N12307   1.454   2.999  12.919  0.0083 -0.1435 -0.7055
  833MPD2    H512308   1.525   2.928  12.930 -1.1164 -1.3368 -1.2133
  833MPD2    N112309   0.971   3.089  12.884 -0.4562 -0.2445 -0.2727
  833MPD2    H712310   0.876   3.056  12.902  0.0800 -1.3303  0.5520
  834MPD2     C12311   1.339   2.756  12.088 -0.6048  0.0928 -0.0323
  834MPD2    C112312   1.437   2.841  12.043 -0.7721  0.1220 -0.7564
  834MPD2    C212313   1.539   2.883  12.135  0.2321 -0.3856 -0.2498
  834MPD2    C312314   1.532   2.832  12.263 -0.5467 -0.2440  0.0433
  834MPD2    C412315   1.433   2.746  12.307 -1.2262  0.4839  1.1267
  834MPD2    C512316   1.345   2.701  12.217  0.3300  0.0186  0.6543
  834MPD2     H12317   1.604   2.964  12.106 -1.7545  1.8556  1.5916
  834MPD2    H112318   1.421   2.710  12.409 -2.1751  0.9066  1.1611
  834MPD2    H212319   1.271   2.715  12.014  0.2493 -0.0288 -0.7527
  834MPD2    H312320   1.284   2.619  12.256  1.0319 -0.9813 -0.3434
  834MPD2     N12321   1.617   2.897  12.349  0.2408  0.6013  0.4685
  834MPD2    H512322   1.670   2.972  12.305 -1.1690  0.5042 -1.4057
  834MPD2    N112323   1.432   2.895  11.909 -0.6757  0.0835  0.2806
  834MPD2    H712324   1.347   2.874  11.857 -1.3557  2.5110  0.3928
  835MPD2     C12325   1.430   1.414  11.143  0.0006 -0.1787  0.8199
  835MPD2    C112326   1.309   1.341  11.146  0.7247  0.1105  0.3100
  835MPD2    C212327   1.305   1.218  11.221 -0.4272 -0.0636 -0.2334
  835MPD2    C312328   1.414   1.193  11.302 -0.7838  0.5472  0.4707
  835MPD2    C412329   1.527   1.265  11.292  0.9329 -0.0271 -0.2479
  835MPD2    C512330   1.536   1.375  11.215 -0.5159 -0.3640 -0.1513
  835MPD2     H12331   1.220   1.151  11.212  0.4673 -1.2316  0.0813
  835MPD2    H112332   1.611   1.232  11.353  1.2109  2.4949  0.7340
  835MPD2    H212333   1.436   1.506  11.086 -0.6529 -0.3363  0.4981
  835MPD2    H312334   1.626   1.435  11.222 -0.3107 -0.6419 -0.3802
  835MPD2     N12335   1.415   1.074  11.380 -0.1117  0.1357 -0.5591
  835MPD2    H512336   1.494   1.051  11.440  0.7456  0.6374 -1.4937
  835MPD2    N112337   1.196   1.377  11.065 -0.3224  0.2434 -0.5114
  835MPD2    H712338   1.110   1.324  11.066  1.1173 -2.0387  0.7328
  836MPD2     C12339   0.825   0.709  11.631 -1.0430 -0.7056  0.5797
  836MPD2    C112340   0.935   0.663  11.699 -0.2769 -0.5360  0.2191
  836MPD2    C212341   0.923   0.618  11.829  0.0024 -0.2516  0.3677
  836MPD2    C312342   0.797   0.608  11.883 -0.4786 -0.2625 -0.2136
  836MPD2    C412343   0.689   0.649  11.814  0.7693  0.4768 -0.5554
  836MPD2    C512344   0.700   0.704  11.684  0.1507 -1.3338 -0.6918
  836MPD2     H12345   1.008   0.588  11.889  0.5470 -0.5787 -0.5600
  836MPD2    H112346   0.588   0.636  11.851  0.4839  1.6999 -0.9164
  836MPD2    H212347   0.830   0.749  11.530  1.2375  0.0742  1.0070
  836MPD2    H312348   0.608   0.724  11.630 -0.0580 -0.2619  0.0574
  836MPD2     N12349   0.776   0.543  12.004  0.3592  0.2015 -0.1249
  836MPD2    H512350   0.678   0.531  12.027 -0.0972 -1.4866 -3.0545
  836MPD2    N112351   1.062   0.679  11.633  0.1422 -0.1419 -0.2559
  836MPD2    H712352   1.062   0.716  11.538  2.3529  0.5594  0.0206
  837MPD2     C12353   4.344   0.436  10.281  0.9709 -0.2156 -0.5948
  837MPD2    C112354   4.275   0.462  10.171 -0.0290  0.2792  0.0579
  837MPD2    C212355   4.214   0.587  10.150 -0.0158  0.2441  0.4446
  837MPD2    C312356   4.236   0.693  10.228 -0.5378  0.0665 -0.8816
  837MPD2    C412357   4.305   0.668  10.345  0.6421  0.4670 -0.3031
  837MPD2    C512358   4.354   0.543  10.372  0.0722  0.5451 -0.1320
  837MPD2     H12359   4.158   0.592  10.058 -2.3746  1.1092  1.9334
  837MPD2    H112360   4.327   0.750  10.412  1.1806 -0.1378  0.2634
  837MPD2    H212361   4.393   0.340  10.295 -0.0221 -0.6044  0.2245
  837MPD2    H312362   4.421   0.522  10.454  1.8570  1.4080 -1.3876
  837MPD2     N12363   4.183   0.817  10.183  0.0343 -0.0902 -0.1905
  837MPD2    H512364   4.214   0.890  10.245 -2.5674  0.2648  0.6937
  837MPD2    N112365   4.253   0.383  10.062  0.6632 -0.2457 -0.7512
  837MPD2    H712366   4.204   0.425   9.985 -0.8467  0.9359  0.8635
  838MPD2     C12367   3.221   3.741  11.661 -0.2324 -0.2868 -0.0620
  838MPD2    C112368   3.188   3.606  11.636 -0.4585  1.0255 -0.0294
  838MPD2    C212369   3.102   3.541  11.716 -0.2927  0.4528 -0.5770
  838MPD2    C312370   3.041   3.610  11.822  0.0989 -0.8550 -0.3141
  838MPD2    C412371   3.076   3.740  11.848  0.3951 -0.4699 -0.0290
  838MPD2    C512372   3.157   3.805  11.764  0.2216 -0.2375  0.4601
  838MPD2     H12373   3.072   3.439  11.696  2.5150 -0.6631  0.9536
  838MPD2    H112374   3.027   3.801  11.923 -0.4401  0.0859 -1.0253
  838MPD2    H212375   3.291   3.797  11.600  0.3275  0.3117  1.1391
  838MPD2    H312376   3.187   3.909  11.774  1.5703 -0.7644  1.7647
  838MPD2     N12377   2.952   3.552  11.916  0.0465  0.5332 -0.3171
  838MPD2    H512378   2.931   3.608  11.998  1.4027 -0.0547  0.4166
  838MPD2    N112379   3.246   3.523  11.536  0.1468 -0.3023  0.7829
  838MPD2    H712380   3.228   3.423  11.533 -1.9417  0.0838  0.5103
  839MPD2     C12381   2.838   2.919  11.140 -0.9610  0.3472 -0.6568
  839MPD2    C112382   2.962   2.859  11.155 -0.2092  0.4624 -0.1648
  839MPD2    C212383   3.069   2.932  11.167 -0.5952  0.0512  0.5952
  839MPD2    C312384   3.060   3.071  11.173  0.5287  0.2639  0.0226
  839MPD2    C412385   2.940   3.135  11.159 -0.1165  0.0553  0.2871
  839MPD2    C512386   2.829   3.057  11.135 -0.6069 -0.1129  0.4569
  839MPD2     H12387   3.169   2.889  11.168 -0.2482  0.7974 -0.7882
  839MPD2    H112388   2.938   3.243  11.157  0.9880  0.0874  1.0128
  839MPD2    H212389   2.743   2.869  11.128 -1.3299  1.2348 -1.4657
  839MPD2    H312390   2.726   3.088  11.123  0.3579  1.7462 -3.0813
  839MPD2     N12391   3.162   3.163  11.192 -0.5904  0.0637 -0.0545
  839MPD2    H512392   3.135   3.260  11.179  3.0069  1.2312  1.2270
  839MPD2    N112393   2.982   2.721  11.139 -0.1447 -0.0922 -0.6398
  839MPD2    H712394   3.077   2.685  11.146 -0.4170 -0.5826  0.4508
  840MPD2     C12395   3.167   0.979  10.670  0.1314 -0.5971  0.0472
  840MPD2    C112396   3.065   1.014  10.757 -0.1288  0.3698 -0.0944
  840MPD2    C212397   3.105   1.074  10.878  0.1496  0.1070 -0.1023
  840MPD2    C312398   3.239   1.090  10.918  0.9824 -0.2219 -0.5292
  840MPD2    C412399   3.332   1.052  10.829 -0.1216 -0.3163  0.0562
  840MPD2    C512400   3.292   0.996  10.707  0.2866 -0.4545 -0.6056
  840MPD2     H12401   3.033   1.085  10.959 -1.3246 -0.2303 -1.3670
  840MPD2    H112402   3.438   1.051  10.848 -0.3582 -1.3619  1.3515
  840MPD2    H212403   3.145   0.936  10.573  0.2061 -1.7932  0.5625
  840MPD2    H312404   3.376   0.962  10.648  0.3886 -1.8942  0.3665
  840MPD2     N12405   3.285   1.150  11.037  0.1119 -0.0509  0.3561
  840MPD2    H512406   3.385   1.168  11.028  0.0103  0.7656  0.8355
  840MPD2    N112407   2.934   0.980  10.720 -0.3053  0.2097  0.4488
  840MPD2    H712408   2.930   0.922  10.636  0.4576 -0.2502  0.7267
  841MPD2     C12409   2.387   0.518  14.245  0.0829 -0.8227  0.3170
  841MPD2    C112410   2.434   0.390  14.256 -0.9422 -0.6386  0.3774
  841MPD2    C212411   2.571   0.370  14.279 -0.3734 -0.1133 -0.3681
  841MPD2    C312412   2.653   0.468  14.312 -0.2286 -0.2879 -0.2639
  841MPD2    C412413   2.611   0.594  14.288 -0.4313 -0.1564  0.0679
  841MPD2    C512414   2.478   0.619  14.256 -0.1854  0.4945  0.1854
  841MPD2     H12415   2.596   0.270  14.313 -3.1268 -0.1825  1.4943
  841MPD2    H112416   2.674   0.681  14.303 -1.8732  0.9309 -0.1205
  841MPD2    H212417   2.286   0.538  14.210 -0.2773 -2.0029  0.6699
  841MPD2    H312418   2.463   0.726  14.241 -1.0368  0.7164  2.6247
  841MPD2     N12419   2.782   0.429  14.359 -0.1259 -0.5929 -0.7030
  841MPD2    H512420   2.800   0.329  14.362  0.2480 -0.4562  1.3355
  841MPD2    N112421   2.355   0.280  14.240 -0.1256 -0.0671 -0.0954
  841MPD2    H712422   2.399   0.191  14.217  1.6705  0.9327 -0.5486
  842MPD2     C12423   2.873   1.177  17.157  0.3416 -0.0784 -0.2633
  842MPD2    C112424   2.942   1.290  17.133 -0.1467 -0.2363 -0.9064
  842MPD2    C212425   3.056   1.314  17.204  0.0073  0.7257  0.3455
  842MPD2    C312426   3.102   1.224  17.295 -0.0331 -0.9289  0.2074
  842MPD2    C412427   3.034   1.107  17.319  0.5884  0.4728 -0.1218
  842MPD2    C512428   2.917   1.088  17.250 -0.3710  0.1464  0.9292
  842MPD2     H12429   3.102   1.409  17.179  0.5380  0.6452  1.0060
  842MPD2    H112430   3.063   1.031  17.391 -0.6892 -0.5228 -0.6371
  842MPD2    H212431   2.777   1.157  17.110  0.7513 -0.6309 -0.8590
  842MPD2    H312432   2.855   1.003  17.275  0.0813 -0.8966 -1.4202
  842MPD2     N12433   3.216   1.248  17.377 -0.2603 -0.3577  0.4315
  842MPD2    H512434   3.233   1.166  17.435 -0.0443  1.6953  3.2879
  842MPD2    N112435   2.884   1.372  17.034  0.8390  0.6927 -0.3285
  842MPD2    H712436   2.808   1.331  16.980  0.7697  0.1546  0.1756
  843MPD2     C12437   0.299   1.469   0.544  0.0957 -0.1001  0.3801
  843MPD2    C112438   0.323   1.499   0.678 -0.0472  1.1152  0.3045
  843MPD2    C212439   0.405   1.608   0.701  0.4084  0.1812  0.1898
  843MPD2    C312440   0.459   1.681   0.601  0.2476 -0.4586  0.9119
  843MPD2    C412441   0.416   1.668   0.471 -0.7415  0.3152 -0.1276
  843MPD2    C512442   0.337   1.557   0.445  0.0711  1.2209 -0.4007
  843MPD2     H12443   0.437   1.625   0.803  0.6566 -3.4683  0.7389
  843MPD2    H112444   0.436   1.732   0.386  1.3258  0.6301  0.5989
  843MPD2    H212445   0.238   1.384   0.517 -2.1702  2.1237 -1.5402
  843MPD2    H312446   0.308   1.546   0.341  1.6138  0.3073 -0.7199
  843MPD2     N12447   0.558   1.785   0.620  0.9398 -0.1167  0.0448
  843MPD2    H512448   0.577   1.838   0.536  0.0597  0.4760  0.2237
  843MPD2    N112449   0.273   1.399   0.773  1.0112  0.1870 -0.1157
  843MPD2    H712450   0.208   1.329   0.740  0.0281  0.7006  0.7539
  844MPD2     C12451   3.246   0.908  16.449  0.1724 -0.4811  0.8434
  844MPD2    C112452   3.319   0.791  16.469  0.1230 -0.3570  0.5141
  844MPD2    C212453   3.429   0.784  16.563 -0.9975  0.0455 -0.2161
  844MPD2    C312454   3.450   0.894  16.643  0.3641  0.1205 -0.2507
  844MPD2    C412455   3.364   1.006  16.633 -0.4817 -0.6147  0.4200
  844MPD2    C512456   3.270   1.015  16.537 -0.6823 -0.4848  0.1039
  844MPD2     H12457   3.497   0.700  16.561  0.5937  1.3083 -0.1370
  844MPD2    H112458   3.395   1.086  16.699 -3.2373  0.2602  0.6512
  844MPD2    H212459   3.172   0.922  16.371  0.5110  0.8021  0.7418
  844MPD2    H312460   3.201   1.098  16.530  0.0340  0.0520 -0.6303
  844MPD2     N12461   3.565   0.890  16.731 -0.0671 -0.9552 -0.4012
  844MPD2    H512462   3.619   0.805  16.718  0.1586 -1.0314  1.0254
  844MPD2    N112463   3.284   0.688  16.384  0.0959 -0.6324 -0.4948
  844MPD2    H712464   3.203   0.708  16.326 -0.0004  0.1943 -0.0747
  845MPD2     C12465   3.973   1.705  16.957  0.1291 -0.3454  0.1415
  845MPD2    C112466   3.976   1.631  17.070  0.5218  0.0661 -0.5120
  845MPD2    C212467   3.977   1.487  17.060 -0.2140  1.0340 -0.2981
  845MPD2    C312468   3.956   1.420  16.936 -0.0558  0.5893  0.2953
  845MPD2    C412469   3.955   1.496  16.826 -0.8100 -0.3180  0.2039
  845MPD2    C512470   3.969   1.636  16.840  0.2180 -0.3240 -0.4824
  845MPD2     H12471   3.972   1.425  17.149  0.9566 -0.1184 -1.0390
  845MPD2    H112472   3.956   1.461  16.723  0.7078 -2.3027  0.8958
  845MPD2    H212473   3.971   1.813  16.943 -2.3966 -0.2236  1.3733
  845MPD2    H312474   3.956   1.689  16.746 -1.6490  1.5817  0.8575
  845MPD2     N12475   3.936   1.282  16.920 -0.3776  0.4253 -0.3327
  845MPD2    H512476   3.896   1.255  16.830 -0.2919  1.6726 -0.7407
  845MPD2    N112477   3.980   1.699  17.196 -0.1468  0.3441  0.2946
  845MPD2    H712478   4.004   1.798  17.197  1.0642  0.0520 -0.4595
  846MPD2     C12479   0.655   2.398  13.526 -0.0497 -0.2687  0.3622
  846MPD2    C112480   0.620   2.518  13.583 -0.0887 -0.6607  0.5720
  846MPD2    C212481   0.615   2.519  13.724 -0.0583  0.7943 -0.2201
  846MPD2    C312482   0.653   2.416  13.809  0.1395  0.2527 -0.1300
  846MPD2    C412483   0.691   2.294  13.747 -0.0655 -0.0953 -0.0272
  846MPD2    C512484   0.691   2.287  13.610 -0.2278 -0.1935  0.1373
  846MPD2     H12485   0.589   2.616  13.764  1.9848  0.5555  1.6794
  846MPD2    H112486   0.716   2.204  13.803  0.8938  0.3156  0.2076
  846MPD2    H212487   0.646   2.376  13.420 -1.9739 -0.3618  0.5482
  846MPD2    H312488   0.696   2.189  13.563 -3.7414 -0.5493  0.4697
  846MPD2     N12489   0.642   2.430  13.950 -0.4790 -0.3904 -0.8651
  846MPD2    H512490   0.592   2.513  13.983  0.8697 -0.2795  0.9197
  846MPD2    N112491   0.583   2.642  13.515  0.4306  0.4096 -0.2345
  846MPD2    H712492   0.571   2.726  13.570  1.3238  0.8478 -0.7155
  847MPD2     C12493   1.059   3.284  13.700  0.8488  0.0948  0.3342
  847MPD2    C112494   1.084   3.385  13.794  1.0887  0.0480 -0.3187
  847MPD2    C212495   1.127   3.353  13.920 -0.6216  0.5160  0.1882
  847MPD2    C312496   1.152   3.218  13.949  0.5903  0.3430 -0.3172
  847MPD2    C412497   1.146   3.120  13.852 -0.0009 -0.3823  0.4179
  847MPD2    C512498   1.096   3.151  13.724 -0.4404 -0.0566  0.6531
  847MPD2     H12499   1.140   3.430  13.995 -1.4692  0.7803  0.0664
  847MPD2    H112500   1.170   3.016  13.868  2.4443 -0.0452 -0.9975
  847MPD2    H212501   1.012   3.304  13.604 -0.1017  0.5279  0.8935
  847MPD2    H312502   1.078   3.079  13.645  2.6302 -2.0366  1.7560
  847MPD2     N12503   1.184   3.179  14.083  0.0474  0.0286  0.2198
  847MPD2    H512504   1.188   3.261  14.142  1.6827 -1.1242  1.6990
  847MPD2    N112505   1.052   3.523  13.781  0.6430  0.5100  0.2710
  847MPD2    H712506   1.072   3.582  13.862 -2.4769  3.0388 -0.7799
  848MPD2     C12507   3.093   1.367  16.572  0.5399  0.2301  0.4874
  848MPD2    C112508   3.195   1.372  16.662  0.7920  0.1117 -0.1615
  848MPD2    C212509   3.295   1.460  16.633  0.3393  0.0123 -0.0131
  848MPD2    C312510   3.296   1.538  16.524 -0.0520 -0.4404 -0.1056
  848MPD2    C412511   3.201   1.526  16.425  0.5095  0.2861  0.2613
  848MPD2    C512512   3.100   1.438  16.453  0.9130  0.1607 -0.1142
  848MPD2     H12513   3.386   1.463  16.692  0.0443 -0.9336  0.4966
  848MPD2    H112514   3.195   1.592  16.340 -2.1787  0.0494  0.2414
  848MPD2    H212515   3.009   1.298  16.582  0.1880  0.6424  0.3900
  848MPD2    H312516   3.023   1.418  16.379  1.3973 -0.1512 -0.5332
  848MPD2     N12517   3.391   1.640  16.503  0.4935  0.0697  0.0106
  848MPD2    H512518   3.383   1.694  16.418 -0.9019 -0.9803 -0.5331
  848MPD2    N112519   3.207   1.287  16.778 -0.0542  0.0359  0.1299
  848MPD2    H712520   3.287   1.300  16.840  0.5357  1.1039 -0.8425
  849MPD2     C12521   2.682   1.241  14.779  0.8190 -0.0250  0.6361
  849MPD2    C112522   2.643   1.262  14.652  0.4598 -0.3773  0.2685
  849MPD2    C212523   2.674   1.180  14.544 -0.0648  0.2090 -0.4631
  849MPD2    C312524   2.765   1.079  14.579  0.0525 -0.0592 -0.5236
  849MPD2    C412525   2.798   1.050  14.714  0.5385 -0.2034  0.0315
  849MPD2    C512526   2.762   1.126  14.814 -0.0561  0.6267  0.6526
  849MPD2     H12527   2.654   1.197  14.439 -1.3670  1.3847 -0.0228
  849MPD2    H112528   2.854   0.959  14.728  0.3119  0.1365  2.9956
  849MPD2    H212529   2.642   1.305  14.857 -0.0064  0.2507 -0.0209
  849MPD2    H312530   2.793   1.119  14.918 -2.0919 -0.7427  1.1635
  849MPD2     N12531   2.812   1.000  14.468 -0.0245 -0.3191 -0.4108
  849MPD2    H512532   2.781   1.036  14.378 -0.3163 -0.5225 -0.3880
  849MPD2    N112533   2.587   1.394  14.637 -0.3776 -0.1595 -0.2010
  849MPD2    H712534   2.586   1.449  14.722 -1.1478  0.4531 -0.6148
  850MPD2     C12535   0.972   4.392  14.594 -0.0435 -0.4112  0.1625
  850MPD2    C112536   0.946   4.448  14.715 -0.6348  0.0929  0.0807
  850MPD2    C212537   1.045   4.516  14.780  0.3345  0.4971  0.1946
  850MPD2    C312538   1.177   4.507  14.735 -0.1786  0.0279  0.2481
  850MPD2    C412539   1.198   4.453  14.611 -0.3278 -0.3373  0.1454
  850MPD2    C512540   1.096   4.397  14.537  0.8344  0.0411 -0.0094
  850MPD2     H12541   1.025   4.560  14.877  1.5945  1.6135 -0.0463
  850MPD2    H112542   1.297   4.458  14.566 -0.1766 -0.1531  0.5009
  850MPD2    H212543   0.892   4.350  14.534  0.8027 -1.4590 -0.2490
  850MPD2    H312544   1.113   4.342  14.445  1.4653  0.1189  0.0614
  850MPD2     N12545   1.286   4.551  14.815 -0.1834 -0.0542 -0.5802
  850MPD2    H512546   1.371   4.558  14.760  1.0031 -2.5221  0.9503
  850MPD2    N112547   0.807   4.459  14.744  0.4531  0.1810 -0.0940
  850MPD2    H712548   0.744   4.441  14.666  1.6948 -0.7314 -0.8761
  851MPD2     C12549   1.351   4.361  15.393 -0.1150 -0.2156  0.2490
  851MPD2    C112550   1.262   4.293  15.318  0.1531 -0.5757  0.8572
  851MPD2    C212551   1.297   4.173  15.258  0.1923  0.0605  0.0761
  851MPD2    C312552   1.425   4.123  15.278  0.1188  0.0182 -0.0254
  851MPD2    C412553   1.512   4.194  15.361  0.0005  0.4525 -0.7522
  851MPD2    C512554   1.471   4.314  15.421  0.2262 -0.5397 -0.2760
  851MPD2     H12555   1.222   4.113  15.207  1.0421  0.4983 -1.6754
  851MPD2    H112556   1.613   4.157  15.368  0.7345  2.7002  0.6831
  851MPD2    H212557   1.320   4.454  15.439 -0.1986  0.0790 -0.3920
  851MPD2    H312558   1.540   4.377  15.476 -0.8666  1.0000 -0.6443
  851MPD2     N12559   1.456   3.997  15.226 -0.1845 -0.2092  0.0568
  851MPD2    H512560   1.388   3.966  15.158 -0.5344 -0.4366  0.5132
  851MPD2    N112561   1.141   4.352  15.287 -0.1025 -0.8568  0.1971
  851MPD2    H712562   1.127   4.447  15.322 -0.0203 -0.4214 -0.9388
  852MPD2     C12563   1.412   2.655   9.895  0.1239 -0.3962 -0.5223
  852MPD2    C112564   1.421   2.715  10.020 -0.4639  0.0845 -0.2652
  852MPD2    C212565   1.525   2.803  10.034 -0.2984  0.5670 -0.3377
  852MPD2    C312566   1.621   2.826   9.930  0.1682  0.1253  0.6448
  852MPD2    C412567   1.599   2.771   9.802 -0.7990  0.8800 -0.2891
  852MPD2    C512568   1.498   2.687   9.792 -0.1460  0.1913  0.2731
  852MPD2     H12569   1.545   2.844  10.132  0.2907 -2.1844  0.6691
  852MPD2    H112570   1.665   2.780   9.716 -1.3842  1.1012 -0.7141
  852MPD2    H212571   1.328   2.592   9.867 -0.0645 -1.0223  1.3929
  852MPD2    H312572   1.473   2.649   9.694 -0.7190  1.7744 -0.2064
  852MPD2     N12573   1.737   2.902   9.969 -0.2217  0.4387 -0.5765
  852MPD2    H512574   1.763   2.918  10.066  2.4027 -0.5796 -1.0911
  852MPD2    N112575   1.327   2.697  10.126  0.3539 -0.4328  0.5562
  852MPD2    H712576   1.354   2.751  10.208 -0.0976 -0.9126  1.0152
  853MPD2     C12577   2.569   1.764  12.763 -0.1450  0.2401 -0.5374
  853MPD2    C112578   2.579   1.887  12.700  0.3474  0.3851  0.3717
  853MPD2    C212579   2.661   1.894  12.588 -0.2847 -0.4504  0.4901
  853MPD2    C312580   2.730   1.783  12.539 -0.4569  0.1586 -0.3344
  853MPD2    C412581   2.704   1.662  12.593  0.8544  0.1117 -0.2689
  853MPD2    C512582   2.634   1.655  12.715 -0.1585 -0.7607 -0.2675
  853MPD2     H12583   2.673   1.989  12.536  0.2905 -0.3782  0.7562
  853MPD2    H112584   2.741   1.567  12.556 -1.7458 -0.8243 -0.4020
  853MPD2    H212585   2.527   1.747  12.862  0.8479 -0.0827 -0.1644
  853MPD2    H312586   2.616   1.561  12.765 -2.9764  0.0436  0.2750
  853MPD2     N12587   2.830   1.794  12.437 -0.6705  0.0389 -0.2558
  853MPD2    H512588   2.881   1.711  12.410  1.0096 -0.0084  2.9659
  853MPD2    N112589   2.513   1.986  12.764 -0.2915  0.0699 -0.8842
  853MPD2    H712590   2.474   1.975  12.857 -0.6230  2.2203 -0.7666
  854MPD2     C12591   4.007   1.992  13.096  0.8636 -0.0098  0.1621
  854MPD2    C112592   4.088   2.064  13.007 -0.2443 -0.7497 -0.0126
  854MPD2    C212593   4.216   2.017  12.983  0.1075 -0.7132  1.0131
  854MPD2    C312594   4.261   1.899  13.037  0.3101 -0.0621  0.1154
  854MPD2    C412595   4.185   1.840  13.134  0.6317 -0.1333  0.1783
  854MPD2    C512596   4.057   1.876  13.155 -0.7140 -0.4162 -0.1244
  854MPD2     H12597   4.287   2.066  12.917 -1.9467  0.0600 -0.6145
  854MPD2    H112598   4.229   1.753  13.182  2.5138  0.0491 -1.1966
  854MPD2    H212599   3.912   2.034  13.124 -0.1371 -0.3843 -2.6687
  854MPD2    H312600   3.997   1.810  13.217  2.0961 -2.4258  0.4341
  854MPD2     N12601   4.389   1.852  13.004  0.3834 -0.1248  0.4021
  854MPD2    H512602   4.407   1.775  13.068 -0.5055 -0.6466  0.0330
  854MPD2    N112603   4.043   2.190  12.964  0.1736  0.1156  0.1642
  854MPD2    H712604   3.960   2.233  13.003 -1.2335 -2.8195  0.4135
  855MPD2     C12605   0.363   1.648  13.627  0.0892  0.0254  0.0968
  855MPD2    C112606   0.227   1.630  13.602  0.1884 -0.2814  0.0506
  855MPD2    C212607   0.168   1.662  13.487 -0.5020  0.4274  0.4062
  855MPD2    C312608   0.249   1.688  13.374  0.1747  0.2121 -0.3142
  855MPD2    C412609   0.387   1.702  13.390 -0.2460  0.2475 -0.0788
  855MPD2    C512610   0.445   1.684  13.517  0.7128  0.0104  0.1449
  855MPD2     H12611   0.060   1.651  13.486 -0.4625  0.0606  0.5870
  855MPD2    H112612   0.453   1.729  13.309 -1.6079 -3.3651 -2.3993
  855MPD2    H212613   0.400   1.632  13.727 -0.9350  2.3212  0.8504
  855MPD2    H312614   0.552   1.684  13.529  0.9244  1.3220 -1.7509
  855MPD2     N12615   0.196   1.711  13.248  0.5127 -0.7534 -0.2680
  855MPD2    H512616   0.261   1.744  13.178  1.8542 -1.9949  0.3930
  855MPD2    N112617   0.141   1.585  13.706 -0.0728 -0.7141 -0.8242
  855MPD2    H712618   0.045   1.584  13.674 -0.2397 -1.2040 -0.3174
  856MPD2     C12619   1.692   2.716  13.941 -0.0055  0.5187  0.3058
  856MPD2    C112620   1.754   2.834  13.964  0.3384  0.3629  0.2258
  856MPD2    C212621   1.799   2.911  13.854  0.0241  0.8329  0.3637
  856MPD2    C312622   1.767   2.875  13.725  0.1826  0.0830 -0.0835
  856MPD2    C412623   1.697   2.756  13.706  0.7073 -0.1062 -0.3277
  856MPD2    C512624   1.663   2.676  13.813 -0.0247  0.6263 -0.5177
  856MPD2     H12625   1.866   2.994  13.870 -1.4326  2.2534 -0.8843
  856MPD2    H112626   1.672   2.713  13.610  0.8127 -0.4716 -0.1922
  856MPD2    H212627   1.664   2.655  14.026 -0.3840 -1.3697 -1.1772
  856MPD2    H312628   1.626   2.574  13.807 -2.3193  1.5177 -1.4279
  856MPD2     N12629   1.802   2.944  13.609  0.2004  0.2994 -0.2941
  856MPD2    H512630   1.756   2.909  13.526  0.7039 -1.5524  0.2202
  856MPD2    N112631   1.796   2.883  14.090  0.4539  0.6573  0.0905
  856MPD2    H712632   1.842   2.973  14.101  1.3195  0.1886  0.2882
  857MPD2     C12633   3.327   0.570  12.315  0.6381  0.2171 -0.2590
  857MPD2    C112634   3.418   0.495  12.385  0.7372  0.0311  0.5065
  857MPD2    C212635   3.526   0.557  12.443 -0.1189 -0.0436  0.2553
  857MPD2    C312636   3.539   0.696  12.446 -0.1780 -0.3016  0.4629
  857MPD2    C412637   3.444   0.775  12.381 -0.3828  0.1660  0.0662
  857MPD2    C512638   3.343   0.709  12.312  0.1177  0.0495  0.1449
  857MPD2     H12639   3.602   0.499  12.494  0.1861 -0.4968 -0.7015
  857MPD2    H112640   3.431   0.881  12.396  0.5187  0.2198  0.5184
  857MPD2    H212641   3.242   0.533  12.257 -0.7025 -0.6463  2.2650
  857MPD2    H312642   3.277   0.778  12.260 -0.8174 -1.0291 -0.0842
  857MPD2     N12643   3.645   0.753  12.523 -0.2455  0.1798 -0.1733
  857MPD2    H512644   3.704   0.682  12.566 -0.2567  0.7289  0.7365
  857MPD2    N112645   3.397   0.350  12.388  0.0463  0.6443 -0.5567
  857MPD2    H712646   3.319   0.315  12.332 -0.8063  0.9863  0.4135
  858MPD2     C12647   3.986   4.086  16.735  0.6417 -0.3588 -0.2980
  858MPD2    C112648   4.072   3.979  16.727  0.2985 -0.1623 -0.1222
  858MPD2    C212649   4.168   3.951  16.826  0.7609 -0.3513  0.0958
  858MPD2    C312650   4.186   4.048  16.928  0.1568  0.8950  0.1527
  858MPD2    C412651   4.092   4.152  16.941 -0.8059 -0.6777 -0.0740
  858MPD2    C512652   3.990   4.171  16.842  0.6506  0.8319 -0.2695
  858MPD2     H12653   4.232   3.865  16.810  0.3544 -1.1277  2.6732
  858MPD2    H112654   4.088   4.214  17.030 -2.3050 -1.0459  0.1144
  858MPD2    H212655   3.922   4.123  16.656 -0.5007  0.7337  1.1385
  858MPD2    H312656   3.925   4.256  16.855 -0.1195  0.1077  0.6461
  858MPD2     N12657   4.297   4.039  17.011 -0.8977 -0.3875  1.3117
  858MPD2    H512658   4.287   4.098  17.094 -2.1121 -0.5990  1.3209
  858MPD2    N112659   4.062   3.902  16.607  0.0372 -0.0748 -0.4972
  858MPD2    H712660   4.027   3.952  16.526 -0.6153 -0.5771 -0.5231
  859MPD2     C12661   2.426   1.180  15.562 -0.1987  0.5767 -0.6155
  859MPD2    C112662   2.528   1.121  15.496 -0.0358 -0.0103 -0.7266
  859MPD2    C212663   2.570   0.993  15.524 -0.7815 -0.6297 -0.9050
  859MPD2    C312664   2.503   0.918  15.619 -0.2348  0.2148 -0.4577
  859MPD2    C412665   2.402   0.980  15.686  0.8144  0.3767  0.2459
  859MPD2    C512666   2.360   1.104  15.656 -0.4414  0.6075  0.4647
  859MPD2     H12667   2.664   0.960  15.480 -2.1002 -3.1053 -1.9172
  859MPD2    H112668   2.367   0.925  15.772 -1.1507 -0.6442 -1.2037
  859MPD2    H212669   2.384   1.278  15.540 -2.6305 -0.5765 -1.1775
  859MPD2    H312670   2.280   1.153  15.711 -2.0756 -2.3468  0.6709
  859MPD2     N12671   2.529   0.784  15.642  0.0189 -0.3411  0.2750
  859MPD2    H512672   2.470   0.741  15.712 -0.4435 -2.2920 -1.3259
  859MPD2    N112673   2.597   1.188  15.392 -0.4696  0.5382 -0.0585
  859MPD2    H712674   2.658   1.127  15.339  0.7455 -0.2218  2.2125
  860MPD2     C12675   0.718   2.689  11.790  0.0702 -0.4778  0.1355
  860MPD2    C112676   0.745   2.554  11.808  0.2181  0.2205 -0.1499
  860MPD2    C212677   0.639   2.466  11.823 -0.1704 -0.6357 -0.3009
  860MPD2    C312678   0.503   2.513  11.828  0.8576 -0.5081  0.1145
  860MPD2    C412679   0.483   2.642  11.794  0.0365 -0.1391 -0.1971
  860MPD2    C512680   0.590   2.724  11.774 -0.9082  0.5147  0.2591
  860MPD2     H12681   0.659   2.361  11.839  0.9132 -0.5652 -1.2204
  860MPD2    H112682   0.388   2.694  11.794 -0.3058 -0.7744 -1.2988
  860MPD2    H212683   0.794   2.766  11.780 -1.0386  0.4523 -1.1416
  860MPD2    H312684   0.567   2.829  11.762  0.2650  0.8390  0.7777
  860MPD2     N12685   0.408   2.415  11.850  0.3365  0.3814  0.0972
  860MPD2    H512686   0.445   2.324  11.875  1.5789  0.9829  0.4569
  860MPD2    N112687   0.880   2.506  11.801  0.2167  0.8645  0.3355
  860MPD2    H712688   0.900   2.407  11.798 -0.9404  0.5784  2.1861
  861MPD2     C12689   3.973   0.019  11.043 -0.6616 -0.4727  0.4565
  861MPD2    C112690   3.986   0.153  11.047 -0.0577  0.4559 -0.2595
  861MPD2    C212691   3.931   0.233  10.950  1.0127 -0.3142 -0.3413
  861MPD2    C312692   3.852   0.182  10.852  0.6281 -0.0184 -0.0629
  861MPD2    C412693   3.846   0.040  10.842  0.0598  0.0060  0.7517
  861MPD2    C512694   3.910   4.703  10.930 -0.6407 -0.1506 -0.1507
  861MPD2     H12695   3.928   0.338  10.978  3.6600  0.0626 -1.5374
  861MPD2    H112696   3.795   4.725  10.763 -1.6189 -0.6966  2.3077
  861MPD2    H212697   4.010   4.683  11.114 -1.8091  1.0097  2.5519
  861MPD2    H312698   3.887   4.598  10.922 -1.1291  0.0520 -1.4666
  861MPD2     N12699   3.793   0.257  10.744  0.4142  0.1857 -0.0018
  861MPD2    H512700   3.759   0.205  10.664  2.4649  1.9069 -2.0070
  861MPD2    N112701   4.063   0.211  11.156 -0.4526 -0.2558 -0.5263
  861MPD2    H712702   4.066   0.313  11.153 -1.8209 -0.2237 -0.6072
  862MPD2     C12703   3.489   0.204  10.083 -0.0655  0.4135  0.0669
  862MPD2    C112704   3.544   0.157  10.201  0.2904  0.3450 -0.7592
  862MPD2    C212705   3.545   0.024  10.226 -0.6579  0.2850 -0.0089
  862MPD2    C312706   3.458   4.679  10.146 -0.2301  0.3514  0.2439
  862MPD2    C412707   3.393   4.728  10.038  0.3773 -0.0971 -0.6957
  862MPD2    C512708   3.418   0.119  10.008  0.4945 -0.5777  0.0832
  862MPD2     H12709   3.590   4.732  10.320  0.2393 -1.3538 -0.9513
  862MPD2    H112710   3.323   4.671   9.978  0.2780 -0.0234 -0.6488
  862MPD2    H212711   3.488   0.308  10.054  2.7530 -0.0512 -1.6338
  862MPD2    H312712   3.360   0.154   9.923 -1.3590  0.9548  1.9666
  862MPD2     N12713   3.425   4.546  10.192 -0.3851  0.0796  1.1581
  862MPD2    H512714   3.338   4.503  10.162 -1.4506  2.8821  0.1904
  862MPD2    N112715   3.588   0.249  10.295 -0.8121  0.1991  0.1398
  862MPD2    H712716   3.630   0.205  10.376  0.6124  0.8162 -0.2547
  863MPD2     C12717   2.821   2.648  17.153  0.2630 -0.4547 -0.0057
  863MPD2    C112718   2.844   2.779  17.146  0.0711  0.1147 -0.9670
  863MPD2    C212719   2.955   2.836  17.211 -0.4254  0.9960  0.3797
  863MPD2    C312720   3.038   2.748  17.281  0.2288 -0.3681 -0.7318
  863MPD2    C412721   3.008   2.615  17.287 -0.0995  0.1568 -0.6406
  863MPD2    C512722   2.898   2.561  17.227  1.0864 -0.5068  0.1479
  863MPD2     H12723   2.975   2.943  17.207  0.7928  0.7211 -0.8922
  863MPD2    H112724   3.054   2.552  17.362 -1.7564  0.0577  0.2722
  863MPD2    H212725   2.732   2.610  17.105  0.3551 -0.3028 -0.2949
  863MPD2    H312726   2.868   2.458  17.242  0.3539 -0.2149  0.6716
  863MPD2     N12727   3.155   2.781  17.345  0.1466 -0.5807 -0.1116
  863MPD2    H512728   3.220   2.708  17.371 -1.4015 -1.2526  1.8324
  863MPD2    N112729   2.759   2.859  17.065  0.0515  0.4534  0.3144
  863MPD2    H712730   2.692   2.808  17.008 -0.2830  0.1866  0.9527
  864MPD2     C12731   3.288   4.172  17.510 -0.4544 -0.7101  0.1669
  864MPD2    C112732   3.379   4.086  17.452 -0.1825  0.5241  0.1622
  864MPD2    C212733   3.490   4.145  17.401 -0.3498 -0.8567 -0.1092
  864MPD2    C312734   3.514   4.280  17.417 -0.7867  0.2836 -0.5094
  864MPD2    C412735   3.425   4.362  17.482  0.5842 -0.4934  0.2974
  864MPD2    C512736   3.305   4.307  17.514  0.1714 -0.3454 -0.2860
  864MPD2     H12737   3.569   4.088  17.354 -0.1389 -1.1627  0.6101
  864MPD2    H112738   3.453   4.464  17.506 -4.1752  1.6516 -3.3877
  864MPD2    H212739   3.199   4.138  17.562  0.0447 -1.5978  0.4491
  864MPD2    H312740   3.230   4.363  17.569 -0.1851 -0.4971 -0.6104
  864MPD2     N12741   3.634   4.343  17.371  0.1035  0.3297 -0.9202
  864MPD2    H512742   3.658   4.428  17.420 -0.7302 -0.0778  0.1944
  864MPD2    N112743   3.352   3.942  17.439  0.1722 -0.5578  0.3512
  864MPD2    H712744   3.274   3.898  17.487 -1.8407  4.3020  1.5598
  865MPD2     C12745   3.266   4.243  16.454 -0.0137 -0.2147 -0.0578
  865MPD2    C112746   3.295   4.116  16.497 -0.3597  0.5839 -0.5811
  865MPD2    C212747   3.339   4.099  16.626 -0.3727 -0.1940  0.4719
  865MPD2    C312748   3.365   4.209  16.702  0.4637  0.1216  0.6867
  865MPD2    C412749   3.342   4.338  16.656 -0.3758 -0.0331  0.2387
  865MPD2    C512750   3.301   4.355  16.531  0.4544  0.9120 -0.1258
  865MPD2     H12751   3.364   3.998  16.659  1.5375  0.2669  0.4331
  865MPD2    H112752   3.362   4.430  16.709 -2.0338  0.1864  0.4836
  865MPD2    H212753   3.235   4.249  16.350  0.1331  2.6125  0.0830
  865MPD2    H312754   3.278   4.453  16.493  0.9984  0.6115 -1.2252
  865MPD2     N12755   3.423   4.186  16.826 -0.6416 -0.2820  0.1565
  865MPD2    H512756   3.421   4.089  16.858  0.2367  0.7654  3.4398
  865MPD2    N112757   3.266   4.012  16.403 -1.0741 -0.2658  0.0734
  865MPD2    H712758   3.254   4.038  16.306  2.5642 -1.6741 -0.7645
  866MPD2     C12759   4.622   0.765  11.106  0.8029 -0.4439  0.2079
  866MPD2    C112760   4.539   0.735  10.998  0.1545  0.1020 -0.2420
  866MPD2    C212761   4.402   0.743  11.009  0.0563  0.3535  0.4982
  866MPD2    C312762   4.343   0.780  11.122  0.8607 -0.3360  0.7037
  866MPD2    C412763   4.422   0.786  11.235 -0.2852 -0.4333 -0.2233
  866MPD2    C512764   4.559   0.791  11.225 -0.2190 -0.2814 -0.4567
  866MPD2     H12765   4.340   0.711  10.925 -2.3759  3.0133  1.2859
  866MPD2    H112766   4.387   0.806  11.335  2.3257 -0.5446  0.7078
  866MPD2    H212767   4.729   0.746  11.099  0.8299 -1.0643  2.2653
  866MPD2    H312768   4.608   0.808  11.320 -1.4722  0.6515  0.0198
  866MPD2     N12769   4.206   0.796  11.138  0.6519 -0.7909  0.2309
  866MPD2    H512770   4.168   0.796  11.232 -0.0911  1.2603 -0.0788
  866MPD2    N112771   4.603   0.695  10.873 -0.1199 -0.0876  0.1737
  866MPD2    H712772   4.704   0.702  10.878 -0.0796 -1.3142  1.0141
  867MPD2     C12773   2.597   4.197  17.208 -0.2530 -0.2233  0.1661
  867MPD2    C112774   2.530   4.103  17.285  0.0940  0.0825  0.0868
  867MPD2    C212775   2.405   4.123  17.344  0.0936 -0.0077 -0.1648
  867MPD2    C312776   2.358   4.256  17.355 -0.0146  0.3850  0.7717
  867MPD2    C412777   2.432   4.353  17.281  0.1495  0.2326  0.0622
  867MPD2    C512778   2.545   4.321  17.210 -0.2069 -0.5271  0.0497
  867MPD2     H12779   2.353   4.042  17.394  2.5927 -2.0636 -0.9287
  867MPD2    H112780   2.405   4.457  17.269  0.0563  0.0399 -1.3892
  867MPD2    H212781   2.695   4.172  17.170 -0.0017  1.9396 -0.5644
  867MPD2    H312782   2.591   4.403  17.156 -0.9745 -0.3247 -0.2996
  867MPD2     N12783   2.240   4.298  17.426 -0.8674 -0.6744  0.4855
  867MPD2    H512784   2.212   4.395  17.418  1.4890  0.1019  1.5544
  867MPD2    N112785   2.582   3.971  17.272  0.1625  0.3785 -0.9380
  867MPD2    H712786   2.661   3.969  17.208 -0.0363  2.7212 -1.2642
  868MPD2     C12787   3.693   3.456  13.201  0.3591 -1.3390  0.0003
  868MPD2    C112788   3.730   3.362  13.292  0.7928 -0.8565 -0.4579
  868MPD2    C212789   3.652   3.353  13.412 -0.5891 -0.0586  0.1552
  868MPD2    C312790   3.536   3.432  13.430  1.0509  0.2045  0.2373
  868MPD2    C412791   3.496   3.513  13.333 -0.3493  0.2240 -0.1485
  868MPD2    C512792   3.574   3.526  13.223  0.6072  0.6831  0.2568
  868MPD2     H12793   3.684   3.287  13.491 -3.3566  1.0369  2.1917
  868MPD2    H112794   3.422   3.592  13.343 -0.9612 -0.1049 -1.9832
  868MPD2    H212795   3.755   3.473  13.114  0.3609  0.6453  0.3931
  868MPD2    H312796   3.546   3.595  13.144  2.4067 -0.2403 -1.2286
  868MPD2     N12797   3.468   3.433  13.557 -0.1671  0.1896  0.2756
  868MPD2    H512798   3.516   3.391  13.635 -0.1107  1.0416  0.6952
  868MPD2    N112799   3.845   3.284  13.269  0.1653  0.2963 -0.4881
  868MPD2    H712800   3.881   3.296  13.175 -0.6274 -0.3323 -0.8739
  869MPD2     C12801   4.366   1.611   2.639  0.3415 -0.4250  0.3325
  869MPD2    C112802   4.315   1.517   2.544 -0.2036  0.0173 -0.2673
  869MPD2    C212803   4.349   1.539   2.415  0.2101 -0.0462 -0.0932
  869MPD2    C312804   4.432   1.642   2.378  0.6279  0.1594  0.4482
  869MPD2    C412805   4.485   1.730   2.472  0.2465  0.0995 -0.3686
  869MPD2    C512806   4.449   1.718   2.602 -0.4092  0.3046  0.0933
  869MPD2     H12807   4.309   1.471   2.341 -1.3566  2.3089 -1.4009
  869MPD2    H112808   4.548   1.814   2.446 -0.0156  0.6756  0.8604
  869MPD2    H212809   4.340   1.595   2.743  0.8109  1.5818  0.7642
  869MPD2    H312810   4.492   1.789   2.672  2.0571  0.0639 -1.1730
  869MPD2     N12811   4.461   1.671   2.243 -0.2296  0.6272  0.4420
  869MPD2    H512812   4.511   1.757   2.223  0.3988 -0.4134 -2.4748
  869MPD2    N112813   4.255   1.397   2.588  0.3061 -0.5508 -0.3776
  869MPD2    H712814   4.244   1.390   2.689 -1.7577  2.0364 -0.4216
  870MPD2     C12815   4.116   4.001   1.500  0.3758 -0.4526  0.8994
  870MPD2    C112816   4.194   4.111   1.509 -1.0744  0.3002 -0.2744
  870MPD2    C212817   4.143   4.235   1.479 -0.6374  0.8210  0.2801
  870MPD2    C312818   4.007   4.251   1.443 -0.1867  0.0811 -0.0409
  870MPD2    C412819   3.925   4.144   1.436 -0.4361 -0.2432  0.3495
  870MPD2    C512820   3.982   4.019   1.462 -0.0774 -0.4533 -0.3499
  870MPD2     H12821   4.204   4.324   1.489 -1.9395  1.5102  2.0473
  870MPD2    H112822   3.819   4.162   1.418 -0.2645  0.1820 -0.2368
  870MPD2    H212823   4.149   3.900   1.523 -0.9281 -1.2703 -0.8194
  870MPD2    H312824   3.919   3.932   1.454 -1.7257  0.9044 -2.2127
  870MPD2     N12825   3.969   4.385   1.426 -0.1742  0.2664  0.3160
  870MPD2    H512826   4.043   4.454   1.422 -0.8746  0.9738 -0.4025
  870MPD2    N112827   4.326   4.092   1.549  0.2401  0.3199 -0.0168
  870MPD2    H712828   4.360   3.997   1.553  1.3133  0.7291  0.6552
  871MPD2     C12829   1.001   4.456  16.502  0.3173 -0.1759 -0.0983
  871MPD2    C112830   0.966   4.405  16.626  0.1779 -0.1939 -0.5910
  871MPD2    C212831   1.057   4.323  16.692 -0.1619 -0.1160 -0.2743
  871MPD2    C312832   1.179   4.294  16.631  0.2318 -0.3665  0.1204
  871MPD2    C412833   1.211   4.346  16.508  0.0072 -0.7703 -0.4297
  871MPD2    C512834   1.117   4.416  16.438  0.7376 -0.2628  0.1272
  871MPD2     H12835   1.033   4.285  16.791 -1.3014 -0.8008 -0.8108
  871MPD2    H112836   1.296   4.324  16.445  0.8572 -1.5715  0.9899
  871MPD2    H212837   0.935   4.522  16.445  0.4280 -0.3746 -0.4535
  871MPD2    H312838   1.130   4.447  16.335  1.4292  1.9901  0.8888
  871MPD2     N12839   1.257   4.190  16.687  0.0030 -0.4554 -0.2815
  871MPD2    H512840   1.201   4.135  16.751  0.9547 -1.2333 -0.1287
  871MPD2    N112841   0.848   4.452  16.692  0.7100 -0.0510  0.0202
  871MPD2    H712842   0.800   4.532  16.652 -0.2251 -0.7451 -0.2367
  872MPD2     C12843   1.551   2.333  13.774  0.2591  0.5493 -0.3532
  872MPD2    C112844   1.599   2.307  13.900 -0.4061 -0.3698  0.5694
  872MPD2    C212845   1.515   2.255  14.000 -0.3493 -0.1867 -0.0685
  872MPD2    C312846   1.382   2.227  13.976  0.1970  0.5529  0.2561
  872MPD2    C412847   1.336   2.255  13.848  0.5047  0.1132  0.0056
  872MPD2    C512848   1.418   2.297  13.751 -0.4707  0.3130 -0.7725
  872MPD2     H12849   1.553   2.230  14.098 -0.3873  3.0101  0.7777
  872MPD2    H112850   1.232   2.240  13.820  0.9994 -0.1111 -1.6840
  872MPD2    H212851   1.606   2.369  13.688  0.7371 -1.2308 -0.7949
  872MPD2    H312852   1.383   2.316  13.651  0.7498  0.7401 -1.1251
  872MPD2     N12853   1.309   2.183  14.081  0.6280  0.0602 -0.1808
  872MPD2    H512854   1.345   2.201  14.174  0.2864  1.2671 -0.2876
  872MPD2    N112855   1.734   2.345  13.934 -0.4897  0.9931 -0.3128
  872MPD2    H712856   1.767   2.336  14.030 -1.0774  0.5026 -0.1561
  873MPD2     C12857   4.560   2.395   0.988  0.7473 -0.7211 -0.0304
  873MPD2    C112858   4.440   2.370   1.055 -0.7669 -0.0886 -0.1524
  873MPD2    C212859   4.412   2.236   1.088  0.4480 -0.0163 -0.3250
  873MPD2    C312860   4.498   2.131   1.058 -0.2572  0.5809  0.7038
  873MPD2    C412861   4.616   2.161   0.995  0.0695  0.8125 -0.3901
  873MPD2    C512862   4.648   2.292   0.971 -0.2851 -0.0414 -0.0482
  873MPD2     H12863   4.314   2.217   1.131  0.9058 -0.2675  0.6204
  873MPD2    H112864   4.685   2.091   0.950 -0.5124  0.5317 -0.8364
  873MPD2    H212865   4.598   2.492   0.961  0.0442 -1.5832 -4.2499
  873MPD2    H312866   0.007   2.309   0.923 -1.9420  1.4537 -2.8629
  873MPD2     N12867   4.483   1.995   1.091  0.0026  0.0649 -0.2472
  873MPD2    H512868   4.545   1.924   1.052  0.4819  0.6931 -0.6308
  873MPD2    N112869   4.361   2.484   1.090 -0.8219 -0.6619  0.0038
  873MPD2    H712870   4.409   2.572   1.074 -1.3001 -0.0622  1.7776
  874MPD2     C12871   2.967   1.776  16.271 -0.4306  0.7370 -0.7081
  874MPD2    C112872   2.988   1.831  16.396  0.4086 -0.0094 -0.1932
  874MPD2    C212873   3.106   1.906  16.419  0.1518 -0.3009  0.1076
  874MPD2    C312874   3.204   1.908  16.326  0.7908  0.7351  0.1668
  874MPD2    C412875   3.183   1.846  16.203 -0.3444 -0.0536 -0.1192
  874MPD2    C512876   3.061   1.796  16.174  0.3390 -0.4392 -0.2656
  874MPD2     H12877   3.123   1.951  16.516  2.2196  0.6040 -0.6581
  874MPD2    H112878   3.254   1.843  16.121  0.6438  1.7571  0.6711
  874MPD2    H212879   2.876   1.718  16.255 -0.4206  0.0837  1.5851
  874MPD2    H312880   3.043   1.762  16.073  0.0632  0.9198 -0.6833
  874MPD2     N12881   3.327   1.963  16.362 -0.6147 -0.2291  0.4132
  874MPD2    H512882   3.341   1.990  16.459  0.8678  2.0169 -0.4330
  874MPD2    N112883   2.908   1.782  16.503 -0.3997  0.1791 -0.5239
  874MPD2    H712884   2.833   1.715  16.484 -1.9483  1.0684  2.4865
  875MPD2     C12885   3.433   0.428  14.707 -0.0177  0.1017  0.7420
  875MPD2    C112886   3.562   0.463  14.690 -0.1709  0.5049  0.1191
  875MPD2    C212887   3.636   0.501  14.795 -0.0001  0.6518  0.2688
  875MPD2    C312888   3.592   0.487  14.926  0.0633 -0.6418 -0.0165
  875MPD2    C412889   3.463   0.449  14.943 -0.3780  0.1071 -0.3290
  875MPD2    C512890   3.386   0.424  14.841 -0.1617 -0.4738 -0.2062
  875MPD2     H12891   3.741   0.521  14.777  0.0149 -0.1059 -0.4842
  875MPD2    H112892   3.441   0.423  15.046 -1.6962  2.7251  0.0620
  875MPD2    H212893   3.363   0.404  14.628 -2.4120  0.3623  2.7926
  875MPD2    H312894   3.295   0.367  14.855 -1.8221  2.3093  0.2475
  875MPD2     N12895   3.663   0.527  15.041  0.0380 -0.4446 -0.1092
  875MPD2    H512896   3.614   0.511  15.128  2.0322 -1.8114  0.7455
  875MPD2    N112897   3.616   0.465  14.560  0.8395 -0.5670  0.0809
  875MPD2    H712898   3.704   0.511  14.540  0.2537  0.7463  0.5448
  876MPD2     C12899   2.642   1.624  16.032  0.1856  0.3276 -0.3452
  876MPD2    C112900   2.770   1.578  16.006  0.0689  1.0276 -0.2443
  876MPD2    C212901   2.825   1.472  16.085 -0.3193 -0.2603  0.6783
  876MPD2    C312902   2.754   1.432  16.198  0.8463  0.4658 -0.3597
  876MPD2    C412903   2.630   1.477  16.222  0.3952  0.3857 -0.5173
  876MPD2    C512904   2.583   1.573  16.139 -0.5899  0.2297 -0.5516
  876MPD2     H12905   2.923   1.430  16.069 -0.3867  0.4476 -1.6099
  876MPD2    H112906   2.561   1.435  16.293  1.2741  0.5765  0.4604
  876MPD2    H212907   2.597   1.700  15.970  1.6962 -0.1078 -1.9956
  876MPD2    H312908   2.480   1.604  16.151  0.0186  2.6438 -1.5720
  876MPD2     N12909   2.809   1.311  16.255  0.0916  0.2790 -0.3313
  876MPD2    H512910   2.905   1.283  16.237  0.4633 -0.4351  2.8041
  876MPD2    N112911   2.830   1.615  15.883 -0.1079 -0.2572 -0.1814
  876MPD2    H712912   2.772   1.670  15.821  0.3886 -1.3383 -1.6100
  877MPD2     C12913   2.655   1.897  15.178 -0.4145  0.1340 -0.3089
  877MPD2    C112914   2.780   1.829  15.162 -0.3016  0.3546  0.5713
  877MPD2    C212915   2.827   1.824  15.031 -0.9074 -0.7646 -0.5329
  877MPD2    C312916   2.766   1.890  14.925  0.3083 -0.7678  1.0753
  877MPD2    C412917   2.650   1.962  14.948  0.0980 -0.1406  0.2450
  877MPD2    C512918   2.596   1.966  15.075 -0.3876 -0.8876 -0.3403
  877MPD2     H12919   2.919   1.768  15.020 -0.4182  0.1753 -1.1726
  877MPD2    H112920   2.592   2.017  14.876  3.3040  1.0599 -1.4492
  877MPD2    H212921   2.618   1.905  15.280 -0.3043  0.9577 -0.3350
  877MPD2    H312922   2.502   2.014  15.100  0.7898  0.3063  1.7515
  877MPD2     N12923   2.826   1.886  14.797  0.4683 -0.0924 -0.0560
  877MPD2    H512924   2.771   1.928  14.722 -0.7266 -3.1442 -0.8674
  877MPD2    N112925   2.865   1.786  15.275  0.1633 -0.3345  0.7237
  877MPD2    H712926   2.958   1.753  15.249  1.4592  2.4911  1.7792
  878MPD2     C12927   2.470   2.002  13.726  0.3115 -0.2819  0.3574
  878MPD2    C112928   2.592   1.984  13.784 -0.0092 -0.5213  0.0021
  878MPD2    C212929   2.592   1.929  13.911 -0.5915  0.1145  0.3703
  878MPD2    C312930   2.488   1.890  13.985  0.5808 -0.5021  0.3341
  878MPD2    C412931   2.366   1.883  13.915  0.1607 -1.3611  0.6087
  878MPD2    C512932   2.363   1.950  13.796 -0.0524 -0.2965  0.4101
  878MPD2     H12933   2.683   1.928  13.970 -1.1921 -0.4737  1.2944
  878MPD2    H112934   2.275   1.850  13.962 -0.7809  2.3616  1.3881
  878MPD2    H212935   2.455   2.045  13.628 -1.2644 -1.7310 -0.0445
  878MPD2    H312936   2.265   1.947  13.750 -1.0556  0.6061  2.4687
  878MPD2     N12937   2.503   1.852  14.123 -0.5677 -0.3410 -0.2880
  878MPD2    H512938   2.593   1.865  14.168  0.0870  0.8540 -1.9559
  878MPD2    N112939   2.705   2.023  13.710  0.2208 -0.7715  0.4202
  878MPD2    H712940   2.700   2.085  13.630  0.9077 -1.4784 -0.1713
  879MPD2     C12941   3.469   3.006  17.080 -0.1967  0.0750 -0.2528
  879MPD2    C112942   3.523   2.914  17.164  0.0764 -0.8870 -0.0159
  879MPD2    C212943   3.474   2.788  17.168  0.0247  0.3955  0.5325
  879MPD2    C312944   3.370   2.753  17.078 -0.2197  0.6220  0.3973
  879MPD2    C412945   3.319   2.848  16.986 -0.0744  0.2559  0.1866
  879MPD2    C512946   3.370   2.975  16.984 -0.4701  0.0959 -0.1957
  879MPD2     H12947   3.503   2.709  17.236  0.2079  0.7343  0.8488
  879MPD2    H112948   3.233   2.838  16.920 -0.5233  0.3340  0.7605
  879MPD2    H212949   3.511   3.106  17.078  1.1539 -0.5202 -2.6741
  879MPD2    H312950   3.339   3.058  16.921  0.8749  0.4204 -0.4352
  879MPD2     N12951   3.298   2.635  17.083 -0.3762  0.0875 -0.2113
  879MPD2    H512952   3.233   2.613  17.007  0.0462 -1.1299 -0.2276
  879MPD2    N112953   3.633   2.961  17.242 -0.3461  0.2534 -0.7947
  879MPD2    H712954   3.666   3.057  17.231 -0.6105  0.5464  1.0144
  880MPD2     C12955   4.600   4.509   0.343  0.0307 -0.1374  0.3962
  880MPD2    C112956   4.625   4.532   0.477  0.4875 -0.1645 -0.3687
  880MPD2    C212957   4.692   4.432   0.550  0.2058 -0.3531 -0.5259
  880MPD2    C312958   4.728   4.310   0.483  0.0676 -0.0518 -0.8338
  880MPD2    C412959   4.695   4.299   0.356 -0.4024  0.7196  0.3865
  880MPD2    C512960   4.630   4.393   0.287  0.5238 -0.0550  0.0320
  880MPD2     H12961   4.715   4.445   0.655  0.4820 -0.4096 -0.5787
  880MPD2    H112962   4.703   4.209   0.297  1.3464  0.8910  0.3767
  880MPD2    H212963   4.545   4.587   0.290  0.8303  0.3696  0.3157
  880MPD2    H312964   4.607   4.367   0.184 -1.5903  1.2982  0.1788
  880MPD2     N12965   0.038   4.203   0.564  0.2734 -0.7426  0.4305
  880MPD2    H512966   0.039   4.214   0.665 -0.8198  4.3516 -0.1186
  880MPD2    N112967   4.584   4.660   0.526 -0.2446 -0.2181  0.1588
  880MPD2    H712968   4.538   4.724   0.462 -2.1378 -1.8362 -0.0957
  881MPD2     C12969   4.328   0.778   0.192 -0.1338 -0.7164 -0.8040
  881MPD2    C112970   4.331   0.643   0.164 -1.0161 -0.1285  0.6322
  881MPD2    C212971   4.379   0.551   0.258  0.2756 -0.0435  0.6522
  881MPD2    C312972   4.391   0.598   0.389  0.3340  0.1291  0.3239
  881MPD2    C412973   4.358   0.727   0.423  0.0113  0.5879  0.4675
  881MPD2    C512974   4.317   0.817   0.326  0.1640  0.8759 -0.1752
  881MPD2     H12975   4.403   0.448   0.236 -1.4517  0.2047 -2.3738
  881MPD2    H112976   4.348   0.761   0.526 -0.0102 -0.2341  0.7332
  881MPD2    H212977   4.295   0.851   0.119  1.1629 -0.5880 -1.2460
  881MPD2    H312978   4.267   0.911   0.345 -0.6280 -0.2564  3.4511
  881MPD2     N12979   4.436   0.508   0.492 -0.1932 -1.0291 -0.5670
  881MPD2    H512980   4.403   0.526   0.587 -1.8428  0.2626 -1.3720
  881MPD2    N112981   4.333   0.621   0.027 -0.0403 -0.0056 -0.0139
  881MPD2    H712982   4.343   0.705  17.716  0.4875 -0.3720 -0.4524
  882MPD2     C12983   2.917   2.196  14.048  0.5512  0.1459  0.8225
  882MPD2    C112984   2.854   2.156  14.168 -0.4777 -0.0592 -0.1813
  882MPD2    C212985   2.717   2.169  14.191  0.0375 -0.3839  0.0208
  882MPD2    C312986   2.641   2.221  14.089  0.2312  0.3453 -0.3327
  882MPD2    C412987   2.701   2.271  13.971  0.8548 -0.0122  0.8066
  882MPD2    C512988   2.835   2.249  13.944  0.2149  0.5729  0.8208
  882MPD2     H12989   2.683   2.117  14.279 -0.5935  1.0024  0.5943
  882MPD2    H112990   2.635   2.325  13.903  2.0092 -0.3260 -0.5589
  882MPD2    H212991   3.023   2.180  14.033  0.2670  0.0429 -1.0852
  882MPD2    H312992   2.875   2.280  13.848  1.0001  0.0090  0.9694
  882MPD2     N12993   2.495   2.221  14.100  0.6224 -0.7084  0.2066
  882MPD2    H512994   2.438   2.257  14.025  0.0720 -2.7022 -0.3452
  882MPD2    N112995   2.936   2.084  14.251  0.6929 -0.1788 -0.2466
  882MPD2    H712996   3.022   2.053  14.206  1.1839  1.0403 -0.1528
  883MPD2     C12997   4.400   2.323  16.127 -0.1850 -0.3912  0.1081
  883MPD2    C112998   4.498   2.230  16.100  1.1509  0.0534 -0.1625
  883MPD2    C212999   4.614   2.252  16.169  0.0774 -0.4604  0.0343
  883MPD2    C313000   4.639   2.362  16.253 -0.7313 -0.5083  0.1961
  883MPD2    C413001   4.540   2.459  16.268  0.0909  0.2215 -0.0821
  883MPD2    C513002   4.418   2.438  16.201  0.0341 -0.0569 -0.2118
  883MPD2     H13003   4.690   2.175  16.170  1.0118  0.4732  0.8151
  883MPD2    H113004   4.543   2.549  16.328  0.0385  0.0994  0.1011
  883MPD2    H213005   4.304   2.317  16.076  0.0911 -1.5225 -0.2641
  883MPD2    H313006   4.337   2.507  16.220  0.4146  1.1232 -2.9436
  883MPD2     N13007   0.028   2.372  16.319 -0.0838  1.0124 -0.4891
  883MPD2    H513008   0.093   2.295  16.307 -1.4881 -0.3425  0.6213
  883MPD2    N113009   4.479   2.133  16.006  0.1167  0.6387 -0.6263
  883MPD2    H713010   4.389   2.131  15.960 -0.2034 -0.1425  0.0355
  884MPD2     C13011   2.249   2.808  15.543 -0.5656 -0.0468 -0.1632
  884MPD2    C113012   2.258   2.850  15.414 -0.3599 -1.1080  0.2763
  884MPD2    C213013   2.151   2.910  15.349  0.6810  0.6670  0.0652
  884MPD2    C313014   2.030   2.914  15.415  0.5190  0.1030 -0.3798
  884MPD2    C413015   2.012   2.855  15.539  1.0741  0.1427  0.3456
  884MPD2    C513016   2.124   2.801  15.602 -0.4532  0.0740 -0.4231
  884MPD2     H13017   2.160   2.948  15.248  0.3447  0.4404 -0.0484
  884MPD2    H113018   1.920   2.846  15.596  1.1345  2.1094  0.7390
  884MPD2    H213019   2.326   2.760  15.602 -0.7798 -1.1057 -0.7502
  884MPD2    H313020   2.127   2.756  15.701  1.0198 -0.5504 -0.7569
  884MPD2     N13021   1.924   2.972  15.341 -0.7708 -0.1037  0.1772
  884MPD2    H513022   1.947   3.016  15.252  0.1129 -0.3425  0.2820
  884MPD2    N113023   2.380   2.819  15.350 -0.6283 -0.1713  0.2072
  884MPD2    H713024   2.384   2.840  15.251 -0.2767 -0.8186  0.0840
  885MPD2     C13025   0.952   2.570  17.173  0.6293 -0.1773 -0.0570
  885MPD2    C113026   1.029   2.661  17.240 -1.2534 -0.1611 -0.4109
  885MPD2    C213027   1.046   2.795  17.195 -0.2113 -0.2392  0.6078
  885MPD2    C313028   0.984   2.840  17.083 -0.5091  0.1184 -0.2377
  885MPD2    C413029   0.901   2.745  17.015 -0.7573 -0.0571 -0.9870
  885MPD2    C513030   0.887   2.617  17.059 -0.0509  0.4634 -0.1160
  885MPD2     H13031   1.096   2.865  17.261 -0.7657  0.6589  0.0823
  885MPD2    H113032   0.846   2.773  16.926 -1.3658 -1.9108 -1.1977
  885MPD2    H213033   0.939   2.466  17.203 -0.5104  0.5781  2.0912
  885MPD2    H313034   0.826   2.554  16.996 -1.1034  1.1338  0.2258
  885MPD2     N13035   0.988   2.972  17.036 -0.0528  0.2833 -0.1976
  885MPD2    H513036   1.059   3.035  17.072  0.5507 -1.3978  1.4986
  885MPD2    N113037   1.090   2.624  17.359  0.3912  0.6235  0.5619
  885MPD2    H713038   1.076   2.530  17.393  0.8035  0.3569 -0.0225
  886MPD2     C13039   1.300   1.909  15.797  0.5031  0.5412 -0.2269
  886MPD2    C113040   1.410   1.830  15.787  0.3653  0.2362  0.4833
  886MPD2    C213041   1.484   1.838  15.669  0.5583  0.2989  0.0895
  886MPD2    C313042   1.452   1.929  15.572  0.1977 -0.2142  0.7754
  886MPD2    C413043   1.345   2.009  15.590  0.5508  0.4527  0.0765
  886MPD2    C513044   1.266   1.989  15.693  0.0178 -0.3635  0.9792
  886MPD2     H13045   1.574   1.777  15.663  1.2816  1.4325 -0.4452
  886MPD2    H113046   1.312   2.072  15.509  1.4689  0.2560 -0.4521
  886MPD2    H213047   1.218   1.897  15.867  0.5265 -0.5990 -0.4011
  886MPD2    H313048   1.166   2.029  15.683 -0.2336 -1.1879  0.2822
  886MPD2     N13049   1.538   1.960  15.464 -0.4826  0.2643 -0.3201
  886MPD2    H513050   1.523   2.048  15.416 -1.0843  0.8023  0.8729
  886MPD2    N113051   1.451   1.734  15.889  0.1347 -0.1537  0.1215
  886MPD2    H713052   1.519   1.662  15.863  0.0549 -0.2208  0.0980
  887MPD2     C13053   1.853   1.613  16.528  0.1661  0.6253 -0.6035
  887MPD2    C113054   1.802   1.655  16.400  0.2578 -0.8661 -0.3176
  887MPD2    C213055   1.869   1.748  16.329 -0.1515 -0.5696 -0.5616
  887MPD2    C313056   1.985   1.794  16.374  0.4723  0.4534 -0.5165
  887MPD2    C413057   2.041   1.756  16.491  0.5531 -0.3800  0.0477
  887MPD2    C513058   1.972   1.657  16.562  0.0782  0.4865  0.2764
  887MPD2     H13059   1.837   1.783  16.231 -0.4348  1.5892  0.3052
  887MPD2    H113060   2.134   1.798  16.527 -0.5401  2.0389  0.0319
  887MPD2    H213061   1.806   1.539  16.593 -2.7231  0.3423 -3.0208
  887MPD2    H313062   2.012   1.609  16.651  1.5639 -1.2660 -1.3295
  887MPD2     N13063   2.053   1.881  16.285 -0.4347 -0.1844 -0.5246
  887MPD2    H513064   1.994   1.913  16.208 -2.0149  0.4899  0.9527
  887MPD2    N113065   1.688   1.603  16.340  0.1681 -0.2021 -0.2836
  887MPD2    H713066   1.659   1.639  16.250 -0.2962  0.5301  0.1602
  888MPD2     C13067   4.232   1.348  14.975  0.4431  0.5858 -0.1328
  888MPD2    C113068   4.225   1.397  15.103  0.7196 -0.1508 -0.6599
  888MPD2    C213069   4.309   1.506  15.128  0.1021 -0.4030 -0.6419
  888MPD2    C313070   4.390   1.559  15.029  0.5081  0.1657 -0.2641
  888MPD2    C413071   4.409   1.499  14.911  0.3825 -0.2694 -0.7149
  888MPD2    C513072   4.338   1.382  14.892 -0.6256 -0.2110  0.6493
  888MPD2     H13073   4.326   1.549  15.226  0.5296 -0.1740 -0.8156
  888MPD2    H113074   4.467   1.527  14.824 -0.1336 -0.2389 -1.0501
  888MPD2    H213075   4.181   1.256  14.948  0.1725  0.7939 -0.3351
  888MPD2    H313076   4.352   1.329  14.798  1.0832 -0.5609  1.0907
  888MPD2     N13077   4.460   1.686  15.053 -0.3353  0.4965  0.2960
  888MPD2    H513078   4.454   1.708  15.151 -1.2809  0.5587  0.2227
  888MPD2    N113079   4.126   1.362  15.198 -0.0040 -0.0123 -0.1394
  888MPD2    H713080   4.133   1.401  15.292 -0.4318  0.0061 -0.1118
  889MPD2     C13081   4.001   1.508  12.701  0.1623 -1.4943  0.6187
  889MPD2    C113082   3.943   1.418  12.788  0.0050  0.1548  0.4089
  889MPD2    C213083   3.884   1.470  12.903 -0.2711 -0.2965  0.0205
  889MPD2    C313084   3.872   1.611  12.926  0.7488  0.5047  0.1545
  889MPD2    C413085   3.937   1.696  12.836 -0.4217  0.2421 -0.4726
  889MPD2    C513086   4.007   1.642  12.732  0.1828 -0.1713 -0.1943
  889MPD2     H13087   3.820   1.404  12.960 -0.1612  1.0945  1.7258
  889MPD2    H113088   3.954   1.800  12.863 -2.3835  0.4863 -0.2166
  889MPD2    H213089   4.066   1.467  12.625  0.8931 -0.1311  0.5206
  889MPD2    H313090   4.073   1.708  12.676  1.5430 -2.5330 -1.3671
  889MPD2     N13091   3.791   1.659  13.029  0.0008 -0.6794 -0.9920
  889MPD2    H513092   3.769   1.585  13.095 -1.0748  0.2097 -0.3588
  889MPD2    N113093   3.958   1.277  12.769 -0.0155 -0.1599 -0.4363
  889MPD2    H713094   3.925   1.217  12.844  1.7207  0.5196  0.8653
  890MPD2     C13095   2.767   2.750  14.740  0.8648  0.5168  0.1905
  890MPD2    C113096   2.900   2.725  14.770 -0.4315  1.1571  0.4284
  890MPD2    C213097   2.942   2.618  14.847  0.1484 -0.4306 -0.6045
  890MPD2    C313098   2.847   2.533  14.899 -0.1980 -0.0973 -0.9141
  890MPD2    C413099   2.712   2.567  14.885 -0.1233  0.1266  0.1194
  890MPD2    C513100   2.675   2.674  14.803 -0.1324  0.9177 -0.4934
  890MPD2     H13101   3.046   2.588  14.858  0.4294  0.3560 -1.1364
  890MPD2    H113102   2.632   2.508  14.927  0.3915 -0.7069 -0.0555
  890MPD2    H213103   2.732   2.830  14.676  0.5628  0.3380  0.1297
  890MPD2    H313104   2.573   2.711  14.801 -0.1576  0.6455 -3.7283
  890MPD2     N13105   2.900   2.421  14.972 -0.1404 -0.0248 -0.4009
  890MPD2    H513106   2.999   2.399  14.968  0.1030  1.2323 -1.4633
  890MPD2    N113107   2.998   2.816  14.718  0.7628  0.0635 -0.3634
  890MPD2    H713108   2.954   2.890  14.665 -1.2143 -1.1420 -0.3877
  891MPD2     C13109   0.808   0.733  16.523  0.2065 -0.1499 -0.3824
  891MPD2    C113110   0.784   0.820  16.628  0.3507  0.1431 -0.3764
  891MPD2    C213111   0.831   0.794  16.752 -0.2613 -0.8111  0.0602
  891MPD2    C313112   0.916   0.686  16.780  0.1634  0.4752  0.7276
  891MPD2    C413113   0.943   0.603  16.674 -0.3273  0.3099 -0.0878
  891MPD2    C513114   0.889   0.626  16.550  0.0104 -0.3632  0.0151
  891MPD2     H13115   0.807   0.865  16.830  0.4803 -1.1787  0.6265
  891MPD2    H113116   1.005   0.514  16.674  0.3940  0.8021 -1.8296
  891MPD2    H213117   0.779   0.747  16.419 -0.0668 -0.1645 -0.3092
  891MPD2    H313118   0.899   0.553  16.471  0.5001  0.3537 -0.5917
  891MPD2     N13119   0.958   0.663  16.913  0.1820 -0.2612 -0.3425
  891MPD2    H513120   0.913   0.721  16.982  1.2372  0.9850 -0.7154
  891MPD2    N113121   0.719   0.945  16.615 -0.5022 -0.1399  0.7245
  891MPD2    H713122   0.704   0.992  16.704 -2.0784  0.0354  0.3616
  892MPD2     C13123   2.028   2.257  14.953  0.1995 -0.4921 -0.0436
  892MPD2    C113124   1.936   2.295  14.865  0.6765 -0.0510  0.3726
  892MPD2    C213125   1.958   2.258  14.732  0.5388 -0.3424  0.4740
  892MPD2    C313126   2.062   2.176  14.690 -0.7684 -0.7706 -0.5628
  892MPD2    C413127   2.159   2.149  14.784  0.9936  0.1632  0.1553
  892MPD2    C513128   2.142   2.188  14.916 -0.3867  0.3634  0.5082
  892MPD2     H13129   1.883   2.279  14.657  2.1122  2.9718 -0.1571
  892MPD2    H113130   2.231   2.077  14.748 -0.0185 -0.0605 -1.4222
  892MPD2    H213131   2.013   2.284  15.057  2.2434 -0.2275  0.1949
  892MPD2    H313132   2.220   2.173  14.989  2.6410  1.9147 -2.3789
  892MPD2     N13133   2.094   2.144  14.557 -0.0449  0.3353  0.1338
  892MPD2    H513134   2.189   2.110  14.550  0.1242  0.8890 -0.2612
  892MPD2    N113135   1.813   2.363  14.896 -0.5605 -0.1747  0.0106
  892MPD2    H713136   1.757   2.386  14.814  0.0741  3.1735  0.5073
  893MPD2     C13137   4.293   0.111   1.425  0.3981 -1.0506  0.1929
  893MPD2    C113138   4.219   0.137   1.537  0.6058  0.1442 -0.1581
  893MPD2    C213139   4.178   0.031   1.613 -0.0929  0.2898  0.8142
  893MPD2    C313140   4.219   4.631   1.591 -0.0428 -0.0408 -0.5747
  893MPD2    C413141   4.303   4.610   1.486  0.3663 -0.7178 -0.4085
  893MPD2    C513142   4.345   4.717   1.414  0.4317  0.4340  0.5424
  893MPD2     H13143   4.110   0.051   1.695 -0.8846 -0.0165  0.2358
  893MPD2    H113144   4.348   4.515   1.459  0.1706 -1.1595  0.7984
  893MPD2    H213145   4.332   0.186   1.357 -0.8130 -1.4802 -0.9710
  893MPD2    H313146   4.424   4.699   1.342  1.2833  0.4207  1.4825
  893MPD2     N13147   4.183   4.529   1.674 -0.1019 -0.4345 -0.5421
  893MPD2    H513148   4.228   4.439   1.659 -0.2660 -0.3617 -1.4965
  893MPD2    N113149   4.173   0.269   1.549 -0.6714  0.2887  0.4485
  893MPD2    H713150   4.228   0.336   1.497  2.2172 -1.8942  0.6395
  894MPD2     C13151   2.499   3.255   1.666 -0.1713 -0.1046 -0.1906
  894MPD2    C113152   2.426   3.318   1.561 -0.2252 -0.1612 -0.6870
  894MPD2    C213153   2.483   3.334   1.434 -0.6042 -0.1873  0.0507
  894MPD2    C313154   2.606   3.289   1.406 -0.9523 -0.3779 -0.0450
  894MPD2    C413155   2.689   3.234   1.507  0.5030  0.4625 -0.0365
  894MPD2    C513156   2.627   3.222   1.630 -0.5875  0.2031  0.3570
  894MPD2     H13157   2.419   3.383   1.361 -0.3130  0.6766  0.3725
  894MPD2    H113158   2.790   3.200   1.486  1.1078  0.6789  2.5699
  894MPD2    H213159   2.467   3.237   1.768 -0.9565 -0.5698 -0.5188
  894MPD2    H313160   2.685   3.169   1.705 -0.2605  1.8559  1.2772
  894MPD2     N13161   2.645   3.303   1.276  0.2280  0.7272 -0.3101
  894MPD2    H513162   2.583   3.343   1.207 -0.5993 -0.8405 -0.4524
  894MPD2    N113163   2.293   3.373   1.581 -0.1575 -0.2644  0.0745
  894MPD2    H713164   2.233   3.415   1.510  1.2762  0.9742 -0.4029
  895MPD2     C13165   1.178   1.521  13.717 -0.3964 -0.1368  0.8218
  895MPD2    C113166   1.242   1.612  13.629  0.2133 -0.0789 -0.7890
  895MPD2    C213167   1.381   1.619  13.618  0.6462 -1.1058 -0.0386
  895MPD2    C313168   1.453   1.511  13.672  0.1643 -0.0041  0.5840
  895MPD2    C413169   1.392   1.420  13.761  0.7151 -0.2153  0.2111
  895MPD2    C513170   1.259   1.440  13.786 -0.0352  0.6868  0.3011
  895MPD2     H13171   1.421   1.691  13.549 -1.0642  0.3421  0.4581
  895MPD2    H113172   1.447   1.339  13.808 -0.9034 -1.1421  0.4979
  895MPD2    H213173   1.073   1.531  13.742 -0.4800  0.0008  0.4262
  895MPD2    H313174   1.211   1.369  13.852  0.1228 -1.7175 -2.1757
  895MPD2     N13175   1.586   1.487  13.631 -0.4872  0.2724  0.3160
  895MPD2    H513176   1.634   1.404  13.665 -2.1186 -0.3670  1.0299
  895MPD2    N113177   1.169   1.702  13.547 -0.5435 -0.2670  0.2246
  895MPD2    H713178   1.217   1.781  13.505 -2.2099 -1.0127 -3.0521
  896MPD2     C13179   4.072   4.335   0.642  0.2406  0.3568 -0.5500
  896MPD2    C113180   4.035   4.207   0.646 -0.4897 -0.2582 -0.1059
  896MPD2    C213181   3.901   4.180   0.640  0.0731  0.1085  0.1328
  896MPD2    C313182   3.798   4.272   0.637 -0.3005  0.2893 -1.3285
  896MPD2    C413183   3.845   4.404   0.628  0.2317  0.5822  0.6974
  896MPD2    C513184   3.976   4.437   0.628 -0.5309 -0.7754 -1.3439
  896MPD2     H13185   3.860   4.081   0.624  3.0333 -1.0634 -0.1378
  896MPD2    H113186   3.781   4.488   0.604 -0.3840  0.6451  2.5590
  896MPD2    H213187   4.175   4.367   0.645  0.8794 -1.6426 -1.2176
  896MPD2    H313188   4.010   4.539   0.616 -2.4758 -0.0884 -0.9879
  896MPD2     N13189   3.668   4.237   0.621  0.2305 -0.0437  0.3183
  896MPD2    H513190   3.650   4.139   0.602 -0.8283  0.3287 -0.6007
  896MPD2    N113191   4.127   4.107   0.651 -0.1569  0.0138  0.1781
  896MPD2    H713192   4.224   4.132   0.636 -0.5461  1.5039  0.2127
  897MPD2     C13193   4.234   1.621  10.714  0.3845  0.1303 -0.1707
  897MPD2    C113194   4.329   1.526  10.693  0.0652 -0.2748  0.1657
  897MPD2    C213195   4.358   1.427  10.785  0.4673  0.4756  0.7884
  897MPD2    C313196   4.280   1.414  10.903 -0.5383  0.5539  0.5065
  897MPD2    C413197   4.189   1.510  10.922  0.8477  0.5778 -0.4928
  897MPD2    C513198   4.167   1.610  10.829 -0.0483  0.7463  0.0818
  897MPD2     H13199   4.446   1.365  10.770 -1.8905 -2.1907 -2.1261
  897MPD2    H113200   4.115   1.502  11.000 -0.0647 -0.7821 -1.4778
  897MPD2    H213201   4.215   1.708  10.654  1.7862  0.8658  0.4661
  897MPD2    H313202   4.091   1.684  10.849  0.7771  2.2690 -2.4080
  897MPD2     N13203   4.296   1.306  10.992 -0.4229  0.0829  0.2324
  897MPD2    H513204   4.233   1.299  11.071 -1.1053 -1.4008 -0.4359
  897MPD2    N113205   4.415   1.544  10.580  0.1980 -0.0024 -0.5521
  897MPD2    H713206   4.398   1.621  10.515  2.3372 -0.4134 -1.5839
  898MPD2     C13207   3.104   2.086   0.733 -0.4995 -0.8800  0.4448
  898MPD2    C113208   3.061   2.028   0.619 -0.3855 -0.8572  0.0316
  898MPD2    C213209   2.985   2.103   0.535  0.1525 -0.1753  0.5443
  898MPD2    C313210   2.956   2.235   0.562  0.5570  0.5672 -1.0306
  898MPD2    C413211   3.007   2.288   0.675 -0.1600  0.4012  0.3578
  898MPD2    C513212   3.087   2.215   0.767 -0.2690 -0.6968 -0.1575
  898MPD2     H13213   2.955   2.060   0.440  0.9711 -1.9576  1.0694
  898MPD2    H113214   2.995   2.392   0.703 -1.3458  0.3368  0.0903
  898MPD2    H213215   3.164   2.030   0.804 -0.9744  0.3793  1.8319
  898MPD2    H313216   3.129   2.252   0.860  0.7877 -0.8541 -0.5665
  898MPD2     N13217   2.864   2.300   0.473 -0.7352  0.1760 -0.3356
  898MPD2    H513218   2.846   2.257   0.383 -3.4896  2.7824 -1.0005
  898MPD2    N113219   3.092   1.898   0.583 -0.0297 -0.3552  0.4979
  898MPD2    H713220   3.046   1.873   0.496 -0.5601 -3.0715  1.5438
  899MPD2     C13221   3.841   2.609   0.014 -0.0645 -0.0981  0.5243
  899MPD2    C113222   3.703   2.596   0.003 -0.6749  0.6078 -0.1709
  899MPD2    C213223   3.644   2.475   0.020 -0.0328  0.7665  0.5980
  899MPD2    C313224   3.729   2.367   0.046 -0.0217 -0.1673  0.7234
  899MPD2    C413225   3.865   2.386   0.050  0.2997 -0.3072 -0.1566
  899MPD2    C513226   3.918   2.502   0.034 -0.6569  0.4240  0.1039
  899MPD2     H13227   3.536   2.473   0.011  0.0790  2.0343 -0.9532
  899MPD2    H113228   3.933   2.301   0.055  0.7854  0.1229  0.4688
  899MPD2    H213229   3.883   2.707  17.738  0.5220 -0.3184  0.6505
  899MPD2    H313230   4.026   2.518   0.034 -0.6297  0.2262 -0.6122
  899MPD2     N13231   3.677   2.238   0.076  0.4182  0.3624  0.2509
  899MPD2    H513232   3.749   2.169   0.095 -1.0929 -0.4697  2.9873
  899MPD2    N113233   3.625   2.717  17.721 -0.2773 -0.0542 -0.0171
  899MPD2    H713234   3.683   2.801  17.717  0.3406 -0.4918 -0.3352
  900MPD2     C13235   2.524   4.179  12.431 -0.0150  1.0319 -0.0578
  900MPD2    C113236   2.402   4.109  12.438 -0.7098  0.5777 -0.5153
  900MPD2    C213237   2.282   4.172  12.420 -0.1324 -0.1738  0.6904
  900MPD2    C313238   2.274   4.309  12.400 -0.3646 -0.0575  0.1427
  900MPD2    C413239   2.391   4.383  12.399 -0.4064  0.5441 -0.2253
  900MPD2    C513240   2.514   4.316  12.412  1.4078 -0.2204 -0.3636
  900MPD2     H13241   2.194   4.109  12.414 -1.2780  1.3736  1.0784
  900MPD2    H113242   2.389   4.487  12.369  0.2408  0.5658 -0.1942
  900MPD2    H213243   2.620   4.131  12.444 -0.4736  0.7330  2.1191
  900MPD2    H313244   2.603   4.377  12.406  1.2853 -0.3283 -3.3282
  900MPD2     N13245   2.146   4.361  12.358  0.1823 -0.4054  0.5556
  900MPD2    H513246   2.073   4.295  12.332  0.3588 -0.8942  1.3050
  900MPD2    N113247   2.411   3.968  12.473 -0.5402  0.7770  0.1156
  900MPD2    H713248   2.496   3.923  12.441 -0.4149  1.3734 -0.3811
  901MPD2     C13249   2.078   3.000  12.836 -0.0730  0.1127 -0.0167
  901MPD2    C113250   2.213   3.005  12.866  0.0251 -0.4045  0.3812
  901MPD2    C213251   2.277   3.125  12.837  0.3659 -0.1466 -0.3627
  901MPD2    C313252   2.205   3.232  12.789 -0.5248  0.2787 -0.0939
  901MPD2    C413253   2.070   3.224  12.763 -0.7220 -0.3878  0.5196
  901MPD2    C513254   2.004   3.112  12.796 -0.0575 -0.0787 -0.1251
  901MPD2     H13255   2.382   3.141  12.862  0.5349 -1.4041 -0.2882
  901MPD2    H113256   2.014   3.313  12.738  0.4853  0.2201 -0.0273
  901MPD2    H213257   2.017   2.914  12.863  1.0048 -1.3940 -2.3879
  901MPD2    H313258   1.896   3.102  12.786 -0.1599  1.3933 -0.5829
  901MPD2     N13259   2.270   3.361  12.774  0.8642 -0.0733 -0.3530
  901MPD2    H513260   2.371   3.364  12.786  1.0086  1.9427 -2.0033
  901MPD2    N113261   2.283   2.883  12.895  0.8242 -0.5544  0.3708
  901MPD2    H713262   2.243   2.794  12.867  0.5614 -0.0972 -0.6963
  902MPD2     C13263   1.756   1.939  12.604 -0.6663  0.0221  0.0839
  902MPD2    C113264   1.807   2.068  12.593  0.0976  0.6352  0.3431
  902MPD2    C213265   1.913   2.095  12.508 -0.6401  0.4838  0.4138
  902MPD2    C313266   1.951   1.989  12.424  0.4074 -0.2323  0.4649
  902MPD2    C413267   1.904   1.859  12.446  0.7545 -0.1664 -0.4343
  902MPD2    C513268   1.800   1.838  12.525 -0.2269  0.0018 -0.5244
  902MPD2     H13269   1.948   2.197  12.496  2.2211 -0.4543  0.8821
  902MPD2    H113270   1.951   1.781  12.388  3.3457  0.3327  0.9980
  902MPD2    H213271   1.679   1.908  12.674  0.1734  0.2219  1.0757
  902MPD2    H313272   1.755   1.740  12.516  0.2103 -0.4612  2.3253
  902MPD2     N13273   2.036   2.008  12.313  0.2454 -0.2283  0.0845
  902MPD2    H513274   2.065   1.923  12.266  0.4625  0.6549 -1.3679
  902MPD2    N113275   1.743   2.170  12.677  0.9007  0.1290  0.2611
  902MPD2    H713276   1.658   2.146  12.726  1.2680 -2.8984 -0.5904
  903MPD2     C13277   1.977   2.507  11.673  0.8712 -0.2186 -0.1045
  903MPD2    C113278   1.938   2.444  11.794 -0.7144  0.0619 -0.1018
  903MPD2    C213279   1.805   2.452  11.832  0.6111  0.3577  0.1664
  903MPD2    C313280   1.721   2.530  11.764  0.4382 -0.2548 -0.1016
  903MPD2    C413281   1.759   2.607  11.655  0.0883 -0.2606  0.3208
  903MPD2    C513282   1.885   2.593  11.605 -0.4960  0.0191 -0.6368
  903MPD2     H13283   1.787   2.395  11.922 -1.9784  1.8038  0.5477
  903MPD2    H113284   1.687   2.659  11.593  0.7402  0.0219 -0.1901
  903MPD2    H213285   2.078   2.506  11.633  0.7136 -1.6363 -0.4683
  903MPD2    H313286   1.912   2.638  11.510  0.8356 -0.3296 -0.4277
  903MPD2     N13287   1.592   2.528  11.807 -0.9171  0.0282  0.1033
  903MPD2    H513288   1.578   2.492  11.901  0.3644  0.5527  0.4921
  903MPD2    N113289   2.016   2.351  11.863 -0.6106  0.8070 -0.2359
  903MPD2    H713290   1.971   2.298  11.937  0.1549  0.9747  0.3468
  904MPD2     C13291   0.839   0.758  13.606  0.1979  0.1789  0.1940
  904MPD2    C113292   0.917   0.853  13.541  0.6801  0.1840 -0.2939
  904MPD2    C213293   1.049   0.848  13.563 -0.1143 -0.7774  0.1395
  904MPD2    C313294   1.105   0.781  13.674  0.2317 -0.0028 -0.4053
  904MPD2    C413295   1.025   0.678  13.728 -0.8403 -0.1021  0.6792
  904MPD2    C513296   0.895   0.657  13.686  0.6270 -0.9571 -0.1494
  904MPD2     H13297   1.117   0.912  13.508  0.1000 -1.8379 -0.8258
  904MPD2    H113298   1.062   0.612  13.806  0.5067  0.4623  0.5021
  904MPD2    H213299   0.732   0.748  13.593 -0.2212  2.3654  1.7682
  904MPD2    H313300   0.837   0.580  13.736 -0.3960 -0.0167  0.0946
  904MPD2     N13301   1.240   0.804  13.723  0.4066 -0.1532  0.9305
  904MPD2    H513302   1.285   0.885  13.680 -0.6572 -1.1554 -2.0273
  904MPD2    N113303   0.855   0.951  13.464 -0.2860  0.0658  0.6060
  904MPD2    H713304   0.754   0.959  13.476 -0.5626 -0.8472 -1.0943
  905MPD2     C13305   1.159   1.259  12.866  0.4497  0.5811  0.2557
  905MPD2    C113306   1.150   1.327  12.979  0.2048  0.2932 -0.1735
  905MPD2    C213307   1.259   1.375  13.036  0.5214 -0.3826  0.3437
  905MPD2    C313308   1.388   1.352  12.983  0.1976 -0.3736 -0.6109
  905MPD2    C413309   1.397   1.278  12.871 -0.0617 -0.2978  0.0732
  905MPD2    C513310   1.285   1.235  12.811 -0.3690  0.1233 -0.1097
  905MPD2     H13311   1.250   1.440  13.123 -0.4851  0.1158 -0.1310
  905MPD2    H113312   1.488   1.249  12.820  0.0572 -0.8141  0.5935
  905MPD2    H213313   1.071   1.221  12.815  0.2670  1.6141 -0.2045
  905MPD2    H313314   1.284   1.188  12.713  2.7472  0.4236 -0.2959
  905MPD2     N13315   1.505   1.379  13.051 -0.8608  0.3386  0.0820
  905MPD2    H513316   1.588   1.326  13.027 -1.2238  0.0703 -0.6051
  905MPD2    N113317   1.023   1.353  13.034 -0.3463  0.0654  0.2545
  905MPD2    H713318   0.946   1.311  12.983 -1.6956  1.6334  0.9939
  906MPD2     C13319   2.999   1.279  11.836 -0.0045  0.2576 -0.0896
  906MPD2    C113320   2.998   1.193  11.730  0.8919  0.7040 -0.1477
  906MPD2    C213321   2.888   1.108  11.719 -0.3449 -0.1933 -0.1143
  906MPD2    C313322   2.802   1.090  11.824 -0.1087 -0.6729  0.8512
  906MPD2    C413323   2.823   1.164  11.943 -0.3000  0.4831  0.3150
  906MPD2    C513324   2.914   1.260  11.939 -1.3537  0.5961  0.2409
  906MPD2     H13325   2.863   1.051  11.631 -1.5467  0.1001  0.0291
  906MPD2    H113326   2.757   1.171  12.029  0.6666  1.6629  0.9590
  906MPD2    H213327   3.069   1.361  11.847  1.1006 -0.7477  0.3322
  906MPD2    H313328   2.919   1.331  12.022  2.5050 -0.1597  0.6299
  906MPD2     N13329   2.699   0.994  11.827  0.3108  0.3323 -0.1733
  906MPD2    H513330   2.652   0.978  11.916 -0.6984  0.8285 -0.6176
  906MPD2    N113331   3.084   1.203  11.624 -0.3577  0.0420  0.3788
  906MPD2    H713332   3.056   1.156  11.538 -0.2115  0.1047  0.2961
  907MPD2     C13333   2.741   4.726  16.067 -0.0690 -0.2734  0.6336
  907MPD2    C113334   2.629   4.646  16.067 -0.2753  0.4892  0.0555
  907MPD2    C213335   2.613   4.567  16.176  0.0131 -0.2541  0.5144
  907MPD2    C313336   2.706   4.558  16.282  0.8173  0.4059  0.4970
  907MPD2    C413337   2.821   4.638  16.267  0.2861 -0.2134  0.4180
  907MPD2    C513338   2.841   4.712  16.160  0.6122  0.1566 -0.6638
  907MPD2     H13339   2.515   4.522  16.194  1.3473 -3.0450  0.8734
  907MPD2    H113340   2.893   4.650  16.347  1.8923 -3.6637 -0.5026
  907MPD2    H213341   2.755   0.067  15.992 -0.9365 -0.4093  0.3307
  907MPD2    H313342   2.932   0.033  16.152  0.2195  0.8509 -0.1792
  907MPD2     N13343   2.682   4.462  16.384  0.1787  0.0804  0.2150
  907MPD2    H513344   2.599   4.406  16.370 -0.3121  0.1910  2.6929
  907MPD2    N113345   2.520   4.665  15.981 -0.1351  0.4033 -0.1599
  907MPD2    H713346   2.446   4.597  15.994 -0.4220  0.7082 -0.2044
  908MPD2     C13347   4.390   0.964   9.792  0.1395 -0.3542  0.9236
  908MPD2    C113348   4.472   0.923   9.893 -0.6690 -0.2995 -0.2321
  908MPD2    C213349   4.519   1.028   9.976  0.6998 -0.2713 -0.2892
  908MPD2    C313350   4.479   1.162   9.963  0.5622 -0.2972  0.2841
  908MPD2    C413351   4.401   1.202   9.851 -0.5595  0.1838  0.9496
  908MPD2    C513352   4.350   1.095   9.771 -0.4487 -1.1106  0.0395
  908MPD2     H13353   4.565   1.009  10.072  0.0987  0.6287  0.1723
  908MPD2    H113354   4.371   1.303   9.827 -1.0970 -0.4756 -1.2026
  908MPD2    H213355   4.351   0.899   9.715 -0.6037 -0.1748  1.1534
  908MPD2    H313356   4.284   1.124   9.689 -0.2602  0.1440  0.3393
  908MPD2     N13357   4.525   1.259  10.057 -0.4118 -0.4044  0.1626
  908MPD2    H513358   4.582   1.219  10.130 -0.7326  0.1952  0.7366
  908MPD2    N113359   4.502   0.789   9.909  0.2495  0.1597 -0.3457
  908MPD2    H713360   4.485   0.728   9.830 -1.2621  0.5765 -0.3417
  909MPD2     C13361   0.231   3.971  11.662  0.2134  0.4044 -0.1518
  909MPD2    C113362   0.227   4.101  11.627 -0.9666 -0.0693 -0.2607
  909MPD2    C213363   0.176   4.189  11.721 -0.5574 -0.6589 -0.0139
  909MPD2    C313364   0.111   4.158  11.842 -0.0460 -0.0483  0.1787
  909MPD2    C413365   0.115   4.023  11.864 -0.2143 -0.2532  0.0285
  909MPD2    C513366   0.174   3.933  11.779 -0.5908  0.0642  0.5938
  909MPD2     H13367   0.176   4.296  11.705  0.7004 -0.3118  2.3507
  909MPD2    H113368   0.081   3.977  11.956 -3.5449  3.3104  0.5451
  909MPD2    H213369   0.276   3.893  11.602 -0.0733 -0.5982  0.9244
  909MPD2    H313370   0.176   3.827  11.804  1.4237  0.3181  1.5404
  909MPD2     N13371   0.052   4.244  11.935  0.1544  0.1003  0.2836
  909MPD2    H513372   0.029   4.338  11.905  1.7461  0.2230 -0.5483
  909MPD2    N113373   0.269   4.151  11.507 -0.3916 -0.4786 -0.3333
  909MPD2    H713374   0.267   4.252  11.499  1.5769 -0.3532  0.8542
  910MPD2     C13375   0.840   0.961  15.645 -0.0680  0.7780  0.2747
  910MPD2    C113376   0.975   0.948  15.609 -0.2582 -0.2031  0.3509
  910MPD2    C213377   0.993   0.947  15.473 -0.7908 -1.4112 -0.2406
  910MPD2    C313378   0.898   0.967  15.373  0.1456 -0.1774  0.2231
  910MPD2    C413379   0.769   0.987  15.412 -0.7834 -0.6439 -0.2167
  910MPD2    C513380   0.746   0.985  15.545  0.2868 -0.4657 -0.1662
  910MPD2     H13381   1.094   0.921  15.442 -0.2362 -0.0230  0.4020
  910MPD2    H113382   0.688   1.002  15.342 -1.2423 -2.4969 -0.0771
  910MPD2    H213383   0.803   0.946  15.746 -0.9238  0.2790 -0.1150
  910MPD2    H313384   0.642   0.998  15.573  0.3612 -0.2595  0.0103
  910MPD2     N13385   0.940   0.962  15.241 -0.5640  0.5280  0.1775
  910MPD2    H513386   0.868   0.968  15.169 -1.9368  2.9624  1.7689
  910MPD2    N113387   1.078   0.909  15.701 -0.1296 -0.2574 -0.7660
  910MPD2    H713388   1.168   0.885  15.660 -0.5909  0.7755 -2.4045
  911MPD2     C13389   3.897   0.746  16.430 -0.4942  0.7642 -0.1668
  911MPD2    C113390   3.965   0.847  16.502  0.2644  0.0802  1.0416
  911MPD2    C213391   3.881   0.954  16.542  0.1181 -0.6564  0.1590
  911MPD2    C313392   3.755   0.976  16.490 -0.6225  0.4671  0.0448
  911MPD2    C413393   3.705   0.882  16.408  0.2114 -0.6202  0.0635
  911MPD2    C513394   3.772   0.763  16.388 -0.5684  0.1608  0.2957
  911MPD2     H13395   3.933   1.019  16.612  2.6424 -2.0331 -0.4123
  911MPD2    H113396   3.606   0.884  16.366  0.5871 -1.6529 -0.8625
  911MPD2    H213397   3.937   0.648  16.408  1.6926  1.2827  1.4683
  911MPD2    H313398   3.746   0.677  16.328  0.2138  0.8373 -1.0250
  911MPD2     N13399   3.685   1.097  16.509  0.2682  0.5481  0.3946
  911MPD2    H513400   3.597   1.108  16.459  0.0549  0.1049  0.6735
  911MPD2    N113401   4.104   0.832  16.541 -0.0914  0.1947  0.3606
  911MPD2    H713402   4.148   0.749  16.503  0.4339  0.5809  0.1268
  912MPD2     C13403   3.585   1.153  15.911 -0.2782 -0.6049  0.0514
  912MPD2    C113404   3.534   1.125  16.039  0.4935  0.4287 -0.2822
  912MPD2    C213405   3.476   1.005  16.062 -0.2572 -0.1959  0.4078
  912MPD2    C313406   3.479   0.910  15.961 -0.0463  0.0896  0.4140
  912MPD2    C413407   3.526   0.937  15.835 -0.5101  0.8605 -0.1182
  912MPD2    C513408   3.581   1.058  15.812  0.5973 -0.2486 -0.0457
  912MPD2     H13409   3.439   0.978  16.161  1.9957 -3.1726  0.4417
  912MPD2    H113410   3.516   0.876  15.746 -1.4219  0.0318  0.5608
  912MPD2    H213411   3.622   1.254  15.897  1.4197 -1.2360  0.0668
  912MPD2    H313412   3.622   1.082  15.715 -3.1630  1.6745 -1.1867
  912MPD2     N13413   3.421   0.785  16.005  0.2667  0.1851  0.8114
  912MPD2    H513414   3.399   0.776  16.104  0.3661 -0.1643  0.8020
  912MPD2    N113415   3.550   1.227  16.135  0.2883 -0.6306  0.2995
  912MPD2    H713416   3.598   1.313  16.110  1.6164 -0.9212  1.8653
  913MPD2     C13417   0.234   2.682  10.430 -0.4683  0.2200  0.2707
  913MPD2    C113418   0.197   2.791  10.502 -0.1362 -0.1847 -0.3009
  913MPD2    C213419   0.286   2.889  10.522  0.3799 -0.0024  0.2038
  913MPD2    C313420   0.409   2.882  10.467  0.2952 -0.3211 -0.6861
  913MPD2    C413421   0.453   2.774  10.392 -0.6816 -1.0655  0.7061
  913MPD2    C513422   0.363   2.671  10.381  0.2130  0.2707  0.1658
  913MPD2     H13423   0.260   2.984  10.568 -1.9834  0.4134 -1.9356
  913MPD2    H113424   0.550   2.778  10.345 -0.5376  0.9664  1.1462
  913MPD2    H213425   0.168   2.598  10.410 -1.7334  1.5222 -0.9840
  913MPD2    H313426   0.379   2.584  10.318  0.8436 -0.0765  0.8163
  913MPD2     N13427   0.506   2.979  10.495 -0.3051  0.1576  0.7524
  913MPD2    H513428   0.589   2.962  10.439 -0.7237  0.6020 -0.0134
  913MPD2    N113429   0.069   2.785  10.570  0.4306 -0.1748  0.0235
  913MPD2    H713430   0.016   2.699  10.566  0.2024 -0.0687  0.8339
  914MPD2     C13431   2.607   2.824  12.075 -0.7486 -0.0906 -0.5801
  914MPD2    C113432   2.573   2.935  12.145 -0.3592  0.5725 -0.6536
  914MPD2    C213433   2.527   2.924  12.275  0.9224 -0.1974 -0.6764
  914MPD2    C313434   2.524   2.802  12.344 -0.0930  0.2895  0.2459
  914MPD2    C413435   2.568   2.689  12.275  0.3943  0.1239 -0.2203
  914MPD2    C513436   2.598   2.703  12.144 -1.4421  0.1020 -0.2852
  914MPD2     H13437   2.517   3.006  12.345  0.7075 -0.5471 -0.2951
  914MPD2    H113438   2.571   2.588  12.313  2.2648 -0.1804 -1.1903
  914MPD2    H213439   2.644   2.829  11.974 -0.4874  1.3838 -0.4142
  914MPD2    H313440   2.632   2.614  12.092 -0.1657  0.1246  0.5300
  914MPD2     N13441   2.509   2.803  12.485  0.0232 -0.4901  0.4157
  914MPD2    H513442   2.498   2.896  12.524  0.6640 -0.1581 -0.2040
  914MPD2    N113443   2.596   3.062  12.084 -0.8887  0.1516  0.0957
  914MPD2    H713444   2.661   3.072  12.007  0.0811  2.5644  1.2346
  915MPD2     C13445   0.650   2.621  15.509  0.0303 -0.0011 -0.7001
  915MPD2    C113446   0.542   2.705  15.507  0.0495  0.2076 -0.0631
  915MPD2    C213447   0.531   2.817  15.583 -0.6876 -0.1435  0.4898
  915MPD2    C313448   0.625   2.839  15.680 -0.1042  0.3228 -0.9644
  915MPD2    C413449   0.735   2.751  15.684  0.6365  0.1638 -0.4187
  915MPD2    C513450   0.746   2.642  15.600  0.0940 -0.2472 -0.4728
  915MPD2     H13451   0.457   2.896  15.576  0.1988  0.6862  0.3586
  915MPD2    H113452   0.812   2.775  15.756  0.9436 -2.3096  0.0749
  915MPD2    H213453   0.646   2.532  15.447  1.7753  1.1136 -2.4025
  915MPD2    H313454   0.834   2.579  15.602 -0.1876 -0.6245  0.0496
  915MPD2     N13455   0.601   2.951  15.772 -0.2656  0.8709 -0.2096
  915MPD2    H513456   0.527   3.015  15.745  0.2813  2.0675  1.1261
  915MPD2    N113457   0.435   2.654  15.424 -0.2109 -0.8790 -0.1091
  915MPD2    H713458   0.445   2.563  15.381  2.5258 -0.9878  0.7532
  916MPD2     C13459   3.151   1.009  15.881 -0.8290 -0.0306  0.3475
  916MPD2    C113460   3.099   0.908  15.957  0.0491 -0.2513  0.4391
  916MPD2    C213461   3.082   0.782  15.898 -0.6865 -0.2625 -0.0190
  916MPD2    C313462   3.120   0.765  15.764  0.4101 -0.8837 -0.1786
  916MPD2    C413463   3.164   0.874  15.695  0.2011 -0.7543  0.1530
  916MPD2    C513464   3.182   0.995  15.751  0.6982  0.7452 -0.5303
  916MPD2     H13465   3.041   0.707  15.964  0.2350 -0.6609  0.0958
  916MPD2    H113466   3.186   0.855  15.590  1.1038  1.8301 -0.1410
  916MPD2    H213467   3.162   1.106  15.930  1.3812  0.0673 -0.3367
  916MPD2    H313468   3.225   1.079  15.698  1.1097  1.5023  1.0074
  916MPD2     N13469   3.109   0.636  15.705  0.5190  0.0934  0.3588
  916MPD2    H513470   3.090   0.556  15.765 -1.3639  0.9243  0.8900
  916MPD2    N113471   3.050   0.942  16.090 -0.0596 -0.1383  0.2825
  916MPD2    H713472   3.047   1.042  16.105  0.4828  0.2235 -2.0283
  917MPD2     C13473   3.978   3.786  11.934  0.6417  0.1341  0.4517
  917MPD2    C113474   3.875   3.781  11.849  0.1543 -0.6835  0.4614
  917MPD2    C213475   3.896   3.810  11.710 -0.5775 -0.3347  0.6491
  917MPD2    C313476   4.020   3.847  11.674 -0.5758 -0.5652  0.4933
  917MPD2    C413477   4.126   3.838  11.763  0.9096 -0.1411  0.5288
  917MPD2    C513478   4.109   3.807  11.891 -0.3514 -0.1241  0.3103
  917MPD2     H13479   3.811   3.830  11.646  0.4997  2.0653 -0.0403
  917MPD2    H113480   4.228   3.852  11.730  0.6094  0.1151 -0.3032
  917MPD2    H213481   3.972   3.771  12.041 -3.6733 -3.0228 -0.2254
  917MPD2    H313482   4.190   3.802  11.962 -0.5124  2.4750  0.6739
  917MPD2     N13483   4.056   3.905  11.548  0.2048  0.2333 -0.5280
  917MPD2    H513484   4.153   3.927  11.529 -0.9389  3.1308 -3.0757
  917MPD2    N113485   3.747   3.742  11.895 -0.2592  0.1628 -0.7208
  917MPD2    H713486   3.751   3.708  11.991 -3.6427 -1.3654 -1.1076
  918MPD2     C13487   3.569   3.862  12.675 -0.1560  0.3016 -0.1168
  918MPD2    C113488   3.673   3.857  12.583  0.3410 -0.7337 -0.2168
  918MPD2    C213489   3.650   3.801  12.459  0.0128 -0.0475  0.0408
  918MPD2    C313490   3.529   3.745  12.430 -0.2531 -0.2561  0.5888
  918MPD2    C413491   3.428   3.736  12.526  0.5983 -0.0146 -0.3925
  918MPD2    C513492   3.449   3.796  12.645  0.1472 -1.2022  0.0753
  918MPD2     H13493   3.731   3.813  12.389  0.4861  0.6537  0.7081
  918MPD2    H113494   3.336   3.682  12.510 -0.2806  1.9588 -1.9021
  918MPD2    H213495   3.573   3.897  12.777 -0.8413 -0.6247  0.2306
  918MPD2    H313496   3.367   3.790  12.717  1.7750  0.2409  2.0544
  918MPD2     N13497   3.516   3.721  12.292 -0.4172  0.1512 -0.1379
  918MPD2    H513498   3.593   3.753  12.233 -1.9918  0.6570 -1.9252
  918MPD2    N113499   3.802   3.910  12.616  0.2330 -0.0449  0.4780
  918MPD2    H713500   3.878   3.892  12.551 -1.2599  0.2553 -1.3376
  919MPD2     C13501   4.107   2.860  11.500  0.1901  0.4345  0.2570
  919MPD2    C113502   4.137   2.728  11.494 -0.7156 -1.0529  0.3718
  919MPD2    C213503   4.139   2.655  11.376  0.4333  0.7063  0.7110
  919MPD2    C313504   4.099   2.712  11.257  0.1077  0.1371 -0.9111
  919MPD2    C413505   4.058   2.838  11.260  0.2071  0.2298  0.1164
  919MPD2    C513506   4.063   2.914  11.375  0.8855  0.4168  0.2240
  919MPD2     H13507   4.180   2.554  11.373 -2.2080 -0.4196  2.7213
  919MPD2    H113508   4.014   2.897  11.180 -1.1531  0.7703  1.2655
  919MPD2    H213509   4.107   2.926  11.586  0.7566 -0.6370  1.0812
  919MPD2    H313510   4.031   3.017  11.361 -0.4656 -0.5145 -3.3699
  919MPD2     N13511   4.086   2.656  11.127  0.1035  0.5416  0.5587
  919MPD2    H513512   4.047   2.718  11.058  0.8281 -1.0250 -1.2516
  919MPD2    N113513   4.175   2.657  11.606  0.0980  0.5190  0.5157
  919MPD2    H713514   4.212   2.565  11.587 -1.1246  0.4651 -1.5978
  920MPD2     C13515   3.951   2.892  10.237 -0.1880  0.1697  1.2010
  920MPD2    C113516   3.854   2.842  10.319 -0.5492  0.3600 -0.6683
  920MPD2    C213517   3.886   2.767  10.426  0.2860  0.2087  0.0824
  920MPD2    C313518   4.018   2.731  10.449 -0.1689  0.3751 -0.0296
  920MPD2    C413519   4.114   2.795  10.374  0.2072 -0.4450  0.0362
  920MPD2    C513520   4.083   2.870  10.267 -0.5893 -0.6190 -0.0498
  920MPD2     H13521   3.805   2.725  10.485 -0.1152  0.1291 -0.5166
  920MPD2    H113522   4.219   2.772  10.390  1.0001  3.0200 -0.1494
  920MPD2    H213523   3.922   2.954  10.153  1.7748 -0.7415 -0.1521
  920MPD2    H313524   4.167   2.910  10.210 -0.5013 -0.3860  0.2433
  920MPD2     N13525   4.035   2.632  10.543 -0.4107  1.0404  0.7770
  920MPD2    H513526   3.953   2.575  10.561  0.7870 -0.4023  1.6831
  920MPD2    N113527   3.722   2.876  10.295 -0.5638 -0.2541  0.3178
  920MPD2    H713528   3.663   2.861  10.376  0.1453  0.1702  0.9150
  921MPD2     C13529   0.071   1.463  16.845  0.0018  0.4837  0.1676
  921MPD2    C113530   0.131   1.336  16.827  0.4455 -0.7833  0.2981
  921MPD2    C213531   0.055   1.218  16.836  0.1947  0.0475  0.1850
  921MPD2    C313532   4.655   1.230  16.850  0.5279  0.0747  0.6537
  921MPD2    C413533   4.594   1.358  16.853 -0.4826 -0.4638 -0.0798
  921MPD2    C513534   4.674   1.471  16.852 -0.3973  0.0511 -0.1046
  921MPD2     H13535   0.104   1.124  16.816 -1.9551 -0.8215 -1.0060
  921MPD2    H113536   4.488   1.364  16.875 -0.5382  1.9648 -0.9609
  921MPD2    H213537   0.125   1.557  16.847  2.8797 -1.1589 -0.0410
  921MPD2    H313538   4.630   1.569  16.858 -2.6181 -1.0472  1.5524
  921MPD2     N13539   4.566   1.121  16.841  0.1539  0.2334  0.0324
  921MPD2    H513540   4.468   1.147  16.828  0.5171  0.0532 -3.0302
  921MPD2    N113541   0.269   1.340  16.794  0.2223  0.2668 -0.3599
  921MPD2    H713542   0.305   1.432  16.771 -0.1538  1.0291  2.1529
  922MPD2     C13543   1.556   3.860   0.133  0.2917 -0.7638  0.9479
  922MPD2    C113544   1.444   3.814   0.199  0.3896 -0.8026 -0.6295
  922MPD2    C213545   1.323   3.816   0.128 -0.3105 -0.3812  0.4926
  922MPD2    C313546   1.319   3.839  17.740  0.1520  0.1279  1.1428
  922MPD2    C413547   1.426   3.886  17.676  0.2185  0.2357 -1.0101
  922MPD2    C513548   1.549   3.896  17.743 -0.2762  0.2597  0.4527
  922MPD2     H13549   1.230   3.792   0.178 -0.2277  1.9708  1.7872
  922MPD2    H113550   1.431   3.920  17.573 -0.5283  0.9157 -0.8220
  922MPD2    H213551   1.653   3.871   0.181  1.0364 -0.8155 -0.5413
  922MPD2    H313552   1.639   3.932  17.695 -1.3035  3.1298  0.6964
  922MPD2     N13553   1.200   3.805  17.668 -0.2253 -0.0567  0.0246
  922MPD2    H513554   1.124   3.762  17.719  1.7234 -4.1060 -0.5314
  922MPD2    N113555   1.446   3.770   0.330  0.4390 -0.2394 -0.5619
  922MPD2    H713556   1.357   3.739   0.367  0.6104 -1.4766 -1.1855
  923MPD2     C13557   2.253   1.375   9.263 -1.2013  0.9300  0.2480
  923MPD2    C113558   2.279   1.504   9.258  0.1393 -0.1766 -0.8052
  923MPD2    C213559   2.400   1.553   9.310 -0.2378  0.5656 -0.1605
  923MPD2    C313560   2.503   1.465   9.348 -0.2892 -0.1578  0.6505
  923MPD2    C413561   2.471   1.329   9.343  0.3653  0.0653  0.2564
  923MPD2    C513562   2.343   1.284   9.308 -0.1724  0.4166  0.2360
  923MPD2     H13563   2.413   1.661   9.315 -1.6737  0.8241 -1.9523
  923MPD2    H113564   2.541   1.251   9.367  2.5459  1.6761 -0.8845
  923MPD2    H213565   2.149   1.350   9.250 -1.1737  1.9206 -1.9278
  923MPD2    H313566   2.321   1.178   9.298  0.3036  0.3940 -0.5958
  923MPD2     N13567   2.632   1.499   9.387  0.0723  0.5916  0.3046
  923MPD2    H513568   2.689   1.434   9.440 -4.2974 -0.6342  3.4633
  923MPD2    N113569   2.173   1.597   9.233  0.4161 -0.0698  0.7714
  923MPD2    H713570   2.078   1.562   9.234  0.6310 -0.7197 -0.7765
  924MPD2     C13571   1.953   4.258  16.401  0.4948 -0.6938  0.1654
  924MPD2    C113572   1.986   4.342  16.507 -0.0831 -0.3375  0.4340
  924MPD2    C213573   2.094   4.305  16.590  0.5011 -0.4277  0.0904
  924MPD2    C313574   2.181   4.206  16.554  0.1652  0.1500  0.3497
  924MPD2    C413575   2.148   4.129  16.447 -0.2348 -0.1184  0.5091
  924MPD2    C513576   2.032   4.143  16.384 -0.4647 -0.6172  0.3745
  924MPD2     H13577   2.098   4.352  16.688 -1.3970  1.3523 -0.7097
  924MPD2    H113578   2.211   4.048  16.412  0.9762  0.9428  0.2212
  924MPD2    H213579   1.879   4.275  16.324  0.1501 -1.5806  0.3008
  924MPD2    H313580   2.009   4.076  16.301 -0.0149  1.4161 -1.3782
  924MPD2     N13581   2.321   4.201  16.605  0.2200 -0.1144 -0.4840
  924MPD2    H513582   2.344   4.256  16.688  1.6870  0.0362 -1.0005
  924MPD2    N113583   1.903   4.455  16.538 -0.4691 -0.8461  0.7030
  924MPD2    H713584   1.822   4.463  16.477  0.5481  0.0659 -0.5386
  925MPD2     C13585   1.330   1.874  14.772  0.4792 -0.1666  0.4504
  925MPD2    C113586   1.191   1.871  14.737  0.4449  0.9726  0.2917
  925MPD2    C213587   1.098   1.844  14.831  0.2480  0.2553 -0.6691
  925MPD2    C313588   1.130   1.794  14.952  0.3066  0.3473 -0.2577
  925MPD2    C413589   1.266   1.795  14.984 -0.5622  0.2776 -0.6400
  925MPD2    C513590   1.362   1.837  14.903  0.5938  0.4566  0.4693
  925MPD2     H13591   0.996   1.853  14.795 -0.3565  1.6400  1.4338
  925MPD2    H113592   1.292   1.759  15.083  0.8536  0.9391 -0.7749
  925MPD2    H213593   1.404   1.894  14.696 -0.2116 -0.9016 -0.4315
  925MPD2    H313594   1.468   1.837  14.927  1.0322 -0.4991 -1.5187
  925MPD2     N13595   1.034   1.754  15.055  0.1458  0.2112  0.1026
  925MPD2    H513596   1.073   1.730  15.146  0.8447  2.7181  0.4627
  925MPD2    N113597   1.145   1.895  14.603 -0.0503  0.4906  0.6712
  925MPD2    H713598   1.046   1.913  14.592  0.0199  2.2808  3.1208
  926MPD2     C13599   0.079   0.409  13.599  0.1487 -0.1232  0.0532
  926MPD2    C113600   0.010   0.489  13.512 -0.3335  0.7976 -0.7237
  926MPD2    C213601   0.068   0.537  13.398 -0.1655 -0.2798  0.5178
  926MPD2    C313602   0.197   0.494  13.361 -0.7249 -0.0417  0.2534
  926MPD2    C413603   0.263   0.410  13.447 -0.2738  0.1558  0.4472
  926MPD2    C513604   0.207   0.376  13.570  0.2692  0.1295 -0.3810
  926MPD2     H13605   0.012   0.605  13.335  1.3635 -0.6882 -1.2859
  926MPD2    H113606   0.365   0.375  13.434 -0.4308  0.6404 -2.0479
  926MPD2    H213607   0.040   0.378  13.696  0.4620  0.3971  0.3498
  926MPD2    H313608   0.260   0.323  13.647 -0.0461  1.0777  0.4993
  926MPD2     N13609   0.259   0.533  13.241  0.3415 -0.2603 -0.1017
  926MPD2    H513610   0.349   0.485  13.234  0.5507  0.2615 -0.9709
  926MPD2    N113611   4.612   0.530  13.546 -0.2359  0.3681  0.3834
  926MPD2    H713612   4.568   0.604  13.492 -0.7761 -0.0089  0.3120
  927MPD2     C13613   0.314   1.953   0.229  0.0096 -0.3268 -0.6337
  927MPD2    C113614   0.287   2.079   0.174  0.7364  0.1414 -0.1001
  927MPD2    C213615   0.283   2.085   0.037  0.0890 -0.4604  0.5299
  927MPD2    C313616   0.297   1.977  17.706  0.6874 -0.0550 -0.5294
  927MPD2    C413617   0.329   1.856   0.013  0.3228 -0.3438  0.0497
  927MPD2    C513618   0.329   1.841   0.148  0.4860  0.2757 -0.6482
  927MPD2     H13619   0.260   2.181  17.739  1.8377  0.3585  1.3761
  927MPD2    H113620   0.349   1.770  17.696 -0.3731  0.9041 -1.8585
  927MPD2    H213621   0.322   1.953   0.337 -0.6823  1.4567 -0.5824
  927MPD2    H313622   0.339   1.739   0.181 -1.3475  0.3226  0.0345
  927MPD2     N13623   0.301   2.001  17.564  0.0999 -0.3705 -0.5182
  927MPD2    H513624   0.302   2.100  17.543 -0.5763  0.1318  1.8254
  927MPD2    N113625   0.282   2.195   0.264  0.0572 -0.1126  0.1883
  927MPD2    H713626   0.283   2.177   0.363 -1.6836  0.5522  0.3298
  928MPD2     C13627   3.777   0.811   1.541 -0.0438 -0.2013 -0.1494
  928MPD2    C113628   3.744   0.933   1.586  0.0673 -0.5381 -0.3504
  928MPD2    C213629   3.717   1.034   1.492 -0.1023  0.0621  0.2973
  928MPD2    C313630   3.737   1.008   1.362  0.0701  0.1534  0.2650
  928MPD2    C413631   3.791   0.884   1.326  0.3339 -0.4234  0.2586
  928MPD2    C513632   3.790   0.777   1.411  0.3519 -0.1746  0.4223
  928MPD2     H13633   3.680   1.130   1.526 -0.2933 -0.3989  1.3776
  928MPD2    H113634   3.804   0.870   1.219  1.0551 -0.8089  0.3958
  928MPD2    H213635   3.793   0.731   1.612  0.6302  0.8718  0.9038
  928MPD2    H313636   3.841   0.685   1.385 -1.6631 -1.2230  0.2175
  928MPD2     N13637   3.707   1.095   1.258 -0.4136 -0.0127  0.4762
  928MPD2    H513638   3.736   1.063   1.166 -0.9132  0.6462  0.0898
  928MPD2    N113639   3.736   0.949   1.721 -0.2516  0.3398 -0.2225
  928MPD2    H713640   3.750   0.863   1.773  0.0531 -0.4340 -1.5913
  929MPD2     C13641   2.799   1.861  10.020 -0.2640  0.7217 -0.5835
  929MPD2    C113642   2.697   1.767  10.009 -0.7642  0.3934  0.2004
  929MPD2    C213643   2.571   1.815   9.977 -0.0958  0.3726  0.1058
  929MPD2    C313644   2.540   1.947   9.963  0.3477  0.3864 -0.2919
  929MPD2    C413645   2.647   2.035   9.961 -0.4894 -0.5768 -0.5950
  929MPD2    C513646   2.773   1.986   9.979 -0.2418  0.1386  0.4501
  929MPD2     H13647   2.492   1.742   9.986  0.8752 -0.5819  0.9169
  929MPD2    H113648   2.634   2.140   9.941  2.0087 -0.1172  0.2303
  929MPD2    H213649   2.901   1.834  10.043 -0.6894  1.0074  1.6144
  929MPD2    H313650   2.862   2.047   9.967 -0.7958  0.6181 -1.1535
  929MPD2     N13651   2.406   1.999   9.949 -0.4809  0.6064  0.2797
  929MPD2    H513652   2.394   2.099   9.950  2.3137  0.8904  2.2415
  929MPD2    N113653   2.727   1.637  10.048 -0.6735  0.4071 -0.2234
  929MPD2    H713654   2.819   1.618  10.086 -0.5966 -1.6560 -1.4831
  930MPD2     C13655   4.737   2.904  14.167 -0.1361 -0.1682 -0.4658
  930MPD2    C113656   4.640   3.001  14.146  0.4365  0.3812  1.1811
  930MPD2    C213657   4.590   3.013  14.011 -0.3670 -0.5371 -0.2827
  930MPD2    C313658   4.644   2.949  13.902  0.0190 -0.6886 -0.8579
  930MPD2    C413659   0.015   2.866  13.926 -0.0832  0.8118  0.2142
  930MPD2    C513660   0.062   2.848  14.054  1.1669  0.4764  0.0298
  930MPD2     H13661   4.511   3.084  13.988 -0.4709 -0.1439  1.3002
  930MPD2    H113662   0.056   2.810  13.843 -0.0874  0.5607  0.3808
  930MPD2    H213663   0.042   2.879  14.263 -4.4027 -2.9343  0.6759
  930MPD2    H313664   0.152   2.789  14.067  0.8067 -0.1429 -0.2621
  930MPD2     N13665   4.591   2.963  13.769 -0.3843 -0.5067 -0.4670
  930MPD2    H513666   4.655   2.942  13.693  0.3426 -0.4078  0.1120
  930MPD2    N113667   4.582   3.073  14.249  0.8998 -0.6561  0.3546
  930MPD2    H713668   4.618   3.063  14.344 -0.1363 -1.3498  0.6703
  931MPD2     C13669   0.279   2.064   0.829  0.3237 -0.4640 -0.5151
  931MPD2    C113670   0.252   2.201   0.837 -0.2466  0.0913  0.2073
  931MPD2    C213671   0.266   2.268   0.956 -0.4160 -0.4638 -0.1596
  931MPD2    C313672   0.307   2.198   1.071 -0.4148 -0.0986  0.2966
  931MPD2    C413673   0.322   2.059   1.058  0.4109  0.6582 -0.5819
  931MPD2    C513674   0.314   1.995   0.941 -0.7757 -0.3291 -0.2808
  931MPD2     H13675   0.246   2.374   0.965 -1.9580 -0.8184  0.6018
  931MPD2    H113676   0.355   1.995   1.140  1.0784  1.0871 -0.5228
  931MPD2    H213677   0.276   1.999   0.742  0.7526 -0.6043 -0.4259
  931MPD2    H313678   0.321   1.887   0.940  0.2626 -0.2863  1.9872
  931MPD2     N13679   0.346   2.253   1.197 -0.6802  0.0885  0.4854
  931MPD2    H513680   0.368   2.192   1.275 -1.4627  0.0152  0.6486
  931MPD2    N113681   0.209   2.268   0.719 -0.3253 -0.4452 -0.1522
  931MPD2    H713682   0.188   2.210   0.638 -1.4345 -1.0889  0.6142
  932MPD2     C13683   1.067   2.680  11.425 -0.1621 -0.1229 -0.3362
  932MPD2    C113684   1.205   2.655  11.433  0.1440  0.4879  0.5903
  932MPD2    C213685   1.259   2.527  11.418  0.4670  0.0949 -0.0972
  932MPD2    C313686   1.175   2.419  11.395 -0.1501 -0.1260  1.6165
  932MPD2    C413687   1.040   2.446  11.377  0.1609  0.0924 -0.8880
  932MPD2    C513688   0.987   2.570  11.399  0.1595 -0.1052 -0.5321
  932MPD2     H13689   1.365   2.516  11.434  0.2706  1.6251  2.2655
  932MPD2    H113690   0.971   2.369  11.347 -1.9158  1.9105 -0.7759
  932MPD2    H213691   1.012   2.773  11.437 -1.3494 -0.5774 -2.1866
  932MPD2    H313692   0.879   2.579  11.400  0.1854  0.4586 -2.1015
  932MPD2     N13693   1.217   2.288  11.381 -0.0745 -0.1119  0.0859
  932MPD2    H513694   1.140   2.223  11.365  0.4453 -0.7470  0.1792
  932MPD2    N113695   1.300   2.758  11.452 -0.4717 -0.7816  0.9150
  932MPD2    H713696   1.397   2.734  11.470 -0.0802  1.0497  1.2493
  933MPD2     C13697   3.444   0.642   2.490 -0.0403  0.1000  0.3411
  933MPD2    C113698   3.428   0.668   2.352 -0.1530 -0.0314  1.0421
  933MPD2    C213699   3.379   0.560   2.278 -0.0035 -0.1945  0.3898
  933MPD2    C313700   3.344   0.436   2.331 -1.4465 -0.1068 -0.4998
  933MPD2    C413701   3.344   0.421   2.469  0.0524  0.3964  0.0466
  933MPD2    C513702   3.404   0.522   2.546  0.3429  0.2938 -0.2616
  933MPD2     H13703   3.348   0.578   2.176  0.5039  2.6745  0.7483
  933MPD2    H113704   3.324   0.326   2.518 -2.4507 -0.1798 -2.1058
  933MPD2    H213705   3.484   0.718   2.555  1.0416 -1.5493  1.6169
  933MPD2    H313706   3.415   0.510   2.653 -1.3538 -0.2906 -0.1396
  933MPD2     N13707   3.300   0.342   2.237 -0.2588 -0.1982  0.2904
  933MPD2    H513708   3.266   0.372   2.147  0.2651 -0.7442 -0.0907
  933MPD2    N113709   3.478   0.782   2.296  0.0352  0.1125  0.1979
  933MPD2    H713710   3.520   0.847   2.361 -1.6086  1.3600  0.0129
  934MPD2     C13711   3.833   3.696   1.580 -0.0503 -0.4973 -0.0615
  934MPD2    C113712   3.920   3.597   1.607  1.2852  0.5918  0.0375
  934MPD2    C213713   3.907   3.479   1.535 -0.2353 -0.2914 -0.0185
  934MPD2    C313714   3.803   3.464   1.449 -0.3135 -0.0301 -0.3334
  934MPD2    C413715   3.698   3.559   1.445 -0.4946 -0.1006  0.0848
  934MPD2    C513716   3.717   3.676   1.510 -0.1934 -1.1026 -0.7228
  934MPD2     H13717   3.976   3.396   1.551  2.2244  2.2572  2.5808
  934MPD2    H113718   3.607   3.540   1.388 -0.4554 -0.0124 -0.0082
  934MPD2    H213719   3.842   3.788   1.637  1.6763  0.0144 -1.1652
  934MPD2    H313720   3.637   3.749   1.518  1.5511  0.6206  1.0137
  934MPD2     N13721   3.780   3.349   1.372  0.6458 -0.4720  0.1710
  934MPD2    H513722   3.694   3.348   1.319  0.9115 -0.2940 -0.2661
  934MPD2    N113723   4.015   3.613   1.708 -0.3238 -0.0071  0.2500
  934MPD2    H713724   4.088   3.543   1.699 -1.2459 -0.8979 -0.2729
  935MPD2     C13725   4.426   2.785   0.868  0.3192 -0.3750 -0.1505
  935MPD2    C113726   4.295   2.741   0.845  0.2583  0.0512  0.0486
  935MPD2    C213727   4.184   2.811   0.883 -0.2055  0.0084  0.3962
  935MPD2    C313728   4.199   2.928   0.955 -0.1206  0.0044  0.5692
  935MPD2    C413729   4.324   2.956   0.997 -0.0968  0.1261  0.2762
  935MPD2    C513730   4.437   2.894   0.946 -0.0214  0.1344  0.0239
  935MPD2     H13731   4.092   2.758   0.859  1.2716 -2.5828  0.4476
  935MPD2    H113732   4.343   3.031   1.073  1.9054  0.3396 -0.4170
  935MPD2    H213733   4.512   2.725   0.846 -0.1511 -0.9058 -0.5332
  935MPD2    H313734   4.536   2.922   0.981 -1.1314  2.9186  0.9130
  935MPD2     N13735   4.095   2.989   1.022 -0.4526 -0.7134  0.2164
  935MPD2    H513736   4.114   3.055   1.096  1.4871 -0.2439 -0.6941
  935MPD2    N113737   4.277   2.613   0.785 -0.4726 -0.3969 -0.1038
  935MPD2    H713738   4.188   2.567   0.795 -0.2322 -1.2304 -1.8810
  936MPD2     C13739   2.473   4.457  12.748 -0.7626 -0.2704  0.5993
  936MPD2    C113740   2.433   4.460  12.881 -0.3421  0.0676  0.0839
  936MPD2    C213741   2.504   4.534  12.979 -0.1734 -0.2402 -0.3738
  936MPD2    C313742   2.609   4.614  12.935  0.2480 -0.4544  0.5812
  936MPD2    C413743   2.647   4.617  12.799  0.0447 -0.0026 -0.0499
  936MPD2    C513744   2.585   4.530  12.713  0.0329  0.6164  0.1324
  936MPD2     H13745   2.477   4.527  13.083 -1.3021  2.4506 -0.4916
  936MPD2    H113746   2.726   4.680  12.760  1.1190 -1.2430  0.1204
  936MPD2    H213747   2.420   4.400  12.673  0.7014 -1.4801  0.4927
  936MPD2    H313748   2.608   4.531  12.607 -2.7313 -0.5127 -0.4920
  936MPD2     N13749   2.653   4.703  13.032  0.0616 -0.6333  0.1749
  936MPD2    H513750   2.614   4.690  13.125  1.0418 -0.6087  0.5908
  936MPD2    N113751   2.319   4.388  12.935  0.0523  0.1478  0.4391
  936MPD2    H713752   2.301   4.394  13.035  0.9312  3.0393  0.4152
  937MPD2     C13753   4.642   2.141  11.656  0.8748  0.6575 -0.0394
  937MPD2    C113754   4.559   2.244  11.603 -0.2255  0.3348  0.4696
  937MPD2    C213755   4.579   2.282  11.470  0.2064 -0.2112  0.5361
  937MPD2    C313756   4.658   2.214  11.389  0.1371  0.1564 -0.0051
  937MPD2    C413757   4.721   2.099  11.426  0.7097 -0.5060 -0.3864
  937MPD2    C513758   4.708   2.070  11.565  0.3771 -0.3195 -0.4537
  937MPD2     H13759   4.529   2.372  11.435 -2.0668 -1.5216  0.4126
  937MPD2    H113760   0.063   2.048  11.372  1.7120 -0.7512  1.3179
  937MPD2    H213761   4.649   2.114  11.761 -0.1123 -2.3968 -0.7616
  937MPD2    H313762   0.028   1.989  11.610  1.8286  0.2760 -1.2444
  937MPD2     N13763   4.674   2.266  11.261  0.0637 -0.2144  0.5742
  937MPD2    H513764   4.618   2.348  11.242 -0.2064 -0.3499  0.7904
  937MPD2    N113765   4.481   2.323  11.684  0.4910  0.1428  0.5141
  937MPD2    H713766   4.440   2.400  11.633 -2.5225 -0.5785  1.8638
  938MPD2     C13767   2.801   2.821   0.660 -0.0743  0.7130 -0.1270
  938MPD2    C113768   2.713   2.926   0.675  0.2030  0.4069 -0.7592
  938MPD2    C213769   2.653   2.936   0.793  0.0546 -0.0762  0.0760
  938MPD2    C313770   2.684   2.854   0.902  0.5023 -0.2648 -0.6389
  938MPD2    C413771   2.784   2.759   0.887  0.1224  0.0512  0.2593
  938MPD2    C513772   2.838   2.741   0.763  0.2296 -0.0462 -0.6078
  938MPD2     H13773   2.575   3.009   0.808 -0.9310 -1.0749 -0.2400
  938MPD2    H113774   2.830   2.709   0.971  0.0687  0.3996  0.4975
  938MPD2    H213775   2.842   2.795   0.563  1.7561 -2.2268  1.4413
  938MPD2    H313776   2.909   2.660   0.753 -0.3368 -0.5238 -0.7209
  938MPD2     N13777   2.630   2.864   1.032  0.1445  0.3516 -0.2496
  938MPD2    H513778   2.675   2.802   1.098 -2.0718  0.6356  1.5382
  938MPD2    N113779   2.682   3.019   0.574  0.3471  0.0260  0.3852
  938MPD2    H713780   2.610   3.084   0.605 -1.2366 -1.5603  0.0977
  939MPD2     C13781   3.893   3.745   0.448 -0.1918 -0.3645  0.0481
  939MPD2    C113782   3.983   3.813   0.369  0.1379 -0.0655 -0.5453
  939MPD2    C213783   4.096   3.741   0.330  0.0407 -0.3992 -0.3000
  939MPD2    C313784   4.122   3.612   0.381 -0.7413 -0.2989  0.2283
  939MPD2    C413785   4.041   3.565   0.475  1.1432 -0.0226  0.3870
  939MPD2    C513786   3.924   3.627   0.503  0.0187 -0.1542  0.0457
  939MPD2     H13787   4.168   3.794   0.269 -0.6364 -0.3917 -1.0955
  939MPD2    H113788   4.073   3.474   0.525 -0.0609 -0.4154  0.4423
  939MPD2    H213789   3.800   3.792   0.479 -0.1927 -0.9634  0.9382
  939MPD2    H313790   3.851   3.584   0.571 -1.8330 -0.2405 -2.0186
  939MPD2     N13791   4.252   3.554   0.358 -0.7316  0.4972  0.0970
  939MPD2    H513792   4.312   3.609   0.296  0.2085  0.6675  1.1447
  939MPD2    N113793   3.949   3.939   0.325  0.8924 -0.1787  0.2127
  939MPD2    H713794   3.856   3.975   0.343  1.0945  0.3065  0.2955
  940MPD2     C13795   2.985   0.683  13.092  0.2113 -0.1655  0.7244
  940MPD2    C113796   3.008   0.558  13.150  0.3250 -0.0626  0.3762
  940MPD2    C213797   3.041   0.457  13.057 -0.3327 -0.1689 -0.3886
  940MPD2    C313798   3.047   0.476  12.919 -0.4261 -0.4135 -0.3198
  940MPD2    C413799   3.023   0.599  12.871  0.7473  0.4066 -0.2369
  940MPD2    C513800   2.991   0.701  12.953  0.0912 -0.3526 -0.4411
  940MPD2     H13801   3.054   0.361  13.104  0.1388 -0.8460 -1.8953
  940MPD2    H113802   3.042   0.627  12.769  2.3223 -1.0106 -0.3166
  940MPD2    H213803   2.947   0.768  13.147 -1.3931 -1.3306  1.4267
  940MPD2    H313804   2.962   0.797  12.912  2.2640 -0.1105 -1.4068
  940MPD2     N13805   3.064   0.370  12.819 -0.5314  0.3774  0.1376
  940MPD2    H513806   3.042   0.395  12.723 -0.9545 -0.9222 -0.1025
  940MPD2    N113807   2.994   0.522  13.284 -0.0536 -0.2249 -0.5720
  940MPD2    H713808   3.016   0.428  13.317  4.4833  1.4175  1.0499
  941MPD2     C13809   1.666   0.115   9.760 -0.3989 -0.3013 -0.3732
  941MPD2    C113810   1.713   0.136   9.892 -0.5073 -0.4711  0.7655
  941MPD2    C213811   1.667   0.052   9.996 -0.1161  0.1372  0.4840
  941MPD2    C313812   1.585   4.689   9.961 -0.0661 -0.4552 -0.1960
  941MPD2    C413813   1.538   4.675   9.831  0.5567 -0.1445  0.9046
  941MPD2    C513814   1.579   0.018   9.730  0.3829  0.2761 -0.0502
  941MPD2     H13815   1.700   0.071  10.097  3.0846 -1.1226 -0.3157
  941MPD2    H113816   1.463   4.602   9.800 -0.9938  1.1246  1.6914
  941MPD2    H213817   1.710   0.172   9.679  0.2115 -0.8830 -0.4471
  941MPD2    H313818   1.555   0.003   9.626 -0.2947  3.3913 -0.3518
  941MPD2     N13819   1.516   4.611  10.055  0.5180  0.0682 -0.3412
  941MPD2    H513820   1.441   4.552  10.022 -2.3879  2.2335  2.3379
  941MPD2    N113821   1.801   0.245   9.923  0.5219  0.3370  0.4378
  941MPD2    H713822   1.794   0.264  10.023  1.0378 -0.8461  0.6912
  942MPD2     C13823   0.574   1.450  10.036 -0.3736 -0.6166  0.5928
  942MPD2    C113824   0.602   1.553   9.946  0.2750 -0.4621  0.2699
  942MPD2    C213825   0.731   1.604   9.947 -0.6523 -0.4376  0.0312
  942MPD2    C313826   0.825   1.560  10.044 -0.4486 -0.9351  0.7494
  942MPD2    C413827   0.788   1.473  10.141 -0.0295  0.7212 -0.2150
  942MPD2    C513828   0.659   1.423  10.136  0.6459  0.3970  0.4554
  942MPD2     H13829   0.768   1.671   9.871 -0.0872 -0.6931  0.0856
  942MPD2    H113830   0.845   1.454  10.231  0.8699 -0.7688 -1.1096
  942MPD2    H213831   0.476   1.405  10.034 -1.8100  2.5395  0.1258
  942MPD2    H313832   0.625   1.359  10.216 -0.9014 -0.5899 -0.9888
  942MPD2     N13833   0.956   1.605  10.054  1.0584 -0.0128 -0.1054
  942MPD2    H513834   1.025   1.544  10.096 -1.1026 -1.6409  1.0640
  942MPD2    N113835   0.509   1.600   9.848  0.2425  0.3869 -0.1713
  942MPD2    H713836   0.551   1.668   9.786  1.5532 -0.2187  0.0478
  943MPD2     C13837   0.684   0.173  10.588  0.9899 -0.0884 -0.4052
  943MPD2    C113838   0.632   0.059  10.645 -0.3302  0.4617  0.0704
  943MPD2    C213839   0.530   0.067  10.739  0.4829 -0.2928  0.0004
  943MPD2    C313840   0.468   0.187  10.775 -0.1836  0.2390 -0.0558
  943MPD2    C413841   0.526   0.303  10.723  0.0453 -0.0351  0.0659
  943MPD2    C513842   0.638   0.288  10.635 -0.3128 -0.0393  0.2857
  943MPD2     H13843   0.500   4.708  10.780 -1.8095  0.3363 -0.2056
  943MPD2    H113844   0.489   0.401  10.750 -2.8168 -0.8492 -0.9138
  943MPD2    H213845   0.764   0.181  10.515 -0.4674  0.9245 -1.9032
  943MPD2    H313846   0.685   0.376  10.594 -0.7707  0.7878  1.5047
  943MPD2     N13847   0.368   0.198  10.879 -0.6277 -0.4597 -0.1529
  943MPD2    H513848   0.348   0.288  10.921  0.8990  0.0464 -0.5100
  943MPD2    N113849   0.673   4.667  10.592 -0.0873  0.0503  0.1122
  943MPD2    H713850   0.749   4.664  10.524  1.1289  0.3224  1.4558
  944MPD2     C13851   0.104   3.658  11.322 -0.2096 -0.0513 -0.0129
  944MPD2    C113852   0.104   3.648  11.456 -0.2134  0.2749 -0.3295
  944MPD2    C213853   0.022   3.734  11.528 -0.0493 -0.4288 -0.1062
  944MPD2    C313854   4.684   3.831  11.468 -0.1103 -0.5958  0.5259
  944MPD2    C413855   4.684   3.835  11.329  0.2918 -0.1960  0.6159
  944MPD2    C513856   0.034   3.756  11.263  0.0582 -0.0863  0.4474
  944MPD2     H13857   0.003   3.726  11.635  0.1160 -2.8989 -0.2636
  944MPD2    H113858   4.624   3.897  11.262 -0.8352 -1.2144  0.6838
  944MPD2    H213859   0.153   3.589  11.254  0.2721 -0.0790  0.3629
  944MPD2    H313860   0.037   3.760  11.154  0.2208  1.9597  0.5170
  944MPD2     N13861   4.592   3.909  11.545  0.5031 -0.0794  0.0011
  944MPD2    H513862   4.600   3.903  11.646 -1.2696  2.5346  0.3033
  944MPD2    N113863   0.178   3.542  11.521 -0.1820 -0.1452 -0.0354
  944MPD2    H713864   0.252   3.494  11.470 -0.4239  0.1063 -0.6307
    1TMC1    C113865   3.542   4.189  14.516  0.4174 -0.3369 -0.5823
    1TMC1    C213866   3.652   4.112  14.529 -0.9251 -0.0849 -0.3854
    1TMC1    C313867   3.656   3.999  14.456  0.3177 -0.0093  0.1337
    1TMC1    C413868   3.427   4.141  14.456 -0.6414 -0.0426  0.4858
    1TMC1    C513869   3.441   4.032  14.380 -0.6114 -0.0219 -0.1659
    1TMC1    C613870   3.562   3.964  14.376 -0.3820  0.9166  0.6007
    1TMC1     C13871   3.538   4.327  14.568  0.0053 -0.4495 -0.0029
    1TMC1     O13872   3.620   4.332  14.659  0.3732  0.3196  0.2167
    1TMC1     H13873   3.740   4.143  14.584 -0.9809 -1.1766  0.3413
    1TMC1    H113874   3.335   4.198  14.449  0.1357  0.9401 -1.5398
    1TMC1    H213875   3.582   3.886  14.303  0.3346  1.8262 -0.1769
    1TMC1    C713876   3.337   4.015  14.283 -0.2888  0.3609  0.6247
    1TMC1    C813877   3.782   3.940  14.432  0.2700  0.5896 -0.4432
    1TMC1    O113878   3.221   4.056  14.292 -0.3077  0.4246 -0.0077
    1TMC1    O213879   3.886   3.997  14.460 -0.0915  0.0250  0.2259
    1TMC1    O313880   3.398   3.978  14.162 -0.3116 -0.6381 -0.0472
    1TMC1    H313881   3.496   3.980  14.168 -0.3696  0.6476  0.4744
    1TMC1    O513882   3.764   3.808  14.428 -0.2946  0.2835 -0.0411
    1TMC1    H513883   3.672   3.773  14.430  0.1243 -0.7886  0.4273
    2MPD2     C13884   3.419   0.078  14.580  0.8160  0.3470 -1.0747
    2MPD2    C113885   3.354   0.026  14.469 -0.0468 -0.1966 -1.1450
    2MPD2    C213886   3.356   4.626  14.448 -0.0985  0.0186  0.0872
    2MPD2    C313887   3.440   4.544  14.527 -0.4379 -0.6579 -0.0568
    2MPD2    C413888   3.491   4.607  14.639 -0.3649  0.3857  0.3517
    2MPD2    C513889   3.479   4.735  14.668  0.1226 -0.0462  0.1161
    2MPD2     H13890   3.316   4.575  14.361  1.6160  1.0873 -1.3142
    2MPD2    H113891   3.543   4.550  14.715  0.2332  1.7935  1.0028
    2MPD2    H213892   3.408   0.181  14.612  2.4946  0.3205 -0.4042
    2MPD2    H313893   3.508   0.041  14.763  2.0223 -1.2105  0.0643
    2MPD2     N13894   3.454   4.408  14.493 -0.5841  0.7136 -0.3769
    2MPD2    H513895   3.412   4.381  14.405 -0.8128  1.9776 -0.6561
    2MPD2    N113896   3.285   0.118  14.390 -0.0960  0.0293 -0.1248
    2MPD2    H713897   3.314   0.212  14.414  0.1962  0.3611 -1.7943
    3TMC2    C113898   3.199   0.207  14.188  0.2098  0.0204  0.4730
    3TMC2    C213899   3.241   0.326  14.229 -0.2051 -0.4797  0.1084
    3TMC2    C313900   3.230   0.430  14.134  0.0563  0.4440 -0.1039
    3TMC2    C413901   3.187   0.178  14.054 -0.3488 -0.0028  0.4225
    3TMC2    C513902   3.199   0.285  13.965  0.8625  0.1665  0.4740
    3TMC2    C613903   3.220   0.413  13.996  0.0275  0.1965 -0.0948
    3TMC2     C13904   3.203   0.090  14.278  0.4699  0.1612  0.2368
    3TMC2     O13905   3.146   4.718  14.258  0.0745 -0.2922  0.1906
    3TMC2     H13906   3.262   0.351  14.332 -0.2873 -1.2480  0.3081
    3TMC2    H113907   3.170   0.075  14.023 -2.0256  0.5746 -0.5670
    3TMC2    H213908   3.231   0.492  13.922 -1.5182  0.0005 -0.5230
    3TMC2    C713909   3.193   0.247  13.821  0.5852  0.2754 -0.3727
    3TMC2    C813910   3.263   0.564  14.189  0.5433  0.7579 -0.3728
    3TMC2    O113911   3.140   0.139  13.799 -0.5598  0.1124 -0.5481
    3TMC2    O213912   3.299   0.574  14.307  0.0304 -0.1943 -0.0720
    3TMC2    O513913   3.238   0.667  14.102  0.2028  0.2770 -0.1167
    3TMC2    H513914   3.187   0.640  14.023 -0.0871  0.2896  0.0656
    4TMC2    C113915   3.244   0.917  13.141  0.6086 -0.8691 -0.1442
    4TMC2    C213916   3.305   0.906  13.020  0.3081  0.4879 -0.9379
    4TMC2    C313917   3.379   0.791  13.001  0.0881  1.0221 -0.1101
    4TMC2    C413918   3.269   0.836  13.250 -0.2146  0.6541  0.1205
    4TMC2    C513919   3.349   0.731  13.225 -0.4444  0.7524  0.1463
    4TMC2    C613920   3.395   0.699  13.101  0.4154  0.5270 -0.4581
    4TMC2     C13921   3.182   1.042  13.174 -0.3354  0.5400 -0.0012
    4TMC2     O13922   3.198   1.076  13.290 -0.3396 -0.1087  0.2492
    4TMC2     H13923   3.309   0.971  12.934  0.8017  1.3893 -0.2428
    4TMC2    H113924   3.230   0.852  13.350  1.9345 -0.0972  1.0869
    4TMC2    H213925   3.458   0.613  13.082  0.7389  0.7063 -0.1993
    4TMC2    C713926   3.351   0.634  13.327 -0.2465 -0.1912 -0.1107
    4TMC2    C813927   3.455   0.771  12.881 -1.1947 -0.0276  0.9914
    4TMC2    O113928   3.376   0.683  13.437 -0.2948  0.4121  0.0156
    4TMC2    O213929   3.460   0.675  12.807 -0.1486  0.6631 -0.0118
    4TMC2    O513930   3.535   0.882  12.872 -0.2330  0.3446  0.4570
    4TMC2    H513931   3.522   0.937  12.952 -0.9331 -0.9753  1.2518
    5MPD2     C13932   2.802   1.376  13.121  1.0646  0.0359 -0.1271
    5MPD2    C113933   2.798   1.293  13.016  0.0793  1.0438  0.4713
    5MPD2    C213934   2.908   1.212  12.996 -0.4101  0.6310 -0.0131
    5MPD2    C313935   3.003   1.186  13.100 -0.2715  0.2174  0.7138
    5MPD2    C413936   3.005   1.281  13.203  0.1882  0.5981 -0.1089
    5MPD2    C513937   2.904   1.374  13.216  0.8250  0.2418  0.3426
    5MPD2     H13938   2.924   1.161  12.901  1.7236  0.0195  0.6752
    5MPD2    H113939   3.082   1.278  13.279 -0.8885 -1.0147  0.9305
    5MPD2    H213940   2.722   1.448  13.136  0.7407 -0.9035  2.7121
    5MPD2    H313941   2.907   1.455  13.287  0.0211 -2.1327  3.0640
    5MPD2     N13942   3.095   1.082  13.080  0.1301  0.0892  0.4890
    5MPD2    H513943   3.088   1.025  12.997  1.1804 -2.5258  2.2117
    5MPD2    N113944   2.691   1.305  12.922 -0.0327  0.2575 -0.0364
    5MPD2    H713945   2.615   1.367  12.946 -0.5309 -0.3771  0.0207
    6MPD1     C13946   1.553   2.539  13.346  0.7933 -0.5320  0.1451
    6MPD1    C113947   1.673   2.572  13.298 -0.5667  0.3625 -0.1844
    6MPD1    C213948   1.747   2.483  13.229  0.2400  0.5071  0.1898
    6MPD1    C313949   1.691   2.358  13.204  0.1595 -0.6074  0.2339
    6MPD1    C413950   1.567   2.326  13.248 -0.3169  0.1749 -0.3937
    6MPD1    C513951   1.496   2.421  13.312 -0.3282 -0.8770 -0.5679
    6MPD1     H13952   1.855   2.492  13.223  0.1186  1.0592 -1.0369
    6MPD1    H113953   1.535   2.226  13.221  1.7230 -0.1914 -1.5196
    6MPD1    H213954   1.512   2.611  13.416  1.6896 -0.9165  1.0674
    6MPD1    H313955   1.399   2.391  13.350 -0.1033 -0.4371  0.3464
    6MPD1     N13956   1.766   2.252  13.145 -0.5577  0.5114 -0.3725
    6MPD1    H513957   1.720   2.161  13.143 -0.5704  0.5366 -1.2516
    6MPD1    N113958   1.733   2.681  13.363 -0.0120  0.3382  0.5878
    6MPD1    H613959   1.795   2.725  13.295 -0.5420 -2.0606 -1.4504
    6MPD1    H713960   1.665   2.750  13.396 -0.4602  0.6113 -0.9083
    7MPD2     C13961   2.035   1.499  13.231 -0.2222  0.0430  0.7049
    7MPD2    C113962   2.034   1.543  13.099 -0.4077  0.4710 -0.6722
    7MPD2    C213963   2.089   1.464  12.998 -0.8350 -0.5665  0.9412
    7MPD2    C313964   2.132   1.338  13.022  0.1232 -0.3611  0.6965
    7MPD2    C413965   2.130   1.289  13.153 -0.0538  0.7143  0.3305
    7MPD2    C513966   2.082   1.370  13.259 -0.1972 -0.9849 -0.7290
    7MPD2     H13967   2.104   1.513  12.903  1.8038 -0.9843  1.1345
    7MPD2    H113968   2.171   1.191  13.177  1.0358  0.4550 -2.5608
    7MPD2    H213969   2.001   1.555  13.317  1.3268  2.8431 -0.5132
    7MPD2    H313970   2.091   1.336  13.362 -0.1274  2.4354  0.3712
    7MPD2     N13971   2.209   1.254  12.930 -0.7203  0.1895  0.0370
    7MPD2    H513972   2.255   1.172  12.967 -0.3370  0.5966  0.4610
    7MPD2    N113973   2.003   1.679  13.063  0.9810 -0.3271 -0.3630
    7MPD2    H713974   1.992   1.699  12.964  2.2137 -3.4171 -1.1259
    8TMC3    C113975   2.338   1.225  12.736  0.0098 -0.5678 -0.0386
    8TMC3    C213976   2.455   1.236  12.805 -0.0345  0.6600 -0.8353
    8TMC3    C313977   2.566   1.252  12.729  0.8946 -0.0314  0.4654
    8TMC3    C413978   2.333   1.240  12.597  0.1088  0.8936  0.4899
    8TMC3    C513979   2.447   1.285  12.531  0.1042  0.1286 -0.0813
    8TMC3    C613980   2.569   1.281  12.594 -0.4237 -0.7880  0.0636
    8TMC3     C13981   2.228   1.292  12.801 -0.1135  0.3646 -0.1506
    8TMC3     O13982   2.182   1.384  12.732 -0.5062  0.5202  0.1468
    8TMC3     H13983   2.460   1.226  12.913 -0.3411  1.3415 -0.7541
    8TMC3    H113984   2.237   1.258  12.549 -0.1993 -2.1356  0.0022
    8TMC3    H213985   2.663   1.296  12.543 -2.3871  2.5206 -2.5990
    8TMC3    C713986   2.440   1.409  12.457 -0.2026  0.5496 -0.1457
    8TMC3    C813987   2.694   1.257  12.796  0.1933 -0.4834 -0.0192
    8TMC3    O113988   2.509   1.439  12.364 -0.1664 -0.1350 -0.1630
    8TMC3    O213989   2.777   1.186  12.738 -0.5807  0.0337 -0.8368
    9TMC3    C113990   1.922   2.130  13.019  0.8246 -0.2686  0.6873
    9TMC3    C213991   1.995   2.131  12.902 -0.4761 -0.5395  0.8137
    9TMC3    C313992   2.069   2.015  12.875 -0.5316  0.5982  0.2499
    9TMC3    C413993   1.912   2.019  13.100  0.0534  0.2177 -0.4838
    9TMC3    C513994   1.990   1.907  13.061  0.3675  0.0337 -0.0594
    9TMC3    C613995   2.069   1.910  12.955  0.3389  0.3137  0.1591
    9TMC3     C13996   1.887   2.257  13.076  0.8659  0.4616  0.0172
    9TMC3     O13997   1.955   2.357  13.059  0.5188  0.2627 -0.5945
    9TMC3     H13998   2.017   2.220  12.844 -0.4432 -0.2633  1.2485
    9TMC3    H113999   1.864   2.029  13.197  1.0941 -2.1898  0.2702
    9TMC3    H214000   2.149   1.838  12.942 -1.6984 -1.3466 -3.4750
    9TMC3    C714001   1.985   1.793  13.142  0.7365 -0.0963 -0.0122
    9TMC3    C814002   2.143   2.000  12.754 -0.3291 -0.8496 -0.9381
    9TMC3    O114003   1.957   1.804  13.258  0.4117  0.2438 -0.2278
    9TMC3    O214004   2.178   2.103  12.701 -0.4211  0.9046 -0.2105
   10MPD2     C14005   2.393   1.717  12.409 -0.6780 -0.0096  0.1331
   10MPD2    C114006   2.336   1.629  12.506  0.4699  0.2127  0.6732
   10MPD2    C214007   2.258   1.692  12.598 -0.2113  0.4986 -0.0405
   10MPD2    C314008   2.237   1.829  12.604 -0.0673 -0.0938  0.5000
   10MPD2    C414009   2.292   1.907  12.505 -0.6512 -0.7585  0.5860
   10MPD2    C514010   2.364   1.847  12.407  0.2401 -0.0394  0.7845
   10MPD2     H14011   2.216   1.633  12.678  3.3678 -0.6551  0.9656
   10MPD2    H114012   2.276   2.014  12.500  0.7480 -0.6499 -1.3082
   10MPD2    H214013   2.467   1.678  12.339  1.6908  1.1297  1.9812
   10MPD2    H314014   2.412   1.903  12.328  1.1416 -2.4640 -0.3945
   10MPD2     N14015   2.159   1.874  12.712  0.3550  0.1374  0.4660
   10MPD2    H514016   2.115   1.809  12.776  0.7621 -1.2810 -0.6975
   10MPD2    N114017   2.358   1.494  12.527 -0.3033 -1.0072  0.5077
   10MPD2    H714018   2.316   1.460  12.613 -1.2032 -0.2329  0.3747
   11MPD2     C14019   3.197   0.205  13.528  0.3647  0.1704  0.4338
   11MPD2    C114020   3.247   0.322  13.590  0.0821 -0.2593 -0.2008
   11MPD2    C214021   3.314   0.414  13.516  1.1730 -0.0530  0.7593
   11MPD2    C314022   3.312   0.404  13.374 -0.4945  0.4393  0.8170
   11MPD2    C414023   3.260   0.292  13.322  0.5772  0.7757 -0.0980
   11MPD2    C514024   3.212   0.190  13.397  1.2744  0.4900  0.0067
   11MPD2     H14025   3.363   0.498  13.564 -1.2492  2.1530 -0.6087
   11MPD2    H114026   3.266   0.271  13.216 -0.4884 -2.3245  0.4749
   11MPD2    H214027   3.156   0.119  13.579 -0.1348  0.5115  0.6157
   11MPD2    H314028   3.193   0.103  13.336 -1.8414  0.0355  1.6427
   11MPD2     N14029   3.344   0.507  13.281  0.2166 -0.3518  0.0719
   11MPD2    H514030   3.329   0.480  13.184  0.4913  1.4485 -0.4902
   11MPD2    N114031   3.244   0.335  13.733  0.1972  0.0101  1.1483
   11MPD2    H714032   3.305   0.411  13.763  2.9763 -1.7203 -0.2002
    1MPD1     C14033   1.015   1.142  17.368 -0.4510 -0.7790  0.3450
    1MPD1    C114034   1.051   1.173  17.240  0.4539 -0.6382  0.8464
    1MPD1    C214035   1.173   1.126  17.203  0.5449  0.2377  0.3919
    1MPD1    C314036   1.269   1.061  17.285 -0.1356  0.3830  0.4078
    1MPD1    C414037   1.225   1.038  17.414 -0.0963  0.1578 -0.2836
    1MPD1    C514038   1.099   1.074  17.454  0.5154 -0.3938 -0.5783
    1MPD1     H14039   1.197   1.146  17.099 -0.5141  1.6298  0.4027
    1MPD1    H114040   1.299   0.993  17.480 -3.2168 -2.0708  1.6530
    1MPD1    H214041   0.921   1.183  17.405  0.4971 -1.3947  3.4131
    1MPD1    H314042   1.069   1.063  17.558 -0.9554 -2.6742 -1.2445
    1MPD1     N14043   1.397   1.010  17.246  0.2312  0.3609 -0.0123
    1MPD1    H514044   1.449   0.961  17.318 -0.9229  0.4827  0.8873
    1MPD1    N114045   0.960   1.214  17.143 -0.1940  0.8296 -0.1638
    1MPD1    H614046   1.008   1.262  17.068  0.0015 -0.2450 -0.7290
    1MPD1    H714047   0.880   1.267  17.177 -1.1265 -1.8160  1.8460
    2MPD1     C14048   1.926   0.774   0.113 -0.4330 -0.7945 -0.2929
    2MPD1    C114049   1.790   0.774   0.080  0.6414  0.0042 -0.9805
    2MPD1    C214050   1.752   0.821  17.702  0.4529  0.0176  0.3609
    2MPD1    C314051   1.842   0.848  17.604 -0.7304 -0.3274 -0.2143
    2MPD1    C414052   1.977   0.853  17.637  0.5612 -0.4002 -0.1543
    2MPD1    C514053   2.017   0.807   0.016  0.1195  0.2447 -0.5751
    2MPD1     H14054   1.647   0.828  17.678  0.4127  0.3927  0.6567
    2MPD1    H114055   2.054   0.880  17.565  0.6940 -0.6435 -0.1034
    2MPD1    H214056   1.961   0.726   0.204  3.7097  3.5474  0.4131
    2MPD1    H314057   2.124   0.802   0.034  0.1408  2.3909 -0.1223
    2MPD1     N14058   1.795   0.869  17.472 -0.7246  0.5177 -0.2808
    2MPD1    H514059   1.696   0.853  17.456 -0.8600  1.4344 -0.3088
    2MPD1    N114060   1.686   0.751   0.172 -0.1407  0.6146  0.1154
    2MPD1    H614061   1.703   0.691   0.252 -0.7412  1.2169  0.6983
    2MPD1    H714062   1.611   0.706   0.118  0.2969 -0.1984  0.1897
    3TMC3    C114063   1.787   0.912  17.242 -0.2857  0.1165 -0.3744
    3TMC3    C214064   1.839   0.876  17.120 -0.5494  0.6638  0.3386
    3TMC3    C314065   1.765   0.897  17.000 -0.0573  0.7061 -0.4478
    3TMC3    C414066   1.671   0.988  17.242  0.1528 -0.0864 -0.3053
    3TMC3    C514067   1.595   0.992  17.129  0.4620 -0.3568 -0.0835
    3TMC3    C614068   1.634   0.945  17.005 -0.0673 -0.1627 -0.1836
    3TMC3     C14069   1.871   0.902  17.359 -0.3103  0.4143  0.3118
    3TMC3     O14070   1.991   0.915  17.349  0.4779  0.3209 -0.1942
    3TMC3     H14071   1.940   0.836  17.120 -0.7211  0.2402 -3.1349
    3TMC3    H114072   1.638   1.040  17.330 -0.0617  0.8226 -0.9213
    3TMC3    H214073   1.566   0.948  16.921 -0.5740 -0.6471  0.2076
    3TMC3    C714074   1.460   1.038  17.132  0.7857 -0.4031  0.1814
    3TMC3    C814075   1.843   0.918  16.882 -0.5513  0.0866  0.0655
    3TMC3    O114076   1.424   1.096  17.032 -0.0662  0.7208 -0.2314
    3TMC3    O214077   1.957   0.873  16.893  0.0435  0.3573  0.6732
    4MPD1     C14078   1.965   1.091  16.411  0.3806 -0.0794  0.2558
    4MPD1    C114079   1.850   1.150  16.447  0.7683  0.0103 -0.0113
    4MPD1    C214080   1.789   1.115  16.570 -0.3543  0.5627  0.4455
    4MPD1    C314081   1.855   1.046  16.673  0.9903  0.4438 -0.0592
    4MPD1    C414082   1.981   0.997  16.639  0.2382  0.0195 -0.7350
    4MPD1    C514083   2.031   1.017  16.510 -0.0064  0.4473  0.0007
    4MPD1     H14084   1.688   1.152  16.581 -0.5822  0.4130 -1.1127
    4MPD1    H114085   2.043   0.932  16.700 -0.8417  0.3645  0.7197
    4MPD1    H214086   2.017   1.093  16.315 -1.7639  1.3935 -0.8995
    4MPD1    H314087   2.120   0.963  16.478 -0.2050  0.9875 -1.4699
    4MPD1     N14088   1.787   1.002  16.788  0.0847  0.6789  0.0906
    4MPD1    H514089   1.688   1.023  16.788  0.0629  0.5585 -0.2365
    4MPD1    N114090   1.784   1.223  16.348 -0.0021  0.1008  0.7842
    4MPD1    H614091   1.734   1.300  16.393 -1.0516  1.4581 -2.7148
    4MPD1    H714092   1.848   1.269  16.284  0.6098 -2.8872 -0.7257
    1TCq1    O114093   1.760   1.696  12.216 -0.8272  0.5162 -0.4260
    1TCq1    C114094   1.797   1.759  12.100  0.7959  0.4102 -0.0006
    1TCq1    O214095   1.840   1.872  12.093 -0.1961  0.8527  0.1025
    1TCq1    C214096   1.711   1.704  11.999 -0.9811  0.2885 -0.7393
    1TCq1    C314097   1.679   1.574  12.009 -0.4707  0.2630 -0.5164
    1TCq1    C414098   1.587   1.532  11.919 -0.2487  0.2067 -0.6888
    1TCq1    C514099   1.509   1.622  11.854  0.6295  0.1884 -0.2983
    1TCq1    C614100   1.537   1.754  11.847 -0.7776 -0.1711  0.2504
    1TCq1    C714101   1.639   1.794  11.923  0.0883  0.0618  0.3086
    1TCq1    C814102   1.445   1.861  11.794  0.7107  0.0906 -0.2745
    1TCq1    O414103   1.484   1.976  11.806  0.2549  0.1393 -0.1244
    1TCq1    C914104   1.539   1.402  11.945  0.4180 -1.0104 -0.5646
    1TCq1    O514105   1.448   1.365  11.866  0.0677 -0.7066  0.8434
    1TCq1    O614106   1.584   1.340  12.049  0.3768  0.1407  0.0516
    1TCq1    H114107   1.701   1.620  12.201  1.1018 -1.0681  0.0082
    1TCq1    H214108   1.736   1.509  12.075 -3.4725 -0.8355  0.9675
    1TCq1    H314109   1.418   1.582  11.812 -0.0138 -0.2548  1.4878
    1TCq1    H414110   1.676   1.895  11.907  1.8423 -0.6352  0.0809
    2MPD1     C14111   1.020   2.023  11.549  0.5667  0.2811  0.2370
    2MPD1    C114112   1.038   1.887  11.518  0.2877  0.2275 -0.3353
    2MPD1    C214113   1.138   1.821  11.597 -0.7046  0.0103  0.9912
    2MPD1    C314114   1.237   1.888  11.665 -0.4048 -0.1697 -0.8006
    2MPD1    C414115   1.224   2.025  11.679  0.2905  0.0929 -0.0814
    2MPD1    C514116   1.110   2.089  11.627 -0.7215  0.0350  0.5935
    2MPD1     H14117   1.148   1.713  11.601  0.7687  0.0239 -2.6009
    2MPD1    H114118   1.295   2.087  11.732 -1.8543  2.1461  0.3707
    2MPD1    H214119   0.934   2.084  11.521 -0.2740 -0.6231  0.8218
    2MPD1    H314120   1.095   2.196  11.640 -0.0219  0.0309  1.4691
    2MPD1     N14121   1.340   1.809  11.721  0.0946  0.8407 -0.2217
    2MPD1    H514122   1.345   1.710  11.700  0.1924  0.8255 -0.1255
    2MPD1    N114123   0.943   1.809  11.449 -0.1799 -0.2131 -0.4886
    2MPD1    H614124   0.984   1.731  11.398  2.1707 -1.4865  3.3788
    2MPD1    H714125   0.889   1.865  11.383  0.9322  1.7188  0.2436
    1TMC1    C114126   4.478   0.163   1.814  0.4573 -0.0793 -0.0035
    1TMC1    C214127   4.442   0.091   1.928 -0.1286 -0.6402 -0.5495
    1TMC1    C314128   4.456   4.693   1.928 -0.3362  0.4469  0.1894
    1TMC1    C414129   4.536   0.103   1.704  0.1211  0.2930  0.1759
    1TMC1    C514130   4.560   4.705   1.718  0.2143  0.8943  0.5701
    1TMC1    C614131   4.524   4.633   1.826  0.1163  0.4420  0.3519
    1TMC1     C14132   4.450   0.304   1.800  0.5878  0.3940  0.2442
    1TMC1     O14133   4.472   0.352   1.689  0.3551 -0.7315  0.2300
    1TMC1     H14134   4.405   0.144   2.015  0.2017  0.0417 -0.8211
    1TMC1    H114135   4.572   0.169   1.626  0.6169  3.1554  2.7914
    1TMC1    H214136   4.529   4.524   1.821 -0.6844  0.4188  0.0482
    1TMC1    C714137   4.636   4.632   1.615  0.7452 -0.5831  0.1026
    1TMC1    C814138   4.370   4.604   1.997 -0.1554  0.0920  0.0013
    1TMC1    O114139   4.664   4.510   1.622 -0.0171 -0.1654 -1.0396
    1TMC1    O214140   4.397   4.485   2.002 -0.0808  0.4655  0.3119
    1TMC1    O314141   4.631   4.697   1.500  0.0141 -0.2446 -0.2554
    1TMC1    H314142   4.640   0.057   1.517 -0.3684 -0.2043 -0.2765
    1TMC1    O514143   4.248   4.651   2.025  0.0550 -0.2444  0.6759
    1TMC1    H514144   4.234   0.007   1.997  0.7759 -0.4879 -0.5364
    2MPD1     C14145   4.321   0.770   1.978  0.1253  0.0219 -0.4503
    2MPD1    C114146   4.290   0.676   2.071  0.1742 -0.7149  0.4316
    2MPD1    C214147   4.308   0.541   2.044 -0.0802  0.1451 -0.2607
    2MPD1    C314148   4.359   0.501   1.927 -0.4634  0.1086 -0.2904
    2MPD1    C414149   4.402   0.595   1.836  0.1214  0.0029  0.0760
    2MPD1    C514150   4.374   0.730   1.859 -0.5123 -0.3511 -0.1086
    2MPD1     H14151   4.295   0.463   2.118  2.2530 -0.2613 -0.2698
    2MPD1    H114152   4.444   0.565   1.740  2.0393  0.7830  0.6937
    2MPD1    H214153   4.328   0.876   1.997 -0.6112 -0.0059 -0.0068
    2MPD1    H314154   4.414   0.810   1.798  0.5756 -0.5792  0.3033
    2MPD1     N14155   4.398   0.366   1.913  0.1365 -0.1174 -0.4504
    2MPD1    H514156   4.391   0.309   1.997  0.0596  1.2681  0.4947
    2MPD1    N114157   4.234   0.707   2.196  0.0607 -0.2545  0.0140
    2MPD1    H614158   4.158   0.774   2.189  1.3163  1.1916  0.3122
    2MPD1    H714159   4.200   0.618   2.233  0.5065 -0.4888 -0.1360
    1MPD1     C14160   3.095   1.473  12.257  0.2608 -0.3735  0.2457
    1MPD1    C114161   3.113   1.587  12.326 -0.4637  0.1938 -0.3425
    1MPD1    C214162   3.172   1.699  12.264  0.2139  0.3434 -0.5970
    1MPD1    C314163   3.204   1.690  12.129  0.1350  0.5633 -0.3367
    1MPD1    C414164   3.194   1.568  12.062  0.6159  0.0471 -0.1549
    1MPD1    C514165   3.145   1.462  12.126 -1.2219  0.7852 -0.3396
    1MPD1     H14166   3.187   1.789  12.322  1.9456  0.3341 -1.0328
    1MPD1    H114167   3.208   1.558  11.955 -0.8727 -0.1188 -0.3342
    1MPD1    H214168   3.034   1.389  12.290 -2.0200  1.1026 -0.2172
    1MPD1    H314169   3.130   1.367  12.075  0.0441 -0.2594  1.2336
    1MPD1     N14170   3.269   1.800  12.066 -0.8605  0.1619 -0.8658
    1MPD1    H514171   3.308   1.864  12.135 -2.9370 -1.3955  1.7231
    1MPD1    N114172   3.050   1.604  12.451  0.2103 -0.9464  0.6557
    1MPD1    H614173   3.029   1.511  12.486  1.0246 -1.6779 -0.7691
    1MPD1    H714174   3.113   1.645  12.520 -1.4966 -4.4824  4.3014
    2MPD1     C14175   2.911   2.081  11.609 -0.0821  0.3084 -0.6658
    2MPD1    C114176   2.869   1.983  11.527  0.1098  0.4912 -0.3198
    2MPD1    C214177   2.965   1.922  11.444  0.1081  0.0443 -0.0916
    2MPD1    C314178   3.100   1.964  11.456  0.0933  0.2040 -0.0463
    2MPD1    C414179   3.131   2.073  11.529  0.7191 -0.9625 -0.1743
    2MPD1    C514180   3.035   2.127  11.611 -0.2308  0.3247 -0.2259
    2MPD1     H14181   2.954   1.844  11.369  0.0262  1.2385 -1.3226
    2MPD1    H114182   3.234   2.107  11.529 -0.0379  1.3787  3.0734
    2MPD1    H214183   2.836   2.127  11.672  0.7019  0.9330 -0.1905
    2MPD1    H314184   3.056   2.214  11.672  0.4416 -0.1727  0.2625
    2MPD1     N14185   3.211   1.918  11.386  0.3761  0.2275 -0.1261
    2MPD1    H514186   3.300   1.940  11.429 -0.0430  0.6645  0.5171
    2MPD1    N114187   2.739   1.941  11.525 -0.6427  0.0315 -0.1408
    2MPD1    H614188   2.673   2.019  11.523  1.2264  1.5554 -1.8606
    2MPD1    H714189   2.728   1.893  11.436  0.8915 -0.9963  0.2140
    3MPD1     C14190   3.327   1.379  10.566  0.3741  0.5251 -0.4351
    3MPD1    C114191   3.225   1.353  10.651  0.3549 -0.7168  0.3707
    3MPD1    C214192   3.247   1.391  10.781 -0.1845  0.8822 -0.6132
    3MPD1    C314193   3.362   1.453  10.817  0.1597  0.2795  0.0566
    3MPD1    C414194   3.472   1.463  10.737  0.5366 -0.0979  0.0133
    3MPD1    C514195   3.450   1.423  10.607  0.2365  0.1275 -0.3625
    3MPD1     H14196   3.164   1.380  10.850 -0.7296  2.1319 -1.0649
    3MPD1    H114197   3.554   1.531  10.754  0.8822 -0.4575 -0.2079
    3MPD1    H214198   3.315   1.357  10.460  0.6804  1.0950 -0.5874
    3MPD1    H314199   3.514   1.470  10.533 -1.9546  3.9317  0.1419
    3MPD1     N14200   3.366   1.504  10.946 -0.6293 -0.3089 -0.5082
    3MPD1    H514201   3.275   1.511  10.991 -0.3946 -0.8132  0.0363
    3MPD1    N114202   3.102   1.318  10.601 -1.0192  0.0497 -0.6021
    3MPD1    H614203   3.062   1.245  10.659  0.5393 -0.7850 -0.5643
    3MPD1    H714204   3.118   1.273  10.511  2.3861 -1.4762  0.7504
    4MPD2     C14205   3.702   2.091  11.369 -0.4320 -0.1198  0.6970
    4MPD2    C114206   3.734   2.149  11.491 -0.0166 -0.1238 -0.5975
    4MPD2    C214207   3.850   2.226  11.506 -0.0217  0.1099  0.5296
    4MPD2    C314208   3.944   2.231  11.406 -0.5439  0.1920  0.1125
    4MPD2    C414209   3.905   2.178  11.284 -0.1640  0.2330 -0.1834
    4MPD2    C514210   3.789   2.108  11.264  0.0006  0.1424 -0.2982
    4MPD2     H14211   3.874   2.259  11.606 -1.2891 -4.9036  2.4708
    4MPD2    H114212   3.966   2.189  11.195  1.8876 -1.1350  1.0509
    4MPD2    H214213   3.608   2.039  11.351 -0.7862  0.8179 -0.2308
    4MPD2    H314214   3.760   2.089  11.162 -2.6833  2.0909  0.0887
    4MPD2     N14215   4.074   2.291  11.417 -0.4295  0.2756 -0.2244
    4MPD2    H514216   4.108   2.327  11.328  1.3960 -2.0062 -0.4420
    4MPD2    N114217   3.645   2.146  11.606  0.7687 -0.0976 -0.0144
    4MPD2    H714218   3.687   2.193  11.686 -1.0571  0.1756  0.7863
    5TMC3    C114219   3.461   2.079  11.747  0.3506  0.7026 -0.1412
    5TMC3    C214220   3.392   1.973  11.779  0.9173  0.0108 -0.0654
    5TMC3    C314221   3.376   1.942  11.910  0.1872 -0.3168 -0.0801
    5TMC3    C414222   3.500   2.176  11.838  0.0511  0.0261 -0.3546
    5TMC3    C514223   3.474   2.146  11.968  0.5645  0.4357 -0.1398
    5TMC3    C614224   3.420   2.029  12.008  0.2163  0.0824  0.8301
    5TMC3     C14225   3.523   2.080  11.611 -0.9464 -0.0533 -0.2630
    5TMC3     O14226   3.452   2.031  11.521 -0.7048  0.0355  0.3188
    5TMC3     H14227   3.368   1.896  11.706 -0.3337  2.6689 -2.4357
    5TMC3    H114228   3.537   2.272  11.805 -1.2252  0.5558 -0.2248
    5TMC3    H214229   3.379   2.019  12.108 -1.4210 -0.0955  0.1412
    5TMC3    C714230   3.561   2.215  12.062  0.7843 -0.1414  0.0325
    5TMC3    C814231   3.276   1.830  11.936 -0.2416  0.1805  0.2821
    5TMC3    O114232   3.608   2.324  12.030  0.3487  0.0816 -0.0880
    5TMC3    O214233   3.224   1.774  11.839 -0.3071  0.4300 -0.4967
    6TMC3    C114234   3.342   1.761  11.272  0.1983  0.1261 -0.4093
    6TMC3    C214235   3.357   1.696  11.155  0.0343 -0.2744 -0.0312
    6TMC3    C314236   3.461   1.614  11.136  0.3066  0.5430  0.0636
    6TMC3    C414237   3.430   1.750  11.380  0.5875  0.8894  0.5661
    6TMC3    C514238   3.538   1.671  11.354 -0.2186 -0.2406 -0.4609
    6TMC3    C614239   3.555   1.608  11.235  0.1152  0.0082  0.6050
    6TMC3     C14240   3.208   1.817  11.290  0.1327  0.6066  0.1795
    6TMC3     O14241   3.123   1.758  11.225  0.2175 -0.5401 -0.6423
    6TMC3     H14242   3.290   1.713  11.072  1.4364  0.7477 -0.9338
    6TMC3    H114243   3.402   1.776  11.481  2.1165  0.5159  1.0887
    6TMC3    H214244   3.642   1.548  11.212  0.4936  0.9546 -0.4499
    6TMC3    C714245   3.642   1.662  11.451 -0.8972  0.2215 -0.1129
    6TMC3    C814246   3.486   1.547  11.012  0.5376 -0.3173  0.3399
    6TMC3    O114247   3.760   1.648  11.412 -0.0737 -0.1370  0.2748
    6TMC3    O214248   3.598   1.510  10.993  0.5869  0.0982 -0.7043
    7MPD2     C14249   3.957   1.988  12.256  0.0004  0.7562 -0.4767
    7MPD2    C114250   3.945   2.098  12.167 -0.1492  0.2565  0.2744
    7MPD2    C214251   3.826   2.157  12.151 -0.0993 -0.0216 -0.0109
    7MPD2    C314252   3.714   2.106  12.218 -0.4769 -0.1289  0.2764
    7MPD2    C414253   3.735   2.002  12.311 -0.8794 -0.4666 -0.2958
    7MPD2    C514254   3.852   1.946  12.335 -0.1008  0.3221  0.1358
    7MPD2     H14255   3.811   2.238  12.081  0.2010  0.7632  0.8295
    7MPD2    H114256   3.649   1.952  12.355 -1.4928 -0.6827 -1.7498
    7MPD2    H214257   4.047   1.927  12.255 -0.2703  0.3854 -2.8692
    7MPD2    H314258   3.852   1.868  12.411 -2.7752  0.8034  0.6112
    7MPD2     N14259   3.583   2.133  12.168  0.1618 -0.5813 -0.1170
    7MPD2    H514260   3.517   2.061  12.196  0.6768 -0.4299  1.4910
    7MPD2    N114261   4.057   2.115  12.079  0.0462  0.6099  0.4708
    7MPD2    H714262   4.136   2.057  12.105 -0.4989 -0.8208 -1.0701
    8TMC3    C114263   4.142   2.172  11.867  0.2109 -0.0728 -0.2240
    8TMC3    C214264   4.172   2.046  11.845  0.1038  0.7225 -0.1639
    8TMC3    C314265   4.179   1.999  11.714  0.1462  0.4360  0.0802
    8TMC3    C414266   4.128   2.252  11.754 -0.2282  0.0459 -0.0196
    8TMC3    C514267   4.147   2.211  11.625 -0.6487 -0.2637  0.0999
    8TMC3    C614268   4.179   2.084  11.607  0.1603  0.1309 -0.2422
    8TMC3     C14269   4.061   2.213  11.982 -0.0761  0.1651  0.4626
    8TMC3     O14270   3.984   2.305  11.959  0.3395  0.5376 -0.2489
    8TMC3     H14271   4.213   1.982  11.923 -0.3264  0.7860  0.1110
    8TMC3    H114272   4.102   2.356  11.762  4.4155  1.3432 -1.5244
    8TMC3    H214273   4.169   2.047  11.506 -1.4669  1.4379 -0.5753
    8TMC3    C714274   4.153   2.317  11.526 -0.0714 -0.2206  0.1778
    8TMC3    C814275   4.085   1.891  11.692  0.1712 -0.6249  0.3161
    8TMC3    O114276   4.246   2.394  11.533  0.5650  0.2938  0.1208
    8TMC3    O214277   4.059   1.850  11.578  0.4191  0.1763 -0.6416
    9MPD2     C14278   3.802   1.807  11.922  0.6380 -0.5874 -0.8591
    9MPD2    C114279   3.868   1.831  11.802 -0.4057  1.1038 -0.1882
    9MPD2    C214280   3.796   1.795  11.685  0.9121 -0.5108 -0.0678
    9MPD2    C314281   3.671   1.734  11.690 -0.0471  0.7025 -0.0603
    9MPD2    C414282   3.601   1.739  11.809  0.2208 -0.3219  0.1117
    9MPD2    C514283   3.675   1.778  11.918  0.6451  0.1602 -0.3517
    9MPD2     H14284   3.832   1.795  11.583  1.0194  2.6044 -0.0313
    9MPD2    H114285   3.503   1.695  11.822 -0.8661  1.6720 -1.3175
    9MPD2    H214286   3.857   1.818  12.015 -0.3985 -0.8733 -0.2090
    9MPD2    H314287   3.627   1.770  12.015  1.1563 -1.2760 -0.2163
    9MPD2     N14288   3.593   1.696  11.573  0.1016  0.4158  0.6352
    9MPD2    H514289   3.492   1.693  11.583  0.0814 -0.3340  0.2685
    9MPD2    N114290   4.006   1.875  11.807 -0.4721  0.9140  0.1253
    9MPD2    H714291   4.038   1.904  11.899  0.7786 -0.0357 -0.0097
    1MPD1     C14292   2.227   4.510  16.344 -0.0371  0.2712 -0.3246
    1MPD1    C114293   2.166   4.618  16.281  0.4568 -0.2000  0.2186
    1MPD1    C214294   2.230   0.000  16.262 -0.0876 -0.6931 -0.4661
    1MPD1    C314295   2.350   0.016  16.332 -0.1728  0.4016  0.5291
    1MPD1    C414296   2.397   4.660  16.414 -0.7461  0.4363 -0.4344
    1MPD1    C514297   2.333   4.540  16.424  0.0647  0.8022 -0.2661
    1MPD1     H14298   2.189   0.075  16.196 -1.9162 -1.5395 -0.2963
    1MPD1    H114299   2.472   4.687  16.488 -1.6410  1.8730 -0.0575
    1MPD1    H214300   2.203   4.404  16.343  0.4243  0.1773 -1.1195
    1MPD1    H314301   2.378   4.465  16.489 -0.3292  1.2270  0.4882
    1MPD1     N14302   2.426   0.132  16.331 -0.5218 -0.1444  0.7455
    1MPD1    H514303   2.514   0.130  16.381  0.1142 -0.1172 -0.3683
    1MPD1    N114304   2.056   4.581  16.199 -0.3568 -0.0837 -0.4917
    1MPD1    H614305   2.011   4.495  16.230  0.4997  0.2825  1.7317
    1MPD1    H714306   1.992   4.660  16.206  0.7030  0.4765  2.7118
    2TMC2    C114307   2.607   0.539  16.221 -0.3356  0.4921  0.1899
    2TMC2    C214308   2.736   0.493  16.227 -0.4231 -0.0240 -0.8256
    2TMC2    C314309   2.755   0.357  16.247 -0.0068  0.2074  0.1890
    2TMC2    C414310   2.497   0.457  16.230 -0.0843  0.1392  0.7753
    2TMC2    C514311   2.525   0.325  16.248  0.5369  0.2382 -0.2852
    2TMC2    C614312   2.648   0.272  16.266 -0.2066 -0.0540 -0.4034
    2TMC2     C14313   2.590   0.677  16.187  0.2102  0.7626  0.3771
    2TMC2     O14314   2.475   0.718  16.208  0.2331  0.2187  0.4787
    2TMC2     H14315   2.820   0.562  16.228 -0.2904 -0.1885 -0.4519
    2TMC2    H114316   2.396   0.492  16.211  0.3741  0.9044 -0.2379
    2TMC2    H214317   2.661   0.165  16.265 -0.7243 -0.1120 -1.3423
    2TMC2    C714318   2.411   0.237  16.243  0.1468 -0.4803 -0.2735
    2TMC2    C814319   2.885   0.313  16.285  0.0973  0.2425 -0.2247
    2TMC2    O114320   2.312   0.266  16.179 -0.2169 -0.1170 -0.3987
    2TMC2    O214321   2.982   0.387  16.278  0.1464  0.4095  0.1701
    2TMC2    O514322   2.859   0.251  16.399 -0.4788  0.0699  0.1912
    2TMC2    H514323   2.769   0.211  16.402 -0.5576  0.3138  1.0745
    3MPD1     C14324   2.693   1.103  15.931  0.2557 -0.5613 -0.6057
    3MPD1    C114325   2.758   1.000  15.873 -0.0980 -0.3897 -0.2314
    3MPD1    C214326   2.752   0.871  15.922  0.4141  0.4801  0.2371
    3MPD1    C314327   2.684   0.844  16.036  0.9189 -0.3246  0.0751
    3MPD1    C414328   2.630   0.950  16.103  0.2624 -0.5192 -0.3725
    3MPD1    C514329   2.629   1.080  16.050  0.0444  0.4875 -0.8323
    3MPD1     H14330   2.807   0.793  15.872  2.5926  1.5482  1.0004
    3MPD1    H114331   2.578   0.941  16.198 -1.1097 -0.6433 -1.1245
    3MPD1    H214332   2.684   1.201  15.885 -2.6244 -1.4072 -1.8172
    3MPD1    H314333   2.574   1.149  16.112  1.4866 -1.1677  2.3297
    3MPD1     N14334   2.682   0.715  16.091 -0.4087  0.1334  0.0025
    3MPD1    H514335   2.737   0.640  16.051 -0.5883 -0.8189  1.5478
    3MPD1    N114336   2.833   1.030  15.761  0.2086  0.0436 -0.5479
    3MPD1    H614337   2.873   1.122  15.775  0.2621  0.1338 -1.2997
    3MPD1    H714338   2.918   0.974  15.753  0.0212  0.0594 -2.5947
    1TMC1    C114339   1.275   4.205  13.325  0.5113  0.4499 -0.5095
    1TMC1    C214340   1.186   4.179  13.426 -0.4320 -0.4789  0.3649
    1TMC1    C314341   1.127   4.058  13.426  0.4191  0.6971 -0.3074
    1TMC1    C414342   1.308   4.122  13.224 -0.6005  0.1160 -0.6209
    1TMC1    C514343   1.241   3.999  13.231 -0.4891 -0.2446 -0.0069
    1TMC1    C614344   1.162   3.959  13.335  0.1708 -0.1316  0.2732
    1TMC1     C14345   1.356   4.328  13.323  0.6121 -0.2816 -0.0205
    1TMC1     O14346   1.401   4.368  13.213  0.1036 -0.3069 -0.0710
    1TMC1     H14347   1.157   4.249  13.503  0.4972  0.3982 -0.1002
    1TMC1    H114348   1.376   4.139  13.141 -0.3878 -2.2146 -0.9245
    1TMC1    H214349   1.109   3.864  13.335  0.0077 -0.0404 -1.0236
    1TMC1    C714350   1.332   3.891  13.192 -0.1159  0.0102 -0.2013
    1TMC1    C814351   1.045   4.025  13.540  0.0538  0.1708  0.1069
    1TMC1    O114352   1.307   3.787  13.251 -0.5769  0.2403 -0.0276
    1TMC1    O214353   1.094   4.030  13.652 -0.3363  0.1245 -0.0733
    1TMC1    O314354   1.350   3.899  13.061 -0.5979  0.1766  0.5490
    1TMC1    H314355   1.332   3.990  13.029 -0.6786  0.1681  0.5725
    1TMC1    O514356   0.955   3.933  13.496 -0.2957  0.0620 -0.2435
    1TMC1    H514357   0.918   3.958  13.408 -0.8959  0.9096  0.2505
    2MPD2     C14358   1.521   4.564  13.400 -0.5308 -0.2875  0.2777
    2MPD2    C114359   1.483   4.463  13.484  0.6429 -0.0558 -0.3477
    2MPD2    C214360   1.527   4.449  13.613  0.0339  0.3035 -0.7322
    2MPD2    C314361   1.625   4.534  13.651 -0.1616  0.1668 -0.1785
    2MPD2    C414362   1.664   4.641  13.572  0.3585 -0.1050 -0.6255
    2MPD2    C514363   1.611   4.651  13.445 -0.7640 -0.2215  0.2068
    2MPD2     H14364   1.501   4.360  13.669 -2.6193  0.6220 -1.4658
    2MPD2    H114365   1.743   4.711  13.597 -0.4397  0.4676  0.2819
    2MPD2    H214366   1.498   4.565  13.294  0.3361 -1.3492  0.0802
    2MPD2    H314367   1.658   4.725  13.381  1.5979  0.2903  2.5163
    2MPD2     N14368   1.676   4.513  13.779  1.3792  0.0110  0.4916
    2MPD2    H514369   1.621   4.456  13.842 -0.9136  1.4075 -0.2510
    2MPD2    N114370   1.401   4.352  13.448 -0.1401  0.2557  0.0698
    2MPD2    H714371   1.369   4.285  13.517 -1.6374  0.1801 -0.6972
    3TCq1    O114372   1.719   4.637  14.374  0.2321  0.2514  0.1599
    3TCq1    C114373   1.701   4.716  14.261 -0.0206  0.3253 -1.0261
    3TCq1    O214374   1.597   0.035  14.231  0.2894 -0.6248 -0.3527
    3TCq1    C214375   1.784   4.656  14.157  0.5278 -0.0942 -0.1526
    3TCq1    C314376   1.901   4.604  14.207  0.4674  0.0599 -0.2670
    3TCq1    C414377   1.972   4.517  14.135  0.1759  0.2969 -0.5225
    3TCq1    C514378   1.930   4.487  14.015  0.0271  0.6600  0.0549
    3TCq1    C614379   1.812   4.544  13.966  0.1667 -0.3462 -0.0680
    3TCq1    C714380   1.728   4.623  14.038 -0.2688  0.0641 -0.6986
    3TCq1    C814381   1.797   4.563  13.819  0.3409  0.8450 -0.0112
    3TCq1    O414382   1.891   4.607  13.761  0.1243  0.2267  0.2673
    3TCq1    C914383   2.077   4.444  14.193 -0.8982  0.1982 -0.2081
    3TCq1    O514384   2.086   4.450  14.319 -0.5417 -0.5089  0.3719
    3TCq1    O614385   2.149   4.382  14.117  0.3654 -0.1217  0.6893
    3TCq1    H114386   1.809   4.601  14.390 -0.3976 -1.2829  0.2543
    3TCq1    H214387   1.926   4.626  14.310  1.0943  0.4956 -0.5097
    3TCq1    H314388   1.978   4.404  13.965 -0.9528  0.5000 -0.6266
    3TCq1    H414389   1.641   4.674  13.998 -0.1079  0.3496 -0.6796
    1MPD2     C14390   1.141   0.760  14.227 -0.3682 -0.0419  0.4761
    1MPD2    C114391   1.139   0.703  14.352  0.5300  0.5010  0.6049
    1MPD2    C214392   1.249   0.717  14.433  0.1578 -0.0212 -0.6299
    1MPD2    C314393   1.355   0.795  14.387  0.3081 -0.4545 -0.0374
    1MPD2    C414394   1.351   0.855  14.263  0.2638  1.3232 -0.0859
    1MPD2    C514395   1.248   0.838  14.188  0.1083 -0.4686  0.6082
    1MPD2     H14396   1.249   0.686  14.537  2.7405  1.1827 -0.2556
    1MPD2    H114397   1.431   0.922  14.235  0.0686  1.3000 -0.7116
    1MPD2    H214398   1.048   0.763  14.171 -0.2815  0.3115  0.3498
    1MPD2    H314399   1.232   0.891  14.095 -0.1570 -1.5843  0.0264
    1MPD2     N14400   1.470   0.818  14.467  0.4513  0.2673  0.2901
    1MPD2    H514401   1.542   0.880  14.432  1.7216 -1.3058  0.0796
    1MPD2    N114402   1.013   0.636  14.396  0.3162 -0.1313  1.0143
    1MPD2    H714403   0.927   0.660  14.348  1.9738 -0.2665 -1.9966
    2TMC3    C114404   0.874   0.511  14.547  0.0404  0.5559  0.9781
    2TMC3    C214405   0.886   0.454  14.675  0.2516  0.7221 -0.4992
    2TMC3    C314406   0.795   0.480  14.768  0.3350 -0.1347 -0.1225
    2TMC3    C414407   0.764   0.581  14.510  0.2141 -0.1220 -0.9009
    2TMC3    C514408   0.667   0.603  14.604  0.0083 -0.3482 -0.5647
    2TMC3    C614409   0.689   0.559  14.736 -0.4657 -0.7786 -0.4522
    2TMC3     C14410   1.005   0.560  14.511  0.5140 -0.2186  0.8315
    2TMC3     O14411   1.092   0.529  14.592  0.0584 -0.4297  0.2989
    2TMC3     H14412   0.965   0.383  14.699 -0.4337  0.5161  1.2065
    2TMC3    H114413   0.768   0.616  14.408 -1.5456  0.1978 -0.8673
    2TMC3    H214414   0.606   0.585  14.802 -0.3710 -0.8463 -0.3062
    2TMC3    C714415   0.558   0.703  14.571  1.0358 -0.9374  0.7533
    2TMC3    C814416   0.855   0.528  14.897 -0.8776  0.0921  0.0773
    2TMC3    O114417   0.500   0.756  14.665  0.2379 -0.6408 -0.0877
    2TMC3    O214418   0.787   0.566  14.990  0.1040 -0.1872 -0.5421
    3TCq1    O114419   0.279   1.298  13.473  1.1008  0.6911  0.3042
    3TCq1    C114420   0.212   1.268  13.582  0.0004 -0.7738 -0.0840
    3TCq1    O214421   0.089   1.284  13.599 -0.0979  0.2150  0.0098
    3TCq1    C214422   0.291   1.181  13.671 -0.0104  0.2749 -0.5861
    3TCq1    C314423   0.396   1.100  13.623 -0.3813  0.6259  0.2533
    3TCq1    C414424   0.432   0.996  13.708 -0.2667 -0.4881 -0.0778
    3TCq1    C514425   0.384   0.980  13.839  0.2263  0.4336  0.3873
    3TCq1    C614426   0.297   1.077  13.881 -0.8706 -0.3543 -0.0362
    3TCq1    C714427   0.252   1.177  13.804 -0.3304 -0.4109 -0.0320
    3TCq1    C814428   0.259   1.081  14.025  0.4225 -0.2244  0.0920
    3TCq1    O414429   0.159   1.142  14.063  0.1481  0.8020 -0.4282
    3TCq1    C914430   0.511   0.888  13.643  0.7177 -0.0097  0.1830
    3TCq1    O514431   0.601   0.932  13.566 -0.5841 -0.1166  0.8002
    3TCq1    O614432   0.492   0.772  13.690  0.0690  0.7157  1.1537
    3TCq1    H114433   0.375   1.284  13.486  1.2590  1.3078 -0.1616
    3TCq1    H214434   0.422   1.098  13.518  2.5025  1.7498  0.9484
    3TCq1    H314435   0.421   0.893  13.893 -0.1829 -0.9952 -1.6412
    3TCq1    H414436   0.172   1.239  13.844  0.7215  0.9824 -0.1093
    4MPD2     C14437   0.246   1.012  14.309 -0.8513  0.2328  0.0666
    4MPD2    C114438   0.346   0.969  14.230 -0.2444 -0.6183 -0.4065
    4MPD2    C214439   0.438   0.882  14.274  0.0257 -0.3488  0.0113
    4MPD2    C314440   0.431   0.830  14.396  0.3150  0.6406  0.1671
    4MPD2    C414441   0.318   0.857  14.478  0.0152  0.4830  0.8191
    4MPD2    C514442   0.234   0.952  14.433 -0.1679  0.4060  0.3151
    4MPD2     H14443   0.525   0.849  14.218 -0.3041  2.9606 -2.4636
    4MPD2    H114444   0.304   0.817  14.578 -0.5281  1.0027  0.9466
    4MPD2    H214445   0.170   1.085  14.284 -1.8200 -1.1269 -0.9480
    4MPD2    H314446   0.149   0.982  14.492  1.0641  2.0080  1.2785
    4MPD2     N14447   0.537   0.742  14.442 -0.2751 -0.3170  0.5608
    4MPD2    H514448   0.605   0.705  14.377 -2.6804 -0.4732 -1.8801
    4MPD2    N114449   0.358   1.010  14.099  0.7113  0.5413 -0.1284
    4MPD2    H714450   0.433   0.972  14.042  0.5352  1.0547 -0.6975
    5TMC2    C114451   1.588   0.889  14.889 -0.3645 -0.3321  0.0947
    5TMC2    C214452   1.610   1.017  14.862  0.2905 -0.4677  0.3411
    5TMC2    C314453   1.615   1.055  14.735  0.1741  0.0031  0.0924
    5TMC2    C414454   1.592   0.791  14.797 -0.1913  0.5135 -0.6197
    5TMC2    C514455   1.598   0.827  14.669  0.0611 -0.9484  0.0835
    5TMC2    C614456   1.622   0.957  14.631 -0.6518 -0.3751 -0.5777
    5TMC2     C14457   1.497   0.846  14.986 -1.1344 -0.1118  0.3603
    5TMC2     O14458   1.510   0.891  15.101  0.0275  0.4065  0.3064
    5TMC2     H14459   1.598   1.087  14.944 -2.5400 -0.6965  0.1326
    5TMC2    H114460   1.612   0.692  14.838 -0.1763  0.0221 -1.8332
    5TMC2    H214461   1.653   0.985  14.531  2.5834 -1.1225  0.2181
    5TMC2    C714462   1.496   0.761  14.590  0.0344 -0.0916  0.4389
    5TMC2    C814463   1.659   1.195  14.713  0.3206  0.1713 -0.2987
    5TMC2    O114464   1.436   0.675  14.660 -0.5955 -0.1693 -0.4385
    5TMC2    O214465   1.752   1.229  14.787 -0.0758 -0.6833  0.4601
    5TMC2    O514466   1.658   1.223  14.580 -0.0436  0.6839 -0.1622
    5TMC2    H514467   1.574   1.204  14.534 -0.5206 -1.6919  1.7451
    6MPD2     C14468   1.065   0.585  15.098 -0.1761 -0.3262 -0.2261
    6MPD2    C114469   1.080   0.595  14.961 -0.3743 -0.5295  0.0053
    6MPD2    C214470   1.194   0.651  14.905  0.0289 -0.3551 -0.0618
    6MPD2    C314471   1.291   0.709  14.986  0.6655  0.2668 -0.8873
    6MPD2    C414472   1.274   0.701  15.123 -0.6485 -0.0628 -0.6945
    6MPD2    C514473   1.161   0.648  15.181  0.5906  0.2200 -0.2633
    6MPD2     H14474   1.194   0.678  14.800 -0.1001 -3.1992 -0.7691
    6MPD2    H114475   1.349   0.745  15.187 -1.4068  1.4151 -0.8175
    6MPD2    H214476   0.979   0.536  15.143 -1.0018  1.9867  0.7583
    6MPD2    H314477   1.152   0.658  15.288  0.6816  1.3101 -0.3590
    6MPD2     N14478   1.395   0.776  14.927  0.4819  0.5720  0.0195
    6MPD2    H514479   1.409   0.752  14.829 -1.6690 -0.4776 -0.0347
    6MPD2    N114480   0.982   0.539  14.876 -0.2165  0.2344  0.0174
    6MPD2    H714481   1.014   0.528  14.780  2.2303 -2.3479  1.1225
  945NH3     N114482   3.711   3.141  13.750 -0.9260  0.2258  0.0019
  945NH3     H214483   3.747   3.058  13.797  0.9251  1.0896  0.1334
  945NH3     H314484   3.629   3.101  13.706 -1.5981  0.4314  1.0859
  945NH3     H414485   3.777   3.152  13.673  0.1967  0.0809  0.9421
  946SOD     NA14486   1.364   0.755   8.406 -0.5717 -0.0687  0.1183
  947SOD     NA14487   2.228   0.572  12.872  0.2114 -0.0048 -0.5812
  948SOD     NA14488   1.735   2.381   0.226 -0.2160 -0.4774  0.4417
  949SOD     NA14489   3.128   4.128   2.706 -0.1928 -0.0146 -0.2630
  950SOD     NA14490   0.947   3.490  13.369 -0.2499 -0.6676 -0.2868
  951SOD     NA14491   1.750   0.702  10.864  0.4129 -0.1282 -0.0489
  952SOD     NA14492   4.107   1.939   4.832 -0.2231 -0.3659  0.1734
  953SOD     NA14493   3.477   1.588  16.904  0.2147  0.5316  0.0378
  954SOL     OW14494   0.031   2.707   5.805 -0.2810 -0.3287 -0.1463
  954SOL    HW114495   0.059   2.788   5.848  1.2964 -0.5158 -0.8305
  954SOL    HW214496   0.109   2.653   5.807 -0.1783 -0.2291 -1.9368
  955SOL     OW14497   0.540   2.104   6.232  0.1967 -0.1194 -0.5835
  955SOL    HW114498   0.599   2.039   6.194  0.2896 -0.3107 -0.1182
  955SOL    HW214499   0.555   2.092   6.326 -0.9956 -0.0649 -0.3811
  956SOL     OW14500   1.581   2.927  10.573  0.7456  0.5656 -0.4453
  956SOL    HW114501   1.599   3.018  10.548  2.4454  0.3133 -0.1478
  956SOL    HW214502   1.551   2.937  10.663  1.8607 -1.3735  0.1530
  957SOL     OW14503   3.107   1.494   2.003 -0.1744 -0.0985  0.3389
  957SOL    HW114504   3.191   1.473   2.044  0.7554  1.5549 -0.7040
  957SOL    HW214505   3.084   1.415   1.956 -2.3859  1.1217 -0.6297
  958SOL     OW14506   0.803   2.891   6.320 -0.3842  0.1193 -0.0147
  958SOL    HW114507   0.885   2.934   6.345 -0.2337 -1.1027  1.5748
  958SOL    HW214508   0.784   2.945   6.243  0.8710 -0.8205 -0.9856
  959SOL     OW14509   3.628   3.960  16.653 -0.4622  0.5263  0.3997
  959SOL    HW114510   3.540   3.953  16.616 -0.1584 -0.1590 -0.2076
  959SOL    HW214511   3.689   3.937  16.582  2.2290  1.1818  2.5053
  960SOL     OW14512   4.570   1.034  13.023  0.1355 -0.0628 -0.0350
  960SOL    HW114513   4.624   1.040  12.944 -0.6294  1.4323 -0.4359
  960SOL    HW214514   4.570   0.940  13.044 -1.0174 -0.3397 -1.2439
  961SOL     OW14515   1.682   4.252   2.546  0.3226 -0.0373  0.2331
  961SOL    HW114516   1.687   4.343   2.575  0.1186  0.5052 -1.4497
  961SOL    HW214517   1.712   4.210   2.627  0.2569 -0.6955 -0.0849
  962SOL     OW14518   4.440   1.886   5.428 -0.0975 -0.1621 -0.2849
  962SOL    HW114519   4.503   1.901   5.499 -2.9736  1.3569  1.9332
  962SOL    HW214520   4.402   1.974   5.428  0.0114 -0.1081 -0.9676
  963SOL     OW14521   4.263   0.496   5.589 -0.0474  0.1384  0.2511
  963SOL    HW114522   4.248   0.462   5.677 -0.4691 -0.0846  0.0902
  963SOL    HW214523   4.252   0.589   5.612  1.4472  0.9284 -2.2012
  964SOL     OW14524   0.739   4.608   4.568  0.4639 -0.6060 -0.3867
  964SOL    HW114525   0.770   4.646   4.650 -2.0913  0.1908  0.2204
  964SOL    HW214526   0.801   4.640   4.503 -1.0088  0.0222 -1.4936
  965SOL     OW14527   1.103   4.282   3.575 -0.0785 -0.2722 -0.2083
  965SOL    HW114528   1.169   4.241   3.631 -0.4138 -1.2155 -0.4978
  965SOL    HW214529   1.047   4.321   3.641 -0.0371 -2.2273  0.9583
  966SOL     OW14530   1.714   0.142   2.663  0.5132  0.1267  0.1686
  966SOL    HW114531   1.702   0.144   2.569  0.0249  3.5518  0.2896
  966SOL    HW214532   1.626   0.121   2.693  0.0564 -1.1834 -2.1508
  967SOL     OW14533   3.497   4.501   1.443 -0.1050  0.1598  0.0511
  967SOL    HW114534   3.500   4.541   1.530 -1.5629  1.0009 -0.2890
  967SOL    HW214535   3.580   4.454   1.437  0.3432  0.8005  1.1017
  968SOL     OW14536   3.890   0.209   0.100  0.2791  0.1642  0.7265
  968SOL    HW114537   3.814   0.233   0.153  1.0537  0.9595  1.4878
  968SOL    HW214538   3.953   0.277   0.127  0.3937 -0.2935  1.6057
  969SOL     OW14539   3.756   4.450   3.170 -0.2963  0.0673  0.5358
  969SOL    HW114540   3.765   4.535   3.128 -1.3962  1.3322  2.8776
  969SOL    HW214541   3.845   4.416   3.165  1.0562  3.9337 -1.4416
  970SOL     OW14542   0.910   0.080   3.525  0.3443 -0.2768  0.1902
  970SOL    HW114543   0.823   0.049   3.553  0.2685 -0.4658 -0.2546
  970SOL    HW214544   0.960   4.736   3.529  0.1150 -0.3262  2.0313
  971SOL     OW14545   1.568   0.140   3.937  0.1949 -0.1090  0.3576
  971SOL    HW114546   1.582   0.222   3.889  1.4716 -0.2873  0.4409
  971SOL    HW214547   1.497   0.168   3.995  0.0017  0.3897 -0.1179
  972SOL     OW14548   1.422   4.445  15.819  0.0705  0.5505  0.2072
  972SOL    HW114549   1.427   4.350  15.807 -0.7689  0.8385 -2.4479
  972SOL    HW214550   1.460   4.455  15.906 -0.4267 -1.8543  0.7136
  973SOL     OW14551   3.663   2.277   9.159 -0.1081  0.3903  0.0636
  973SOL    HW114552   3.692   2.289   9.249 -1.5771 -4.4789  1.2066
  973SOL    HW214553   3.618   2.192   9.158  1.1058 -0.2687  0.8406
  974SOL     OW14554   2.529   3.493   5.624 -0.0336  1.0314 -0.0196
  974SOL    HW114555   2.546   3.434   5.551 -0.0015  0.4660  0.4517
  974SOL    HW214556   2.460   3.452   5.676  1.4066 -0.4031  0.7476
  975SOL     OW14557   3.838   3.820  13.473 -0.5167 -0.2648  0.5339
  975SOL    HW114558   3.886   3.845  13.552 -1.0865 -0.3830  0.9191
  975SOL    HW214559   3.882   3.746  13.433 -1.3992  0.5734 -1.9879
  976SOL     OW14560   1.222   4.139   8.613  0.7618  0.1329 -0.2201
  976SOL    HW114561   1.294   4.193   8.646  0.8867  1.6310 -2.9385
  976SOL    HW214562   1.162   4.159   8.685  0.4693 -1.2033 -0.0838
  977SOL     OW14563   2.098   0.356   8.282 -0.4198 -0.4546 -0.0540
  977SOL    HW114564   2.187   0.368   8.316 -0.0259  0.5905 -1.4550
  977SOL    HW214565   2.099   0.415   8.207  2.9950  2.1975  2.0463
  978SOL     OW14566   2.684   0.897   9.195 -0.2965  0.7859 -0.6294
  978SOL    HW114567   2.653   0.876   9.107  1.9426 -0.0354 -1.2147
  978SOL    HW214568   2.607   0.865   9.243 -0.4813  1.7361 -0.2881
  979SOL     OW14569   2.016   1.771  11.398 -0.0762 -0.1747 -0.1166
  979SOL    HW114570   2.046   1.684  11.423 -0.7788 -0.7633 -1.2789
  979SOL    HW214571   1.921   1.758  11.396  0.0017 -0.8329  0.4858
  980SOL     OW14572   0.947   3.974   8.779 -0.7968 -0.1636  0.1673
  980SOL    HW114573   0.950   3.917   8.702  0.3487 -0.1948  0.2404
  980SOL    HW214574   1.030   4.020   8.768  0.6056 -2.0264  3.1183
  981SOL     OW14575   4.411   0.217   3.814  0.2226  0.1523 -0.4008
  981SOL    HW114576   4.469   0.234   3.740  4.0451 -1.1513  2.2747
  981SOL    HW214577   4.446   0.133   3.842 -2.1858 -1.7944 -3.1979
  982SOL     OW14578   4.719   3.694   5.950 -0.4275  0.5068  0.2605
  982SOL    HW114579   4.698   3.613   5.997  2.5742 -0.7464 -0.5561
  982SOL    HW214580   0.061   3.720   5.999  0.3371  0.3668 -0.9008
  983SOL     OW14581   1.158   3.035  11.918  0.6980 -0.3434  0.0044
  983SOL    HW114582   1.080   3.007  11.870  1.0750 -4.8189  1.9438
  983SOL    HW214583   1.139   2.990  12.001 -0.9779  1.6164  0.6857
  984SOL     OW14584   3.669   2.312   7.686  0.3422 -0.4790 -0.0562
  984SOL    HW114585   3.633   2.224   7.700  0.1573  0.0580  2.6799
  984SOL    HW214586   3.748   2.293   7.634  1.0934 -2.2428  1.7029
  985SOL     OW14587   0.626   2.653  17.207  0.4172 -0.0099  0.6648
  985SOL    HW114588   0.607   2.727  17.150  1.6219  0.3445  0.7317
  985SOL    HW214589   0.540   2.612  17.218  0.2118  0.3583  0.4366
  986SOL     OW14590   0.901   2.987  17.431  0.7275  0.5981  0.0886
  986SOL    HW114591   0.844   2.921  17.393  1.0976  1.5387 -2.1115
  986SOL    HW214592   0.886   3.060  17.371 -1.5196  0.2800  0.2718
  987SOL     OW14593   2.572   0.599   2.688  0.0352  0.2463  0.1315
  987SOL    HW114594   2.653   0.625   2.644  1.1547  0.7485  2.5026
  987SOL    HW214595   2.538   0.679   2.728  2.3134  2.0444 -1.5372
  988SOL     OW14596   0.097   3.135   0.611  0.0430  0.2461 -0.3829
  988SOL    HW114597   0.012   3.107   0.644 -0.1397  1.4630  0.1504
  988SOL    HW214598   0.105   3.097   0.524  2.1477 -0.0489 -0.0631
  989SOL     OW14599   1.499   3.193   3.606 -0.1490  0.0243  0.0826
  989SOL    HW114600   1.444   3.115   3.598  0.2303 -0.1642 -0.6816
  989SOL    HW214601   1.584   3.166   3.572 -1.1304 -2.1179 -0.6477
  990SOL     OW14602   2.122   0.840   0.898  0.6046  0.3276 -0.0762
  990SOL    HW114603   2.184   0.804   0.835  0.5728 -0.6431  0.4381
  990SOL    HW214604   2.046   0.784   0.882  1.0197  0.3763 -2.1532
  991SOL     OW14605   3.675   0.784   4.671  0.0768 -0.3011  0.4807
  991SOL    HW114606   3.717   0.862   4.707  1.5079 -1.4569  1.3508
  991SOL    HW214607   3.732   0.718   4.711 -0.2549 -2.2710 -2.2735
  992SOL     OW14608   0.915   1.683  16.833 -0.1131 -0.2082  0.2951
  992SOL    HW114609   0.823   1.664  16.813  0.4029 -2.4295  0.0253
  992SOL    HW214610   0.924   1.776  16.814  0.2158 -0.7600 -2.2410
  993SOL     OW14611   3.410   3.217   7.705  0.7114  0.0428 -0.2020
  993SOL    HW114612   3.338   3.272   7.736 -0.1983  0.0617 -2.3144
  993SOL    HW214613   3.372   3.164   7.635 -0.1601  3.2297 -2.1433
  994SOL     OW14614   1.908   0.773  13.252 -0.3416 -0.9346  0.1931
  994SOL    HW114615   1.829   0.771  13.197 -1.5021 -0.4121  1.8570
  994SOL    HW214616   1.885   0.714  13.324  0.0764  0.9388  1.8589
  995SOL     OW14617   4.367   2.107   3.809  0.0687 -0.4454 -0.3687
  995SOL    HW114618   4.434   2.159   3.854  0.9382 -0.8999 -1.1385
  995SOL    HW214619   4.358   2.170   3.738  0.4083  0.6633  0.5702
  996SOL     OW14620   3.820   1.126   7.169  0.0265 -0.5584 -0.2319
  996SOL    HW114621   3.911   1.137   7.143  0.8041  1.0412  3.2433
  996SOL    HW214622   3.800   1.217   7.187 -1.1056 -1.0410  0.8999
  997SOL     OW14623   1.353   2.662   3.624 -0.0411  0.2463 -0.1319
  997SOL    HW114624   1.330   2.662   3.717 -1.4854 -0.2839 -0.5004
  997SOL    HW214625   1.315   2.575   3.608 -1.9085  0.8228  1.1713
  998SOL     OW14626   4.129   2.419  14.525 -0.6907 -0.4930  0.4817
  998SOL    HW114627   4.156   2.450  14.612 -2.1675  2.2332 -0.0697
  998SOL    HW214628   4.212   2.403  14.480  1.2985 -0.2225  4.0481
  999SOL     OW14629   0.504   0.810   4.400  0.4383  0.3220  0.2741
  999SOL    HW114630   0.500   0.871   4.474  0.7654  1.3936 -0.5900
  999SOL    HW214631   0.598   0.798   4.389  0.6109 -0.5419  2.6724
 1000SOL     OW14632   2.075   2.325   4.069 -0.1171 -0.2683 -0.0749
 1000SOL    HW114633   2.129   2.272   4.010  0.4917 -2.7015  2.7159
 1000SOL    HW214634   2.141   2.348   4.134  1.2226 -3.6752 -0.2402
 1001SOL     OW14635   2.078   1.780  13.799  0.9005  0.2936 -0.8317
 1001SOL    HW114636   2.074   1.761  13.892  2.4729 -1.6293 -1.1537
 1001SOL    HW214637   2.049   1.871  13.794  0.2495  0.2008  1.1846
 1002SOL     OW14638   4.173   0.683   6.919  0.1036 -0.0168  0.0043
 1002SOL    HW114639   4.125   0.766   6.915 -2.1268 -1.3854 -1.6235
 1002SOL    HW214640   4.138   0.649   6.837 -1.6480  1.3772  0.1829
 1003SOL     OW14641   0.843   2.848   5.197  0.0311 -0.4325  0.5703
 1003SOL    HW114642   0.930   2.881   5.174 -1.2697  1.9821 -0.8767
 1003SOL    HW214643   0.790   2.921   5.229  1.0329  1.2296 -1.5463
 1004SOL     OW14644   1.955   4.697   0.084  0.4979  0.6153  0.0956
 1004SOL    HW114645   1.999   0.033   0.129 -1.4599  0.4790  2.2806
 1004SOL    HW214646   1.963   4.714  17.737  1.1498  2.5255  0.4958
 1005SOL     OW14647   2.343   0.599   8.988  0.5659  0.4853 -0.1844
 1005SOL    HW114648   2.407   0.620   8.919 -0.4069 -0.0767 -1.2615
 1005SOL    HW214649   2.282   0.544   8.938  1.1418  1.4407 -1.9537
 1006SOL     OW14650   3.325   3.366  15.216  0.1489 -0.5952  0.2578
 1006SOL    HW114651   3.343   3.460  15.212 -2.5515 -0.1235 -0.9278
 1006SOL    HW214652   3.415   3.334  15.223  0.2785  0.3644  2.8831
 1007SOL     OW14653   1.355   1.562  17.007 -0.4438 -0.5405 -0.5293
 1007SOL    HW114654   1.388   1.576  16.919  1.7710  2.0510  0.7118
 1007SOL    HW214655   1.395   1.481  17.039 -0.7433  0.4388  2.3344
 1008SOL     OW14656   3.304   4.285   1.875 -0.3259  0.8230 -0.1412
 1008SOL    HW114657   3.218   4.248   1.856 -0.0908 -0.5764  1.5237
 1008SOL    HW214658   3.298   4.380   1.886  0.2148  0.9640 -1.0984
 1009SOL     OW14659   0.108   4.697   8.219 -0.1547  0.0308  0.3387
 1009SOL    HW114660   0.107   4.689   8.315  0.2798 -2.6321  0.1222
 1009SOL    HW214661   0.188   4.649   8.196 -0.6576  0.0490 -1.3962
 1010SOL     OW14662   3.813   2.065   9.919 -0.7616  0.7874  0.8255
 1010SOL    HW114663   3.787   2.149   9.957 -0.0859  0.8699  1.1030
 1010SOL    HW214664   3.905   2.071   9.942 -0.1339  1.8431 -1.8710
 1011SOL     OW14665   0.194   2.951   0.917  0.0695 -0.1407 -0.4202
 1011SOL    HW114666   0.118   2.932   0.972  1.5306 -0.7543  1.3639
 1011SOL    HW214667   0.255   2.892   0.960  3.7962  2.7524 -1.6899
 1012SOL     OW14668   0.477   3.534   8.946 -0.7736 -0.1326 -0.3393
 1012SOL    HW114669   0.392   3.528   8.991  0.3481 -0.2543  1.7358
 1012SOL    HW214670   0.515   3.451   8.974  1.8258  0.5590 -1.8310
 1013SOL     OW14671   0.012   2.583   6.605 -0.4782  0.4343  0.4036
 1013SOL    HW114672   0.005   2.523   6.679  1.0160 -1.6168 -1.1471
 1013SOL    HW214673   0.070   2.530   6.552 -0.4180  0.6153  0.2892
 1014SOL     OW14674   2.904   3.077   6.855 -0.0847 -0.6279  0.0550
 1014SOL    HW114675   2.981   3.088   6.911 -2.3559  2.9014  2.4655
 1014SOL    HW214676   2.842   3.114   6.917  0.7126  2.0041 -0.7337
 1015SOL     OW14677   3.612   2.537   6.719 -0.6122 -0.5415  0.2140
 1015SOL    HW114678   3.619   2.540   6.814  0.3415  0.0735  0.1202
 1015SOL    HW214679   3.667   2.613   6.701  0.1955 -0.0945  4.5614
 1016SOL     OW14680   2.301   4.370  13.237 -1.0353  0.3436  0.2177
 1016SOL    HW114681   2.237   4.331  13.295 -1.4969  2.3265  1.0331
 1016SOL    HW214682   2.381   4.385  13.287 -0.3706  1.3753 -1.1402
 1017SOL     OW14683   0.176   1.878   1.492 -0.2997 -0.2178 -0.0450
 1017SOL    HW114684   0.125   1.928   1.556 -2.3165 -0.3991 -1.4948
 1017SOL    HW214685   0.124   1.800   1.471 -1.6105  0.1931  1.6640
 1018SOL     OW14686   3.037   1.857   6.246 -0.6061  0.2272  0.2627
 1018SOL    HW114687   3.060   1.765   6.233 -1.4179  0.0251  0.2587
 1018SOL    HW214688   3.125   1.891   6.263 -0.1400 -1.1304  0.6009
 1019SOL     OW14689   4.578   3.883   2.318 -0.6516  0.5276  0.0353
 1019SOL    HW114690   4.517   3.812   2.300  2.3288 -1.6378 -1.4296
 1019SOL    HW214691   4.598   3.900   2.226  1.8773 -0.6534  0.3402
 1020SOL     OW14692   2.679   0.267   6.663 -0.1950  0.3222  0.0945
 1020SOL    HW114693   2.606   0.209   6.642 -0.1362  0.5066 -0.6076
 1020SOL    HW214694   2.636   0.339   6.711  0.5977  0.4120  0.6618
 1021SOL     OW14695   4.693   2.003   3.891  0.1165 -0.2418  0.6775
 1021SOL    HW114696   4.654   2.039   3.970  1.0236  0.7004  0.7026
 1021SOL    HW214697   4.681   1.909   3.902  0.0502 -0.2540  0.5018
 1022SOL     OW14698   0.369   1.189   9.190 -0.3105  0.4873  0.0968
 1022SOL    HW114699   0.457   1.169   9.224 -0.4896 -0.0285  0.2621
 1022SOL    HW214700   0.385   1.264   9.134 -1.2951 -0.5838 -1.6101
 1023SOL     OW14701   0.577   1.724  15.855 -0.3671  0.1769  0.3119
 1023SOL    HW114702   0.521   1.798  15.833  0.1330  1.0878  2.1565
 1023SOL    HW214703   0.559   1.666  15.781 -0.7819  1.3216 -0.4854
 1024SOL     OW14704   3.018   0.081   1.434  0.4054 -0.3870 -0.3436
 1024SOL    HW114705   2.926   0.107   1.438  0.5255  0.0263 -0.2697
 1024SOL    HW214706   3.029   0.076   1.339  2.8348  0.9846 -0.1570
 1025SOL     OW14707   3.902   0.797   5.569  0.0817 -0.5181  0.5825
 1025SOL    HW114708   3.883   0.821   5.660  0.6174  0.8889  0.3226
 1025SOL    HW214709   3.850   0.860   5.520  0.9838  0.4917  0.9251
 1026SOL     OW14710   2.694   0.822  13.673  0.3185 -0.9118  0.1639
 1026SOL    HW114711   2.622   0.790  13.620 -0.4305  1.3554 -0.2043
 1026SOL    HW214712   2.662   0.911  13.689  1.4187 -0.6576  0.9958
 1027SOL     OW14713   4.480   1.546  11.784  0.3880  0.1026 -0.3263
 1027SOL    HW114714   4.573   1.528  11.793  0.6848  1.4897 -0.5889
 1027SOL    HW214715   4.448   1.502  11.863  0.1766  0.6985 -0.0794
 1028SOL     OW14716   2.514   4.616   9.272  0.1971  0.0682  0.2368
 1028SOL    HW114717   2.605   4.640   9.255 -0.2340  1.1425 -0.5519
 1028SOL    HW214718   2.519   4.543   9.334 -1.8064 -0.7173 -0.5139
 1029SOL     OW14719   4.409   2.545   4.902 -0.2091 -0.1663 -0.2203
 1029SOL    HW114720   4.403   2.607   4.975  0.2267 -0.0256 -0.3049
 1029SOL    HW214721   4.498   2.559   4.870  0.0610 -0.3005  0.4804
 1030SOL     OW14722   0.075   4.634  17.352  0.6612  0.0171  0.1382
 1030SOL    HW114723   0.042   4.606  17.438  1.5933  1.2014  0.8756
 1030SOL    HW214724   0.080   4.729  17.364 -0.8571  0.0383  0.6027
 1031SOL     OW14725   2.749   3.831   5.967 -0.6292 -0.1304 -0.3065
 1031SOL    HW114726   2.692   3.827   5.891 -2.6535  0.2864  1.2022
 1031SOL    HW214727   2.738   3.920   6.001  2.0175  0.5072 -1.1267
 1032SOL     OW14728   1.412   3.985  10.878 -0.1698 -0.5027  0.6579
 1032SOL    HW114729   1.336   3.947  10.922 -0.5837  0.0649  0.4359
 1032SOL    HW214730   1.370   4.016  10.797  0.8110  0.6529  0.5829
 1033SOL     OW14731   1.551   4.169   1.840  0.0741  0.3345 -0.1122
 1033SOL    HW114732   1.584   4.143   1.754  1.3629 -1.0562  0.7979
 1033SOL    HW214733   1.458   4.145   1.837  0.5053 -1.3005 -0.4958
 1034SOL     OW14734   1.528   4.045   9.339  0.2227 -0.3030  0.1262
 1034SOL    HW114735   1.526   4.123   9.283  0.7917 -0.4770 -0.1374
 1034SOL    HW214736   1.454   4.077   9.390  0.8354  0.5983  0.4470
 1035SOL     OW14737   4.497   1.622  16.430 -0.0213  0.0113 -0.1105
 1035SOL    HW114738   4.410   1.583  16.425  0.5700 -1.1890 -1.0464
 1035SOL    HW214739   4.542   1.575  16.360  0.0869  1.6917 -1.1511
 1036SOL     OW14740   1.816   3.275   7.964  0.7055 -0.1274  0.0198
 1036SOL    HW114741   1.726   3.277   7.932  0.6383  1.4049  0.3126
 1036SOL    HW214742   1.839   3.364   7.938 -0.7718  0.6309  1.3215
 1037SOL     OW14743   2.307   3.290   3.326  0.6027  0.3464  0.0239
 1037SOL    HW114744   2.378   3.266   3.385  0.5496 -2.5465 -1.0904
 1037SOL    HW214745   2.351   3.344   3.260 -0.0921  2.7935  1.5684
 1038SOL     OW14746   1.172   4.565   9.757 -0.3930  0.0156  0.5655
 1038SOL    HW114747   1.188   4.625   9.685  1.4837  1.1294  1.8930
 1038SOL    HW214748   1.111   4.498   9.728 -0.5809 -0.4965  2.1014
 1039SOL     OW14749   2.376   0.974   6.810 -0.3368 -0.2173  0.4940
 1039SOL    HW114750   2.387   1.024   6.729  1.7712 -1.4688  0.0072
 1039SOL    HW214751   2.445   1.004   6.870 -0.1960  1.2933 -0.4206
 1040SOL     OW14752   2.630   1.390   0.869 -0.3987 -0.1701 -0.2685
 1040SOL    HW114753   2.544   1.355   0.843  0.3859 -0.9155 -1.8727
 1040SOL    HW214754   2.614   1.484   0.867 -1.2012 -0.3017 -0.1028
 1041SOL     OW14755   4.656   4.471   8.468  0.2963  0.2495  0.1211
 1041SOL    HW114756   4.708   4.523   8.407  0.7870  1.7627  1.8139
 1041SOL    HW214757   4.613   4.532   8.528 -2.8763 -0.8863 -0.9925
 1042SOL     OW14758   2.325   1.377   1.061  0.1265  0.3525  0.3760
 1042SOL    HW114759   2.350   1.350   0.972 -3.0607 -1.1644 -0.0498
 1042SOL    HW214760   2.346   1.299   1.111 -2.0243  0.3504  1.2551
 1043SOL     OW14761   2.788   2.975  17.431  0.1481 -0.6117 -0.0675
 1043SOL    HW114762   2.731   2.906  17.397  0.7001 -1.5067  0.7952
 1043SOL    HW214763   2.821   3.011  17.349  0.6037  1.8810  1.2014
 1044SOL     OW14764   1.202   0.639  12.856  0.0978  0.0467  0.0886
 1044SOL    HW114765   1.214   0.733  12.848  0.0020 -0.0210 -0.8914
 1044SOL    HW214766   1.186   0.621  12.763 -2.0125  0.0189  0.4561
 1045SOL     OW14767   4.301   1.886   7.802  0.2820  0.1783  0.1751
 1045SOL    HW114768   4.375   1.825   7.797 -0.9681 -1.2161 -1.2095
 1045SOL    HW214769   4.251   1.842   7.870 -1.6874  0.5823 -0.9963
 1046SOL     OW14770   1.750   4.326  10.005  0.5070 -0.2098  0.2837
 1046SOL    HW114771   1.674   4.276  10.036  0.2863  0.2642  0.5072
 1046SOL    HW214772   1.732   4.340   9.912  2.0740 -1.5385 -0.2162
 1047SOL     OW14773   1.321   1.213  12.089  0.2015  0.4170 -1.0648
 1047SOL    HW114774   1.287   1.230  12.001  0.4000 -0.2263 -1.2706
 1047SOL    HW214775   1.411   1.244  12.092  0.5732 -0.5397 -2.3353
 1048SOL     OW14776   1.460   2.170   1.142  0.4550  0.3418  0.2654
 1048SOL    HW114777   1.553   2.179   1.121  1.0073 -2.9371  1.2862
 1048SOL    HW214778   1.442   2.241   1.204  0.6974 -1.8114  2.8004
 1049SOL     OW14779   0.804   0.970   2.826 -0.6929 -0.1105  0.8265
 1049SOL    HW114780   0.723   0.954   2.778  0.6789 -0.0046 -1.5461
 1049SOL    HW214781   0.824   0.882   2.858  3.3205 -0.5269 -2.7902
 1050SOL     OW14782   2.775   3.122  13.928  0.4208 -0.2193  0.6824
 1050SOL    HW114783   2.838   3.168  13.872 -0.7050 -1.7897 -1.8903
 1050SOL    HW214784   2.753   3.192  13.989  1.4644  0.4398  0.3045
 1051SOL     OW14785   3.746   1.985   6.483 -0.0693  0.5810  0.0778
 1051SOL    HW114786   3.696   1.911   6.449 -0.4035  1.9362 -2.3480
 1051SOL    HW214787   3.813   1.996   6.415 -0.2184  0.6196 -0.0625
 1052SOL     OW14788   0.737   3.222   9.721 -0.3353  0.2211 -0.1572
 1052SOL    HW114789   0.811   3.245   9.777  0.0097  0.0935 -0.5687
 1052SOL    HW214790   0.723   3.303   9.672  0.7943  0.5469  0.0536
 1053SOL     OW14791   2.249   2.052   2.466  0.0762  0.1013 -0.0315
 1053SOL    HW114792   2.331   2.093   2.492  1.5275 -1.7633 -1.6522
 1053SOL    HW214793   2.243   2.079   2.375  2.9509  0.5607 -0.1013
 1054SOL     OW14794   1.682   1.827   2.304  0.1099  0.1291 -0.4084
 1054SOL    HW114795   1.737   1.833   2.227 -1.0801  3.7823 -0.9572
 1054SOL    HW214796   1.637   1.743   2.299 -1.6311  1.0207 -0.0430
 1055SOL     OW14797   0.721   4.303  13.999 -0.2321  0.2362  0.3202
 1055SOL    HW114798   0.800   4.302  13.946  1.2285 -0.1049  2.5230
 1055SOL    HW214799   0.709   4.396  14.017 -2.0428 -0.1515  1.1918
 1056SOL     OW14800   0.314   2.790   6.665 -0.4590  0.2014  0.3644
 1056SOL    HW114801   0.313   2.744   6.749 -0.4354 -1.7762 -0.7234
 1056SOL    HW214802   0.329   2.718   6.604 -0.7046  1.0441 -0.7038
 1057SOL     OW14803   3.569   3.050  13.456 -0.3730  0.4362  0.2171
 1057SOL    HW114804   3.530   3.091  13.379  2.7171  0.7826 -1.1535
 1057SOL    HW214805   3.662   3.065  13.442 -0.1877 -0.8222  0.0806
 1058SOL     OW14806   2.626   0.182   4.181  0.2079  0.2298 -0.3565
 1058SOL    HW114807   2.606   0.269   4.145 -1.1374  0.2023  0.3306
 1058SOL    HW214808   2.560   0.127   4.139 -0.5412  0.3944  0.5840
 1059SOL     OW14809   0.756   1.525  14.747 -0.0831  0.4318  0.1760
 1059SOL    HW114810   0.771   1.578  14.668  1.5623 -1.5717 -0.8778
 1059SOL    HW214811   0.766   1.588  14.818  2.6387 -0.5851  0.7133
 1060SOL     OW14812   2.977   0.277   2.268 -0.1499 -0.6053  0.2177
 1060SOL    HW114813   3.000   0.354   2.216  0.0009 -0.0240  1.1207
 1060SOL    HW214814   2.884   0.294   2.283  0.2738  0.5634  1.6169
 1061SOL     OW14815   3.973   0.227   4.088  0.0332  0.3161 -0.1410
 1061SOL    HW114816   4.059   0.232   4.046  0.1432 -1.7110 -0.1283
 1061SOL    HW214817   3.936   0.145   4.057 -2.3453  1.6011 -0.7158
 1062SOL     OW14818   4.362   1.536  13.614 -0.3097 -0.5662  0.1461
 1062SOL    HW114819   4.448   1.508  13.583  0.2212 -0.3759  1.4583
 1062SOL    HW214820   4.323   1.544  13.527  0.9315  3.2346 -0.0470
 1063SOL     OW14821   2.228   1.239   5.911  0.4010 -0.2918  0.1495
 1063SOL    HW114822   2.257   1.324   5.946 -1.5546 -0.7218  2.8678
 1063SOL    HW214823   2.172   1.209   5.983  1.9690 -2.3977  0.4630
 1064SOL     OW14824   2.294   0.989   1.792 -0.3226 -0.7437 -0.1225
 1064SOL    HW114825   2.348   1.023   1.864 -1.7473 -0.4015  0.7800
 1064SOL    HW214826   2.304   1.061   1.729 -1.2259  0.7286  1.4314
 1065SOL     OW14827   4.277   4.254   6.556 -0.3161  0.4400  0.1599
 1065SOL    HW114828   4.212   4.324   6.564  0.7319  1.4902 -0.5275
 1065SOL    HW214829   4.305   4.249   6.647  0.1719 -0.4819 -0.0441
 1066SOL     OW14830   2.416   3.391  15.867 -0.5930 -0.2790 -0.0438
 1066SOL    HW114831   2.383   3.477  15.841  0.6888  0.6598  1.3905
 1066SOL    HW214832   2.499   3.382  15.821  0.1414  1.2356  0.9919
 1067SOL     OW14833   1.222   1.657   2.072 -0.2032  0.3519  0.1156
 1067SOL    HW114834   1.288   1.719   2.043 -0.3393  0.6813  0.5209
 1067SOL    HW214835   1.181   1.705   2.144  0.6905  1.2048  0.0482
 1068SOL     OW14836   0.425   3.157   1.264 -0.0268 -0.4247 -0.0535
 1068SOL    HW114837   0.365   3.200   1.203  0.8597 -0.0223 -0.6348
 1068SOL    HW214838   0.459   3.097   1.198  0.3219 -2.9369  2.4577
 1069SOL     OW14839   1.511   0.138   0.742 -0.3498 -0.0941 -0.6459
 1069SOL    HW114840   1.432   0.094   0.710 -1.3909  1.1905  0.1567
 1069SOL    HW214841   1.483   0.160   0.831 -0.3001  0.6237 -0.8107
 1070SOL     OW14842   1.576   2.000   9.410  0.6522  0.0639  0.1411
 1070SOL    HW114843   1.513   2.054   9.457 -0.3613 -1.1070  0.1218
 1070SOL    HW214844   1.657   2.051   9.419  1.7006 -1.6689  0.6368
 1071SOL     OW14845   1.704   4.282   8.441  1.3198  0.2092  1.0713
 1071SOL    HW114846   1.738   4.223   8.508 -0.0956 -1.1982  0.5575
 1071SOL    HW214847   1.652   4.218   8.394  0.6040  0.8832  0.9432
 1072SOL     OW14848   3.913   3.047   5.200  0.2454  0.1289 -0.1320
 1072SOL    HW114849   3.865   3.118   5.158  0.1420 -0.1938 -0.5634
 1072SOL    HW214850   3.989   3.091   5.237  0.3858 -1.2804  1.2851
 1073SOL     OW14851   0.292   3.479   3.784 -0.0560 -0.7034 -0.5866
 1073SOL    HW114852   0.204   3.506   3.757  0.0784  0.7141  0.3715
 1073SOL    HW214853   0.348   3.496   3.708  0.9010 -0.8869  0.0796
 1074SOL     OW14854   3.525   4.395   6.941 -0.8953  0.1266  0.1146
 1074SOL    HW114855   3.499   4.338   6.870 -0.5115 -1.0369  0.9146
 1074SOL    HW214856   3.477   4.471   6.908  0.4120 -0.4226 -3.0676
 1075SOL     OW14857   0.126   4.502  15.853 -0.0007  0.1187 -0.1803
 1075SOL    HW114858   0.191   4.526  15.787  0.6987  1.3219  0.9236
 1075SOL    HW214859   0.047   4.538  15.811 -0.3731  0.4374  0.7887
 1076SOL     OW14860   3.562   2.818   6.940 -0.1787 -0.5253  0.1779
 1076SOL    HW114861   3.577   2.862   7.024 -2.8211 -0.8274  0.7945
 1076SOL    HW214862   3.517   2.886   6.890  1.1305 -0.1477 -0.4970
 1077SOL     OW14863   3.805   2.658   5.995 -0.1182 -0.1444 -0.1241
 1077SOL    HW114864   3.870   2.661   6.065 -0.3110 -1.6159  0.1188
 1077SOL    HW214865   3.806   2.746   5.958 -1.2073  0.1455  0.5303
 1078SOL     OW14866   3.161   3.380   8.265  0.0729  0.0313  0.1392
 1078SOL    HW114867   3.168   3.442   8.337  4.1636  1.4955 -1.5412
 1078SOL    HW214868   3.125   3.298   8.300  3.0345 -0.4017  2.1424
 1079SOL     OW14869   0.583   4.495   0.874 -0.0420 -0.1393 -0.2419
 1079SOL    HW114870   0.631   4.547   0.938 -0.8436 -3.1816  2.8418
 1079SOL    HW214871   0.501   4.543   0.876  1.4364  2.3640  0.2134
 1080SOL     OW14872   3.398   3.394  15.982  0.0734 -0.1226 -0.5216
 1080SOL    HW114873   3.345   3.411  15.904  1.9432  2.2925 -1.2690
 1080SOL    HW214874   3.361   3.313  16.016  0.0609 -0.1288 -0.5496
 1081SOL     OW14875   2.401   2.150   1.747  0.2835  0.1031 -0.2517
 1081SOL    HW114876   2.377   2.127   1.657 -0.5562 -0.1228  0.0238
 1081SOL    HW214877   2.482   2.105   1.769  0.9238  0.1714 -2.4897
 1082SOL     OW14878   3.092   0.847   1.532 -0.2826  0.1438  0.3816
 1082SOL    HW114879   3.079   0.801   1.449 -0.0527 -1.4527  1.2294
 1082SOL    HW214880   3.047   0.929   1.510 -1.4206 -0.2640  1.1946
 1083SOL     OW14881   0.226   3.819   4.568 -0.0403  0.1756 -0.6679
 1083SOL    HW114882   0.235   3.901   4.616 -0.2647 -0.3102  0.2108
 1083SOL    HW214883   0.147   3.830   4.515  0.2624  1.3621 -0.8679
 1084SOL     OW14884   1.941   0.524   2.184  0.0457  0.3073 -0.1380
 1084SOL    HW114885   2.024   0.476   2.179  1.0351  2.0923 -1.1709
 1084SOL    HW214886   1.901   0.525   2.097 -1.2098 -1.9512  0.4281
 1085SOL     OW14887   0.392   3.673  13.119  0.1770 -0.4133  0.2294
 1085SOL    HW114888   0.423   3.709  13.202 -1.5141  0.5450  0.4390
 1085SOL    HW214889   0.475   3.636  13.087  0.2905 -0.0167  0.0719
 1086SOL     OW14890   2.285   0.233   4.487  0.5695  0.1315 -0.1211
 1086SOL    HW114891   2.259   0.324   4.470  2.0196  0.8702  1.5715
 1086SOL    HW214892   2.333   0.246   4.569  2.4080 -1.2864 -0.9655
 1087SOL     OW14893   1.152   3.564   3.946  0.0859  0.1328  0.3407
 1087SOL    HW114894   1.109   3.623   3.885  0.2988  1.2618  1.2780
 1087SOL    HW214895   1.086   3.495   3.953 -0.6418  0.9351  1.4356
 1088SOL     OW14896   2.496   3.226   0.727 -0.3525  0.2214 -0.1967
 1088SOL    HW114897   2.499   3.319   0.747 -3.2756  0.4511 -0.7225
 1088SOL    HW214898   2.485   3.190   0.816  1.3493  0.4009  0.0745
 1089SOL     OW14899   2.858   4.381  15.624  0.3072  0.2933 -0.5256
 1089SOL    HW114900   2.947   4.404  15.596  0.6642 -0.6787 -0.2036
 1089SOL    HW214901   2.815   4.459  15.589  0.5193  0.5338 -0.2557
 1090SOL     OW14902   4.192   4.471   1.241  0.3560 -0.0037 -0.0697
 1090SOL    HW114903   4.190   4.400   1.176 -0.4043  1.8411 -2.0497
 1090SOL    HW214904   4.243   4.536   1.193 -0.1473  1.1929  1.0436
 1091SOL     OW14905   4.324   1.007   3.046 -0.1521 -0.1220 -0.3012
 1091SOL    HW114906   4.231   1.025   3.037 -0.2844 -0.7079 -0.0995
 1091SOL    HW214907   4.342   1.085   3.099 -0.7506 -0.0509 -0.2016
 1092SOL     OW14908   2.340   1.597   6.329  0.0087  0.2007  0.5982
 1092SOL    HW114909   2.411   1.636   6.381  0.5311  0.1535 -0.0737
 1092SOL    HW214910   2.379   1.589   6.242 -0.5503  1.0967  0.2605
 1093SOL     OW14911   0.826   2.737   5.920  0.1493  0.3051  0.2268
 1093SOL    HW114912   0.828   2.656   5.970  1.2414 -0.1911 -0.6176
 1093SOL    HW214913   0.741   2.727   5.877 -0.0312 -2.0794  1.2015
 1094SOL     OW14914   3.398   1.829   8.385  0.0736  0.3050 -0.4034
 1094SOL    HW114915   3.453   1.774   8.440 -1.6654  0.4667  1.5055
 1094SOL    HW214916   3.324   1.773   8.363 -0.0348  0.8594 -1.4672
 1095SOL     OW14917   0.090   2.988  16.992  0.1740  0.4363  0.4016
 1095SOL    HW114918   0.044   2.953  16.916  2.2433 -2.2869  0.3833
 1095SOL    HW214919   0.016   3.009  17.049 -1.4166 -2.0333 -0.7973
 1096SOL     OW14920   2.718   4.130  11.225  0.1277 -0.3522  0.3185
 1096SOL    HW114921   2.706   4.225  11.217 -1.0948 -0.7182 -2.0955
 1096SOL    HW214922   2.752   4.104  11.139 -1.2777  1.5203 -0.8147
 1097SOL     OW14923   3.178   0.175   9.047  0.4823 -0.5491  0.0624
 1097SOL    HW114924   3.193   0.266   9.021 -0.1639 -1.3227 -2.9725
 1097SOL    HW214925   3.216   0.174   9.135  2.6417 -2.8766 -0.9041
 1098SOL     OW14926   4.086   0.386   5.403  0.6053 -0.4191  0.3984
 1098SOL    HW114927   4.149   0.406   5.472  0.6672  2.2080 -0.4121
 1098SOL    HW214928   4.042   0.470   5.386 -1.2485 -0.7592  3.4947
 1099SOL     OW14929   0.810   1.932  11.765 -0.1121 -0.0629 -0.0014
 1099SOL    HW114930   0.861   1.914  11.686 -1.6771 -1.9082 -0.5833
 1099SOL    HW214931   0.880   1.918  11.829 -1.1300  0.3107  1.1986
 1100SOL     OW14932   0.032   4.166   5.270  0.0028  0.8632 -0.7346
 1100SOL    HW114933   0.012   4.082   5.311 -0.6481  1.1457 -0.4674
 1100SOL    HW214934   0.011   4.156   5.177  0.4883  0.7323 -0.8303
 1101SOL     OW14935   0.893   0.047  13.225 -0.0048  0.0983  0.3157
 1101SOL    HW114936   0.851   0.023  13.143 -0.1009 -0.6688  0.5865
 1101SOL    HW214937   0.944   4.710  13.258 -1.9678 -1.0227  0.8181
 1102SOL     OW14938   1.938   4.702   6.426  0.3292 -0.3806  0.1829
 1102SOL    HW114939   1.994   0.003   6.358 -0.2620 -1.2226 -0.7770
 1102SOL    HW214940   1.975   4.615   6.412  2.2797  0.7831 -2.0631
 1103SOL     OW14941   3.493   2.540   5.209  0.0445  0.2148  0.1602
 1103SOL    HW114942   3.523   2.550   5.300  2.8050 -1.3611 -0.5729
 1103SOL    HW214943   3.487   2.630   5.177 -1.7481 -0.4261 -1.3363
 1104SOL     OW14944   2.903   3.463   8.969 -0.0202 -0.8643  0.2470
 1104SOL    HW114945   2.888   3.407   8.893 -0.8698  2.4688 -2.0091
 1104SOL    HW214946   2.905   3.407   9.047 -1.9371 -0.8941  0.2665
 1105SOL     OW14947   3.076   3.363  13.535 -0.4782  0.4083 -0.6451
 1105SOL    HW114948   3.121   3.334  13.456  0.7082  1.6446 -0.4400
 1105SOL    HW214949   3.097   3.457  13.543 -0.5463  0.3713 -0.0236
 1106SOL     OW14950   2.911   0.918  10.412 -0.0965 -0.1626 -0.4571
 1106SOL    HW114951   2.998   0.883  10.395 -0.1759 -0.5376 -0.0940
 1106SOL    HW214952   2.939   1.010  10.410  0.9969 -0.5112 -0.9900
 1107SOL     OW14953   2.443   3.569   1.063 -0.5284  0.5025  0.0510
 1107SOL    HW114954   2.445   3.475   1.080 -0.9048  0.7838  1.6911
 1107SOL    HW214955   2.364   3.592   1.111  0.3036  1.6439  0.8647
 1108SOL     OW14956   4.654   0.151   6.718  0.3037  0.0082  0.1045
 1108SOL    HW114957   4.703   0.205   6.655 -0.2308 -0.5940 -0.8385
 1108SOL    HW214958   4.634   0.070   6.670  1.0689  0.3205 -0.7411
 1109SOL     OW14959   2.849   1.781   6.414  0.0498  0.1538  0.5249
 1109SOL    HW114960   2.803   1.864   6.424 -0.7178 -0.1001 -0.9712
 1109SOL    HW214961   2.932   1.819   6.385  0.4779 -1.8292 -0.8493
 1110SOL     OW14962   4.278   3.681   7.367 -0.4073  0.1612 -0.3167
 1110SOL    HW114963   4.338   3.755   7.366 -2.1890  1.6152 -0.1258
 1110SOL    HW214964   4.272   3.666   7.461  1.9587  0.4735 -0.1200
 1111SOL     OW14965   4.543   0.240   4.622  0.5582 -0.6456 -0.5745
 1111SOL    HW114966   4.509   0.155   4.650 -1.8276  0.4368 -0.2372
 1111SOL    HW214967   4.626   0.204   4.589  0.2111 -0.4638 -1.6544
 1112SOL     OW14968   3.107   3.233   4.882 -0.0140  0.3059 -0.1231
 1112SOL    HW114969   3.080   3.145   4.856 -0.9408  0.7076 -0.5243
 1112SOL    HW214970   3.099   3.247   4.976 -0.9787 -0.7637 -0.0501
 1113SOL     OW14971   2.156   3.634   6.781 -0.0637 -0.2645 -0.3250
 1113SOL    HW114972   2.085   3.576   6.755  0.2944 -0.7375 -0.2608
 1113SOL    HW214973   2.218   3.576   6.827  0.3287  0.1157 -0.3730
 1114SOL     OW14974   4.042   0.822   3.709  0.4141  0.3059  0.3287
 1114SOL    HW114975   4.046   0.815   3.805 -0.6767  0.7217  0.4061
 1114SOL    HW214976   4.051   0.729   3.689 -0.6552  0.5697 -1.3455
 1115SOL     OW14977   2.348   1.784  15.845 -0.2223 -0.4461  0.7615
 1115SOL    HW114978   2.430   1.760  15.802 -0.9409 -1.0940 -0.2553
 1115SOL    HW214979   2.311   1.861  15.803  0.8261 -0.5014 -0.2729
 1116SOL     OW14980   3.650   4.561   6.137  0.4579 -0.1634  0.2832
 1116SOL    HW114981   3.615   4.498   6.200  0.9969 -0.4405  0.3088
 1116SOL    HW214982   3.741   4.537   6.157  0.6665 -0.2581 -0.7494
 1117SOL     OW14983   1.623   3.784   3.313  0.0730 -0.2521  0.0879
 1117SOL    HW114984   1.678   3.860   3.292  0.2437 -0.4110 -0.0397
 1117SOL    HW214985   1.684   3.716   3.340  1.1083  0.4958 -0.4010
 1118SOL     OW14986   4.522   0.441   4.902  0.2889  0.1467 -0.9037
 1118SOL    HW114987   4.536   0.450   4.808 -0.6064  0.3162 -1.0221
 1118SOL    HW214988   4.436   0.399   4.901 -0.3615  1.3766  3.3327
 1119SOL     OW14989   3.651   1.673  14.783 -0.2825 -0.1621  0.3206
 1119SOL    HW114990   3.736   1.702  14.751  0.1623  0.3490  1.9466
 1119SOL    HW214991   3.619   1.762  14.798  0.6334  0.5272 -1.8883
 1120SOL     OW14992   0.513   0.590  10.964  0.8269  1.0249  0.1503
 1120SOL    HW114993   0.469   0.630  11.039  1.9319 -1.0370  1.9088
 1120SOL    HW214994   0.437   0.548  10.924  0.4276 -0.0733  2.0629
 1121SOL     OW14995   0.545   4.254   3.241  0.1519 -0.1907  0.8107
 1121SOL    HW114996   0.545   4.201   3.321 -0.5188 -2.4554 -0.6887
 1121SOL    HW214997   0.463   4.230   3.198  1.6345 -0.0211 -2.0592
 1122SOL     OW14998   0.308   3.984   1.389 -0.0951 -0.3441 -0.2715
 1122SOL    HW114999   0.277   4.074   1.393  1.2216  0.2222 -2.9516
 1122SOL    HW215000   0.241   3.934   1.436 -1.5856  2.2117  0.3241
 1123SOL     OW15001   4.135   4.117  16.020 -0.4364  0.4700  0.6248
 1123SOL    HW115002   4.184   4.035  16.020  0.8003  1.1960 -0.0831
 1123SOL    HW215003   4.146   4.153  15.932  0.0854  0.2339  0.5912
 1124SOL     OW15004   1.896   2.595   3.254  0.0598  0.2908  0.3529
 1124SOL    HW115005   1.962   2.536   3.292 -0.5845  0.2295  1.3756
 1124SOL    HW215006   1.936   2.680   3.276  1.2334 -0.0256 -0.5626
 1125SOL     OW15007   3.492   1.160   4.371  0.1074 -0.2799 -0.0734
 1125SOL    HW115008   3.539   1.077   4.366  0.7612  0.1757 -1.8046
 1125SOL    HW215009   3.536   1.205   4.443 -1.4459 -0.3014  0.8742
 1126SOL     OW15010   4.322   1.541   4.562 -0.4207 -0.4898  0.0808
 1126SOL    HW115011   4.295   1.489   4.487 -0.6083 -0.8747  0.4110
 1126SOL    HW215012   4.385   1.477   4.597  0.5246 -0.4157 -1.4957
 1127SOL     OW15013   4.424   2.525   1.465  0.4350 -0.6129 -0.6356
 1127SOL    HW115014   4.373   2.452   1.429  0.4907 -0.4609 -1.0215
 1127SOL    HW215015   4.496   2.468   1.491  0.6763  0.1323  0.3679
 1128SOL     OW15016   4.441   0.282  16.127  0.0454 -0.3481 -0.4493
 1128SOL    HW115017   4.451   0.353  16.063 -2.8221  1.3471  1.0214
 1128SOL    HW215018   4.402   0.325  16.203 -0.7921 -2.1711  0.1482
 1129SOL     OW15019   3.808   0.347   0.395  0.9611 -0.6959 -0.1574
 1129SOL    HW115020   3.812   0.326   0.488 -2.3146 -0.8554 -0.0320
 1129SOL    HW215021   3.747   0.280   0.365  0.2411 -0.2843  0.3799
 1130SOL     OW15022   0.505   3.061   2.434  0.5797  0.4653  0.2491
 1130SOL    HW115023   0.564   3.064   2.509 -0.5771 -1.2469  1.2460
 1130SOL    HW215024   0.457   3.141   2.455  1.2377  0.2553  2.5706
 1131SOL     OW15025   4.636   3.363   9.941  0.6844 -0.0482 -0.2210
 1131SOL    HW115026   4.668   3.432   9.883  0.2247 -0.6428 -1.1850
 1131SOL    HW215027   4.675   3.392  10.024 -2.5408  0.6796  1.0389
 1132SOL     OW15028   2.852   2.383   8.289  0.7321 -0.4794 -0.7241
 1132SOL    HW115029   2.894   2.442   8.226 -1.6353  1.6815 -0.2695
 1132SOL    HW215030   2.804   2.327   8.227 -0.4832 -0.7809  0.4754
 1133SOL     OW15031   2.103   3.733   4.191  0.5505  0.0022 -0.3627
 1133SOL    HW115032   2.156   3.705   4.117  2.7184 -2.4425  2.1411
 1133SOL    HW215033   2.132   3.670   4.257 -2.5944  1.0949  2.0923
 1134SOL     OW15034   4.568   4.354   8.871  0.5049  0.2647 -0.1834
 1134SOL    HW115035   4.588   4.308   8.953  1.0047 -0.3619 -0.6545
 1134SOL    HW215036   4.583   4.282   8.809 -4.6569 -0.0823 -1.0631
 1135SOL     OW15037   1.830   0.018   8.265  0.0299  0.9133  0.1822
 1135SOL    HW115038   1.851   4.662   8.261 -1.0406  0.6530  0.5947
 1135SOL    HW215039   1.911   0.053   8.301  0.9722  0.1351 -1.1960
 1136SOL     OW15040   2.540   1.971   9.304  0.0937  0.1696  0.4057
 1136SOL    HW115041   2.484   2.023   9.362 -0.2510 -0.6036  0.7541
 1136SOL    HW215042   2.503   1.883   9.311  1.8744 -0.5453  0.7165
 1137SOL     OW15043   3.101   1.339   3.125 -0.7301 -0.3934  0.2966
 1137SOL    HW115044   3.056   1.332   3.041  1.0418  0.1499 -0.6828
 1137SOL    HW215045   3.032   1.372   3.182  1.6043  2.3163  1.5032
 1138SOL     OW15046   1.145   1.024  16.647  0.2820  0.0263 -0.4896
 1138SOL    HW115047   1.092   1.014  16.569  0.0068  1.9288 -0.5572
 1138SOL    HW215048   1.187   1.109  16.631  0.6038  0.1464  1.0012
 1139SOL     OW15049   2.569   3.293   6.510 -0.1381 -0.2326  0.0704
 1139SOL    HW115050   2.534   3.242   6.437 -1.2327  1.9100 -0.8962
 1139SOL    HW215051   2.489   3.315   6.558  0.7332  0.1530  1.3545
 1140SOL     OW15052   2.614   0.666   4.995 -0.3872 -0.4215  0.3813
 1140SOL    HW115053   2.658   0.740   4.953  0.3940 -1.1453 -0.0877
 1140SOL    HW215054   2.603   0.694   5.086  1.2390  0.8960  0.1621
 1141SOL     OW15055   4.073   2.448  15.111 -0.0153 -0.1625 -0.3029
 1141SOL    HW115056   4.001   2.449  15.174  1.6128  2.7367  1.5259
 1141SOL    HW215057   4.135   2.387  15.151 -1.2295 -0.7778  0.6197
 1142SOL     OW15058   0.524   3.947   0.755 -0.2081 -0.8199  0.0368
 1142SOL    HW115059   0.523   4.005   0.679 -2.4595  1.1270  1.5407
 1142SOL    HW215060   0.519   4.009   0.828  0.6646 -0.5373 -0.1335
 1143SOL     OW15061   3.383   3.553  10.696  0.0464 -0.0017 -0.4098
 1143SOL    HW115062   3.455   3.573  10.637  0.7021  0.5954  0.5839
 1143SOL    HW215063   3.372   3.460  10.676  2.5836  0.3938 -3.5266
 1144SOL     OW15064   2.213   2.630   8.237  0.1902  0.0536 -0.7245
 1144SOL    HW115065   2.191   2.637   8.329  1.1870 -1.1326 -0.3901
 1144SOL    HW215066   2.259   2.546   8.233  0.6604  0.3229 -1.0481
 1145SOL     OW15067   3.598   0.570   8.793 -0.7562  0.4739 -0.2170
 1145SOL    HW115068   3.679   0.528   8.765 -0.9574  0.0171 -0.1199
 1145SOL    HW215069   3.604   0.659   8.759  0.9464 -0.1250 -1.4408
 1146SOL     OW15070   0.539   0.637   1.489  0.1513 -0.6137 -0.1741
 1146SOL    HW115071   0.491   0.583   1.426 -1.1426 -1.8473  1.8881
 1146SOL    HW215072   0.592   0.676   1.419  0.5280 -0.0694  0.4113
 1147SOL     OW15073   1.167   3.814  10.966  0.7079  0.3846  0.5828
 1147SOL    HW115074   1.141   3.802  11.057 -0.8690  2.7211  0.4402
 1147SOL    HW215075   1.205   3.729  10.942 -2.1371 -0.3905 -1.2147
 1148SOL     OW15076   3.904   3.864  16.167  0.5889 -0.4985 -0.3625
 1148SOL    HW115077   3.950   3.876  16.250  1.3475  2.5062 -1.2270
 1148SOL    HW215078   3.896   3.951  16.129  0.6621  0.8309  2.6895
 1149SOL     OW15079   2.126   0.210   3.871  0.5417  0.8138 -0.2274
 1149SOL    HW115080   2.131   0.297   3.830  2.8445  1.2701  1.0226
 1149SOL    HW215081   2.033   0.199   3.854  1.0230  0.1154 -2.4780
 1150SOL     OW15082   1.029   2.635   3.744 -0.8144 -0.5805 -0.5471
 1150SOL    HW115083   1.009   2.583   3.666  0.6560  0.0281 -1.3501
 1150SOL    HW215084   1.111   2.595   3.774  0.4904  1.2788 -1.5469
 1151SOL     OW15085   2.561   1.904   9.661  0.0490  0.2630  0.1888
 1151SOL    HW115086   2.550   1.811   9.680  1.9922 -0.0938 -0.4236
 1151SOL    HW215087   2.602   1.933   9.743  3.5000 -3.6787 -0.1370
 1152SOL     OW15088   0.961   0.199   6.612  0.8898 -0.1831  0.0408
 1152SOL    HW115089   1.028   0.267   6.621  0.8345 -0.1427  0.1456
 1152SOL    HW215090   0.885   0.255   6.625  0.6728 -0.1488 -1.4149
 1153SOL     OW15091   4.291   2.436   3.851 -0.2584 -0.2524  0.3160
 1153SOL    HW115092   4.308   2.392   3.768  0.4014  0.4100  0.0991
 1153SOL    HW215093   4.357   2.396   3.908  1.3513 -0.8057 -1.9265
 1154SOL     OW15094   2.935   3.584   2.039  0.4127  0.4706 -0.8298
 1154SOL    HW115095   2.962   3.499   2.004  0.1202  0.2190 -0.4482
 1154SOL    HW215096   2.880   3.626   1.972 -0.6748  0.3804 -0.0059
 1155SOL     OW15097   2.129   0.141   5.280  0.2333 -0.2037  0.7434
 1155SOL    HW115098   2.220   0.132   5.309  0.8247  0.3155 -0.9133
 1155SOL    HW215099   2.097   0.192   5.354 -0.4990  1.4444 -0.6911
 1156SOL     OW15100   0.938   4.146   0.152 -0.4264  0.4746  0.2427
 1156SOL    HW115101   1.004   4.137   0.083 -0.6046  0.6469  0.0493
 1156SOL    HW215102   0.936   4.242   0.154 -1.4075  0.4603 -0.0065
 1157SOL     OW15103   1.012   4.423   0.157 -0.1193  0.3547  0.2268
 1157SOL    HW115104   1.032   4.450   0.067 -1.9158 -0.8368 -0.5402
 1157SOL    HW215105   1.072   4.474   0.210 -0.5777  0.7098  0.4000
 1158SOL     OW15106   0.983   3.921   1.194  0.0746  0.2166  0.1636
 1158SOL    HW115107   1.073   3.921   1.227  0.0066 -0.5903  0.3483
 1158SOL    HW215108   0.985   3.982   1.119  0.0383  1.6837  1.3584
 1159SOL     OW15109   3.641   3.680   3.579 -0.4644 -0.1217  0.2057
 1159SOL    HW115110   3.589   3.734   3.638 -0.8213 -1.2604  0.9384
 1159SOL    HW215111   3.712   3.741   3.559  0.7426 -1.2112  1.1497
 1160SOL     OW15112   1.008   4.383   8.171  0.6704  0.4071 -0.2851
 1160SOL    HW115113   1.033   4.315   8.234 -1.4869  0.0927  0.2340
 1160SOL    HW215114   1.060   4.365   8.094  2.2167 -0.5219  0.9790
 1161SOL     OW15115   2.309   2.985   3.299 -0.4777  0.0675 -0.3885
 1161SOL    HW115116   2.364   3.047   3.347 -1.7922  0.5667  0.4699
 1161SOL    HW215117   2.320   2.896   3.335 -0.5453 -0.0825 -0.7389
 1162SOL     OW15118   2.074   3.221   7.565  0.7156  0.3654  0.1637
 1162SOL    HW115119   1.998   3.254   7.517  0.6460  2.6190  1.7921
 1162SOL    HW215120   2.043   3.193   7.650  0.4743 -0.2912 -0.1451
 1163SOL     OW15121   1.409   3.021  16.648 -0.1572  0.5460  0.6230
 1163SOL    HW115122   1.460   3.041  16.726  1.5129  1.2660 -0.6640
 1163SOL    HW215123   1.477   3.040  16.583  0.7454 -1.4244  1.0032
 1164SOL     OW15124   2.773   2.299  17.029 -0.0608 -0.3000  0.3671
 1164SOL    HW115125   2.808   2.229  17.084  2.3744  1.5700  1.1817
 1164SOL    HW215126   2.790   2.262  16.942  0.2155 -1.4687  0.9101
 1165SOL     OW15127   3.037   2.443  16.097  0.5979  0.2467  0.6381
 1165SOL    HW115128   2.974   2.499  16.144  0.7009  0.9130 -0.0252
 1165SOL    HW215129   3.112   2.503  16.090  2.2504 -1.7903  0.9373
 1166SOL     OW15130   0.004   3.552   3.959 -0.2918 -0.4795  0.4901
 1166SOL    HW115131   0.003   3.496   3.882  1.1867  0.3939 -0.1709
 1166SOL    HW215132   4.653   3.531   3.989 -0.9135 -0.4672 -1.3256
 1167SOL     OW15133   4.363   3.204  16.904  0.4310 -0.1858 -0.4339
 1167SOL    HW115134   4.293   3.173  16.962  0.5279  0.5953  0.1046
 1167SOL    HW215135   4.315   3.208  16.822  2.4524  1.5276 -1.5331
 1168SOL     OW15136   3.704   0.336   1.299  0.1312 -0.5196  0.1780
 1168SOL    HW115137   3.649   0.294   1.232  1.1232 -1.0339 -0.3141
 1168SOL    HW215138   3.650   0.394   1.352  0.6121 -1.1857  1.4085
 1169SOL     OW15139   0.881   0.112  10.074 -0.2270  0.0652  0.6699
 1169SOL    HW115140   0.942   0.047  10.040 -0.7585  0.1361 -0.3927
 1169SOL    HW215141   0.934   0.160  10.139  1.1677 -0.6335  0.0408
 1170SOL     OW15142   1.056   3.416   8.583 -0.6015 -0.1615  0.1478
 1170SOL    HW115143   0.967   3.429   8.616 -0.4207 -1.1402  1.0182
 1170SOL    HW215144   1.095   3.499   8.610  0.5325 -0.4773 -0.5095
 1171SOL     OW15145   2.337   3.654   8.296 -0.5443  0.1165 -0.4619
 1171SOL    HW115146   2.257   3.706   8.307  0.3024  1.3317 -0.0956
 1171SOL    HW215147   2.385   3.681   8.374 -1.4765  1.9319 -0.5166
 1172SOL     OW15148   2.337   0.952   4.430  0.1854 -0.2035  0.0352
 1172SOL    HW115149   2.342   0.860   4.457  0.7443  0.3249  1.7755
 1172SOL    HW215150   2.412   0.961   4.373 -0.0708  0.4672 -0.1951
 1173SOL     OW15151   0.149   4.649   5.529 -0.2980  0.3273  0.0914
 1173SOL    HW115152   0.233   4.658   5.484 -0.2966  0.4298  0.1152
 1173SOL    HW215153   0.129   0.003   5.549  0.1419  0.0440  1.8172
 1174SOL     OW15154   2.630   0.865   8.905 -0.0281  0.2013  0.5377
 1174SOL    HW115155   2.560   0.928   8.891  0.2635  0.4094  0.0034
 1174SOL    HW215156   2.690   0.887   8.834  2.8113 -0.0722  2.8486
 1175SOL     OW15157   2.483   3.554   7.893  0.3133 -0.4382  0.0484
 1175SOL    HW115158   2.567   3.566   7.938  1.2085 -3.0028 -0.9509
 1175SOL    HW215159   2.420   3.560   7.964  0.0316  0.8665 -0.3006
 1176SOL     OW15160   4.688   3.144  16.400  0.3810 -0.6229  0.0219
 1176SOL    HW115161   4.712   3.075  16.339  3.1160 -0.7607  1.2866
 1176SOL    HW215162   0.007   3.220  16.385 -0.4935 -0.0891 -0.5678
 1177SOL     OW15163   2.145   3.107   8.357  0.0366 -0.4775  0.1538
 1177SOL    HW115164   2.121   3.016   8.341 -1.1467 -0.2450  0.6395
 1177SOL    HW215165   2.168   3.132   8.268  1.7550 -1.1620  0.3922
 1178SOL     OW15166   2.814   0.012  17.594  0.2479 -0.2062  0.0283
 1178SOL    HW115167   2.845   0.045  17.678  1.5196  0.3147 -0.6384
 1178SOL    HW215168   2.770   0.091  17.562  1.3844 -0.4211 -2.1130
 1179SOL     OW15169   0.449   3.750  10.201 -0.6972  0.5093 -0.1281
 1179SOL    HW115170   0.526   3.769  10.256  0.8879  1.2739 -2.5981
 1179SOL    HW215171   0.433   3.657  10.216  0.1165  0.4224  0.2496
 1180SOL     OW15172   1.835   3.240   9.316 -0.4389  0.5657  0.1117
 1180SOL    HW115173   1.914   3.200   9.280  0.0593  2.0530 -0.4774
 1180SOL    HW215174   1.757   3.194   9.285  1.4546 -1.0371 -2.2434
 1181SOL     OW15175   3.403   3.955   1.319  0.1437  0.0546 -0.2055
 1181SOL    HW115176   3.355   4.007   1.383 -0.3054  1.7518 -1.9297
 1181SOL    HW215177   3.495   3.979   1.335 -0.6096  0.4930  3.4343
 1182SOL     OW15178   4.553   2.046   2.573  0.4232 -0.2026  0.4765
 1182SOL    HW115179   4.635   2.008   2.607 -0.6470  0.2006  3.5374
 1182SOL    HW215180   4.582   2.124   2.527  0.8046 -0.3981  0.3852
 1183SOL     OW15181   4.012   1.483   4.531  0.2983 -0.4142 -0.0671
 1183SOL    HW115182   4.101   1.460   4.503  0.0816  0.6865 -1.6825
 1183SOL    HW215183   3.977   1.407   4.576 -0.6688  0.2615  0.3335
 1184SOL     OW15184   2.229   2.754  17.120 -0.1643 -0.3580  0.7129
 1184SOL    HW115185   2.312   2.727  17.081 -0.1225  3.2248 -1.7107
 1184SOL    HW215186   2.264   2.767  17.208  0.2714 -1.1579  0.6624
 1185SOL     OW15187   0.674   1.429  11.269 -0.5390 -0.4427  0.4257
 1185SOL    HW115188   0.593   1.405  11.223 -0.4689  1.4090 -0.6566
 1185SOL    HW215189   0.664   1.393  11.357  0.5930  1.8591  1.4866
 1186SOL     OW15190   1.915   3.922  17.668 -0.1585  0.0171  0.1785
 1186SOL    HW115191   1.888   3.835  17.639  1.3926 -0.9850  1.7355
 1186SOL    HW215192   1.933   3.917   0.016 -1.8772 -0.8069  0.4621
 1187SOL     OW15193   4.632   3.627   4.553  0.0049  0.5364 -0.1125
 1187SOL    HW115194   4.582   3.705   4.576  0.3078  0.7354 -0.1203
 1187SOL    HW215195   4.698   3.659   4.491  1.1799 -0.8113  0.4511
 1188SOL     OW15196   4.032   2.427   8.158 -0.2648  0.1502  0.7783
 1188SOL    HW115197   3.936   2.421   8.154 -0.2115  0.4832 -0.9388
 1188SOL    HW215198   4.036   2.520   8.135 -0.2792  0.6906  3.0040
 1189SOL     OW15199   0.858   0.347  11.479 -0.3400  0.0002  0.2708
 1189SOL    HW115200   0.823   0.424  11.435  1.0984  0.4629 -0.0699
 1189SOL    HW215201   0.781   0.305  11.518 -1.1288  1.0231 -0.1807
 1190SOL     OW15202   1.812   2.430   8.177 -0.6507 -0.2314 -0.5745
 1190SOL    HW115203   1.728   2.416   8.134 -1.5882  2.9517  0.2548
 1190SOL    HW215204   1.830   2.523   8.167  0.7672 -0.4381  0.0476
 1191SOL     OW15205   0.199   3.110  17.459 -0.3404 -0.3807 -0.2061
 1191SOL    HW115206   0.194   3.177  17.391 -1.2150  0.4465  0.6722
 1191SOL    HW215207   0.276   3.135  17.510 -0.0527 -0.2210 -0.7246
 1192SOL     OW15208   2.501   0.257   2.139  0.5808  0.1361  0.1682
 1192SOL    HW115209   2.546   0.301   2.211 -1.2903  1.2554  0.6687
 1192SOL    HW215210   2.428   0.310   2.104  0.2574 -0.4458 -0.0364
 1193SOL     OW15211   0.155   0.406   6.807 -0.3217 -0.7963 -0.1562
 1193SOL    HW115212   0.174   0.358   6.726  0.0135 -0.6500 -0.1636
 1193SOL    HW215213   0.126   0.491   6.774  0.4259 -1.3895 -2.3810
 1194SOL     OW15214   3.961   0.804  14.050 -0.2445  0.1438 -0.0622
 1194SOL    HW115215   4.053   0.830  14.058 -1.3675  3.4987  2.0767
 1194SOL    HW215216   3.931   0.808  14.141 -1.1153 -0.4747 -0.3254
 1195SOL     OW15217   1.307   1.443   2.786 -0.6010  0.4697 -0.3017
 1195SOL    HW115218   1.239   1.472   2.725 -2.0748  0.1641  1.1970
 1195SOL    HW215219   1.301   1.348   2.780 -0.6318  0.4300  0.3009
 1196SOL     OW15220   4.171   0.584   7.672 -0.4849 -0.3676  0.3751
 1196SOL    HW115221   4.183   0.578   7.577 -1.3914  0.4864  0.2084
 1196SOL    HW215222   4.247   0.636   7.700 -1.8974  1.0962  1.4956
 1197SOL     OW15223   2.187   1.546   6.551  0.1182  0.6217 -0.5887
 1197SOL    HW115224   2.240   1.574   6.476  1.5516 -1.8672 -0.4879
 1197SOL    HW215225   2.130   1.480   6.511 -0.2580  1.1771 -0.9676
 1198SOL     OW15226   1.799   1.520  10.245 -0.3806 -0.6198 -0.0375
 1198SOL    HW115227   1.738   1.532  10.173 -0.9191 -0.9803  0.3561
 1198SOL    HW215228   1.871   1.577  10.219 -1.0422  0.3201  0.2046
 1199SOL     OW15229   2.383   1.163   5.480  0.9034  0.2846 -0.2813
 1199SOL    HW115230   2.354   1.075   5.457  4.2046 -1.1517  1.0572
 1199SOL    HW215231   2.394   1.162   5.575  2.7887 -2.5460 -0.5371
 1200SOL     OW15232   4.166   3.802   2.983  0.0255  0.0812 -0.1557
 1200SOL    HW115233   4.169   3.784   2.889 -1.1081 -0.7269 -0.0478
 1200SOL    HW215234   4.239   3.862   2.990  0.0499  0.2094 -1.4298
 1201SOL     OW15235   4.084   0.912   6.243  0.1771 -0.0835  0.4959
 1201SOL    HW115236   4.090   0.983   6.307 -1.7863  0.7810 -0.2468
 1201SOL    HW215237   4.019   0.856   6.286  0.2292  1.3091  2.3975
 1202SOL     OW15238   1.846   2.773   1.425 -0.2682  0.8054 -0.8000
 1202SOL    HW115239   1.902   2.788   1.349 -0.9548 -0.2626 -1.5037
 1202SOL    HW215240   1.911   2.730   1.482  0.8529  1.1073 -1.8458
 1203SOL     OW15241   1.474   1.141   5.895  0.2522  0.3317 -0.5614
 1203SOL    HW115242   1.460   1.230   5.864 -0.2758  1.3028  2.4228
 1203SOL    HW215243   1.387   1.102   5.906 -1.2632  4.1601  1.0606
 1204SOL     OW15244   0.284   3.442   7.218 -0.5519 -0.2619  0.1550
 1204SOL    HW115245   0.296   3.491   7.300 -2.2010  1.5836 -0.7181
 1204SOL    HW215246   0.266   3.352   7.247  0.1541 -1.5123 -3.3401
 1205SOL     OW15247   2.548   0.336   8.910 -0.1008 -0.3053  0.3299
 1205SOL    HW115248   2.533   0.430   8.901 -0.9083 -0.3936  0.7133
 1205SOL    HW215249   2.613   0.330   8.980  0.4151 -0.2984 -0.1512
 1206SOL     OW15250   4.562   0.361  14.485 -0.6651  0.9897 -0.0723
 1206SOL    HW115251   4.494   0.295  14.470  0.8085 -0.6206  0.3774
 1206SOL    HW215252   4.528   0.413  14.558  1.0880 -0.4021  1.7155
 1207SOL     OW15253   4.043   2.375   7.049 -0.5814 -0.6897 -0.1501
 1207SOL    HW115254   3.986   2.384   6.973 -1.6990 -0.3792  0.7240
 1207SOL    HW215255   4.021   2.283   7.063  2.3901 -1.4752 -0.5886
 1208SOL     OW15256   1.320   3.036  16.971 -0.2514 -0.5961  0.2461
 1208SOL    HW115257   1.404   3.050  16.928  0.3097 -0.5487  1.3626
 1208SOL    HW215258   1.345   2.979  17.044  0.9115 -1.6480 -0.9948
 1209SOL     OW15259   2.888   0.254   7.561 -0.1400 -0.2463  0.5854
 1209SOL    HW115260   2.886   0.343   7.526  0.2125  0.3990  2.1511
 1209SOL    HW215261   2.963   0.219   7.513 -0.9884 -0.7444 -0.3554
 1210SOL     OW15262   4.458   4.664   3.923  0.3592  0.4736 -0.2020
 1210SOL    HW115263   4.364   4.648   3.929  0.5900 -0.1693  1.7160
 1210SOL    HW215264   4.467   4.668   3.828  1.2373  0.7969 -0.1116
 1211SOL     OW15265   3.632   2.813   3.583  0.1950  0.4140  0.4916
 1211SOL    HW115266   3.622   2.824   3.488 -1.7648 -2.1338  0.4192
 1211SOL    HW215267   3.653   2.898   3.622 -1.9279  0.6803  1.0349
 1212SOL     OW15268   1.399   0.763  16.699 -0.2977  0.1819 -0.2229
 1212SOL    HW115269   1.475   0.705  16.702 -0.2100  0.3234  0.2891
 1212SOL    HW215270   1.424   0.837  16.644 -0.0063 -0.9242 -1.5666
 1213SOL     OW15271   3.628   1.591  17.088  0.6742 -0.0288  0.4663
 1213SOL    HW115272   3.596   1.633  17.168 -0.6775 -2.6206  1.2769
 1213SOL    HW215273   3.660   1.512  17.131  2.0154 -0.0672 -0.6040
 1214SOL     OW15274   3.817   3.675  12.894 -0.6035 -0.5076 -0.1298
 1214SOL    HW115275   3.820   3.761  12.852 -0.5736  0.8475  2.6894
 1214SOL    HW215276   3.846   3.696  12.982 -0.3647 -0.8243 -0.1342
 1215SOL     OW15277   4.135   4.202   7.720  1.1290  0.0477 -0.4572
 1215SOL    HW115278   4.174   4.288   7.703  0.2667  0.0814 -2.2192
 1215SOL    HW215279   4.047   4.218   7.754  1.0113  0.0036 -0.7432
 1216SOL     OW15280   2.437   1.482   0.104 -0.2518 -0.0020 -0.0353
 1216SOL    HW115281   2.413   1.457   0.193 -0.1558 -0.2042 -0.0674
 1216SOL    HW215282   2.514   1.428   0.091 -0.0568  0.0489  0.8894
 1217SOL     OW15283   4.461   2.740  14.379 -0.1199  0.4702  0.6923
 1217SOL    HW115284   4.369   2.712  14.383 -0.3704  1.1597 -0.2897
 1217SOL    HW215285   4.494   2.666  14.328 -1.4910 -0.4956  1.1911
 1218SOL     OW15286   1.707   0.320   3.037  0.0392  0.0266 -0.2789
 1218SOL    HW115287   1.661   0.270   2.970 -1.8498  0.7615  0.4714
 1218SOL    HW215288   1.704   0.261   3.113 -1.8559  0.8188  0.2653
 1219SOL     OW15289   2.896   1.187   8.805  0.2866 -0.0088  0.1287
 1219SOL    HW115290   2.922   1.270   8.766 -0.4659  0.5946  0.9144
 1219SOL    HW215291   2.844   1.215   8.880 -0.4813  0.1241 -0.4506
 1220SOL     OW15292   1.855   4.524  10.163 -0.1051  0.1993 -0.1815
 1220SOL    HW115293   1.812   4.448  10.124 -0.4426 -0.4294  1.4106
 1220SOL    HW215294   1.777   4.579  10.173 -1.0901 -0.7418 -2.7569
 1221SOL     OW15295   3.098   2.861   6.565  0.1429 -0.6483  0.1179
 1221SOL    HW115296   3.096   2.954   6.587  0.3356 -0.4714 -0.6093
 1221SOL    HW215297   3.010   2.829   6.584  0.9317 -2.1085  1.3516
 1222SOL     OW15298   0.514   0.097   2.704  0.5055 -0.3553  0.4784
 1222SOL    HW115299   0.464   0.137   2.633  1.6098  0.0471 -0.0693
 1222SOL    HW215300   0.460   0.018   2.711 -0.0478 -0.0327 -0.1788
 1223SOL     OW15301   1.954   4.465   8.067  0.1373  0.3339 -0.0138
 1223SOL    HW115302   1.966   4.543   8.013 -0.0497  0.7357  0.5329
 1223SOL    HW215303   1.991   4.484   8.153  2.4113 -1.8456 -0.5217
 1224SOL     OW15304   0.682   0.587   5.911  0.3618  0.3129 -0.4108
 1224SOL    HW115305   0.672   0.679   5.890  0.5891  0.3655 -0.2856
 1224SOL    HW215306   0.774   0.565   5.926 -0.3434  0.0130  3.6052
 1225SOL     OW15307   2.569   3.160  11.381  0.3480  0.0921  0.1104
 1225SOL    HW115308   2.587   3.076  11.422 -3.1260  1.0685  3.6239
 1225SOL    HW215309   2.584   3.230  11.444  0.3575 -0.5343  0.7949
 1226SOL     OW15310   3.317   0.345  11.848 -0.2320 -0.0796  0.2749
 1226SOL    HW115311   3.300   0.376  11.758  0.7643 -0.7755 -0.1417
 1226SOL    HW215312   3.404   0.307  11.846 -0.6594 -0.9836 -0.8765
 1227SOL     OW15313   3.384   4.639   7.337  0.2758 -0.4833  0.3064
 1227SOL    HW115314   3.432   4.603   7.412 -2.5868 -4.8743  0.0710
 1227SOL    HW215315   3.438   4.713   7.311  0.9591 -0.7202  1.0371
 1228SOL     OW15316   2.378   2.293   0.570 -0.5797  0.1040 -0.1595
 1228SOL    HW115317   2.406   2.203   0.559 -0.4041  0.1933 -0.4312
 1228SOL    HW215318   2.282   2.293   0.572 -0.5927  2.0977 -0.4518
 1229SOL     OW15319   2.886   3.125   4.346  0.4169 -0.4416 -0.6891
 1229SOL    HW115320   2.922   3.090   4.428 -0.9580  1.1984  0.6056
 1229SOL    HW215321   2.792   3.133   4.359  0.9016  1.7414  1.4983
 1230SOL     OW15322   4.399   0.311   5.462 -0.4861  0.4201  0.2611
 1230SOL    HW115323   4.475   0.308   5.520 -0.4425 -1.8855  0.0916
 1230SOL    HW215324   4.346   0.378   5.507 -0.1582 -0.1835  1.5310
 1231SOL     OW15325   2.616   0.074  14.671  0.1429 -0.9310 -0.3401
 1231SOL    HW115326   2.604   0.079  14.576  1.7063  0.5915 -0.4518
 1231SOL    HW215327   2.699   0.026  14.665  1.1315  1.0985 -2.6393
 1232SOL     OW15328   0.211   1.461   9.031  0.9551 -0.1763 -0.1680
 1232SOL    HW115329   0.165   1.513   9.097 -1.6722  0.7180 -2.7205
 1232SOL    HW215330   0.137   1.409   9.002  1.5810 -1.1758 -0.0004
 1233SOL     OW15331   0.866   3.810   4.011  0.1520 -0.5237  0.0685
 1233SOL    HW115332   0.788   3.762   3.984  0.3757 -0.4534 -0.7189
 1233SOL    HW215333   0.926   3.778   3.944 -0.3071  1.4881 -1.3077
 1234SOL     OW15334   1.710   2.810   6.368  0.6281 -0.6323  0.2077
 1234SOL    HW115335   1.707   2.819   6.463  2.3537 -0.8081  0.2827
 1234SOL    HW215336   1.687   2.898   6.341  0.6551 -0.5355  0.5060
 1235SOL     OW15337   1.380   0.005   2.749  0.1866  0.1884  0.4217
 1235SOL    HW115338   1.289   0.010   2.720 -0.5010  4.5473  3.2157
 1235SOL    HW215339   1.401   4.650   2.738  2.3136  0.6766  0.3492
 1236SOL     OW15340   1.895   1.315   5.058  0.0048 -0.1973  0.3065
 1236SOL    HW115341   1.883   1.251   4.987  3.6586 -0.9127  0.3009
 1236SOL    HW215342   1.843   1.267   5.122  0.0926 -1.1230 -0.3127
 1237SOL     OW15343   1.789   4.227   7.985 -0.2312  0.3340 -0.2914
 1237SOL    HW115344   1.841   4.306   7.999  0.0259 -0.3171  2.5331
 1237SOL    HW215345   1.857   4.169   7.950  1.3737  1.5135  0.8471
 1238SOL     OW15346   2.033   3.519   8.387  1.0254  0.1195 -0.2467
 1238SOL    HW115347   2.039   3.557   8.299  1.0484  2.1271  0.6289
 1238SOL    HW215348   2.100   3.572   8.431 -2.3385  3.1505  1.2354
 1239SOL     OW15349   3.656   2.126   2.794 -0.7325  0.5719 -0.0707
 1239SOL    HW115350   3.670   2.194   2.859 -2.2811  1.9501 -1.1977
 1239SOL    HW215351   3.681   2.049   2.847 -0.2630  0.0374 -1.0615
 1240SOL     OW15352   1.273   0.759   7.939 -0.0780 -0.2910 -0.5617
 1240SOL    HW115353   1.322   0.686   7.902  0.4188 -0.5616  0.6386
 1240SOL    HW215354   1.204   0.714   7.988  2.1834 -2.0747  1.0136
 1241SOL     OW15355   3.134   1.629   4.278 -0.2016 -0.4198 -0.2252
 1241SOL    HW115356   3.157   1.718   4.249  0.2475 -0.0414  1.2708
 1241SOL    HW215357   3.215   1.592   4.242 -0.5705 -1.0905 -0.3599
 1242SOL     OW15358   1.784   2.257   5.427 -0.2133  0.2866 -0.7360
 1242SOL    HW115359   1.785   2.349   5.401  2.4262 -0.2839 -2.6028
 1242SOL    HW215360   1.773   2.270   5.521 -0.3608 -0.2348 -0.6799
 1243SOL     OW15361   3.226   4.650  15.362 -0.7071 -0.0605  0.1318
 1243SOL    HW115362   3.321   4.664  15.372 -0.4444 -0.9248 -1.2551
 1243SOL    HW215363   3.198   4.702  15.287 -1.2934 -2.2446 -1.1258
 1244SOL     OW15364   0.728   2.286   4.733  0.0246  0.3827 -0.6449
 1244SOL    HW115365   0.735   2.204   4.684  0.7186  0.6739 -1.0271
 1244SOL    HW215366   0.815   2.324   4.740 -0.3222  0.9012  1.0395
 1245SOL     OW15367   3.606   4.512   3.930  0.1750 -0.4174 -0.0414
 1245SOL    HW115368   3.679   4.536   3.987  1.2381 -2.9020 -0.3183
 1245SOL    HW215369   3.570   4.444   3.988  0.9484 -2.0325 -1.4639
 1246SOL     OW15370   3.112   0.502   2.664  0.5079  0.3228 -0.1061
 1246SOL    HW115371   3.123   0.426   2.607  0.7764  0.5729 -0.3863
 1246SOL    HW215372   3.152   0.473   2.745  0.5323  0.9051  0.0882
 1247SOL     OW15373   0.971   0.799   5.970 -0.1512 -0.3542 -0.0153
 1247SOL    HW115374   1.028   0.726   5.994 -1.0435 -1.4563 -1.1859
 1247SOL    HW215375   0.988   0.795   5.875  0.3147  2.0993 -0.0293
 1248SOL     OW15376   3.534   3.615   2.294 -0.1099  0.3554  0.1167
 1248SOL    HW115377   3.557   3.557   2.366  1.6593 -1.6205 -2.0463
 1248SOL    HW215378   3.561   3.702   2.325 -1.3052  1.4248 -1.8800
 1249SOL     OW15379   3.720   2.793  16.920 -0.0835  0.2772 -0.1463
 1249SOL    HW115380   3.755   2.786  16.831  1.1281 -1.8034  0.4950
 1249SOL    HW215381   3.752   2.881  16.938 -0.0969  0.3106 -0.2818
 1250SOL     OW15382   2.737   3.828  16.163  0.0560  0.0077  0.2932
 1250SOL    HW115383   2.650   3.860  16.187  0.0545 -1.3601  2.0840
 1250SOL    HW215384   2.758   3.880  16.086 -0.0880 -0.0390  0.2215
 1251SOL     OW15385   3.897   1.896   1.742  0.2371 -0.2946 -0.3389
 1251SOL    HW115386   3.847   1.839   1.684 -0.4894  0.1628 -0.1571
 1251SOL    HW215387   3.967   1.833   1.762 -0.6569 -1.9028 -2.2088
 1252SOL     OW15388   3.098   4.185   7.717 -0.2508  0.4437 -0.7546
 1252SOL    HW115389   3.064   4.274   7.703  0.2266  0.8195  0.4527
 1252SOL    HW215390   3.102   4.188   7.812  2.1992  0.0692 -0.8496
 1253SOL     OW15391   0.635   1.068  10.522  0.6369 -0.0092  0.2948
 1253SOL    HW115392   0.728   1.072  10.501  1.0110 -0.2578  1.8837
 1253SOL    HW215393   0.639   1.009  10.597 -0.0434 -0.3386  0.0715
 1254SOL     OW15394   2.836   3.677   9.126 -0.0909  0.1707 -0.5994
 1254SOL    HW115395   2.767   3.643   9.183 -0.3982  1.1865 -0.3766
 1254SOL    HW215396   2.839   3.614   9.053  1.6069 -1.4837  0.9043
 1255SOL     OW15397   0.859   3.048   7.885  0.4076 -0.6817  0.3293
 1255SOL    HW115398   0.919   3.055   7.810 -0.5833  1.5674 -0.2586
 1255SOL    HW215399   0.884   3.126   7.935 -0.9504  0.2418 -0.4232
 1256SOL     OW15400   0.939   1.593   4.739  0.2979 -0.2557 -0.0949
 1256SOL    HW115401   0.937   1.560   4.649 -2.6725  0.8401 -0.4019
 1256SOL    HW215402   0.990   1.520   4.775 -1.0618 -1.4894 -0.6625
 1257SOL     OW15403   2.925   3.020  11.494 -0.2887 -0.2262 -0.0161
 1257SOL    HW115404   2.851   2.974  11.455  0.4443 -1.5211  0.1152
 1257SOL    HW215405   2.995   2.954  11.491 -0.1422 -0.0852  0.2685
 1258SOL     OW15406   3.905   2.953   8.364  0.5330  0.4921  0.8680
 1258SOL    HW115407   3.942   3.042   8.365 -1.6515  1.3855  1.0947
 1258SOL    HW215408   3.833   2.969   8.424  0.2148 -1.3539  0.9644
 1259SOL     OW15409   3.234   2.163   8.130 -0.2769 -0.5517  0.0312
 1259SOL    HW115410   3.242   2.124   8.217 -0.4213  0.5385  0.5388
 1259SOL    HW215411   3.153   2.123   8.098 -0.2925 -1.9290  1.7734
 1260SOL     OW15412   0.695   1.467  15.910  0.2881 -0.4781 -0.1923
 1260SOL    HW115413   0.720   1.559  15.911  0.7423 -0.6128  0.9505
 1260SOL    HW215414   0.754   1.419  15.852  0.9932  0.7815 -0.5077
 1261SOL     OW15415   2.913   1.804   8.895  0.2345  0.1138 -0.0773
 1261SOL    HW115416   2.957   1.739   8.949  2.3469 -0.2518 -2.2834
 1261SOL    HW215417   2.957   1.802   8.811  0.3046 -0.9463 -0.0048
 1262SOL     OW15418   4.596   4.728   8.073  0.1749 -0.1790 -0.0574
 1262SOL    HW115419   4.682   4.723   8.113 -0.1090 -1.4744  0.4075
 1262SOL    HW215420   4.622   4.714   7.982 -0.5349  0.7743 -0.4034
 1263SOL     OW15421   1.934   2.532   5.744  0.4960  0.5072  0.4452
 1263SOL    HW115422   1.937   2.564   5.835  2.5002 -2.2943  1.3422
 1263SOL    HW215423   2.001   2.465   5.744 -0.3873 -0.3322 -3.1215
 1264SOL     OW15424   2.401   2.529   1.560  0.3056 -0.2575  0.4740
 1264SOL    HW115425   2.324   2.498   1.609 -0.7647  0.2091 -0.9084
 1264SOL    HW215426   2.472   2.481   1.603 -0.3395 -1.2246  0.4442
 1265SOL     OW15427   2.681   3.927   7.767  0.1587 -0.1279  0.3893
 1265SOL    HW115428   2.751   3.951   7.706 -0.0622 -0.8103 -0.1243
 1265SOL    HW215429   2.637   4.012   7.777  2.4661  1.1003  0.1947
 1266SOL     OW15430   2.219   0.785   4.204  0.7281 -0.2692 -0.2765
 1266SOL    HW115431   2.230   0.866   4.254 -1.3949  0.5965 -1.2270
 1266SOL    HW215432   2.143   0.814   4.153 -1.0167 -2.9409  0.8156
 1267SOL     OW15433   0.561   0.760   3.007 -0.2763  0.3485  0.3617
 1267SOL    HW115434   0.617   0.797   3.075 -1.5653  0.9296  1.0982
 1267SOL    HW215435   0.503   0.702   3.057 -2.3129  0.3906 -1.9414
 1268SOL     OW15436   1.839   2.142  11.995 -0.0034 -0.1896  0.0415
 1268SOL    HW115437   1.838   2.053  12.029 -3.1743  0.6506  2.1476
 1268SOL    HW215438   1.782   2.136  11.919  0.1275  0.2455 -0.0908
 1269SOL     OW15439   2.474   1.503  12.998  0.3734  0.2288 -0.7116
 1269SOL    HW115440   2.479   1.582  13.052  0.4516 -0.7812  0.7253
 1269SOL    HW215441   2.437   1.447  13.066  1.4750  0.9623  0.4691
 1270SOL     OW15442   4.474   0.770   5.726  0.4720 -0.3796 -0.1285
 1270SOL    HW115443   4.401   0.726   5.770 -0.5008 -0.1613 -1.5127
 1270SOL    HW215444   4.540   0.765   5.794  1.2222 -0.5864 -0.8701
 1271SOL     OW15445   1.869   0.201   8.611 -0.4556 -0.6193  0.3687
 1271SOL    HW115446   1.802   0.212   8.679 -1.8441  1.1160 -1.2933
 1271SOL    HW215447   1.871   0.105   8.603 -1.5395 -0.6230  0.0220
 1272SOL     OW15448   4.507   1.914  11.940 -0.4772 -1.0960  0.2772
 1272SOL    HW115449   4.483   1.996  11.898 -2.7864 -2.0913 -0.3986
 1272SOL    HW215450   4.588   1.911  11.890  0.6569 -3.6838  2.2402
 1273SOL     OW15451   0.506   1.985   9.860 -0.6603 -0.3414  0.7660
 1273SOL    HW115452   0.528   2.074   9.834  1.8788 -1.0252  0.5133
 1273SOL    HW215453   0.562   1.982   9.937 -1.8090 -0.5910  1.5825
 1274SOL     OW15454   0.362   3.506   1.416  0.8873  0.3879 -0.0581
 1274SOL    HW115455   0.431   3.440   1.418  0.3774 -0.1309  0.3984
 1274SOL    HW215456   0.309   3.453   1.357  0.8113  0.3054  0.0828
 1275SOL     OW15457   3.055   2.556  16.904 -0.0405 -0.3114 -0.4107
 1275SOL    HW115458   2.976   2.510  16.874  1.0035 -2.1884 -0.3217
 1275SOL    HW215459   3.110   2.569  16.826 -0.0648  1.4627 -0.1207
 1276SOL     OW15460   1.973   2.812   6.227  0.0522 -0.7729  0.5365
 1276SOL    HW115461   1.897   2.766   6.262 -0.3837  0.2320  0.9173
 1276SOL    HW215462   1.933   2.889   6.186  0.9768 -0.8263 -0.4725
 1277SOL     OW15463   1.693   1.783   7.653  0.4832 -0.2507 -0.4649
 1277SOL    HW115464   1.738   1.844   7.711  0.7794 -1.3644  0.4801
 1277SOL    HW215465   1.762   1.717   7.657  0.2579 -0.4731 -0.2690
 1278SOL     OW15466   2.087   0.168   1.542 -0.3239 -0.3165  0.3007
 1278SOL    HW115467   2.014   0.220   1.509 -1.0732 -1.1374  0.6559
 1278SOL    HW215468   2.047   0.141   1.625  0.1870  0.6877  0.8666
 1279SOL     OW15469   0.534   0.825  16.013  0.3696  0.3270  0.1764
 1279SOL    HW115470   0.608   0.883  15.994  2.5326 -2.2313  0.7423
 1279SOL    HW215471   0.498   0.789  15.933 -1.7915  3.4862 -0.2472
 1280SOL     OW15472   2.401   0.780   5.644  0.4661  0.1006 -0.4001
 1280SOL    HW115473   2.383   0.831   5.723 -0.2552  0.9944 -1.1352
 1280SOL    HW215474   2.444   0.842   5.585  1.6072  0.4410  0.7978
 1281SOL     OW15475   3.427   1.668   3.838  0.2708  0.0345  0.2162
 1281SOL    HW115476   3.490   1.707   3.898  0.3647  1.2866 -0.7011
 1281SOL    HW215477   3.474   1.594   3.801  1.5218  0.7300  0.4095
 1282SOL     OW15478   4.023   2.248   8.918  0.1611  0.6867  0.3841
 1282SOL    HW115479   3.995   2.320   8.974 -1.8958  0.4680 -0.3912
 1282SOL    HW215480   3.940   2.205   8.899  1.1994 -0.8677 -0.6416
 1283SOL     OW15481   1.794   2.845   7.581  0.4488 -0.0985  0.5871
 1283SOL    HW115482   1.800   2.752   7.602  0.5938 -0.4829 -1.2173
 1283SOL    HW215483   1.835   2.889   7.656  1.1417  0.4274 -0.1075
 1284SOL     OW15484   1.742   1.613  16.024 -0.0453  0.9724 -0.2184
 1284SOL    HW115485   1.733   1.688  15.965 -1.5505  1.8767  1.1682
 1284SOL    HW215486   1.807   1.562  15.976 -0.9855 -1.2294  0.8401
 1285SOL     OW15487   3.739   2.945   4.375  0.0874 -0.1117  0.4483
 1285SOL    HW115488   3.676   2.877   4.399  0.0550  0.3130  1.5508
 1285SOL    HW215489   3.696   2.986   4.299  2.3970 -2.2332 -1.9966
 1286SOL     OW15490   3.075   2.661   0.561 -0.5703 -0.2140 -0.2894
 1286SOL    HW115491   3.001   2.612   0.596 -0.7046  0.7887  0.8122
 1286SOL    HW215492   3.048   2.657   0.469  0.1256  0.9794 -0.5579
 1287SOL     OW15493   2.190   0.446   8.810 -0.0539  0.0732 -0.4380
 1287SOL    HW115494   2.266   0.397   8.778  0.7566  0.4045  0.9944
 1287SOL    HW215495   2.130   0.417   8.742  0.2222  1.3952 -1.2426
 1288SOL     OW15496   2.275   2.218   1.097  0.1533 -0.6142 -0.4780
 1288SOL    HW115497   2.235   2.149   1.045  0.8048 -0.6122 -0.9867
 1288SOL    HW215498   2.280   2.286   1.030 -0.5225 -0.1521 -0.0571
 1289SOL     OW15499   2.243   2.511   6.144 -0.2678  0.2859  0.0897
 1289SOL    HW115500   2.223   2.594   6.101 -0.6403 -1.4109 -3.0210
 1289SOL    HW215501   2.168   2.482   6.195  0.2593 -1.3831 -0.0656
 1290SOL     OW15502   0.761   1.325   7.524  0.1000  0.1240 -0.1474
 1290SOL    HW115503   0.696   1.389   7.552  0.3098 -0.5536  1.8930
 1290SOL    HW215504   0.743   1.310   7.431  0.2224  1.1182 -0.3340
 1291SOL     OW15505   0.138   1.654   3.334  0.0003  0.8592 -0.2716
 1291SOL    HW115506   0.134   1.647   3.429 -0.7809 -1.1195 -0.4583
 1291SOL    HW215507   0.230   1.635   3.312 -0.4713  0.8189 -2.2461
 1292SOL     OW15508   2.077   2.332   3.609  0.0920 -0.4988  0.3051
 1292SOL    HW115509   2.106   2.286   3.688 -1.6678 -1.6093  0.2839
 1292SOL    HW215510   2.023   2.271   3.559  0.3230 -1.6154  1.4185
 1293SOL     OW15511   1.050   4.009   9.711 -0.1566 -0.1104 -0.4073
 1293SOL    HW115512   1.127   3.985   9.764 -0.0875  0.1286 -0.3989
 1293SOL    HW215513   1.023   4.081   9.767  1.1497  1.5310 -1.8904
 1294SOL     OW15514   3.915   0.286  11.484 -0.2187 -0.2988 -0.0249
 1294SOL    HW115515   3.864   0.357  11.522 -1.2438 -1.8518  1.5414
 1294SOL    HW215516   3.981   0.281  11.553  0.1331 -1.8637 -0.4673
 1295SOL     OW15517   4.131   4.590  16.107 -0.2638 -0.0649 -0.0019
 1295SOL    HW115518   4.208   4.644  16.092 -0.3744  0.6120  1.9029
 1295SOL    HW215519   4.153   4.545  16.189  2.6027  0.5443 -0.4596
 1296SOL     OW15520   0.411   0.196   6.772  0.4218 -0.9235 -0.2770
 1296SOL    HW115521   0.410   0.283   6.813  2.6299 -0.8455 -0.3769
 1296SOL    HW215522   0.342   0.208   6.708 -0.8536 -1.1820  1.0438
 1297SOL     OW15523   1.734   0.368   5.953 -0.2073 -0.2055 -0.0944
 1297SOL    HW115524   1.731   0.272   5.958 -0.5866 -0.1858  0.0084
 1297SOL    HW215525   1.808   0.385   6.011 -1.3331  1.4359  0.8542
 1298SOL     OW15526   2.217   3.744   1.559  0.4240 -0.0466  0.2206
 1298SOL    HW115527   2.168   3.805   1.615  0.5748  0.8447 -0.6061
 1298SOL    HW215528   2.305   3.759   1.592  0.9366  1.1035 -1.6734
 1299SOL     OW15529   0.068   3.799   9.950  0.1158 -0.1970  0.3150
 1299SOL    HW115530   0.121   3.742  10.007 -0.9325 -1.9504 -0.4596
 1299SOL    HW215531   0.136   3.852   9.909  1.8034 -0.9396  2.1499
 1300SOL     OW15532   2.135   4.100  10.988  0.4998  0.1898  0.2051
 1300SOL    HW115533   2.208   4.161  10.976  0.5350 -0.0963 -0.9967
 1300SOL    HW215534   2.173   4.016  10.963 -1.7105 -0.6667 -0.2409
 1301SOL     OW15535   2.888   4.483   0.033  0.2691  0.1292 -0.5651
 1301SOL    HW115536   2.945   4.554   0.004  0.2027  0.5908  0.4254
 1301SOL    HW215537   2.812   4.496  17.723 -0.0089  0.9675  0.0055
 1302SOL     OW15538   3.352   0.079   4.429  0.6275 -0.3320  0.2459
 1302SOL    HW115539   3.316   4.734   4.462  1.0132 -0.3519  0.6270
 1302SOL    HW215540   3.389   0.045   4.348 -1.1947 -1.8507  0.0708
 1303SOL     OW15541   4.141   4.222   8.741  0.1259  0.3757 -0.2442
 1303SOL    HW115542   4.176   4.155   8.800 -0.5859  0.4651  0.2770
 1303SOL    HW215543   4.174   4.301   8.783  0.6612 -1.2476  2.3715
 1304SOL     OW15544   3.538   2.586   8.003 -0.1077  0.7791  0.2992
 1304SOL    HW115545   3.515   2.570   8.095  2.4505 -0.4820  0.7439
 1304SOL    HW215546   3.611   2.524   7.998 -1.2141 -0.6248  1.4238
 1305SOL     OW15547   0.416   2.526   7.717 -0.3149  0.1566 -0.7575
 1305SOL    HW115548   0.352   2.486   7.657 -1.1738  0.5457 -0.0948
 1305SOL    HW215549   0.373   2.592   7.771  0.1047  1.2882 -1.8126
 1306SOL     OW15550   2.427   1.122  14.149 -0.3246 -0.3434  0.2242
 1306SOL    HW115551   2.519   1.119  14.173 -0.3713 -0.2304  0.4226
 1306SOL    HW215552   2.419   1.074  14.067 -0.5703 -0.5292  0.3555
 1307SOL     OW15553   4.047   3.383   3.921 -0.1588  0.3953 -0.0638
 1307SOL    HW115554   4.033   3.477   3.909  2.5731  0.7453 -0.3883
 1307SOL    HW215555   4.051   3.378   4.016  1.4682 -0.8069 -0.1998
 1308SOL     OW15556   0.282   1.729   2.709 -0.4888 -0.4367  0.3787
 1308SOL    HW115557   0.249   1.668   2.643  1.2835  0.1075 -1.0191
 1308SOL    HW215558   0.219   1.709   2.778  2.0705 -0.6751  2.6560
 1309SOL     OW15559   3.670   2.341   8.424 -0.5373  0.3330  0.4630
 1309SOL    HW115560   3.705   2.287   8.495  0.1906 -0.0407 -0.1716
 1309SOL    HW215561   3.728   2.412   8.451 -1.5457  1.8825 -1.4179
 1310SOL     OW15562   2.304   2.560   3.081  0.0454 -0.0296 -0.3445
 1310SOL    HW115563   2.382   2.614   3.069  0.4345 -0.9477 -2.0784
 1310SOL    HW215564   2.234   2.622   3.059  0.6196  0.9742  0.6942
 1311SOL     OW15565   1.248   1.609   4.642  0.2375 -0.1264  0.6030
 1311SOL    HW115566   1.255   1.561   4.560 -2.3051 -1.2165  1.0269
 1311SOL    HW215567   1.321   1.670   4.632 -1.8709  2.0293 -1.5072
 1312SOL     OW15568   4.186   0.053  16.861 -0.0801  0.0332  0.2367
 1312SOL    HW115569   4.205   4.700  16.886  1.4227  0.8188  1.9046
 1312SOL    HW215570   4.261   0.060  16.802  0.9294 -0.8136  1.4299
 1313SOL     OW15571   0.111   2.432   9.318 -0.1770  0.4132  0.6647
 1313SOL    HW115572   0.052   2.505   9.336  0.4015  0.9133  0.5399
 1313SOL    HW215573   0.104   2.421   9.223 -0.6809  5.0793  0.1473
 1314SOL     OW15574   0.598   2.693   1.888  0.0839  0.0790 -0.3694
 1314SOL    HW115575   0.601   2.739   1.805  0.3692 -1.7409 -1.3633
 1314SOL    HW215576   0.610   2.762   1.953  1.3804 -1.8607  1.4618
 1315SOL     OW15577   4.318   4.265   8.202 -0.0203  0.4133  0.3821
 1315SOL    HW115578   4.405   4.241   8.169 -0.5048 -1.1409  0.2337
 1315SOL    HW215579   4.327   4.225   8.289  0.5394 -0.2671  0.0189
 1316SOL     OW15580   0.876   0.517   2.452 -0.4102  0.5797 -1.0095
 1316SOL    HW115581   0.818   0.444   2.432  0.0826  0.0601 -0.5478
 1316SOL    HW215582   0.814   0.586   2.479 -0.5916 -0.0161  0.1086
 1317SOL     OW15583   3.593   0.310  16.484 -0.2205 -0.5541  0.2036
 1317SOL    HW115584   3.547   0.393  16.469  2.4927  0.9614  0.1679
 1317SOL    HW215585   3.674   0.319  16.433 -2.0376  1.7135 -2.3330
 1318SOL     OW15586   3.724   2.063   1.862 -0.6346 -0.5521 -0.5554
 1318SOL    HW115587   3.672   2.011   1.800 -1.8053  0.5188 -0.4519
 1318SOL    HW215588   3.811   2.028   1.841 -0.6044 -0.0840 -1.2122
 1319SOL     OW15589   4.715   1.240   7.186  0.1665  0.2910 -0.3021
 1319SOL    HW115590   4.690   1.234   7.278  2.0667 -3.2391 -0.0420
 1319SOL    HW215591   4.709   1.335   7.175  0.4682  0.3202 -0.2205
 1320SOL     OW15592   0.896   2.357   3.848  0.4622  0.2619 -0.2317
 1320SOL    HW115593   0.916   2.425   3.912  0.2409 -0.1206  0.2445
 1320SOL    HW215594   0.981   2.315   3.860  0.9121  0.9639 -0.9816
 1321SOL     OW15595   0.368   2.759   4.043  0.4580 -0.6418 -0.1109
 1321SOL    HW115596   0.323   2.842   4.060  1.6556  0.5122 -2.5932
 1321SOL    HW215597   0.445   2.783   4.094  0.7656 -0.4520 -0.6665
 1322SOL     OW15598   2.669   3.863   5.283  0.0151  0.3007  0.2194
 1322SOL    HW115599   2.708   3.834   5.200 -0.5462 -2.7783  1.0575
 1322SOL    HW215600   2.579   3.841   5.259 -0.3080  1.4858  0.3667
 1323SOL     OW15601   2.628   0.454   1.841  0.9274 -0.3325 -0.4146
 1323SOL    HW115602   2.561   0.452   1.773  0.4885 -0.2442  0.0142
 1323SOL    HW215603   2.706   0.428   1.793 -0.0216 -0.4007 -1.9076
 1324SOL     OW15604   0.662   3.950   8.416 -0.2621  0.1285  0.0849
 1324SOL    HW115605   0.573   3.932   8.387 -0.1502 -1.3275  0.6639
 1324SOL    HW215606   0.646   3.952   8.510 -2.2139 -1.5832 -0.2266
 1325SOL     OW15607   3.381   2.677   8.513  0.4605 -0.1967  0.0066
 1325SOL    HW115608   3.328   2.693   8.591  0.7873 -1.0015  0.3929
 1325SOL    HW215609   3.321   2.644   8.447  1.4749 -1.6489 -0.1855
 1326SOL     OW15610   1.880   1.492   9.286 -0.1545  0.3163  0.3366
 1326SOL    HW115611   1.862   1.409   9.243  0.3200  0.4006 -0.0220
 1326SOL    HW215612   1.918   1.468   9.370 -2.3244  2.5693  1.9548
 1327SOL     OW15613   2.948   1.432   3.886  0.1393 -0.0450 -0.0076
 1327SOL    HW115614   2.948   1.410   3.979  0.4565  0.3555  0.0856
 1327SOL    HW215615   3.038   1.463   3.877 -1.2946  4.3490  0.9121
 1328SOL     OW15616   4.026   1.328   9.932  0.0998 -0.1819 -0.2152
 1328SOL    HW115617   4.082   1.301  10.005  1.1309 -0.1700 -0.9962
 1328SOL    HW215618   4.068   1.411   9.907  0.1002  0.1213  0.7950
 1329SOL     OW15619   3.636   0.660   1.796  0.1665 -0.1127 -0.8759
 1329SOL    HW115620   3.563   0.678   1.736 -0.7979  0.4718  0.4558
 1329SOL    HW215621   3.588   0.625   1.872  3.0076 -2.6797 -0.2525
 1330SOL     OW15622   1.685   2.327   3.899  0.4379  0.1941  0.1186
 1330SOL    HW115623   1.674   2.301   3.807  0.0524  0.1318  0.1826
 1330SOL    HW215624   1.677   2.242   3.941 -1.0883  0.0510 -0.4408
 1331SOL     OW15625   3.359   1.523   6.281 -0.8337  0.6626 -0.1825
 1331SOL    HW115626   3.408   1.497   6.359 -0.0955 -0.6883 -1.0954
 1331SOL    HW215627   3.426   1.529   6.213  0.7720 -4.9829  0.8627
 1332SOL     OW15628   3.948   3.441   2.494  0.6119  0.2959 -0.3207
 1332SOL    HW115629   3.904   3.364   2.529  1.9304 -1.3670 -2.3482
 1332SOL    HW215630   4.026   3.419   2.443  1.0733  0.2804  0.3946
 1333SOL     OW15631   2.391   1.653   5.229 -0.0973 -0.5765  0.4923
 1333SOL    HW115632   2.381   1.697   5.313 -2.0736 -1.2108  0.5907
 1333SOL    HW215633   2.403   1.564   5.263  2.9513 -0.3980 -0.1679
 1334SOL     OW15634   3.570   0.488   2.000  0.3830  0.0188  0.3802
 1334SOL    HW115635   3.607   0.405   2.031 -0.1150  0.2250  1.5255
 1334SOL    HW215636   3.546   0.531   2.082 -0.9031 -0.8360  0.4400
 1335SOL     OW15637   0.543   0.696  15.050  0.2390  0.0295 -0.2831
 1335SOL    HW115638   0.497   0.653  14.978  0.2015 -1.3971  0.5820
 1335SOL    HW215639   0.633   0.670  15.031  0.5096 -0.3676  1.4658
 1336SOL     OW15640   1.967   2.166   7.112 -0.6140 -0.1465 -0.0226
 1336SOL    HW115641   2.021   2.183   7.035  0.6679  1.1834  1.1625
 1336SOL    HW215642   1.945   2.256   7.137  1.3108  0.5540 -0.8690
 1337SOL     OW15643   3.830   3.133  11.482 -0.2392  0.1583 -0.0739
 1337SOL    HW115644   3.810   3.052  11.529 -1.6007  0.5795  0.0832
 1337SOL    HW215645   3.798   3.109  11.395  0.0488  1.0828 -0.4298
 1338SOL     OW15646   3.671   0.118  14.986  0.6170 -0.2442 -0.3405
 1338SOL    HW115647   3.603   0.050  14.989 -0.4892  0.8772 -0.0250
 1338SOL    HW215648   3.660   0.147  14.896  3.0665  0.9368 -0.2386
 1339SOL     OW15649   0.024   2.552  13.182  0.8013 -0.3685  0.2314
 1339SOL    HW115650   0.040   2.618  13.114 -1.5489 -0.9978 -0.9224
 1339SOL    HW215651   0.114   2.521  13.178  0.1473 -2.1797 -0.5184
 1340SOL     OW15652   1.485   0.577  17.700 -0.0364 -0.2622 -0.6892
 1340SOL    HW115653   1.464   0.537  17.615  0.2432 -0.4843 -0.6529
 1340SOL    HW215654   1.427   0.526   0.010  0.1447  0.7443  0.4040
 1341SOL     OW15655   4.657   3.482   6.089  0.6827 -0.1337 -0.8066
 1341SOL    HW115656   4.572   3.442   6.106  2.3451 -2.9261  0.9919
 1341SOL    HW215657   4.686   3.497   6.179 -1.8256 -0.6155  0.0703
 1342SOL     OW15658   1.777   1.963   0.101 -0.0817  0.2549  0.0326
 1342SOL    HW115659   1.841   1.892   0.101  0.3362  0.6272 -0.2262
 1342SOL    HW215660   1.753   1.979   0.010 -1.3428  1.5928  0.5988
 1343SOL     OW15661   3.357   1.267   3.126  0.3306 -0.1373 -0.3299
 1343SOL    HW115662   3.269   1.297   3.148 -0.2760 -2.2648  0.1144
 1343SOL    HW215663   3.330   1.175   3.123 -1.1571  0.2775  0.8062
 1344SOL     OW15664   4.695   1.730  10.717 -0.7581  0.4782  0.2382
 1344SOL    HW115665   4.692   1.652  10.772 -0.1582  0.1015 -0.2687
 1344SOL    HW215666   4.607   1.763  10.735 -0.5119  1.1906  0.1407
 1345SOL     OW15667   1.551   3.922   4.614  0.1966 -0.0691  0.7184
 1345SOL    HW115668   1.558   4.009   4.654 -0.9759  2.3668 -4.3900
 1345SOL    HW215669   1.527   3.868   4.689 -2.0615  2.2965  1.6847
 1346SOL     OW15670   0.975   0.049   9.376 -0.0744  0.5279  0.2575
 1346SOL    HW115671   0.958   4.694   9.357  1.5761  0.4456 -0.8176
 1346SOL    HW215672   0.968   0.094   9.292  1.2347  1.1224  0.4731
 1347SOL     OW15673   3.051   3.126   6.648  0.2037  0.2786  0.4915
 1347SOL    HW115674   2.997   3.195   6.610 -2.6888 -0.6338  2.9590
 1347SOL    HW215675   2.998   3.098   6.723 -0.0043 -1.9317 -0.4703
 1348SOL     OW15676   3.839   1.727   2.165 -0.1031  0.7932  0.0164
 1348SOL    HW115677   3.785   1.797   2.201  1.6153  1.8757  0.4902
 1348SOL    HW215678   3.781   1.669   2.115  0.5974 -1.3100  1.6203
 1349SOL     OW15679   0.052   0.529  16.674  0.1663  0.3599  0.0686
 1349SOL    HW115680   0.028   0.568  16.589 -0.1416 -0.5581 -0.2706
 1349SOL    HW215681   0.114   0.592  16.710  1.2234 -1.5077  1.4957
 1350SOL     OW15682   3.163   3.739  16.806 -0.4410 -0.3429  0.5296
 1350SOL    HW115683   3.178   3.829  16.836  0.7437 -0.6939  0.9884
 1350SOL    HW215684   3.121   3.750  16.720 -1.5996 -1.1208  0.9896
 1351SOL     OW15685   3.114   0.439  11.564 -0.7382 -0.0911  0.0516
 1351SOL    HW115686   3.183   0.500  11.591 -0.6809 -0.7305  1.3377
 1351SOL    HW215687   3.163   0.370  11.519 -0.6081  1.4587 -2.1946
 1352SOL     OW15688   1.224   4.202  14.899  0.0532  0.5148 -0.3283
 1352SOL    HW115689   1.283   4.278  14.903 -1.4506  1.6775 -0.1558
 1352SOL    HW215690   1.160   4.230  14.965  1.5183  0.9918  0.8949
 1353SOL     OW15691   1.793   1.550   7.365  0.5408 -0.0914 -0.0042
 1353SOL    HW115692   1.706   1.516   7.347  0.6139 -1.0142  1.3446
 1353SOL    HW215693   1.790   1.558   7.461  2.7381  0.7124 -0.0023
 1354SOL     OW15694   1.913   1.099   2.063 -0.4510 -0.1901  0.0699
 1354SOL    HW115695   1.874   1.026   2.111  0.9882 -0.9164  0.1145
 1354SOL    HW215696   1.861   1.166   2.107  1.3171  1.0500  0.2470
 1355SOL     OW15697   0.707   0.507   0.790  0.1235 -0.1184  0.6079
 1355SOL    HW115698   0.742   0.422   0.766 -0.1236 -0.6498  2.1529
 1355SOL    HW215699   0.764   0.571   0.746  0.1254 -1.2300 -1.0218
 1356SOL     OW15700   1.440   4.549  11.345  0.4616  1.0968 -0.1470
 1356SOL    HW115701   1.364   4.607  11.344 -0.5865 -0.2658 -0.0722
 1356SOL    HW215702   1.417   4.497  11.423 -0.6620  2.0074  0.1165
 1357SOL     OW15703   1.952   0.068   6.070 -0.5776  0.1802 -0.1770
 1357SOL    HW115704   1.879   0.005   6.071  0.1325 -0.6266  1.3073
 1357SOL    HW215705   1.942   0.109   5.985 -0.2278 -0.9227 -0.7539
 1358SOL     OW15706   4.394   2.244   2.187  0.0576 -0.0013 -0.0131
 1358SOL    HW115707   4.427   2.250   2.098  0.7163  0.0680  0.2331
 1358SOL    HW215708   4.422   2.329   2.221 -0.8750 -0.0653  0.9312
 1359SOL     OW15709   4.687   2.541   9.674 -0.2532  0.5877  0.5718
 1359SOL    HW115710   0.035   2.504   9.651 -1.2346 -0.5399 -1.2327
 1359SOL    HW215711   4.693   2.508   9.764  0.1264 -0.3032  0.2280
 1360SOL     OW15712   3.778   4.285   9.340  0.3338  0.3181 -0.5855
 1360SOL    HW115713   3.750   4.194   9.352 -1.4610  0.7368 -1.5065
 1360SOL    HW215714   3.725   4.327   9.408 -3.0644 -1.0916 -2.3324
 1361SOL     OW15715   4.484   3.458   3.342 -0.7457  0.1885 -0.2494
 1361SOL    HW115716   4.491   3.412   3.425 -0.2706  2.1771  0.8224
 1361SOL    HW215717   4.421   3.531   3.349  0.5498  1.3442 -0.6382
 1362SOL     OW15718   1.160   2.399   8.443 -0.3570 -0.3028  0.1579
 1362SOL    HW115719   1.117   2.480   8.472 -1.4273 -0.2220 -1.6380
 1362SOL    HW215720   1.166   2.345   8.522  1.1629  1.0520  0.9787
 1363SOL     OW15721   1.558   0.443   2.249  0.0017 -0.6068  0.0525
 1363SOL    HW115722   1.573   0.520   2.304 -1.6061  0.3625 -0.8754
 1363SOL    HW215723   1.518   0.388   2.316 -1.4556  0.9690  0.4564
 1364SOL     OW15724   0.101   0.531   3.050 -0.0097 -0.6331 -0.3853
 1364SOL    HW115725   0.031   0.572   2.999 -0.4052  0.5981  1.1531
 1364SOL    HW215726   0.151   0.607   3.078 -0.7709 -0.4490  0.4546
 1365SOL     OW15727   1.907   0.864  10.839 -0.6661 -0.4032  0.0750
 1365SOL    HW115728   1.861   0.942  10.870 -1.3702 -0.3486 -1.1373
 1365SOL    HW215729   1.998   0.893  10.850 -0.8832  0.7112 -1.0471
 1366SOL     OW15730   0.441   3.696   5.126  0.4373 -0.1201  0.1461
 1366SOL    HW115731   0.432   3.772   5.184 -0.1252 -0.1987  0.1610
 1366SOL    HW215732   0.489   3.741   5.057  1.6062 -1.4384  0.0944
 1367SOL     OW15733   2.499   4.031   3.270  0.7057  0.6589  0.2894
 1367SOL    HW115734   2.403   4.027   3.271  0.6407  1.6727 -1.7404
 1367SOL    HW215735   2.517   4.098   3.205 -1.7188  2.3142  1.3473
 1368SOL     OW15736   2.721   4.055   3.006  0.0362  0.2362 -0.3663
 1368SOL    HW115737   2.661   4.127   2.987 -3.5067 -2.7322 -0.5431
 1368SOL    HW215738   2.664   3.979   2.992  0.9294 -0.2504 -1.3571
 1369SOL     OW15739   3.427   3.608   4.790  0.3036 -0.0357 -0.2904
 1369SOL    HW115740   3.512   3.571   4.814  0.1052  0.5819  1.4139
 1369SOL    HW215741   3.382   3.594   4.874  2.2209 -0.4400  0.6735
 1370SOL     OW15742   2.458   2.013  10.957 -0.0901  0.1229 -0.1301
 1370SOL    HW115743   2.552   2.023  10.967  0.3988 -4.0131 -0.7087
 1370SOL    HW215744   2.446   2.093  10.906  0.9202 -0.0982 -0.6929
 1371SOL     OW15745   2.763   2.008   8.825 -0.1770  0.5929  0.4909
 1371SOL    HW115746   2.691   1.975   8.879 -0.8044  0.7774 -0.2401
 1371SOL    HW215747   2.817   1.930   8.833  1.0828  1.3369 -0.9235
 1372SOL     OW15748   2.746   4.051   8.232 -0.3786 -0.1321  0.2620
 1372SOL    HW115749   2.717   4.014   8.149  2.3638 -0.7567 -0.4004
 1372SOL    HW215750   2.700   4.136   8.239 -1.0135 -0.3876 -0.8053
 1373SOL     OW15751   2.173   3.493  16.713  0.1668  0.1455  0.0026
 1373SOL    HW115752   2.194   3.483  16.620  0.5377  0.8066  0.0165
 1373SOL    HW215753   2.236   3.437  16.759 -1.9425 -0.9171  1.6415
 1374SOL     OW15754   4.041   4.731  12.482 -0.5109  0.4801  0.2293
 1374SOL    HW115755   3.961   4.680  12.467  0.4398 -0.5239 -1.3643
 1374SOL    HW215756   4.034   0.052  12.407 -2.2533  1.1563  0.9132
 1375SOL     OW15757   2.407   1.346  13.895  0.1111  0.0159  0.4754
 1375SOL    HW115758   2.482   1.404  13.890  0.2541 -0.1017  1.3093
 1375SOL    HW215759   2.344   1.404  13.936  0.4256  0.3487  0.4811
 1376SOL     OW15760   1.298   3.331  11.493  0.3101 -0.4350  0.1182
 1376SOL    HW115761   1.250   3.292  11.567 -1.1703 -0.3610 -0.7958
 1376SOL    HW215762   1.373   3.375  11.532  0.1011 -0.5319  0.6336
 1377SOL     OW15763   2.977   1.025  11.379 -0.2920 -0.0879 -0.5983
 1377SOL    HW115764   3.006   0.934  11.383 -1.0077 -0.2062  2.0034
 1377SOL    HW215765   2.994   1.039  11.286 -0.4943 -1.1205 -0.8002
 1378SOL     OW15766   1.351   3.704  17.207 -0.1151 -0.5115  0.2736
 1378SOL    HW115767   1.301   3.733  17.283  0.2595  0.7275  0.0543
 1378SOL    HW215768   1.313   3.753  17.134 -1.9757 -2.5977 -0.1486
 1379SOL     OW15769   2.818   1.699   8.240  0.3091 -0.2678 -0.7627
 1379SOL    HW115770   2.887   1.765   8.239 -0.3665  0.4454  0.0764
 1379SOL    HW215771   2.847   1.645   8.313  0.7315 -1.8928 -2.1317
 1380SOL     OW15772   4.490   4.585   5.021 -0.4174 -0.1728 -0.1711
 1380SOL    HW115773   4.472   4.492   5.031 -0.7696  0.1321  1.9181
 1380SOL    HW215774   4.459   4.615   5.106  1.1086 -1.9447  1.0024
 1381SOL     OW15775   2.575   3.025   2.775 -0.6472 -0.3373 -0.0248
 1381SOL    HW115776   2.559   2.937   2.741  1.3191 -0.2997 -1.0515
 1381SOL    HW215777   2.549   3.084   2.704 -0.3821 -0.3014 -0.0945
 1382SOL     OW15778   2.724   0.577   0.996 -0.6610  0.0099 -0.1256
 1382SOL    HW115779   2.772   0.507   1.039  1.6587  0.4842 -1.9043
 1382SOL    HW215780   2.737   0.576   0.901  1.5947  0.4347  0.1841
 1383SOL     OW15781   4.512   2.013  17.337 -0.0381 -0.2008 -0.3780
 1383SOL    HW115782   4.497   1.956  17.262  1.8409 -0.0878 -0.8408
 1383SOL    HW215783   4.465   2.091  17.307 -2.8322 -0.1935  3.9396
 1384SOL     OW15784   3.009   2.874   7.824  0.0980  0.2505  0.3733
 1384SOL    HW115785   3.079   2.934   7.800 -0.8060  0.6284 -1.3064
 1384SOL    HW215786   3.051   2.840   7.903  0.8497 -1.2414 -0.6863
 1385SOL     OW15787   0.248   4.511  16.301 -0.5062  0.3608 -0.1567
 1385SOL    HW115788   0.171   4.520  16.245 -0.8280  1.6607  0.4728
 1385SOL    HW215789   0.297   4.575  16.250 -2.4292  2.2457  0.3169
 1386SOL     OW15790   3.914   4.368  12.252  0.4062 -0.4401 -1.0137
 1386SOL    HW115791   3.828   4.368  12.295  0.8881 -0.2168 -0.0346
 1386SOL    HW215792   3.911   4.461  12.229 -0.1778 -0.7720 -2.2866
 1387SOL     OW15793   4.073   3.031   6.977 -0.2302 -0.1822 -0.7944
 1387SOL    HW115794   4.091   2.986   7.060 -0.4731 -0.9405 -1.1515
 1387SOL    HW215795   4.040   3.117   7.004 -1.7788 -0.4630 -1.8019
 1388SOL     OW15796   4.020   1.939   4.134  0.0616  0.2630 -0.2983
 1388SOL    HW115797   4.081   1.988   4.079 -0.0656 -0.0816 -0.7460
 1388SOL    HW215798   3.938   1.966   4.093  2.2854  2.0204 -3.5583
 1389SOL     OW15799   3.634   2.244  13.842  0.4658 -0.4029 -0.1212
 1389SOL    HW115800   3.571   2.176  13.866  0.4081  0.1707  1.3579
 1389SOL    HW215801   3.573   2.310  13.809  0.0461 -1.3038 -1.1508
 1390SOL     OW15802   4.311   2.458   4.596  0.1667  0.0486  0.1487
 1390SOL    HW115803   4.327   2.433   4.687 -2.5235  0.0758  0.6282
 1390SOL    HW215804   4.342   2.549   4.601 -2.9350  1.0978  0.3735
 1391SOL     OW15805   1.492   3.782   5.177  0.4337  0.2409 -0.1353
 1391SOL    HW115806   1.500   3.765   5.271  1.2685 -1.1907 -0.4574
 1391SOL    HW215807   1.547   3.859   5.164  0.2797  0.6087  1.3655
 1392SOL     OW15808   0.602   4.218   4.432 -0.3152 -0.3875  0.1049
 1392SOL    HW115809   0.552   4.138   4.420  0.2513 -1.0794  2.2383
 1392SOL    HW215810   0.583   4.248   4.521 -2.1594  2.0935 -1.1135
 1393SOL     OW15811   0.219   2.419  12.772 -0.0311 -0.0964 -0.3258
 1393SOL    HW115812   0.275   2.360  12.822 -0.8863 -1.6548 -1.2437
 1393SOL    HW215813   0.282   2.482  12.737 -0.2262 -0.3107 -1.0705
 1394SOL     OW15814   1.794   2.586   3.887  0.1521 -0.4169  0.0440
 1394SOL    HW115815   1.738   2.508   3.889 -2.1341  1.2232  0.0858
 1394SOL    HW215816   1.833   2.587   3.975 -2.4929 -0.9405  1.2095
 1395SOL     OW15817   0.080   0.622   5.782  0.6644 -0.2717  0.2531
 1395SOL    HW115818   0.046   0.533   5.788 -0.5636  0.1790 -0.0862
 1395SOL    HW215819   0.027   0.660   5.852  1.2747 -1.5830  1.4333
 1396SOL     OW15820   1.420   3.259  14.721 -0.0849 -0.4638  0.1488
 1396SOL    HW115821   1.506   3.254  14.763 -0.2694  1.5624  0.7927
 1396SOL    HW215822   1.447   3.274  14.631 -0.3510 -0.2610  0.1028
 1397SOL     OW15823   0.988   1.509   1.942 -0.1108 -0.5125 -0.0878
 1397SOL    HW115824   0.958   1.563   1.868  1.9070  1.0104  0.2288
 1397SOL    HW215825   1.058   1.556   1.987  0.4239  0.3351 -1.7981
 1398SOL     OW15826   4.198   3.776   2.730 -0.1995 -0.7126 -0.4475
 1398SOL    HW115827   4.272   3.810   2.680 -1.4147  0.8273 -1.1931
 1398SOL    HW215828   4.125   3.766   2.669  0.7733  0.9587 -1.8592
 1399SOL     OW15829   0.910   1.192  12.640 -0.3261 -0.0486  0.0975
 1399SOL    HW115830   0.905   1.188  12.544 -1.3039  1.6499  0.0683
 1399SOL    HW215831   0.943   1.106  12.666 -0.5751  0.2908  1.5509
 1400SOL     OW15832   2.397   2.017  14.556  0.1124  0.7695  0.5538
 1400SOL    HW115833   2.470   2.058  14.602  0.9262  0.5849 -0.5813
 1400SOL    HW215834   2.428   2.028  14.466 -0.2420  0.6492  0.4171
 1401SOL     OW15835   1.468   3.723   6.830 -0.5767  0.2021 -0.0232
 1401SOL    HW115836   1.390   3.667   6.830 -0.9227  0.6954  1.7197
 1401SOL    HW215837   1.509   3.698   6.748 -0.6949  2.6640 -0.8254
 1402SOL     OW15838   3.454   4.171   9.134  0.4707  0.0669  0.4407
 1402SOL    HW115839   3.431   4.078   9.141  2.5880 -0.4239  1.1440
 1402SOL    HW215840   3.367   4.210   9.144 -0.5042 -2.4681  1.9026
 1403SOL     OW15841   3.124   1.731   4.679 -0.4764 -0.1957  0.2137
 1403SOL    HW115842   3.155   1.760   4.765  0.2576  0.0100 -0.1210
 1403SOL    HW215843   3.204   1.689   4.648 -0.4903  0.2500 -0.4328
 1404SOL     OW15844   2.273   2.455   7.193  0.5228  0.3671  0.1135
 1404SOL    HW115845   2.306   2.517   7.259 -2.1902  2.0204 -0.0707
 1404SOL    HW215846   2.216   2.401   7.247  1.1335  0.7059  1.1053
 1405SOL     OW15847   1.542   2.238  10.959  0.1022 -0.1825 -0.4836
 1405SOL    HW115848   1.502   2.195  10.884 -0.2532 -0.6984 -0.0032
 1405SOL    HW215849   1.623   2.263  10.915  1.0407 -2.5293 -0.1106
 1406SOL     OW15850   4.729   4.513  16.856  0.2417 -0.1797  0.2277
 1406SOL    HW115851   0.014   4.480  16.943  0.5318 -2.0398 -0.5269
 1406SOL    HW215852   0.061   4.462  16.812  0.5118  1.1652 -0.8910
 1407SOL     OW15853   1.327   0.404  14.585  0.5386  0.1233 -0.4665
 1407SOL    HW115854   1.309   0.396  14.491 -0.1126  0.7696 -0.3985
 1407SOL    HW215855   1.243   0.440  14.612 -0.3857 -3.0080  0.8644
 1408SOL     OW15856   1.566   2.985   5.834 -0.4661  0.0833 -0.0106
 1408SOL    HW115857   1.539   3.003   5.743  0.3241 -0.0633 -0.2730
 1408SOL    HW215858   1.604   2.897   5.835 -1.6039 -0.4535 -2.6287
 1409SOL     OW15859   4.255   1.014  14.385 -0.2990 -0.3043  1.0461
 1409SOL    HW115860   4.334   1.067  14.377  0.5841 -1.7112  0.4768
 1409SOL    HW215861   4.241   0.999  14.291  1.2557 -0.5091  0.8461
 1410SOL     OW15862   1.852   2.495   6.488 -0.3688  0.6254 -0.5606
 1410SOL    HW115863   1.770   2.545   6.488  0.7297  2.4211 -0.4303
 1410SOL    HW215864   1.830   2.442   6.565  0.6747  1.0066 -0.0033
 1411SOL     OW15865   4.716   2.483   1.335  0.3183 -0.0449 -0.1235
 1411SOL    HW115866   4.677   2.406   1.293 -1.6176  1.8701 -1.8379
 1411SOL    HW215867   4.733   2.542   1.262 -0.2795 -1.4709 -1.4229
 1412SOL     OW15868   2.355   1.698   2.812 -0.0292 -0.1430  0.0957
 1412SOL    HW115869   2.416   1.685   2.885 -0.5113  0.7288  0.6548
 1412SOL    HW215870   2.285   1.744   2.858 -1.3844  0.7795 -2.9165
 1413SOL     OW15871   0.156   1.824  10.004 -0.0600 -0.3158  0.0176
 1413SOL    HW115872   0.225   1.814  10.070 -0.4737 -0.5501  0.4129
 1413SOL    HW215873   0.081   1.836  10.062  0.7108  0.8362  0.7911
 1414SOL     OW15874   3.240   0.337   3.667  0.2047 -0.2858 -0.0195
 1414SOL    HW115875   3.245   0.248   3.632  2.0347  0.6259 -2.1274
 1414SOL    HW215876   3.319   0.369   3.623 -0.0458  0.9230  0.4106
 1415SOL     OW15877   1.241   3.998   2.663  0.3886 -0.5624  0.1972
 1415SOL    HW115878   1.318   4.049   2.638  2.3453 -3.2070  0.9547
 1415SOL    HW215879   1.253   3.979   2.756 -0.9088 -0.1832  0.4559
 1416SOL     OW15880   2.453   0.079  10.642  0.3745 -0.3932 -0.3304
 1416SOL    HW115881   2.410   0.164  10.655 -0.4077 -0.9913  1.0272
 1416SOL    HW215882   2.429   0.042  10.727 -0.5667  0.8054 -0.0740
 1417SOL     OW15883   1.467   1.130   0.687 -0.0133  0.7591  0.1958
 1417SOL    HW115884   1.471   1.083   0.604  0.6737  2.3920 -0.7061
 1417SOL    HW215885   1.442   1.216   0.654 -0.7924  0.4032 -0.1345
 1418SOL     OW15886   2.380   0.285   2.721  0.1461 -0.1160 -0.4476
 1418SOL    HW115887   2.316   0.355   2.708  1.5056  0.9522 -1.4277
 1418SOL    HW215888   2.330   0.204   2.709  3.2668 -1.6812 -2.8110
 1419SOL     OW15889   3.142   2.676   7.247 -0.0097  0.0031  0.1631
 1419SOL    HW115890   3.135   2.757   7.297  0.0813  2.3776 -3.7211
 1419SOL    HW215891   3.236   2.664   7.257  0.0196 -0.6423 -0.8965
 1420SOL     OW15892   1.099   2.229   7.390  0.1281  0.3425  0.1096
 1420SOL    HW115893   1.194   2.215   7.397  0.5523  1.5749 -2.8924
 1420SOL    HW215894   1.097   2.324   7.373  4.2107  0.1159 -1.8490
 1421SOL     OW15895   1.752   2.805  14.962 -0.3533 -0.1727  0.0068
 1421SOL    HW115896   1.801   2.731  14.998  1.0275  1.5656  1.6840
 1421SOL    HW215897   1.810   2.882  14.960 -1.6805  0.8560  1.5483
 1422SOL     OW15898   4.495   0.328  10.612 -0.0719 -0.1403  0.1014
 1422SOL    HW115899   4.440   0.280  10.551  0.3491 -0.9874  0.3980
 1422SOL    HW215900   4.580   0.334  10.569 -0.6742 -0.1134 -1.0766
 1423SOL     OW15901   1.270   4.151   7.078 -0.0902 -0.7630 -0.0626
 1423SOL    HW115902   1.175   4.166   7.079  0.4351  2.6043 -1.1069
 1423SOL    HW215903   1.263   4.063   7.041  2.4985  0.1338 -2.6863
 1424SOL     OW15904   1.947   1.475   2.511  0.0386  0.0013  0.7135
 1424SOL    HW115905   1.992   1.555   2.482 -0.1752 -0.2555 -0.3333
 1424SOL    HW215906   1.946   1.484   2.606 -0.9836  1.6698  0.5390
 1425SOL     OW15907   4.564   4.320   8.114 -0.1348 -0.1524 -0.5400
 1425SOL    HW115908   4.637   4.366   8.073 -1.1728  0.4956 -1.6566
 1425SOL    HW215909   4.519   4.302   8.032  0.2487  3.9969 -1.6719
 1426SOL     OW15910   4.123   4.727   3.526  0.1076 -0.1433 -0.5455
 1426SOL    HW115911   4.060   4.663   3.492 -1.0052  0.7204 -0.1280
 1426SOL    HW215912   4.195   4.690   3.476  0.0666 -0.4612 -0.3692
 1427SOL     OW15913   2.427   3.813   6.177 -0.5466  0.1870  0.3595
 1427SOL    HW115914   2.336   3.802   6.151  0.4327 -0.0328 -3.0945
 1427SOL    HW215915   2.445   3.902   6.144 -0.1366  0.3103  0.9061
 1428SOL     OW15916   1.743   2.329   5.698 -0.3834 -0.0280  0.7003
 1428SOL    HW115917   1.817   2.390   5.692 -1.9040  1.7541  0.1085
 1428SOL    HW215918   1.711   2.331   5.788 -0.5478  2.4070  0.5793
 1429SOL     OW15919   2.484   1.804   3.147  0.2776  0.4013 -0.3732
 1429SOL    HW115920   2.446   1.890   3.165 -0.0709  0.3329 -0.7997
 1429SOL    HW215921   2.530   1.807   3.063  1.5311  0.2350  0.2957
 1430SOL     OW15922   0.345   1.585  11.761  0.3954 -0.5583  0.2989
 1430SOL    HW115923   0.269   1.631  11.726  0.1548 -0.6650  0.6845
 1430SOL    HW215924   0.381   1.660  11.809  0.0428  0.1934 -0.5990
 1431SOL     OW15925   1.920   2.712  12.032 -0.4188 -0.2387 -0.0003
 1431SOL    HW115926   1.830   2.714  11.999  0.2447 -0.6030 -1.8025
 1431SOL    HW215927   1.944   2.621  12.053 -1.5357 -0.1291  1.7311
 1432SOL     OW15928   2.278   1.662   8.334 -0.0445 -0.2305 -0.2548
 1432SOL    HW115929   2.287   1.568   8.352 -0.3703 -0.3245 -0.5910
 1432SOL    HW215930   2.363   1.680   8.294  1.1348 -2.5926  1.1216
 1433SOL     OW15931   2.794   0.506  12.675  0.4019 -0.3020 -0.5237
 1433SOL    HW115932   2.876   0.510  12.624  0.6951  2.4638  0.1989
 1433SOL    HW215933   2.729   0.561  12.632  0.1109 -0.2157  0.0450
 1434SOL     OW15934   0.701   4.625   3.643  0.4224 -0.2096  0.6300
 1434SOL    HW115935   0.695   4.529   3.645  0.5273 -0.1656  2.4857
 1434SOL    HW215936   0.755   4.637   3.720  0.5756 -2.1726  0.8346
 1435SOL     OW15937   1.267   3.034  14.703 -0.2083 -0.3109  0.3040
 1435SOL    HW115938   1.337   2.968  14.703  2.1004  2.1144  1.8071
 1435SOL    HW215939   1.321   3.111  14.685  1.5938 -1.7204 -0.4041
 1436SOL     OW15940   4.143   2.893   6.377 -0.2936 -0.3410 -0.1501
 1436SOL    HW115941   4.113   2.962   6.317 -2.2225 -1.0114  0.0355
 1436SOL    HW215942   4.169   2.944   6.454 -1.7903  1.0744 -0.5585
 1437SOL     OW15943   0.869   2.157   7.539  0.2691  0.3193 -0.1011
 1437SOL    HW115944   0.953   2.199   7.524  0.4589 -0.4639 -1.2975
 1437SOL    HW215945   0.813   2.209   7.482  0.3501 -0.2197 -0.6771
 1438SOL     OW15946   3.444   2.832  16.010 -0.0260 -0.0850  0.4779
 1438SOL    HW115947   3.412   2.766  16.072 -1.1643  1.6534  1.7577
 1438SOL    HW215948   3.519   2.868  16.058 -2.0323  3.3911  1.0247
 1439SOL     OW15949   0.415   4.717   8.012 -0.6291  0.4010 -0.4689
 1439SOL    HW115950   0.376   4.630   8.021  0.9717 -0.3300 -0.5451
 1439SOL    HW215951   0.418   4.723   7.916 -0.2003  0.5961 -0.4431
 1440SOL     OW15952   1.923   3.149  12.248  0.1147 -0.0742 -0.3846
 1440SOL    HW115953   1.928   3.228  12.302 -1.4845  0.9019 -1.6432
 1440SOL    HW215954   2.015   3.133  12.226 -0.2501 -1.7745 -0.6798
 1441SOL     OW15955   2.585   0.967   1.070 -0.2617 -0.3190  0.0476
 1441SOL    HW115956   2.635   1.027   1.015 -1.0074  0.4177  0.1697
 1441SOL    HW215957   2.513   1.024   1.097 -0.6151 -0.1042 -1.3772
 1442SOL     OW15958   4.459   3.851   6.283 -0.1345 -0.3357 -0.2668
 1442SOL    HW115959   4.421   3.923   6.333  1.0378  0.3296 -0.3393
 1442SOL    HW215960   4.536   3.837   6.338 -0.1651 -2.2473 -0.7076
 1443SOL     OW15961   1.160   2.061   2.754  0.1723  0.4609  0.6533
 1443SOL    HW115962   1.069   2.065   2.783  1.0238  0.1401  3.4745
 1443SOL    HW215963   1.168   1.972   2.722 -1.7361  1.2566 -1.9701
 1444SOL     OW15964   4.597   0.167   6.416 -0.1976  0.6666  0.1009
 1444SOL    HW115965   4.674   0.211   6.380 -1.2668  1.2454 -1.4939
 1444SOL    HW215966   4.582   0.103   6.347 -0.2417  0.3169  0.4339
 1445SOL     OW15967   2.276   1.186   4.120 -0.0095  0.0402 -0.1855
 1445SOL    HW115968   2.266   1.231   4.204 -1.6370 -0.8141  0.0772
 1445SOL    HW215969   2.309   1.262   4.071 -0.2403  1.7487  2.3452
 1446SOL     OW15970   2.243   2.224   7.847 -0.0210  0.4190  0.3055
 1446SOL    HW115971   2.332   2.198   7.823 -0.2680  0.3275 -0.5401
 1446SOL    HW215972   2.242   2.207   7.941  1.6351  1.8985  0.5767
 1447SOL     OW15973   3.747   3.258   7.749  0.1503 -0.1077 -0.1086
 1447SOL    HW115974   3.721   3.190   7.812  1.3584  0.4226  0.9664
 1447SOL    HW215975   3.778   3.332   7.801 -1.6505  1.1152 -0.7753
 1448SOL     OW15976   4.412   4.330   4.531  0.3414  0.6977  0.3797
 1448SOL    HW115977   4.386   4.421   4.539  0.0923  0.5315  1.4265
 1448SOL    HW215978   4.374   4.304   4.615  0.1817  1.4583  0.5425
 1449SOL     OW15979   0.759   0.522  11.292  0.3810  0.0524  0.4450
 1449SOL    HW115980   0.714   0.602  11.316 -1.2316  0.0593 -2.5802
 1449SOL    HW215981   0.829   0.544  11.230  1.0302 -1.5176  0.6130
 1450SOL     OW15982   0.653   3.890   8.688  0.0314 -0.3068  0.0816
 1450SOL    HW115983   0.648   3.873   8.782  0.8837 -0.7387  0.0563
 1450SOL    HW215984   0.660   3.798   8.662  0.6498 -0.2336 -0.0281
 1451SOL     OW15985   4.511   3.675   2.687 -0.8961  0.6071  0.6790
 1451SOL    HW115986   4.589   3.682   2.741 -0.0585  2.8735 -0.8028
 1451SOL    HW215987   4.450   3.735   2.731  1.3307  2.0204  1.8272
 1452SOL     OW15988   2.901   2.829  15.668 -0.4563  0.6052  0.3746
 1452SOL    HW115989   2.948   2.765  15.721 -0.2049 -1.3951 -2.2554
 1452SOL    HW215990   2.821   2.780  15.654  0.6016 -0.8244 -0.6426
 1453SOL     OW15991   2.389   2.033   6.339  0.0189  0.0518  0.1380
 1453SOL    HW115992   2.469   1.987   6.317 -0.6248  0.3522 -2.8567
 1453SOL    HW215993   2.429   2.108   6.382 -0.0595  0.6760 -0.8823
 1454SOL     OW15994   3.376   4.013  11.357 -0.0492 -0.0571  0.3628
 1454SOL    HW115995   3.449   4.004  11.419  0.5652  0.3329 -0.3154
 1454SOL    HW215996   3.415   3.960  11.288  0.3437  1.1148 -0.3148
 1455SOL     OW15997   0.490   1.582   7.778  0.1434 -0.1509  0.2540
 1455SOL    HW115998   0.585   1.574   7.769  0.4084  2.0607  1.0110
 1455SOL    HW215999   0.483   1.618   7.867 -0.2588  2.2237 -0.7472
 1456SOL     OW16000   4.045   4.227   8.129 -0.2452  0.2868  0.0119
 1456SOL    HW116001   4.135   4.258   8.130 -0.1076 -0.0627 -3.2038
 1456SOL    HW216002   4.061   4.134   8.145 -3.7058 -0.3077  0.1495
 1457SOL     OW16003   3.072   2.344   6.335  0.0216 -0.4494  0.0812
 1457SOL    HW116004   3.140   2.283   6.364  0.5483 -0.8451 -1.9841
 1457SOL    HW216005   3.118   2.386   6.262  0.6837 -0.8321  0.2806
 1458SOL     OW16006   3.560   0.109   9.035 -0.6108  0.1430  0.4536
 1458SOL    HW116007   3.642   0.121   9.083 -0.1110 -0.1724 -0.3160
 1458SOL    HW216008   3.490   0.129   9.098 -0.8022  1.3750 -0.1505
 1459SOL     OW16009   0.441   2.943   6.998 -0.7770 -0.4905 -0.3634
 1459SOL    HW116010   0.372   3.007   7.014  0.0656  0.4050 -0.3085
 1459SOL    HW216011   0.383   2.868   7.013 -1.2501 -0.3632 -1.5101
 1460SOL     OW16012   1.623   0.864   8.696 -0.4319 -0.0942 -0.0315
 1460SOL    HW116013   1.676   0.866   8.776 -1.1659  2.0226  0.4021
 1460SOL    HW216014   1.689   0.899   8.636 -1.5828  0.1979 -1.1293
 1461SOL     OW16015   4.303   2.582  15.309 -0.4461 -0.6197 -0.4849
 1461SOL    HW116016   4.220   2.596  15.355 -0.3248 -0.3889 -0.3369
 1461SOL    HW216017   4.347   2.564  15.392  1.1175 -4.7035 -2.1635
 1462SOL     OW16018   3.616   4.701   2.801  0.5977  0.7073  0.2917
 1462SOL    HW116019   3.593   0.052   2.772  0.0104 -0.2630 -2.1119
 1462SOL    HW216020   3.710   4.691   2.785  0.5494  0.9270 -0.1132
 1463SOL     OW16021   3.127   1.152   2.489 -0.2953  0.1814 -0.0061
 1463SOL    HW116022   3.138   1.073   2.543  0.1620  0.3654  0.1699
 1463SOL    HW216023   3.055   1.127   2.431  1.3512 -0.7662 -1.6485
 1464SOL     OW16024   0.031   4.372   3.334  0.0431  0.5250 -0.4026
 1464SOL    HW116025   4.681   4.382   3.295  0.5151  0.9578 -1.3611
 1464SOL    HW216026   0.081   4.428   3.274 -1.0594  1.1479 -0.7429
 1465SOL     OW16027   1.789   4.017   6.010  0.3493 -0.5555 -0.5880
 1465SOL    HW116028   1.746   3.939   5.975  0.1223 -0.1520 -1.1964
 1465SOL    HW216029   1.728   4.029   6.083  3.0182 -3.6807  2.1499
 1466SOL     OW16030   4.115   4.577   6.034  0.3372 -0.5349 -0.2967
 1466SOL    HW116031   4.201   4.536   6.046  0.9925  0.6898 -0.8598
 1466SOL    HW216032   4.112   4.585   5.939  0.8312  0.1764 -0.2485
 1467SOL     OW16033   4.631   0.238   7.183 -0.0454  0.3176 -0.0461
 1467SOL    HW116034   4.603   0.282   7.264 -0.5399 -0.4653  0.2032
 1467SOL    HW216035   4.626   0.309   7.120  0.5632  0.9513  0.6127
 1468SOL     OW16036   3.344   2.052  15.554  0.2093 -0.3845 -0.3805
 1468SOL    HW116037   3.369   2.133  15.510 -0.2764  0.6688  1.3094
 1468SOL    HW216038   3.260   2.038  15.509  0.1533  0.7902 -0.6307
 1469SOL     OW16039   4.478   3.487   4.062 -0.3580  0.1588  0.0925
 1469SOL    HW116040   4.393   3.511   4.098  1.0133  1.3934  2.4991
 1469SOL    HW216041   4.447   3.403   4.028 -0.0097  1.2089 -2.7565
 1470SOL     OW16042   1.842   1.904   1.068 -0.3298 -0.5856  0.4570
 1470SOL    HW116043   1.789   1.828   1.092 -1.2061 -0.1663 -0.1603
 1470SOL    HW216044   1.923   1.857   1.050 -1.6972 -2.7551 -0.0898
 1471SOL     OW16045   0.457   2.467   1.907  0.0009  0.0159  0.9945
 1471SOL    HW116046   0.517   2.399   1.938 -0.0313  0.2551  1.5817
 1471SOL    HW216047   0.504   2.550   1.897  1.7281 -0.9761  0.8396
 1472SOL     OW16048   0.400   0.898   9.406 -0.1436 -0.1522 -0.2609
 1472SOL    HW116049   0.329   0.923   9.347  1.6868  0.8402 -2.0253
 1472SOL    HW216050   0.461   0.960   9.367 -0.4292 -0.3562 -1.0424
 1473SOL     OW16051   0.611   3.386  10.027  0.2594  0.2656  0.6068
 1473SOL    HW116052   0.583   3.434  10.105  0.3475  0.6264  0.4151
 1473SOL    HW216053   0.702   3.414  10.023 -0.0767  1.1111 -1.2019
 1474SOL     OW16054   2.625   4.084   0.176  0.4960 -0.3794  0.0784
 1474SOL    HW116055   2.619   4.082   0.080  2.4149 -1.9976 -0.0128
 1474SOL    HW216056   2.719   4.098   0.183  0.3236  0.7926  0.0467
 1475SOL     OW16057   4.234   4.491  15.622 -0.5776 -0.1500 -0.6637
 1475SOL    HW116058   4.172   4.469  15.692 -0.4935  0.3819 -0.4247
 1475SOL    HW216059   4.299   4.533  15.678 -0.8783 -0.3046 -0.1882
 1476SOL     OW16060   0.623   2.278   8.924 -0.8248 -0.0960  0.3350
 1476SOL    HW116061   0.600   2.322   8.843 -0.1886  0.6350  0.5552
 1476SOL    HW216062   0.609   2.356   8.978 -3.2979 -0.5609  0.3715
 1477SOL     OW16063   0.223   3.108   9.471 -0.3194 -0.4311  0.2140
 1477SOL    HW116064   0.216   3.193   9.515  2.7906  0.5439 -1.0995
 1477SOL    HW216065   0.231   3.051   9.547 -1.6390 -0.9051 -0.0060
 1478SOL     OW16066   3.526   2.827   7.877 -0.6406  0.5070 -0.2420
 1478SOL    HW116067   3.502   2.880   7.953  0.4441  3.0656 -1.6750
 1478SOL    HW216068   3.542   2.744   7.920  0.6002  1.2505  0.7164
 1479SOL     OW16069   3.590   1.787   2.472  0.1177 -0.3769 -0.1339
 1479SOL    HW116070   3.507   1.818   2.508 -0.2869 -0.8384 -0.6562
 1479SOL    HW216071   3.641   1.798   2.552  2.0006 -0.4758 -1.3361
 1480SOL     OW16072   0.305   3.793   7.539 -0.7013 -0.1535  0.5805
 1480SOL    HW116073   0.255   3.808   7.619  1.4244 -0.2459  1.9186
 1480SOL    HW216074   0.320   3.880   7.503 -3.2573  0.1858  0.3300
 1481SOL     OW16075   0.723   2.512   2.980 -0.0988  0.5738  0.0948
 1481SOL    HW116076   0.682   2.530   2.895  0.9989  0.2679 -0.5138
 1481SOL    HW216077   0.782   2.443   2.951  1.0046  2.0154 -1.1166
 1482SOL     OW16078   2.572   2.981   5.118 -0.6114 -0.1727  0.1810
 1482SOL    HW116079   2.666   2.995   5.124 -0.3444 -1.3491 -1.2176
 1482SOL    HW216080   2.565   2.942   5.030  2.4916  0.0750 -0.1854
 1483SOL     OW16081   3.683   3.041   3.715  0.4737 -0.0271  0.2402
 1483SOL    HW116082   3.682   3.115   3.776 -0.8330 -1.5678  2.0786
 1483SOL    HW216083   3.765   3.058   3.669  0.2970 -0.1286 -0.1079
 1484SOL     OW16084   1.367   0.672   7.550 -0.7519  0.5452  0.5411
 1484SOL    HW116085   1.308   0.747   7.544 -1.7364 -0.2628  0.0280
 1484SOL    HW216086   1.365   0.636   7.461  0.8663  1.0374  0.3147
 1485SOL     OW16087   3.129   4.726   8.394  0.4294  0.0395  0.0666
 1485SOL    HW116088   3.051   0.037   8.365  0.9780  1.5881  1.2121
 1485SOL    HW216089   3.173   4.715   8.309  1.6022  1.6339  0.4891
 1486SOL     OW16090   0.537   1.620  17.463  0.2177 -0.0535  0.5687
 1486SOL    HW116091   0.568   1.547  17.516  1.5795  0.6601  0.7661
 1486SOL    HW216092   0.544   1.699  17.517 -0.3088 -0.1941  0.8491
 1487SOL     OW16093   4.187   1.436  10.409 -0.0450 -0.3497  0.4061
 1487SOL    HW116094   4.228   1.426  10.495 -2.0753 -1.0216  1.2974
 1487SOL    HW216095   4.126   1.510  10.412 -1.4988 -1.5326  0.1723
 1488SOL     OW16096   2.343   0.335   1.002 -0.0479 -0.4588 -0.7905
 1488SOL    HW116097   2.294   0.416   1.013 -1.6028 -1.4955 -0.1487
 1488SOL    HW216098   2.409   0.348   1.070  0.7490 -0.5736 -1.5301
 1489SOL     OW16099   3.617   2.389   7.212  0.0027  0.2366  0.0841
 1489SOL    HW116100   3.627   2.445   7.135 -1.1023 -0.6917 -0.7388
 1489SOL    HW216101   3.646   2.455   7.275  0.2807 -0.1693  0.3789
 1490SOL     OW16102   2.011   4.339   4.200  0.0594 -0.2339  0.2770
 1490SOL    HW116103   2.070   4.321   4.273  1.5049 -2.0569 -1.3373
 1490SOL    HW216104   2.000   4.256   4.153  0.0879  0.2445 -0.5824
 1491SOL     OW16105   2.286   0.950  15.217  0.7416  0.2956  0.2730
 1491SOL    HW116106   2.229   0.888  15.171  0.2592 -0.5518  2.0087
 1491SOL    HW216107   2.237   1.026  15.187 -0.8750 -1.2176 -0.9909
 1492SOL     OW16108   1.501   3.016   8.733  0.2410  0.2887 -0.0844
 1492SOL    HW116109   1.411   2.999   8.760 -0.8855  2.2116 -2.5771
 1492SOL    HW216110   1.553   2.990   8.809 -0.0555 -0.7767 -0.2513
 1493SOL     OW16111   2.178   0.009   4.070  0.2002 -0.0557 -0.2830
 1493SOL    HW116112   2.199   0.065   3.995 -1.3966  1.8798  0.7150
 1493SOL    HW216113   2.238   0.040   4.138  0.9943  1.9132 -1.8389
 1494SOL     OW16114   3.385   2.939   4.472  0.0285  0.0581 -0.5470
 1494SOL    HW116115   3.358   2.875   4.538 -0.1163  1.7590  1.0296
 1494SOL    HW216116   3.317   2.931   4.406  0.0699 -1.6868 -0.3837
 1495SOL     OW16117   2.082   2.487   1.908  0.0731  0.5834 -0.7840
 1495SOL    HW116118   2.166   2.484   1.862  0.9361 -1.0210  0.8638
 1495SOL    HW216119   2.064   2.399   1.940  1.4469  1.1146  1.4960
 1496SOL     OW16120   2.000   4.421   4.647  0.2763  0.4232 -0.1718
 1496SOL    HW116121   1.974   4.513   4.649 -2.0919 -0.2397 -0.6802
 1496SOL    HW216122   2.055   4.412   4.570 -1.3247  1.7217 -1.4641
 1497SOL     OW16123   2.676   2.670   6.420  0.2435  0.3565 -0.1785
 1497SOL    HW116124   2.682   2.657   6.515 -0.5698  2.2224  0.1291
 1497SOL    HW216125   2.600   2.616   6.396  0.3946 -0.9117  2.1960
 1498SOL     OW16126   3.596   2.912   9.783 -0.5643 -0.0858  0.0540
 1498SOL    HW116127   3.634   2.922   9.870 -0.6969  0.4928  0.0446
 1498SOL    HW216128   3.628   2.994   9.745  1.0379 -0.6152  0.2586
 1499SOL     OW16129   4.317   1.046  12.562  0.6284  1.0138 -0.2469
 1499SOL    HW116130   4.284   0.987  12.630 -0.7311  1.5730 -0.4062
 1499SOL    HW216131   4.335   0.980  12.495 -1.4299  0.6063 -0.4001
 1500SOL     OW16132   0.439   3.869   3.483 -0.0886 -0.0327  0.4655
 1500SOL    HW116133   0.473   3.803   3.422 -0.2209  0.9131 -0.6342
 1500SOL    HW216134   0.514   3.906   3.529 -0.3222  1.3050 -0.2012
 1501SOL     OW16135   0.236   2.538   5.855 -0.1422 -0.0214  0.7536
 1501SOL    HW116136   0.265   2.457   5.813 -0.9685  0.3572 -0.5333
 1501SOL    HW216137   0.296   2.538   5.930 -0.2232 -0.4442  0.8216
 1502SOL     OW16138   2.694   3.372   5.235 -0.3428  0.1066 -0.1974
 1502SOL    HW116139   2.723   3.369   5.144  0.1736 -0.9076 -0.0063
 1502SOL    HW216140   2.770   3.422   5.264 -0.1311  0.2436 -0.9928
 1503SOL     OW16141   2.526   3.746  12.954 -0.5949 -0.0581  0.6063
 1503SOL    HW116142   2.490   3.829  12.922 -0.2130  0.2243  0.9061
 1503SOL    HW216143   2.472   3.731  13.031  1.6366 -0.4639  2.0754
 1504SOL     OW16144   0.965   0.247   3.289  0.2303  0.0135 -0.0667
 1504SOL    HW116145   0.960   0.166   3.339  0.2927  1.0234  1.5450
 1504SOL    HW216146   1.004   0.311   3.348  0.3820 -1.4824  1.4290
 1505SOL     OW16147   0.217   1.906   8.523 -0.1119  0.2585 -0.0176
 1505SOL    HW116148   0.197   1.907   8.617 -0.2756  1.3817 -0.0582
 1505SOL    HW216149   0.169   1.988   8.513  2.0966  1.5044 -0.5230
 1506SOL     OW16150   3.137   3.035   3.228  1.1369 -0.4008 -0.3314
 1506SOL    HW116151   3.071   2.978   3.187 -0.6020  0.2184  1.5589
 1506SOL    HW216152   3.087   3.075   3.299  0.7743 -0.5881 -0.4800
 1507SOL     OW16153   2.963   1.943   3.502  0.8601 -0.1155 -0.0668
 1507SOL    HW116154   2.921   1.918   3.419  1.9942  0.7308 -0.8992
 1507SOL    HW216155   3.004   2.027   3.483  1.0295 -0.3541 -0.7642
 1508SOL     OW16156   1.739   0.861   6.710 -0.0058  0.4388 -0.0518
 1508SOL    HW116157   1.760   0.867   6.803  0.6593  1.0310 -0.2449
 1508SOL    HW216158   1.759   0.771   6.685 -0.9904 -0.7644  3.3940
 1509SOL     OW16159   1.915   3.216   9.660 -0.6313 -0.0879  0.0199
 1509SOL    HW116160   1.877   3.201   9.574 -1.7086 -2.4315  0.8777
 1509SOL    HW216161   1.893   3.133   9.704 -2.6819  0.0747 -0.6783
 1510SOL     OW16162   1.054   4.368   8.931  0.0427  0.1671 -0.4614
 1510SOL    HW116163   1.080   4.456   8.957 -1.3803  0.2255  0.7645
 1510SOL    HW216164   1.051   4.361   8.835 -2.4509  1.1437 -0.4674
 1511SOL     OW16165   0.686   2.897   2.951  0.2079  0.6807 -0.0724
 1511SOL    HW116166   0.654   2.918   2.863  0.1151  2.5360  0.4001
 1511SOL    HW216167   0.767   2.849   2.935 -0.7854 -1.0024 -0.0080
 1512SOL     OW16168   2.569   0.355   2.569  0.2999 -0.4480 -0.2103
 1512SOL    HW116169   2.560   0.445   2.601  0.5849 -0.4894 -0.0067
 1512SOL    HW216170   2.502   0.316   2.625  1.1731 -3.3263 -1.1791
 1513SOL     OW16171   1.174   2.561   7.473  0.2212  0.2111 -0.1362
 1513SOL    HW116172   1.181   2.654   7.450  3.3419 -0.0669 -0.2794
 1513SOL    HW216173   1.252   2.533   7.424  1.2504  1.3943  0.8329
 1514SOL     OW16174   1.654   1.800   1.886 -0.3889  0.0006 -0.5191
 1514SOL    HW116175   1.728   1.742   1.870 -1.9755 -2.1650 -0.0150
 1514SOL    HW216176   1.695   1.842   1.961  0.2464  0.7131 -1.2684
 1515SOL     OW16177   1.658   4.088   6.263  0.2208 -0.2823  0.1587
 1515SOL    HW116178   1.579   4.142   6.260  0.2909 -0.1702  0.4004
 1515SOL    HW216179   1.714   4.147   6.314  0.0926  0.0450 -0.0799
 1516SOL     OW16180   3.548   0.947  11.151 -0.4628 -0.3107 -0.4625
 1516SOL    HW116181   3.629   0.966  11.199  0.7669 -1.6254 -2.0143
 1516SOL    HW216182   3.589   0.989  11.076  0.2700 -0.7823 -0.3329
 1517SOL     OW16183   3.073   1.810  13.202  0.1140  0.0667  0.1422
 1517SOL    HW116184   2.988   1.774  13.177 -1.4242  3.5114  0.3987
 1517SOL    HW216185   3.138   1.741  13.190 -0.0926 -0.1430  0.2357
 1518SOL     OW16186   3.678   4.127   9.556  0.0158  0.2880  0.1266
 1518SOL    HW116187   3.720   4.125   9.642 -0.0552 -2.0912  0.1068
 1518SOL    HW216188   3.590   4.132   9.591  0.0730  1.3550  0.1158
 1519SOL     OW16189   2.884   2.486   3.426 -0.2095  0.2023  0.1238
 1519SOL    HW116190   2.871   2.581   3.417  1.2178  0.0712 -2.9443
 1519SOL    HW216191   2.908   2.458   3.338  0.6474  0.4712  0.2786
 1520SOL     OW16192   3.603   1.043   2.770 -0.0508  0.4388  0.0025
 1520SOL    HW116193   3.660   0.988   2.824  0.7396 -0.6923 -2.0121
 1520SOL    HW216194   3.582   1.126   2.813  2.0346 -0.8140  3.4169
 1521SOL     OW16195   3.090   4.277  16.907  0.2050  0.2504 -0.2367
 1521SOL    HW116196   3.058   4.342  16.845  1.5212 -0.6816 -1.8996
 1521SOL    HW216197   3.154   4.329  16.956  2.3548 -0.7552 -1.9584
 1522SOL     OW16198   1.901   3.208  11.644  0.0131 -0.1325 -0.4392
 1522SOL    HW116199   1.924   3.181  11.733  2.8303 -1.0304 -1.4663
 1522SOL    HW216200   1.916   3.302  11.649 -1.5447  0.1391 -0.7279
 1523SOL     OW16201   3.754   0.889   3.873 -0.0777  0.0000 -0.7591
 1523SOL    HW116202   3.755   0.894   3.778 -1.5852  0.6213 -0.7410
 1523SOL    HW216203   3.679   0.836   3.898  0.2663 -0.1437 -0.0055
 1524SOL     OW16204   0.830   2.211  16.595  0.4640  0.6041 -0.2625
 1524SOL    HW116205   0.806   2.303  16.604  1.1561  0.7333  0.2536
 1524SOL    HW216206   0.744   2.169  16.601 -0.6924  3.5735  3.6632
 1525SOL     OW16207   2.184   0.064   7.499  0.2491  0.2104  0.0581
 1525SOL    HW116208   2.123   4.730   7.521  1.1762 -0.8886 -0.9118
 1525SOL    HW216209   2.264   0.029   7.538 -0.3101 -0.2745  0.7768
 1526SOL     OW16210   0.989   1.097  13.790 -1.0348  0.2718 -0.5716
 1526SOL    HW116211   0.896   1.116  13.792 -0.7986  1.7144 -3.5567
 1526SOL    HW216212   1.013   1.143  13.709 -0.2917  1.7642  0.4893
 1527SOL     OW16213   4.653   4.638   5.718 -0.5965  0.1698 -0.1748
 1527SOL    HW116214   4.728   4.597   5.675  0.1587  1.1500  0.1982
 1527SOL    HW216215   4.664   4.581   5.794 -0.8388  0.4963  0.1050
 1528SOL     OW16216   4.388   2.833   2.870 -0.2861 -0.2944 -0.0619
 1528SOL    HW116217   4.451   2.899   2.843 -0.0467  0.3828  2.1093
 1528SOL    HW216218   4.327   2.886   2.922 -3.3606 -0.8541 -3.1231
 1529SOL     OW16219   3.404   0.884   4.593  0.0917  0.3086  0.2237
 1529SOL    HW116220   3.451   0.953   4.639 -2.1705  2.7124 -1.0474
 1529SOL    HW216221   3.433   0.885   4.502  0.8772  1.1916  0.4896
 1530SOL     OW16222   0.144   0.948   7.407 -0.2734 -0.0043 -0.1680
 1530SOL    HW116223   0.120   1.026   7.458  0.4355  1.1693 -1.6431
 1530SOL    HW216224   0.235   0.963   7.381 -0.0172 -0.5016  0.4331
 1531SOL     OW16225   1.831   1.599   8.481 -0.4721 -0.1606  0.4291
 1531SOL    HW116226   1.884   1.668   8.440 -1.7270 -0.8557 -2.3287
 1531SOL    HW216227   1.796   1.633   8.564 -0.6774  0.1417  0.2225
 1532SOL     OW16228   1.552   3.654   8.629 -0.7062 -0.3922  0.3092
 1532SOL    HW116229   1.485   3.691   8.686 -1.2042 -0.7746 -0.0389
 1532SOL    HW216230   1.558   3.721   8.560  0.7924  2.1915  2.9215
 1533SOL     OW16231   4.224   2.239  13.227  0.2962 -0.2445 -0.1516
 1533SOL    HW116232   4.170   2.192  13.290  0.3086  2.3519  1.8285
 1533SOL    HW216233   4.196   2.207  13.142  1.3914  1.3616 -1.1306
 1534SOL     OW16234   0.963   2.965  11.317  0.0593 -0.1227 -0.0942
 1534SOL    HW116235   1.030   2.987  11.252 -1.3775 -0.8947 -1.8025
 1534SOL    HW216236   1.009   2.996  11.395  0.6688 -2.2881  0.4150
 1535SOL     OW16237   4.186   3.507  10.229 -0.3242  0.1067  0.2448
 1535SOL    HW116238   4.135   3.553  10.296 -0.8107  1.5676 -1.1103
 1535SOL    HW216239   4.245   3.575  10.197  0.9551  0.0099  2.3722
 1536SOL     OW16240   1.472   1.181  15.118  0.0644  0.1647  0.6013
 1536SOL    HW116241   1.504   1.106  15.168 -1.3452  0.7504  2.4194
 1536SOL    HW216242   1.539   1.246  15.141 -0.4174  1.3804 -1.4820
 1537SOL     OW16243   3.267   0.447   7.926 -0.5508 -0.1804  0.8120
 1537SOL    HW116244   3.181   0.420   7.956 -1.7279 -0.1393 -2.5349
 1537SOL    HW216245   3.299   0.360   7.900  2.5185  1.0545  0.4233
 1538SOL     OW16246   2.634   1.365   2.296 -0.4213  0.6600  0.1052
 1538SOL    HW116247   2.675   1.288   2.336  1.4729  1.3938 -0.4108
 1538SOL    HW216248   2.630   1.320   2.211  1.2829 -0.1739  0.4698
 1539SOL     OW16249   3.745   2.617   4.781 -0.0248 -0.0990 -0.3384
 1539SOL    HW116250   3.704   2.703   4.771 -1.1294 -0.4215  1.4501
 1539SOL    HW216251   3.760   2.601   4.874  2.5124 -1.2532 -0.9331
 1540SOL     OW16252   0.526   4.478  15.498 -0.0337  0.5091  0.0254
 1540SOL    HW116253   0.541   4.384  15.488 -0.0097  0.6054 -0.8834
 1540SOL    HW216254   0.613   4.517  15.510 -1.0028  2.7822 -0.4540
 1541SOL     OW16255   4.065   3.640   9.675 -0.1865 -0.3166  0.1027
 1541SOL    HW116256   4.046   3.570   9.613 -1.6800  1.4226 -1.4068
 1541SOL    HW216257   3.976   3.661   9.705 -0.1669  1.8401 -1.2789
 1542SOL     OW16258   3.447   4.106   5.875  0.0102 -0.8680 -0.0795
 1542SOL    HW116259   3.385   4.127   5.805  1.2334 -1.9833 -1.4801
 1542SOL    HW216260   3.414   4.022   5.905 -0.7561 -0.9600 -1.2158
 1543SOL     OW16261   0.192   1.615   3.597  0.4047 -0.0222  0.2206
 1543SOL    HW116262   0.102   1.637   3.621  0.8004  0.5483  1.1830
 1543SOL    HW216263   0.220   1.604   3.688  0.5117 -3.6433 -0.2428
 1544SOL     OW16264   2.413   2.314   6.042 -0.0199  0.1340 -0.0712
 1544SOL    HW116265   2.370   2.231   6.063 -0.5979  0.4400 -0.0409
 1544SOL    HW216266   2.358   2.378   6.088  1.6495  3.0755 -2.1517
 1545SOL     OW16267   2.054   3.923   2.703  0.6961  0.5063  0.0933
 1545SOL    HW116268   2.108   3.949   2.628  0.9842 -0.4054 -0.0112
 1545SOL    HW216269   2.065   4.002   2.756  0.0962  0.5970  0.0891
 1546SOL     OW16270   3.760   0.496   6.086  0.6255 -0.1664 -0.4052
 1546SOL    HW116271   3.800   0.417   6.050  1.6580  0.3995 -0.4867
 1546SOL    HW216272   3.758   0.556   6.012  1.5099 -1.8065 -1.7709
 1547SOL     OW16273   2.144   0.931   2.717 -0.3272  0.1330 -0.5025
 1547SOL    HW116274   2.199   0.993   2.764  0.2352 -0.9989  0.3475
 1547SOL    HW216275   2.163   0.852   2.768 -1.4025  0.4862  0.4646
 1548SOL     OW16276   0.717   0.832   5.818  0.2738 -0.3625 -0.1116
 1548SOL    HW116277   0.766   0.908   5.849 -2.1996  1.8830 -1.6709
 1548SOL    HW216278   0.754   0.818   5.731  1.4353 -2.4813  0.7450
 1549SOL     OW16279   2.374   3.818   5.221 -0.4636  0.4715  0.5723
 1549SOL    HW116280   2.426   3.740   5.199 -0.8714 -0.0735  1.5265
 1549SOL    HW216281   2.312   3.778   5.282  0.4228 -1.3498  0.3016
 1550SOL     OW16282   1.604   2.367   8.022  0.5066  0.1802 -0.7080
 1550SOL    HW116283   1.538   2.433   8.045 -0.3294 -0.0468 -2.4151
 1550SOL    HW216284   1.626   2.402   7.936  2.3236 -0.4278 -0.4840
 1551SOL     OW16285   2.918   2.396   2.723 -0.6865 -0.8251 -0.2168
 1551SOL    HW116286   2.966   2.478   2.717  0.6237 -1.7516 -2.2963
 1551SOL    HW216287   2.970   2.333   2.674 -1.9277 -1.7302 -0.3781
 1552SOL     OW16288   0.803   0.171   4.582 -0.2150  0.3471 -0.1391
 1552SOL    HW116289   0.766   0.129   4.505 -1.5469 -2.3444  1.9615
 1552SOL    HW216290   0.897   0.168   4.563  0.1647 -0.2401  1.8521
 1553SOL     OW16291   1.785   2.815  10.265  0.3516 -1.0419  0.1535
 1553SOL    HW116292   1.769   2.766  10.346 -0.3928 -0.3495  0.4282
 1553SOL    HW216293   1.719   2.884  10.275  0.7236 -0.3249 -2.3199
 1554SOL     OW16294   1.097   1.143   4.516 -0.4850 -0.0470  0.4576
 1554SOL    HW116295   1.135   1.055   4.521 -0.9039 -0.1336  2.1343
 1554SOL    HW216296   1.100   1.161   4.422 -0.3554 -0.3213  0.4094
 1555SOL     OW16297   2.875   2.207   4.916  0.5856  0.1164  0.5146
 1555SOL    HW116298   2.841   2.177   5.000  1.2295  1.7062  1.3436
 1555SOL    HW216299   2.960   2.242   4.940 -1.0068  4.2497  0.2107
 1556SOL     OW16300   0.377   3.905   7.068 -0.0161 -0.5475 -0.1926
 1556SOL    HW116301   0.453   3.894   7.010  0.6879 -1.2428  0.8726
 1556SOL    HW216302   0.378   4.000   7.057 -2.3261 -0.6958 -1.7557
 1557SOL     OW16303   1.527   1.048  12.417  0.5968  0.5749  0.3620
 1557SOL    HW116304   1.532   1.081  12.328  0.1259 -0.0868  0.0872
 1557SOL    HW216305   1.553   1.127  12.464 -3.6614  1.0312  1.9118
 1558SOL     OW16306   1.245   1.990  13.482 -0.2275  0.2995 -0.4946
 1558SOL    HW116307   1.271   2.002  13.573 -4.0303  1.6028  0.4190
 1558SOL    HW216308   1.157   2.028  13.484 -0.5722 -0.4994 -0.6811
 1559SOL     OW16309   2.427   2.755   8.856  0.0475 -0.5183  0.4632
 1559SOL    HW116310   2.448   2.700   8.780  0.9013  1.4680 -0.7501
 1559SOL    HW216311   2.425   2.689   8.925  1.3976 -1.3170 -0.2568
 1560SOL     OW16312   4.412   2.148   8.391 -0.0879  0.4037 -0.2997
 1560SOL    HW116313   4.336   2.159   8.334 -0.4259  0.4416  0.1510
 1560SOL    HW216314   4.438   2.236   8.419 -1.5593  0.2449  1.5876
 1561SOL     OW16315   3.509   2.290   2.249 -0.5929  0.1822  0.0799
 1561SOL    HW116316   3.524   2.380   2.277  1.1306  0.7717 -2.7737
 1561SOL    HW216317   3.592   2.260   2.213 -0.9687 -0.4050 -0.2919
 1562SOL     OW16318   4.535   2.468   2.682  0.2074 -0.1973 -0.0779
 1562SOL    HW116319   4.484   2.549   2.678  0.7832  0.1965  0.5809
 1562SOL    HW216320   4.480   2.405   2.729 -1.3068  1.2156  0.0158
 1563SOL     OW16321   2.319   4.473  16.065 -0.8816 -0.4564 -0.0998
 1563SOL    HW116322   2.326   4.437  16.154  1.8647 -1.2938 -0.6413
 1563SOL    HW216323   2.227   4.498  16.075 -0.8851 -1.2550  1.9578
 1564SOL     OW16324   4.579   3.783  11.835 -0.9514 -0.3270 -0.0191
 1564SOL    HW116325   4.521   3.728  11.783 -0.3563  0.1395 -1.1635
 1564SOL    HW216326   4.633   3.724  11.887 -1.7945 -0.2008  1.0080
 1565SOL     OW16327   4.619   2.347   5.558 -0.4397 -0.2331 -0.4278
 1565SOL    HW116328   4.549   2.287   5.584 -0.7660  0.3866  0.1476
 1565SOL    HW216329   4.641   2.311   5.472 -2.3952  0.1849 -1.0917
 1566SOL     OW16330   4.432   0.288  16.728 -0.0546  0.2849 -0.6731
 1566SOL    HW116331   4.390   0.208  16.696  1.0006 -1.0446  1.2774
 1566SOL    HW216332   4.485   0.262  16.804  0.4885  2.4162 -0.3267
 1567SOL     OW16333   2.261   0.588   1.615  0.8754 -0.0321  0.0394
 1567SOL    HW116334   2.217   0.613   1.696 -0.3690  0.3119 -0.7477
 1567SOL    HW216335   2.262   0.677   1.579  0.4757  0.0393  0.2103
 1568SOL     OW16336   3.978   2.551   0.828  0.1557 -0.4242 -0.3057
 1568SOL    HW116337   3.915   2.594   0.769 -0.9901 -0.5556  0.8275
 1568SOL    HW216338   3.920   2.541   0.903  1.3705  1.3149  0.8729
 1569SOL     OW16339   4.582   3.772   2.973  0.0125 -0.0643  0.3561
 1569SOL    HW116340   4.545   3.861   2.972  2.2829  0.8802  0.8674
 1569SOL    HW216341   4.513   3.713   3.003 -1.0091  1.3316  0.7637
 1570SOL     OW16342   3.557   3.614  14.224 -0.0059  0.4290  0.3648
 1570SOL    HW116343   3.627   3.550  14.230 -1.2035 -1.1424 -2.2331
 1570SOL    HW216344   3.518   3.622  14.311  0.1129 -0.7522  0.5169
 1571SOL     OW16345   4.373   3.284   9.170  0.0285 -0.1697  0.5437
 1571SOL    HW116346   4.462   3.291   9.205 -0.3730  0.8034  1.3715
 1571SOL    HW216347   4.389   3.276   9.076 -0.7350  1.4168  0.2829
 1572SOL     OW16348   3.421   4.172  12.797 -0.0341  0.5997  0.1199
 1572SOL    HW116349   3.366   4.221  12.858  0.0120  0.7699  0.0269
 1572SOL    HW216350   3.478   4.132  12.863  1.6334 -1.8956 -2.8505
 1573SOL     OW16351   2.414   0.919   3.305  0.2202  0.1454  0.2994
 1573SOL    HW116352   2.479   0.861   3.266  0.5328 -0.4642  1.7150
 1573SOL    HW216353   2.433   0.916   3.399 -1.1105 -0.3082  0.5604
 1574SOL     OW16354   1.130   0.420   0.717 -0.2159  0.0471  0.3253
 1574SOL    HW116355   1.047   0.456   0.749 -0.4315  0.2853 -0.4967
 1574SOL    HW216356   1.101   0.381   0.634  1.3774 -2.2135  0.8229
 1575SOL     OW16357   2.882   0.832   6.838 -0.1970  0.1026  0.1780
 1575SOL    HW116358   2.849   0.748   6.872  4.5559 -1.5586  0.5958
 1575SOL    HW216359   2.965   0.829   6.886  0.5058  0.8666 -0.9963
 1576SOL     OW16360   1.804   4.290   6.022 -0.3542  0.2982  0.5085
 1576SOL    HW116361   1.809   4.194   6.029 -0.1878  0.1130 -2.4590
 1576SOL    HW216362   1.888   4.311   6.062  0.3344  0.9549 -1.3247
 1577SOL     OW16363   2.479   0.431   1.622  0.0148 -0.4736  0.1247
 1577SOL    HW116364   2.396   0.467   1.654  0.1791 -0.6026  0.7011
 1577SOL    HW216365   2.448   0.382   1.546  0.0012  0.6275 -0.5908
 1578SOL     OW16366   1.443   2.686   1.432 -0.3865  0.0092 -0.1555
 1578SOL    HW116367   1.516   2.734   1.393  1.3092 -1.1439  1.5853
 1578SOL    HW216368   1.491   2.651   1.507 -0.2606  0.2492 -0.1242
 1579SOL     OW16369   0.770   0.662   8.952 -0.0223 -0.6452 -0.1586
 1579SOL    HW116370   0.678   0.646   8.934 -0.2502 -2.4055  2.5932
 1579SOL    HW216371   0.795   0.592   9.012 -0.4914 -0.7653 -0.1054
 1580SOL     OW16372   4.654   4.135  16.139  0.2801  0.4546 -0.1710
 1580SOL    HW116373   4.704   4.143  16.220  0.1946 -1.6663  0.0930
 1580SOL    HW216374   4.647   4.046  16.105 -0.9584 -0.3418  2.1863
 1581SOL     OW16375   0.726   0.382   3.361 -0.4697  0.6955 -0.1961
 1581SOL    HW116376   0.651   0.337   3.321 -0.3705  1.4089 -1.1908
 1581SOL    HW216377   0.796   0.331   3.321 -0.4441  0.0829  0.6400
 1582SOL     OW16378   4.255   4.571  13.767 -0.8519  0.3240 -0.0323
 1582SOL    HW116379   4.176   4.537  13.809 -1.3843 -0.7380 -1.8908
 1582SOL    HW216380   4.312   4.501  13.736 -0.0289  0.2210  1.7100
 1583SOL     OW16381   2.582   1.527   9.034  0.1950  0.1221 -0.1592
 1583SOL    HW116382   2.530   1.527   9.115  2.5940  0.3432  1.3691
 1583SOL    HW216383   2.513   1.499   8.974 -0.2904  2.3266 -0.6420
 1584SOL     OW16384   3.274   0.544   0.551  0.1400 -0.2875 -0.4291
 1584SOL    HW116385   3.187   0.551   0.589  0.2931  1.2347 -0.3427
 1584SOL    HW216386   3.299   0.636   0.564  0.2563 -0.5607  1.2341
 1585SOL     OW16387   1.746   3.285   4.139 -0.3571 -0.4055 -0.5535
 1585SOL    HW116388   1.776   3.376   4.140  1.6964 -1.0484 -1.7504
 1585SOL    HW216389   1.828   3.240   4.160  1.0826  2.0914 -0.8367
 1586SOL     OW16390   0.601   2.426  17.373 -0.0758  0.1543  0.2275
 1586SOL    HW116391   0.567   2.387  17.292  0.6667  0.6784 -0.3375
 1586SOL    HW216392   0.661   2.487  17.330 -0.8688  1.3098  0.7235
 1587SOL     OW16393   4.026   1.411   7.732 -0.0213  0.3660  0.1577
 1587SOL    HW116394   4.064   1.435   7.817 -0.1059 -0.9268  0.5666
 1587SOL    HW216395   4.040   1.489   7.678  0.7207  0.3838  0.3879
 1588SOL     OW16396   1.579   0.684   6.171  0.5658 -0.5786  0.4128
 1588SOL    HW116397   1.641   0.612   6.179 -0.9457 -1.8280  0.8810
 1588SOL    HW216398   1.645   0.748   6.144  0.5782 -1.2058 -1.0259
 1589SOL     OW16399   2.878   2.261   6.177 -0.1860 -0.2805 -0.7201
 1589SOL    HW116400   2.797   2.281   6.223 -0.2027 -0.3404 -0.7242
 1589SOL    HW216401   2.943   2.294   6.239  0.4008 -3.1555  0.1996
 1590SOL     OW16402   4.300   2.304   4.856  0.0633 -0.3924 -0.0940
 1590SOL    HW116403   4.335   2.246   4.925  2.4703 -1.6191 -2.3388
 1590SOL    HW216404   4.335   2.390   4.880  0.5111 -0.8817  1.0524
 1591SOL     OW16405   1.711   1.473   1.912  0.2760  0.6270  0.2588
 1591SOL    HW116406   1.786   1.513   1.866  0.7658 -0.8988 -0.2854
 1591SOL    HW216407   1.753   1.434   1.988 -0.2847 -0.9162 -0.2266
 1592SOL     OW16408   3.279   2.671   6.651  0.1169  0.0840 -0.6783
 1592SOL    HW116409   3.361   2.719   6.662  0.6963 -1.4802  1.8749
 1592SOL    HW216410   3.233   2.750   6.622 -0.0310 -0.7205 -2.6297
 1593SOL     OW16411   4.680   0.806  14.496  0.1972  0.1534 -0.3331
 1593SOL    HW116412   4.650   0.756  14.572  1.7895 -0.0417  0.1705
 1593SOL    HW216413   4.678   0.892  14.538 -0.4033  0.3706 -0.8118
 1594SOL     OW16414   3.503   1.494   6.819  0.2750 -0.5007  0.3105
 1594SOL    HW116415   3.590   1.497   6.778 -0.0570  1.7853 -0.2393
 1594SOL    HW216416   3.534   1.470   6.907 -1.9869 -3.1849  0.3573
 1595SOL     OW16417   3.963   1.218   5.269 -0.7199 -0.1547  0.6030
 1595SOL    HW116418   4.028   1.157   5.234 -0.4152  0.4378  0.1492
 1595SOL    HW216419   4.018   1.295   5.281 -0.2419 -0.2553 -1.0135
 1596SOL     OW16420   1.104   2.255   5.685  0.0889  0.5269 -1.0780
 1596SOL    HW116421   1.171   2.309   5.726  0.2978  0.0671 -0.8195
 1596SOL    HW216422   1.102   2.178   5.742  1.0331  1.5643  0.3448
 1597SOL     OW16423   0.202   0.175  13.847 -0.1423  0.0582  0.1247
 1597SOL    HW116424   0.201   0.087  13.883  2.9442 -0.9053 -2.1135
 1597SOL    HW216425   0.194   0.150  13.755 -1.9696  2.9238 -0.4840
 1598SOL     OW16426   4.375   3.255   2.149 -0.3384 -0.7562 -0.8490
 1598SOL    HW116427   4.316   3.288   2.218  0.0802 -2.3850  0.2999
 1598SOL    HW216428   4.301   3.225   2.096 -1.6036 -1.8734  1.5454
 1599SOL     OW16429   3.802   2.267   3.378  0.2556  0.1658  0.4473
 1599SOL    HW116430   3.738   2.251   3.448 -1.7730  0.5996 -1.2856
 1599SOL    HW216431   3.800   2.362   3.370  0.7283  0.0764 -0.8061
 1600SOL     OW16432   3.136   2.627  10.655  0.1541  0.6674 -0.0994
 1600SOL    HW116433   3.131   2.539  10.693  0.8781  0.6014 -0.1516
 1600SOL    HW216434   3.231   2.634  10.647  0.1650 -1.2854 -1.7996
 1601SOL     OW16435   3.139   1.818   1.293  0.9657  0.5163 -0.4369
 1601SOL    HW116436   3.227   1.782   1.303  0.9525  1.1734  1.9914
 1601SOL    HW216437   3.156   1.863   1.210  0.0325 -1.6553 -1.7896
 1602SOL     OW16438   3.153   3.745   7.315 -0.1460 -0.5156  0.0181
 1602SOL    HW116439   3.238   3.705   7.293 -1.1916 -0.8822 -3.3541
 1602SOL    HW216440   3.162   3.746   7.411  2.0909  1.4455 -0.2056
 1603SOL     OW16441   2.600   2.400   1.650 -0.2838  0.3990 -0.3182
 1603SOL    HW116442   2.675   2.411   1.591 -0.5164 -0.2582 -0.7410
 1603SOL    HW216443   2.606   2.307   1.672  2.2702  0.5402 -0.3912
 1604SOL     OW16444   3.580   2.600   6.168 -0.4314  0.2545  0.4993
 1604SOL    HW116445   3.538   2.670   6.118 -1.2503 -0.4546  0.1973
 1604SOL    HW216446   3.664   2.601   6.122  0.4936  1.4804  2.1923
 1605SOL     OW16447   0.313   0.404   2.026 -0.2531 -0.2039 -0.0414
 1605SOL    HW116448   0.230   0.428   1.984 -0.2726 -1.2786 -0.6270
 1605SOL    HW216449   0.337   0.478   2.081  2.9096 -2.2168  1.2752
 1606SOL     OW16450   1.873   1.311  11.315 -0.1023 -0.1564  0.0251
 1606SOL    HW116451   1.839   1.246  11.254  1.2278 -0.8581  0.0393
 1606SOL    HW216452   1.861   1.393  11.267 -1.6370 -0.5842 -0.3043
 1607SOL     OW16453   1.835   3.451   5.411 -0.2179  0.0284 -0.4847
 1607SOL    HW116454   1.844   3.501   5.330  1.1617  0.4785 -0.0643
 1607SOL    HW216455   1.743   3.426   5.410 -0.3755  0.5266  1.0396
 1608SOL     OW16456   1.210   4.145   5.329 -0.0428  0.0564 -0.0630
 1608SOL    HW116457   1.234   4.108   5.244 -0.2981  0.3447 -0.2606
 1608SOL    HW216458   1.248   4.232   5.319 -0.8154  0.5013  0.8297
 1609SOL     OW16459   2.130   4.187  17.056  0.0125 -0.4215 -0.2994
 1609SOL    HW116460   2.213   4.143  17.042  0.1996 -0.3066  0.4763
 1609SOL    HW216461   2.076   4.140  16.993 -0.3540 -0.9908  0.4456
 1610SOL     OW16462   4.708   1.097   6.953  0.1355 -0.1186  0.1790
 1610SOL    HW116463   0.064   1.100   6.933  0.5272  2.5480  2.3964
 1610SOL    HW216464   4.702   1.160   7.025  0.6150  0.3343 -0.1753
 1611SOL     OW16465   3.771   0.388   8.673 -0.5520 -0.1964 -0.0389
 1611SOL    HW116466   3.767   0.293   8.661 -0.2868 -0.0690 -1.1413
 1611SOL    HW216467   3.803   0.422   8.590 -0.2924 -0.1987  0.0578
 1612SOL     OW16468   3.506   4.012   9.810  0.0301  0.0637 -0.2445
 1612SOL    HW116469   3.499   4.067   9.889 -0.4851  0.1504 -0.3480
 1612SOL    HW216470   3.469   3.934   9.852 -0.9364  1.7599  2.0881
 1613SOL     OW16471   3.938   2.449   3.650 -0.5341 -0.0660  0.2212
 1613SOL    HW116472   3.917   2.502   3.727  2.9402  1.5588  0.0715
 1613SOL    HW216473   3.847   2.433   3.627 -0.3990 -0.8156  0.2181
 1614SOL     OW16474   0.149   0.365   5.088  0.1967 -0.2525  0.5982
 1614SOL    HW116475   0.108   0.353   5.002 -2.0577 -2.9417  2.0510
 1614SOL    HW216476   0.183   0.453   5.070 -0.8691 -0.1370 -0.8771
 1615SOL     OW16477   2.034   4.412   2.247  0.1163 -0.1865 -0.0060
 1615SOL    HW116478   1.957   4.359   2.228 -0.5736  1.2435 -1.2057
 1615SOL    HW216479   2.000   4.475   2.311 -2.2996 -2.2825  0.7398
 1616SOL     OW16480   3.128   1.834  16.945  0.0150  0.1940 -0.1329
 1616SOL    HW116481   3.112   1.815  16.852  2.6583 -1.0623 -0.3203
 1616SOL    HW216482   3.036   1.837  16.971 -0.0596 -0.3545 -0.3361
 1617SOL     OW16483   1.086   2.562   4.175  0.4045 -0.1713  0.3262
 1617SOL    HW116484   1.003   2.568   4.127  1.4623  1.8902 -1.2536
 1617SOL    HW216485   1.125   2.483   4.137  1.7860  0.8082 -0.3114
 1618SOL     OW16486   1.032   3.324   4.859 -0.2395  0.4695  0.8470
 1618SOL    HW116487   0.988   3.336   4.944 -0.1915 -0.0600  0.9501
 1618SOL    HW216488   1.055   3.415   4.842 -1.3865  0.8666  1.4276
 1619SOL     OW16489   1.445   2.713   3.363  0.1889 -0.0249  0.0602
 1619SOL    HW116490   1.460   2.673   3.448  1.4864  1.6023  0.5976
 1619SOL    HW216491   1.508   2.656   3.318 -1.3609 -0.7796 -1.1621
 1620SOL     OW16492   3.228   4.362   9.553 -0.1741  0.7426  0.4829
 1620SOL    HW116493   3.271   4.279   9.572 -0.9562  0.9021  2.8987
 1620SOL    HW216494   3.286   4.391   9.483 -0.3000 -0.3354 -0.0552
 1621SOL     OW16495   0.397   4.127   2.255 -0.0199 -0.3884  0.3763
 1621SOL    HW116496   0.485   4.133   2.293 -0.1281 -0.4053  0.6264
 1621SOL    HW216497   0.361   4.043   2.282  0.4269 -0.1752  1.6186
 1622SOL     OW16498   0.253   0.081  13.558  0.2859  0.7692 -0.2582
 1622SOL    HW116499   0.274   0.005  13.503 -2.4882  0.1208 -0.4404
 1622SOL    HW216500   0.195   0.131  13.502 -0.2336  0.0634 -0.3471
 1623SOL     OW16501   0.989   3.704   0.089 -0.0215 -0.7762  0.9641
 1623SOL    HW116502   0.930   3.777   0.108  0.0297  1.1979 -6.1417
 1623SOL    HW216503   0.927   3.634   0.108  0.9796 -2.8702 -3.4274
 1624SOL     OW16504   2.160   0.510  14.539 -0.1097  0.6311  0.8359
 1624SOL    HW116505   2.066   0.528  14.548  0.0693  1.2834  1.4214
 1624SOL    HW216506   2.174   0.500  14.445 -0.9769 -0.0247  0.7768
 1625SOL     OW16507   3.885   0.646  13.839 -0.4205  1.2451 -0.0205
 1625SOL    HW116508   3.925   0.696  13.910  0.5049  1.9601 -1.0462
 1625SOL    HW216509   3.877   0.711  13.769  3.4019  0.8399 -0.8105
 1626SOL     OW16510   4.118   2.392  10.016  0.0161  0.3391  0.3790
 1626SOL    HW116511   4.073   2.462   9.970  0.2221  0.2053 -0.0220
 1626SOL    HW216512   4.070   2.383  10.098  0.0196  1.3511  0.4946
 1627SOL     OW16513   1.684   4.412  16.285  0.5065 -0.0656 -0.4641
 1627SOL    HW116514   1.707   4.321  16.304 -0.5407 -0.3689 -0.6025
 1627SOL    HW216515   1.630   4.435  16.361  2.3363  1.5844  0.3391
 1628SOL     OW16516   3.672   1.325  14.380 -0.3299  0.0109  0.0573
 1628SOL    HW116517   3.578   1.327  14.361 -0.5541  0.7599  1.2856
 1628SOL    HW216518   3.673   1.394  14.446  1.6894  1.2218 -1.2142
 1629SOL     OW16519   3.080   2.844   2.842  0.2801  0.3033  0.3274
 1629SOL    HW116520   3.025   2.884   2.774 -0.2584  0.8798  1.1058
 1629SOL    HW216521   3.073   2.749   2.830 -1.7495  0.2715  1.7166
 1630SOL     OW16522   4.497   0.322  14.156 -0.2955 -0.0475 -0.3296
 1630SOL    HW116523   4.561   0.374  14.204  0.1308 -0.6049 -0.2960
 1630SOL    HW216524   4.531   0.338  14.069 -0.6384  1.7536 -0.1260
 1631SOL     OW16525   3.390   0.966   6.888  0.0992 -0.5537 -0.3864
 1631SOL    HW116526   3.360   0.877   6.867 -0.9269 -0.3639  0.2672
 1631SOL    HW216527   3.359   1.024   6.819  1.2020  0.1339 -0.2934
 1632SOL     OW16528   3.927   0.595   2.905  0.4580 -0.3552  0.3612
 1632SOL    HW116529   3.914   0.586   3.000 -0.4819 -2.1164  0.0696
 1632SOL    HW216530   3.836   0.604   2.878  0.1229 -2.3226  0.7589
 1633SOL     OW16531   2.970   0.501   6.542 -0.1553 -0.6939 -0.2123
 1633SOL    HW116532   3.045   0.491   6.600  1.2030  0.9850 -1.6976
 1633SOL    HW216533   2.946   0.410   6.530 -0.9131 -0.5518  0.2056
 1634SOL     OW16534   1.748   2.290  14.247  0.8233  0.4668  0.1162
 1634SOL    HW116535   1.792   2.280  14.331 -2.1922  0.3737  1.7156
 1634SOL    HW216536   1.674   2.347  14.268 -1.2720 -1.7426 -1.2931
 1635SOL     OW16537   2.080   0.099   8.385 -0.4034  0.0612 -0.0659
 1635SOL    HW116538   2.143   0.116   8.456  2.5305 -2.7454 -1.9616
 1635SOL    HW216539   2.078   0.179   8.334  1.6097 -0.9615 -1.7587
 1636SOL     OW16540   3.805   1.391   7.278  0.1734  0.1597  0.1690
 1636SOL    HW116541   3.863   1.380   7.352 -0.4038  1.1468  0.7669
 1636SOL    HW216542   3.743   1.458   7.308  0.1303  1.1969 -2.1815
 1637SOL     OW16543   2.011   1.667  10.143 -0.4677  0.9165  0.3747
 1637SOL    HW116544   2.086   1.616  10.113 -1.6234  0.4831 -1.8086
 1637SOL    HW216545   2.053   1.727  10.204 -0.3662  1.1085  0.1198
 1638SOL     OW16546   1.435   1.766  10.920 -0.1592 -0.1457 -0.2758
 1638SOL    HW116547   1.388   1.684  10.933  0.8533 -0.8266 -0.8746
 1638SOL    HW216548   1.478   1.749  10.836  0.4221  1.0240 -0.2116
 1639SOL     OW16549   0.890   1.289  14.692 -0.0840  0.3170  0.0771
 1639SOL    HW116550   0.957   1.323  14.750  1.0347  1.3085 -1.7865
 1639SOL    HW216551   0.838   1.368  14.681  2.3458  1.9383  0.3321
 1640SOL     OW16552   2.344   0.115  15.281  0.4095 -0.5898  0.6573
 1640SOL    HW116553   2.396   0.111  15.201 -1.2660  1.1594 -0.5060
 1640SOL    HW216554   2.350   0.204  15.315 -1.0006  0.0758 -0.8416
 1641SOL     OW16555   1.071   3.342   5.402  0.0035 -0.2347 -0.4918
 1641SOL    HW116556   1.004   3.374   5.462 -0.0620  0.8062 -1.1316
 1641SOL    HW216557   1.023   3.265   5.372  1.4644 -1.3240 -0.0910
 1642SOL     OW16558   2.755   0.183   1.361  0.2445 -0.1233  0.4965
 1642SOL    HW116559   2.667   0.201   1.326 -0.2317  1.2670  2.3991
 1642SOL    HW216560   2.784   0.128   1.288  4.5837  1.8695  0.7395
 1643SOL     OW16561   2.711   1.369   0.099  0.6580  0.3498  0.1442
 1643SOL    HW116562   2.731   1.450   0.052  2.1696 -0.2668 -0.2897
 1643SOL    HW216563   2.772   1.308   0.057  0.5317  1.1566 -1.2024
 1644SOL     OW16564   3.824   1.060  11.974  0.0698  0.2328  0.6642
 1644SOL    HW116565   3.912   1.051  12.011  0.7531  0.8980 -0.8051
 1644SOL    HW216566   3.768   1.080  12.049 -0.8313  2.0006 -0.4822
 1645SOL     OW16567   0.962   1.346   2.442  0.2604 -0.1720  0.4469
 1645SOL    HW116568   0.931   1.273   2.494  0.2929 -2.0886 -2.2336
 1645SOL    HW216569   0.937   1.329   2.351 -1.6785  2.8177  0.4181
 1646SOL     OW16570   0.925   0.197  11.940 -0.1251 -0.0423  0.4733
 1646SOL    HW116571   0.922   0.292  11.953 -0.5548  0.2807 -1.9003
 1646SOL    HW216572   0.925   0.190  11.845 -0.4741  0.7734  0.4103
 1647SOL     OW16573   0.738   4.170   7.732 -0.1343  0.2886 -0.2968
 1647SOL    HW116574   0.701   4.255   7.757 -0.2465  0.0922  0.2023
 1647SOL    HW216575   0.763   4.182   7.640  2.5850 -0.6165  0.3358
 1648SOL     OW16576   4.049   0.212   8.362  0.1629 -0.1584  0.0987
 1648SOL    HW116577   4.102   0.165   8.297 -2.5021 -0.2506 -2.0239
 1648SOL    HW216578   4.025   0.136   8.415 -0.2033 -0.4634 -0.5014
 1649SOL     OW16579   1.475   2.927   3.979 -0.1143 -0.3986  0.1475
 1649SOL    HW116580   1.389   2.888   3.994  0.0836 -0.5124  0.9998
 1649SOL    HW216581   1.481   3.005   4.034 -1.0094  0.3199 -0.7706
 1650SOL     OW16582   1.887   1.086   6.273 -0.2904  0.5355 -0.7157
 1650SOL    HW116583   1.809   1.141   6.278 -0.6814 -0.0239 -0.6086
 1650SOL    HW216584   1.846   1.006   6.305  2.6658 -1.2569 -1.4810
 1651SOL     OW16585   2.439   3.393  16.274  0.4969  0.2297 -0.9123
 1651SOL    HW116586   2.357   3.442  16.265  2.0855  2.8697 -0.9370
 1651SOL    HW216587   2.486   3.434  16.202  1.4125  2.5188  1.0223
 1652SOL     OW16588   3.793   1.292   3.047  0.8776  0.0704  0.0273
 1652SOL    HW116589   3.761   1.210   3.083  3.1093 -0.3575  1.0720
 1652SOL    HW216590   3.713   1.314   3.000  0.9516 -0.6392 -0.4192
 1653SOL     OW16591   3.322   0.604   7.483  0.2406 -0.1495  0.3228
 1653SOL    HW116592   3.383   0.675   7.504  0.3178 -0.1073 -0.0451
 1653SOL    HW216593   3.264   0.647   7.420 -1.2047 -0.8042  1.2220
 1654SOL     OW16594   2.474   0.375   3.915 -0.3763  0.3429 -0.7037
 1654SOL    HW116595   2.502   0.283   3.914  0.4841  0.6004 -0.4449
 1654SOL    HW216596   2.488   0.408   3.826  1.4728  1.6271  0.0688
 1655SOL     OW16597   1.736   2.767   2.997  0.1427  0.0325 -0.4026
 1655SOL    HW116598   1.726   2.812   3.081  0.8203  2.4722 -1.6317
 1655SOL    HW216599   1.673   2.701   3.025 -0.8501  1.0829 -0.1630
 1656SOL     OW16600   4.040   2.290  16.596 -0.7229  0.0472 -0.0961
 1656SOL    HW116601   4.023   2.384  16.601 -2.1204 -0.3324  2.1866
 1656SOL    HW216602   4.127   2.302  16.560 -0.4635  1.2151  0.9310
 1657SOL     OW16603   3.325   4.136   8.014  0.0193  0.0596 -0.0353
 1657SOL    HW116604   3.248   4.190   8.035  0.4870 -0.0145  1.9008
 1657SOL    HW216605   3.280   4.054   7.994 -0.3700  0.2686 -0.0264
 1658SOL     OW16606   2.083   1.471  14.826  0.0898  0.2622 -0.1287
 1658SOL    HW116607   2.100   1.531  14.899 -0.4193 -0.8020  0.8616
 1658SOL    HW216608   1.992   1.494  14.805 -0.1206 -1.1004 -0.6748
 1659SOL     OW16609   3.531   1.923  15.676 -0.0648 -0.3245  0.0189
 1659SOL    HW116610   3.494   1.840  15.706  2.4726 -0.5150  2.6553
 1659SOL    HW216611   3.456   1.955  15.626  1.7731 -1.5464 -3.4556
 1660SOL     OW16612   3.142   0.129  15.998 -0.3612 -0.0652  0.4842
 1660SOL    HW116613   3.230   0.142  15.963  0.3002  0.1799  2.2610
 1660SOL    HW216614   3.094   0.143  15.917  0.7838 -4.1298 -0.8867
 1661SOL     OW16615   2.648   0.940   6.327  0.4896 -0.0321 -0.0924
 1661SOL    HW116616   2.581   0.953   6.394 -1.0690  1.0451 -1.8579
 1661SOL    HW216617   2.615   0.983   6.248  2.2413  1.9093  0.2355
 1662SOL     OW16618   2.681   2.348   8.521 -0.2162  0.1851  0.3955
 1662SOL    HW116619   2.745   2.370   8.454 -0.7420 -1.6627 -0.7149
 1662SOL    HW216620   2.686   2.254   8.539 -0.3748  0.1426  0.2143
 1663SOL     OW16621   2.308   0.859   0.261  0.4909 -0.0004  0.5606
 1663SOL    HW116622   2.295   0.921   0.189  0.9134 -0.8542 -0.2359
 1663SOL    HW216623   2.282   0.919   0.332  1.6762  3.9350 -2.3298
 1664SOL     OW16624   1.202   0.274  12.394  0.0672  0.0933 -0.6827
 1664SOL    HW116625   1.169   0.295  12.307 -1.1061  0.0479 -0.2405
 1664SOL    HW216626   1.295   0.299  12.396  0.5512 -1.7809  0.2613
 1665SOL     OW16627   2.038   1.778  14.063 -0.3130  0.8050 -0.0701
 1665SOL    HW116628   1.962   1.781  14.121  0.1366  2.4406  0.4296
 1665SOL    HW216629   2.106   1.792  14.129  0.0358 -2.2825  0.2041
 1666SOL     OW16630   4.052   3.390   9.151 -0.3075 -0.1676 -0.6567
 1666SOL    HW116631   4.014   3.302   9.150  1.7118 -1.0547 -0.0642
 1666SOL    HW216632   4.094   3.390   9.065  1.9166 -0.3334  0.4259
 1667SOL     OW16633   0.884   2.145   8.857 -0.0267  0.1059  0.1681
 1667SOL    HW116634   0.797   2.164   8.891  0.7071  2.3480  0.7628
 1667SOL    HW216635   0.923   2.217   8.906  2.5727 -1.9965  1.2415
 1668SOL     OW16636   2.390   4.484  10.597  0.2734  0.4212  0.4721
 1668SOL    HW116637   2.466   4.489  10.540 -0.4047  0.2864 -0.4364
 1668SOL    HW216638   2.343   4.407  10.564  2.5045 -0.0995 -1.4701
 1669SOL     OW16639   0.549   2.857  17.049 -0.6383 -0.0592 -0.6246
 1669SOL    HW116640   0.628   2.903  17.019  0.4066 -0.4813  1.4515
 1669SOL    HW216641   0.482   2.925  17.057  0.3084  0.6744  1.1685
 1670SOL     OW16642   3.921   3.884   5.672  0.0663 -0.6128  0.3283
 1670SOL    HW116643   3.922   3.852   5.763 -3.1401  0.1161  0.5961
 1670SOL    HW216644   3.901   3.975   5.696 -3.2311 -1.5849  1.2569
 1671SOL     OW16645   2.916   0.593  11.461 -0.4795 -0.6337  0.1067
 1671SOL    HW116646   2.980   0.656  11.428  1.2688 -1.4610  1.8973
 1671SOL    HW216647   2.966   0.526  11.508  1.6758  0.8073 -0.1598
 1672SOL     OW16648   2.425   2.743   3.695 -0.4095  0.0760  0.5500
 1672SOL    HW116649   2.481   2.771   3.767  0.0920 -0.2383  0.2809
 1672SOL    HW216650   2.339   2.741   3.736 -0.9636  2.1744 -0.4767
 1673SOL     OW16651   2.457   4.174  11.637 -0.5236 -0.2325  0.8239
 1673SOL    HW116652   2.522   4.243  11.654 -0.4262  0.6435 -3.1150
 1673SOL    HW216653   2.484   4.146  11.550  0.4873 -0.8568  1.3346
 1674SOL     OW16654   0.234   3.354  16.155  0.4952 -0.1787 -0.5340
 1674SOL    HW116655   0.169   3.348  16.225  2.1243  0.5866  1.0350
 1674SOL    HW216656   0.190   3.407  16.088 -0.3666 -1.8702 -1.3156
 1675SOL     OW16657   3.971   2.595   6.684  0.7465  0.5888 -0.1043
 1675SOL    HW116658   4.063   2.620   6.671  0.8923 -0.1961 -0.5936
 1675SOL    HW216659   3.980   2.504   6.711 -1.2251 -0.0200 -1.4425
 1676SOL     OW16660   3.104   4.541   2.487 -0.0448 -0.1720  0.2924
 1676SOL    HW116661   3.121   4.605   2.556  3.3949 -0.8145  0.0692
 1676SOL    HW216662   3.163   4.576   2.420 -0.5346 -1.6262 -0.9229
 1677SOL     OW16663   2.735   0.627   8.880 -0.2679 -0.3709  0.4781
 1677SOL    HW116664   2.754   0.625   8.974  2.7276 -1.5881 -0.1704
 1677SOL    HW216665   2.672   0.699   8.884 -0.3163 -0.2878 -1.6454
 1678SOL     OW16666   1.902   0.994  13.767  0.3680  0.0461 -0.2252
 1678SOL    HW116667   1.997   1.006  13.777  0.2803 -0.4087  1.2368
 1678SOL    HW216668   1.891   1.001  13.672  0.7216  0.7705 -0.2114
 1679SOL     OW16669   4.352   0.231   3.237  0.0432  0.5252  0.4844
 1679SOL    HW116670   4.310   0.264   3.316 -0.6408 -1.5778  0.9910
 1679SOL    HW216671   4.423   0.291   3.213  0.5552  0.0145  0.7076
 1680SOL     OW16672   3.620   0.488   3.138 -0.1777 -0.2712  0.1353
 1680SOL    HW116673   3.709   0.523   3.138 -1.0497  1.9583  1.7483
 1680SOL    HW216674   3.637   0.404   3.181  0.2006 -0.6843 -0.8203
 1681SOL     OW16675   4.060   3.028   4.912 -0.1053  1.0492  0.8069
 1681SOL    HW116676   3.969   3.056   4.904  0.3516  2.0953 -0.7363
 1681SOL    HW216677   4.104   3.080   4.845  0.7630 -0.6060  0.0724
 1682SOL     OW16678   0.335   3.294  13.966 -0.5942 -0.3329 -0.1426
 1682SOL    HW116679   0.363   3.353  14.036 -1.2033 -0.1473 -0.0573
 1682SOL    HW216680   0.249   3.270  14.002 -0.2958 -0.3831  0.5471
 1683SOL     OW16681   1.878   2.252   6.082 -0.6570  0.0669 -0.0128
 1683SOL    HW116682   1.934   2.195   6.030  0.4603  1.7905 -0.7160
 1683SOL    HW216683   1.800   2.198   6.095 -1.0388  0.9222  1.2712
 1684SOL     OW16684   3.407   2.753  11.221  0.4584  0.0233 -0.0813
 1684SOL    HW116685   3.388   2.845  11.243  0.9217 -0.5578  2.7304
 1684SOL    HW216686   3.501   2.740  11.231  0.6058  2.2258  1.3911
 1685SOL     OW16687   4.065   0.343   5.777 -0.0274 -0.0357  0.1612
 1685SOL    HW116688   3.998   0.314   5.838  1.6040 -4.2181  0.0101
 1685SOL    HW216689   4.020   0.418   5.738 -0.1498 -0.0305  0.3134
 1686SOL     OW16690   4.003   3.393   5.245  0.3735  0.5269 -0.5824
 1686SOL    HW116691   3.924   3.355   5.205  0.4486 -0.2148 -0.0220
 1686SOL    HW216692   4.058   3.316   5.253  0.0612  0.0659 -2.7005
 1687SOL     OW16693   0.819   3.459   5.491  0.2176  0.6614 -0.2519
 1687SOL    HW116694   0.771   3.402   5.431 -1.5442  1.9267 -0.0212
 1687SOL    HW216695   0.822   3.394   5.562  0.3485  0.3402 -0.5480
 1688SOL     OW16696   0.725   4.458   5.019  0.4653 -0.1658  0.0365
 1688SOL    HW116697   0.792   4.415   5.073 -1.7912 -0.5076  2.5646
 1688SOL    HW216698   0.664   4.387   5.004  0.7159  0.0832 -2.1054
 1689SOL     OW16699   4.344   1.437   7.855  0.2878  0.4167  0.0733
 1689SOL    HW116700   4.361   1.388   7.774 -2.8196 -1.8190  0.7682
 1689SOL    HW216701   4.421   1.411   7.905  1.7372  0.9819 -1.8789
 1690SOL     OW16702   1.892   0.387   2.657  0.1850 -0.2262 -0.4416
 1690SOL    HW116703   1.820   0.324   2.666 -0.1246  0.0079 -1.3749
 1690SOL    HW216704   1.905   0.388   2.562  0.2374 -0.4843 -0.4386
 1691SOL     OW16705   0.923   2.378  13.354  0.6942 -0.0088 -0.1048
 1691SOL    HW116706   0.974   2.383  13.435 -0.6328 -0.0746  0.7310
 1691SOL    HW216707   0.887   2.289  13.361  1.1835 -0.3472 -1.9166
 1692SOL     OW16708   1.820   2.869   5.117 -0.0991 -0.3662 -0.8706
 1692SOL    HW116709   1.780   2.782   5.126  2.1545 -1.3495 -0.2435
 1692SOL    HW216710   1.810   2.886   5.023 -0.7070  3.4407 -0.1206
 1693SOL     OW16711   1.839   0.745   8.237  0.1457 -0.0153  0.0481
 1693SOL    HW116712   1.822   0.829   8.279  0.1701 -0.3648  0.7572
 1693SOL    HW216713   1.919   0.725   8.285  0.1155 -1.7300 -0.6135
 1694SOL     OW16714   3.759   2.183   2.127 -0.2641  0.1390 -0.0941
 1694SOL    HW116715   3.850   2.211   2.134  0.0018 -0.9999  1.0535
 1694SOL    HW216716   3.736   2.206   2.038  3.1694 -0.4176 -1.1417
 1695SOL     OW16717   1.288   0.220   2.478  0.2873  0.4042  0.6467
 1695SOL    HW116718   1.210   0.166   2.469  1.1228 -0.6416 -0.2978
 1695SOL    HW216719   1.276   0.288   2.412  0.8989  1.4861  1.6583
 1696SOL     OW16720   2.456   2.660  13.883 -0.1883  0.2463  0.2243
 1696SOL    HW116721   2.538   2.709  13.884  0.2672 -0.5390  0.8528
 1696SOL    HW216722   2.393   2.732  13.876 -1.3992 -0.8205  0.2040
 1697SOL     OW16723   4.234   0.318   6.323 -0.0768 -0.8752 -0.5454
 1697SOL    HW116724   4.185   0.277   6.252  0.3720 -1.2517 -0.6388
 1697SOL    HW216725   4.251   0.245   6.382 -0.6752  0.1010  0.8511
 1698SOL     OW16726   2.451   3.128   3.484 -0.2498 -0.5682  0.7704
 1698SOL    HW116727   2.519   3.071   3.519  0.2849 -0.8669 -0.7669
 1698SOL    HW216728   2.393   3.136   3.560 -0.8317  1.0722  0.1778
 1699SOL     OW16729   0.357   2.195   4.958 -0.4460 -0.6541  0.1572
 1699SOL    HW116730   0.374   2.206   4.864 -0.6385  1.9298  0.4383
 1699SOL    HW216731   0.357   2.284   4.992 -0.7945  0.0552 -1.6733
 1700SOL     OW16732   3.700   2.313   3.892  0.4768 -0.1609 -0.2821
 1700SOL    HW116733   3.623   2.367   3.907 -0.6809 -1.7839 -0.3587
 1700SOL    HW216734   3.757   2.338   3.964 -0.6527 -0.4060  0.6861
 1701SOL     OW16735   2.478   3.042   2.175 -0.2453  0.2263 -0.1010
 1701SOL    HW116736   2.431   3.116   2.137 -2.2144 -0.1953  1.5839
 1701SOL    HW216737   2.566   3.078   2.188 -0.9854  2.6481 -1.6949
 1702SOL     OW16738   4.506   4.137   4.177 -0.0194 -0.1003 -0.1640
 1702SOL    HW116739   4.484   4.094   4.260  0.9035 -0.8195 -0.2933
 1702SOL    HW216740   4.435   4.200   4.170  0.1244  0.1902  0.9161
 1703SOL     OW16741   1.082   1.587  15.303 -0.0484  0.3973 -0.3661
 1703SOL    HW116742   1.158   1.610  15.357  1.4008 -0.5722 -1.9770
 1703SOL    HW216743   1.079   1.493  15.319 -3.9018  0.5434 -0.2771
 1704SOL     OW16744   0.150   3.063  15.456 -0.4351  0.0798  0.9608
 1704SOL    HW116745   0.081   3.063  15.523  0.3945  0.7398  1.8104
 1704SOL    HW216746   0.205   2.987  15.474  0.2829  0.2885 -0.4129
 1705SOL     OW16747   4.410   1.951   6.381 -0.1212  0.5015  0.1509
 1705SOL    HW116748   4.359   2.012   6.327 -0.8820 -2.0924 -2.0551
 1705SOL    HW216749   4.394   1.870   6.332  0.4727 -0.7638  2.0401
 1706SOL     OW16750   2.841   3.734   4.316  0.4060  0.3368 -0.3834
 1706SOL    HW116751   2.773   3.690   4.264 -0.2477  3.2976 -2.0428
 1706SOL    HW216752   2.884   3.778   4.243 -0.4029  1.6681 -0.0541
 1707SOL     OW16753   2.219   2.957   6.949  0.5013 -0.2286 -0.7237
 1707SOL    HW116754   2.185   2.925   7.033  1.0468 -0.6464 -0.6592
 1707SOL    HW216755   2.151   3.020   6.926  0.5617 -0.1473 -0.6798
 1708SOL     OW16756   0.484   0.857   9.082  0.4699  0.0854  0.2817
 1708SOL    HW116757   0.538   0.855   9.003 -1.2249 -1.8229 -0.8236
 1708SOL    HW216758   0.402   0.871   9.035 -0.2759 -1.4004  1.1245
 1709SOL     OW16759   4.186   4.480   7.688 -0.2818  0.2113  0.4960
 1709SOL    HW116760   4.134   4.473   7.768  0.3873 -0.3223  0.8909
 1709SOL    HW216761   4.116   4.510   7.630  0.0282 -1.0818 -0.5506
 1710SOL     OW16762   0.367   3.408   2.950  0.3905 -0.1975  0.4973
 1710SOL    HW116763   0.361   3.462   3.030 -0.8053 -0.3145  0.4744
 1710SOL    HW216764   0.440   3.453   2.907  0.2861  0.2940  0.8284
 1711SOL     OW16765   2.777   1.595   2.431 -0.5056  0.1728  0.0749
 1711SOL    HW116766   2.821   1.515   2.403 -2.1181 -0.7734  0.2835
 1711SOL    HW216767   2.694   1.600   2.384 -0.5117 -0.2716  0.0410
 1712SOL     OW16768   2.457   1.223   5.129 -0.5917  0.4260 -0.7563
 1712SOL    HW116769   2.424   1.137   5.155 -1.5577  0.6318 -1.3264
 1712SOL    HW216770   2.533   1.207   5.073  2.2922  2.1987  2.6164
 1713SOL     OW16771   1.635   2.183   7.542  0.2149  0.4234 -0.0420
 1713SOL    HW116772   1.661   2.210   7.454  0.4489  0.7454  0.1281
 1713SOL    HW216773   1.716   2.165   7.589  0.1969 -0.2311 -0.2665
 1714SOL     OW16774   0.792   0.119   4.888 -0.1209  0.1534 -0.0247
 1714SOL    HW116775   0.751   0.159   4.812 -2.7633 -0.3601  1.1419
 1714SOL    HW216776   0.871   0.087   4.845  0.0902  0.8785 -0.1808
 1715SOL     OW16777   1.075   1.634   1.686  0.1359 -0.4121 -0.6083
 1715SOL    HW116778   1.167   1.607   1.690 -0.1571 -1.1480  0.8279
 1715SOL    HW216779   1.084   1.727   1.710 -1.2908 -0.2138 -0.8727
 1716SOL     OW16780   1.969   3.000   1.075  0.2640  0.0294  0.0128
 1716SOL    HW116781   1.907   3.032   1.141 -2.3897 -1.6920 -1.6416
 1716SOL    HW216782   2.002   2.923   1.121  0.8799  1.8175  2.6173
 1717SOL     OW16783   4.714   3.348  12.042  0.1377 -0.2976  0.2661
 1717SOL    HW116784   4.674   3.281  12.098 -1.8823  2.7056  2.4219
 1717SOL    HW216785   4.677   3.313  11.961 -1.4684 -1.4291  1.4721
 1718SOL     OW16786   4.197   0.211   8.115  0.0577 -0.7053 -0.2905
 1718SOL    HW116787   4.266   0.146   8.105  0.0375 -0.6865 -0.5607
 1718SOL    HW216788   4.240   0.295   8.094  3.1800 -2.2111  0.0200
 1719SOL     OW16789   1.144   1.422  17.504 -0.4782  0.1081  0.5281
 1719SOL    HW116790   1.202   1.476  17.450 -0.7618 -1.3110 -1.2139
 1719SOL    HW216791   1.117   1.360  17.437  0.7786 -0.7061  0.7910
 1720SOL     OW16792   2.696   1.236   4.979  0.3078  0.2678  0.4519
 1720SOL    HW116793   2.779   1.208   4.941  0.5959  0.5625  0.8679
 1720SOL    HW216794   2.657   1.273   4.900  2.6155 -0.6796 -1.1012
 1721SOL     OW16795   0.085   4.543   6.119 -0.1843  0.0706 -0.5189
 1721SOL    HW116796   0.040   4.534   6.035 -2.1044 -0.4597  0.5499
 1721SOL    HW216797   0.008   4.552   6.175  0.4802 -0.2817  0.4493
 1722SOL     OW16798   3.171   0.237   4.561 -0.2906  1.2844 -0.2509
 1722SOL    HW116799   3.222   0.193   4.494 -2.0654 -2.1519  0.6717
 1722SOL    HW216800   3.152   0.161   4.616 -1.1599  2.7753  1.5160
 1723SOL     OW16801   4.407   0.550   4.289 -0.0685 -0.2401  0.0704
 1723SOL    HW116802   4.367   0.525   4.373 -1.0766  0.6198 -0.1487
 1723SOL    HW216803   4.331   0.600   4.259 -0.9410 -1.0507  0.9063
 1724SOL     OW16804   2.087   1.274  15.399 -0.1998 -0.6402  0.5501
 1724SOL    HW116805   2.139   1.350  15.370 -0.4811  0.2581  2.4182
 1724SOL    HW216806   2.076   1.225  15.317 -2.5687  1.3653 -0.3580
 1725SOL     OW16807   1.838   0.464   5.388  0.1056  0.0353  0.4145
 1725SOL    HW116808   1.857   0.520   5.463  2.3205  0.5214 -0.5295
 1725SOL    HW216809   1.831   0.520   5.310  0.2383  0.2558  0.5622
 1726SOL     OW16810   3.007   1.138   4.224 -0.1429 -0.4622 -0.2300
 1726SOL    HW116811   2.969   1.223   4.244 -0.6280 -0.4146 -1.3325
 1726SOL    HW216812   3.098   1.167   4.227  0.6124 -2.9330  0.9854
 1727SOL     OW16813   3.517   1.540   2.367 -0.0402 -0.0851 -0.0913
 1727SOL    HW116814   3.558   1.482   2.432  0.8755  1.2200  0.5027
 1727SOL    HW216815   3.557   1.623   2.393  0.9211 -0.6797  0.3478
 1728SOL     OW16816   0.035   4.448   7.935  0.0823 -0.1945  0.4228
 1728SOL    HW116817   0.025   4.392   7.858  1.6994 -0.2097  0.2189
 1728SOL    HW216818   0.025   4.532   7.890  0.6534  0.6945  1.9626
 1729SOL     OW16819   3.612   1.651  12.723 -0.6453 -0.2545 -0.7968
 1729SOL    HW116820   3.696   1.683  12.754 -1.3017  0.1716  0.5526
 1729SOL    HW216821   3.622   1.556  12.726  1.1748 -0.0685 -0.9571
 1730SOL     OW16822   3.912   2.261   7.573  0.6852 -0.0113  0.0656
 1730SOL    HW116823   3.961   2.317   7.513 -1.0781  0.4814 -0.8883
 1730SOL    HW216824   3.977   2.199   7.607 -0.1694 -1.4528 -0.9379
 1731SOL     OW16825   4.290   0.734   8.516  0.2942 -0.3325  0.5636
 1731SOL    HW116826   4.265   0.723   8.424  1.0198  0.0522  0.3254
 1731SOL    HW216827   4.203   0.731   8.557 -0.1128  2.2540 -0.1328
 1732SOL     OW16828   0.291   0.325  12.307  0.3797 -0.2816  0.7593
 1732SOL    HW116829   0.276   0.388  12.236 -0.7542 -1.5422 -0.1197
 1732SOL    HW216830   0.365   0.272  12.276 -1.2817 -2.0346 -0.1998
 1733SOL     OW16831   2.744   2.645   4.866  0.4812  0.1003  0.1550
 1733SOL    HW116832   2.743   2.616   4.957 -1.9661  0.7618  0.3376
 1733SOL    HW216833   2.763   2.564   4.819  1.0163  0.4863 -0.3020
 1734SOL     OW16834   4.558   3.153   6.388 -0.2977  0.7997 -0.2051
 1734SOL    HW116835   4.528   3.078   6.338  1.3640 -0.2141  0.3059
 1734SOL    HW216836   4.545   3.227   6.328 -1.3016  0.3805 -0.4966
 1735SOL     OW16837   0.569   0.119   7.384  0.1235  0.1487 -0.4997
 1735SOL    HW116838   0.661   0.128   7.410  0.7212 -1.4652 -2.0357
 1735SOL    HW216839   0.520   0.161   7.455 -0.2901  1.9108 -1.8265
 1736SOL     OW16840   0.772   2.226  17.438  0.2636 -0.2361  0.1453
 1736SOL    HW116841   0.735   2.170  17.506 -0.0535 -0.5498 -0.2775
 1736SOL    HW216842   0.714   2.301  17.428 -1.4082 -0.7537  6.0201
 1737SOL     OW16843   4.677   1.968   9.311  0.0479  0.0423  0.9076
 1737SOL    HW116844   4.635   1.891   9.273  0.7842  0.3121 -0.4314
 1737SOL    HW216845   0.020   1.984   9.262 -1.0521 -1.9992 -1.5482
 1738SOL     OW16846   1.095   0.976   0.359 -0.0829  0.3392 -0.2981
 1738SOL    HW116847   1.036   1.035   0.311  0.1688  0.3833 -0.5611
 1738SOL    HW216848   1.177   1.026   0.351  0.0084 -0.0462 -1.8252
 1739SOL     OW16849   4.490   4.438   2.750 -0.0852  0.2010  0.0948
 1739SOL    HW116850   4.444   4.490   2.816  0.3738  1.5671 -0.6754
 1739SOL    HW216851   4.530   4.368   2.801  1.0112  1.3115  0.7533
 1740SOL     OW16852   3.897   0.124   5.196  1.1349  0.1393 -0.3035
 1740SOL    HW116853   3.848   0.101   5.117  1.6978  2.2067 -1.2686
 1740SOL    HW216854   3.903   0.219   5.184 -0.7623  0.1147 -1.3705
 1741SOL     OW16855   3.067   3.307   1.127 -0.2166 -0.1389 -0.2838
 1741SOL    HW116856   3.069   3.399   1.103  1.7284  0.1269  0.9123
 1741SOL    HW216857   3.024   3.316   1.212 -0.0940  1.0069 -0.3481
 1742SOL     OW16858   3.978   0.519  16.154 -0.4507 -0.4449  0.5890
 1742SOL    HW116859   4.063   0.547  16.186  0.1788  0.0450 -1.4758
 1742SOL    HW216860   3.977   0.554  16.065 -1.7389 -1.7945  0.0596
 1743SOL     OW16861   4.449   3.435   5.240  0.1321  0.4357 -0.3748
 1743SOL    HW116862   4.521   3.383   5.274  0.6534 -0.3874 -2.7288
 1743SOL    HW216863   4.503   3.505   5.202 -0.1230  1.4790  1.1873
 1744SOL     OW16864   2.439   1.576   3.324 -0.3790  0.5933  0.2248
 1744SOL    HW116865   2.520   1.592   3.372  0.0912  0.8901 -0.6710
 1744SOL    HW216866   2.448   1.624   3.241 -0.0605 -0.9045 -0.6208
 1745SOL     OW16867   4.679   0.875   9.333 -0.2488  0.5117  0.4095
 1745SOL    HW116868   4.681   0.928   9.413  0.4741  1.9122 -0.5287
 1745SOL    HW216869   4.735   0.922   9.271  0.1309  1.5125  1.5131
 1746SOL     OW16870   2.385   3.258   5.728 -0.2908  0.3593 -0.2230
 1746SOL    HW116871   2.413   3.199   5.798  0.0235  0.3711 -0.3405
 1746SOL    HW216872   2.397   3.194   5.658 -1.7811  0.2221 -0.3575
 1747SOL     OW16873   1.367   2.769   7.835 -0.3303  0.2170  0.6937
 1747SOL    HW116874   1.310   2.697   7.807 -0.1586 -0.4946  2.1262
 1747SOL    HW216875   1.317   2.813   7.904  0.6393  0.4710  1.2354
 1748SOL     OW16876   1.534   4.241   9.156 -0.3982  0.4977 -0.1588
 1748SOL    HW116877   1.531   4.331   9.188 -0.4197  1.3320 -2.5767
 1748SOL    HW216878   1.440   4.229   9.146 -0.5095  0.4513  0.9093
 1749SOL     OW16879   0.262   2.572   8.877  1.0434  0.6649 -0.1967
 1749SOL    HW116880   0.308   2.511   8.936 -1.1037 -0.3518  0.4069
 1749SOL    HW216881   0.215   2.614   8.949 -0.3393 -0.2185 -0.5978
 1750SOL     OW16882   1.618   1.960   6.382  0.6696 -0.4558  0.4565
 1750SOL    HW116883   1.711   1.976   6.401  0.2409  1.1846  1.2183
 1750SOL    HW216884   1.632   1.885   6.325  1.0858 -0.9026  1.1478
 1751SOL     OW16885   3.672   1.831   8.768  0.1086  0.2275  0.5234
 1751SOL    HW116886   3.663   1.911   8.718 -0.2160 -2.1763 -3.2682
 1751SOL    HW216887   3.580   1.815   8.790 -1.1709  1.0755 -4.2993
 1752SOL     OW16888   1.758   3.321  17.499  0.3974 -0.6257 -0.7192
 1752SOL    HW116889   1.817   3.246  17.507 -0.3072 -1.3423 -2.3514
 1752SOL    HW216890   1.744   3.332  17.405 -1.8901  0.3270 -0.2765
 1753SOL     OW16891   0.105   1.922   4.645  0.1600 -0.0147  0.1355
 1753SOL    HW116892   0.194   1.893   4.627  0.0150  0.6755 -1.7346
 1753SOL    HW216893   0.114   2.017   4.655 -1.8578  0.0025  1.7743
 1754SOL     OW16894   0.932   1.976  13.768 -0.3143  0.4937  0.2398
 1754SOL    HW116895   0.955   1.885  13.785  0.0026  0.6749  0.7636
 1754SOL    HW216896   0.837   1.971  13.783 -0.3439 -0.9180 -0.4484
 1755SOL     OW16897   4.525   1.163   5.717 -0.3804  0.1019  0.1686
 1755SOL    HW116898   4.561   1.077   5.695  1.7116  1.2349 -0.8807
 1755SOL    HW216899   4.532   1.199   5.628 -0.1146 -0.0977  0.1113
 1756SOL     OW16900   1.412   2.075   5.698  0.1248 -0.1302  0.2228
 1756SOL    HW116901   1.341   2.052   5.758  1.0229 -2.8547  0.2282
 1756SOL    HW216902   1.490   2.026   5.725  0.8630  1.3751  0.8624
 1757SOL     OW16903   2.086   1.947   2.131 -0.0580 -0.2817 -0.3241
 1757SOL    HW116904   2.130   1.968   2.048 -1.6191 -0.2808 -1.1561
 1757SOL    HW216905   2.169   1.944   2.177  0.3054  2.0966 -0.8388
 1758SOL     OW16906   2.079   0.544  14.037 -0.0101 -0.1821  0.2191
 1758SOL    HW116907   1.997   0.593  14.037  0.9907  1.4610  0.7417
 1758SOL    HW216908   2.060   0.491  14.114  1.3942 -0.3557  0.4303
 1759SOL     OW16909   1.432   0.711  10.526 -0.0478 -0.2291  0.1780
 1759SOL    HW116910   1.380   0.722  10.606 -0.1190  0.8637 -0.0151
 1759SOL    HW216911   1.378   0.657  10.467 -0.3922  1.4365 -1.0208
 1760SOL     OW16912   3.741   0.237   0.911 -0.8664  0.4450  0.5754
 1760SOL    HW116913   3.688   0.232   0.991 -0.2637  2.7319  1.1160
 1760SOL    HW216914   3.765   0.144   0.906 -3.0422 -0.2263  2.9661
 1761SOL     OW16915   0.917   2.095   8.128 -0.5163  0.2567 -0.0520
 1761SOL    HW116916   0.867   2.127   8.053 -1.2652 -1.0317 -0.1039
 1761SOL    HW216917   0.922   2.171   8.185 -0.2954  2.4005 -2.9209
 1762SOL     OW16918   3.445   0.101   3.925  0.1256 -0.6705  0.0927
 1762SOL    HW116919   3.508   0.161   3.885  1.4949 -0.4709  2.4983
 1762SOL    HW216920   3.470   0.018   3.885 -0.7868 -1.3273  0.9019
 1763SOL     OW16921   3.170   1.539   2.923  0.4025 -0.4753  0.3533
 1763SOL    HW116922   3.179   1.625   2.964 -0.5606  0.6591 -1.7991
 1763SOL    HW216923   3.182   1.487   3.003  1.5257 -0.6413  0.0751
 1764SOL     OW16924   3.072   4.478   4.709 -0.0530  0.2501 -0.3286
 1764SOL    HW116925   3.050   4.388   4.732 -1.3045  0.6220 -0.1045
 1764SOL    HW216926   3.068   4.524   4.793  0.7243 -1.6726  0.7552
 1765SOL     OW16927   1.572   3.488   5.281 -0.4737 -0.2193 -0.0637
 1765SOL    HW116928   1.481   3.505   5.305 -0.3396  0.0775  0.2337
 1765SOL    HW216929   1.574   3.392   5.288  0.0865 -0.2548 -0.7415
 1766SOL     OW16930   3.621   2.670   3.237  0.1667 -0.1892 -0.2599
 1766SOL    HW116931   3.557   2.739   3.258  0.1793 -1.0822  2.6509
 1766SOL    HW216932   3.570   2.597   3.273  1.0960 -0.6916  0.0252
 1767SOL     OW16933   2.938   4.210   2.556 -0.2245  0.0280  0.1637
 1767SOL    HW116934   2.886   4.272   2.608 -0.2696  1.4301 -1.5659
 1767SOL    HW216935   2.941   4.259   2.474 -3.0062 -1.0609 -0.5874
 1768SOL     OW16936   3.374   2.980   1.883 -0.6316 -0.3248  0.1122
 1768SOL    HW116937   3.468   2.979   1.901 -0.6128 -2.5305 -0.0376
 1768SOL    HW216938   3.378   2.919   1.809  4.2911  0.3754 -0.1819
 1769SOL     OW16939   4.173   3.105   9.332 -0.6799  0.0611  0.0866
 1769SOL    HW116940   4.238   3.142   9.273  1.9334 -1.5560  1.9305
 1769SOL    HW216941   4.181   3.153   9.415 -0.4767 -1.1798  0.7921
 1770SOL     OW16942   0.766   4.506   6.542 -0.2358  0.1227 -0.2451
 1770SOL    HW116943   0.751   4.565   6.616  0.2331  0.8778 -0.7650
 1770SOL    HW216944   0.851   4.544   6.522  0.8661 -1.6496  1.0784
 1771SOL     OW16945   3.818   4.611   5.078 -0.3212 -0.2173 -0.2187
 1771SOL    HW116946   3.751   4.574   5.135 -0.8467 -0.3575 -0.9225
 1771SOL    HW216947   3.893   4.604   5.137 -0.5543  1.1813  0.2286
 1772SOL     OW16948   3.667   0.331   4.582  0.0137  0.1939  0.5385
 1772SOL    HW116949   3.621   0.415   4.578  1.2551  0.9631  2.8260
 1772SOL    HW216950   3.748   0.354   4.626  0.4770 -0.4466  0.0257
 1773SOL     OW16951   2.367   0.938   8.364  0.1381  0.2715 -0.1382
 1773SOL    HW116952   2.436   0.965   8.425 -0.0537 -0.8444  0.5695
 1773SOL    HW216953   2.414   0.926   8.281 -0.1460 -1.3822 -0.0571
 1774SOL     OW16954   2.676   1.858  13.388  0.0980  0.0849 -0.2119
 1774SOL    HW116955   2.722   1.940  13.367  0.7293  0.2512  1.7846
 1774SOL    HW216956   2.585   1.886  13.384  0.6035  1.5126 -1.6343
 1775SOL     OW16957   2.850   3.701   1.797 -0.2334  0.3491 -0.3204
 1775SOL    HW116958   2.902   3.748   1.732 -0.7369 -2.2447 -2.5889
 1775SOL    HW216959   2.841   3.620   1.747 -2.7731  0.1694  0.4666
 1776SOL     OW16960   2.015   1.945   8.031 -0.2309 -0.9751 -0.0856
 1776SOL    HW116961   2.108   1.939   8.008 -0.5623 -1.8593 -1.1799
 1776SOL    HW216962   1.993   2.038   8.040  0.1242 -0.7089 -2.0348
 1777SOL     OW16963   4.001   0.707   8.591 -0.5278  0.8500  0.5673
 1777SOL    HW116964   3.988   0.747   8.505 -2.2075 -0.5723  0.1558
 1777SOL    HW216965   3.908   0.692   8.607 -0.7571  1.0981 -0.5336
 1778SOL     OW16966   1.094   0.947   2.767  0.0881 -0.0246  0.4644
 1778SOL    HW116967   1.074   0.868   2.717  3.5146 -0.2513 -0.5485
 1778SOL    HW216968   1.010   0.949   2.811 -1.5831 -2.4512 -2.5696
 1779SOL     OW16969   2.991   0.600   4.962  0.0895 -0.1578  0.3164
 1779SOL    HW116970   2.942   0.541   5.020 -0.5687  0.1453  0.0723
 1779SOL    HW216971   3.070   0.549   4.946  0.9232  1.2931 -0.1771
 1780SOL     OW16972   3.182   2.715   2.427 -0.0289 -0.7912  0.3571
 1780SOL    HW116973   3.204   2.659   2.352  2.5029  0.3943  0.1988
 1780SOL    HW216974   3.153   2.789   2.374 -0.3431 -0.5453  0.8762
 1781SOL     OW16975   4.126   0.440   7.889 -0.4605 -0.3543  0.1036
 1781SOL    HW116976   4.092   0.480   7.809 -2.6692  3.3542  2.8548
 1781SOL    HW216977   4.209   0.399   7.866  0.0100 -0.1958  1.5053
 1782SOL     OW16978   1.323   0.337   9.539 -0.1426 -0.2370  0.3717
 1782SOL    HW116979   1.248   0.364   9.485 -0.1929 -0.5996  0.2663
 1782SOL    HW216980   1.382   0.308   9.470  1.1295  2.8031  0.1772
 1783SOL     OW16981   4.477   2.557   6.724 -0.1241  0.5332 -0.6167
 1783SOL    HW116982   4.560   2.564   6.677 -0.1128  3.4633 -0.1794
 1783SOL    HW216983   4.505   2.524   6.809 -0.5575 -2.3759 -1.6162
 1784SOL     OW16984   2.409   0.068   8.550 -0.3198 -0.5418  0.1449
 1784SOL    HW116985   2.384   4.718   8.581  1.3390 -0.4907  1.6383
 1784SOL    HW216986   2.487   0.053   8.496  0.8784 -2.7992  2.4584
 1785SOL     OW16987   0.940   2.952   4.407 -0.5500  0.6312  0.0691
 1785SOL    HW116988   0.923   2.972   4.315  0.3223 -0.2752 -0.2893
 1785SOL    HW216989   0.853   2.965   4.444  0.1847 -2.7686  2.9124
 1786SOL     OW16990   0.994   0.988   5.316  0.2344 -0.3514 -0.1861
 1786SOL    HW116991   1.083   0.965   5.342 -0.7683 -1.2283  2.4758
 1786SOL    HW216992   0.947   1.025   5.391  1.7833  1.9109 -0.3208
 1787SOL     OW16993   3.104   0.526   4.501 -0.6035 -0.5481 -0.0162
 1787SOL    HW116994   3.072   0.459   4.441  0.5652 -1.7165  0.6657
 1787SOL    HW216995   3.134   0.481   4.580  0.1164  0.6100  0.3711
 1788SOL     OW16996   2.356   3.162   8.505  0.6585 -0.0716 -0.0403
 1788SOL    HW116997   2.273   3.141   8.462  0.4070  2.4353 -0.7991
 1788SOL    HW216998   2.400   3.077   8.500 -0.2260 -0.6092  1.1934
 1789SOL     OW16999   2.025   4.533   3.939  0.4280  0.2165 -0.1463
 1789SOL    HW117000   2.078   4.609   3.965  2.0430 -0.4934 -1.3019
 1789SOL    HW217001   1.955   4.544   4.003  0.4238 -1.0276  0.0513
 1790SOL     OW17002   0.396   0.459   9.351  0.3407 -0.4805 -0.2193
 1790SOL    HW117003   0.356   0.433   9.434 -1.4708 -1.8446 -1.5216
 1790SOL    HW217004   0.485   0.429   9.369  1.6137  2.7050 -1.2675
 1791SOL     OW17005   3.096   1.736   7.206 -0.4832 -0.2639  0.5504
 1791SOL    HW117006   3.187   1.721   7.180 -1.2875 -1.4999 -1.5694
 1791SOL    HW217007   3.058   1.786   7.133 -0.3297  1.2034  1.4849
 1792SOL     OW17008   0.276   2.867  13.102  0.3540  0.5001 -0.4247
 1792SOL    HW117009   0.251   2.855  13.194  1.5527 -0.7496 -0.2501
 1792SOL    HW217010   0.220   2.810  13.048 -0.0667  0.9295 -0.4376
 1793SOL     OW17011   0.148   4.284  13.620  0.0707  0.0741 -0.7795
 1793SOL    HW117012   0.176   4.306  13.709  1.4985 -1.2900 -0.8896
 1793SOL    HW217013   0.137   4.189  13.612 -1.1940  0.1047  0.4132
 1794SOL     OW17014   2.157   0.992  10.760  0.5373 -0.6873  0.0859
 1794SOL    HW117015   2.119   0.999  10.672 -0.0460 -1.2513  0.2904
 1794SOL    HW217016   2.241   1.038  10.755  1.2304 -2.0514 -1.0710
 1795SOL     OW17017   4.527   0.667  13.978  0.0484 -0.4407  0.3511
 1795SOL    HW117018   4.555   0.717  14.055 -0.0153  0.7763 -0.4272
 1795SOL    HW217019   4.603   0.648  13.923  2.2572  1.2444  2.8228
 1796SOL     OW17020   2.205   3.151  13.596 -0.7574  0.3866  0.3159
 1796SOL    HW117021   2.277   3.134  13.657 -1.8265  1.2828  1.8543
 1796SOL    HW217022   2.130   3.154  13.656 -0.3441 -4.9933  1.0765
 1797SOL     OW17023   2.584   0.248  14.871  0.2859  0.5750 -0.0201
 1797SOL    HW117024   2.640   0.319  14.840 -0.2166  1.2256  0.5640
 1797SOL    HW217025   2.610   0.182  14.807 -1.4483  1.9392 -2.1321
 1798SOL     OW17026   2.833   4.403   6.845  0.5864 -0.2921  0.5082
 1798SOL    HW117027   2.743   4.407   6.814  0.7137  1.1690  0.2970
 1798SOL    HW217028   2.832   4.317   6.885 -0.6242  0.3407  1.7969
 1799SOL     OW17029   1.551   4.475   8.767 -0.5027  0.2200  0.1901
 1799SOL    HW117030   1.638   4.486   8.806 -1.5747 -0.6918  2.8055
 1799SOL    HW217031   1.499   4.454   8.844  0.6090  1.0135  1.1590
 1800SOL     OW17032   0.531   2.980   1.111  0.2604 -0.5149 -0.0970
 1800SOL    HW117033   0.539   2.907   1.049 -0.9965 -2.1629  1.6782
 1800SOL    HW217034   0.616   3.021   1.098 -0.1863  1.0566  1.8809
 1801SOL     OW17035   1.709   3.574   2.461  0.1517  0.5838  0.4051
 1801SOL    HW117036   1.695   3.567   2.555  0.3570  0.1640  0.4009
 1801SOL    HW217037   1.743   3.487   2.443  0.3600  0.7746 -0.1167
 1802SOL     OW17038   1.462   0.566  12.934 -0.4851  0.1709  0.6711
 1802SOL    HW117039   1.368   0.586  12.933 -0.6349 -0.7628 -2.5035
 1802SOL    HW217040   1.474   0.552  12.840 -1.5087  0.0436  0.5610
 1803SOL     OW17041   1.124   0.901   7.265  0.4547  0.2116 -0.0796
 1803SOL    HW117042   1.145   0.990   7.237  0.9815  1.0645  2.9860
 1803SOL    HW217043   1.042   0.902   7.315  1.7496  0.5247  2.0216
 1804SOL     OW17044   4.427   1.693  13.286 -0.2640 -0.0233 -0.0481
 1804SOL    HW117045   4.421   1.781  13.324  1.0536  0.6314 -1.3254
 1804SOL    HW217046   4.522   1.681  13.290 -0.0652  0.8956 -1.6076
 1805SOL     OW17047   1.589   3.794   2.011  0.7636 -0.0240 -0.0091
 1805SOL    HW117048   1.634   3.757   2.087 -1.5169 -2.5713  0.1181
 1805SOL    HW217049   1.645   3.758   1.943 -1.3983 -4.1377  0.4352
 1806SOL     OW17050   3.765   1.910   8.089 -0.0675  0.4692  0.6163
 1806SOL    HW117051   3.788   1.842   8.152  0.5451 -1.1266 -1.3300
 1806SOL    HW217052   3.699   1.947   8.148  0.4871  1.9134  0.3201
 1807SOL     OW17053   1.679   3.616   8.255  0.5353 -0.6611 -0.0641
 1807SOL    HW117054   1.650   3.698   8.294 -0.3953 -1.1850  0.3524
 1807SOL    HW217055   1.756   3.643   8.206 -0.0469  1.5567  0.2696
 1808SOL     OW17056   3.360   3.633  15.135  0.1630  0.4059 -0.0690
 1808SOL    HW117057   3.269   3.656  15.153  0.0505 -0.3713  0.3730
 1808SOL    HW217058   3.360   3.663  15.044  0.4972 -3.3617 -1.3108
 1809SOL     OW17059   4.364   3.257   9.926 -0.8261 -0.0587  0.5155
 1809SOL    HW117060   4.453   3.283   9.951 -0.7386  0.4675 -0.3406
 1809SOL    HW217061   4.328   3.340   9.893  0.2152 -0.1693 -0.9182
 1810SOL     OW17062   4.430   0.163   5.265  0.4387  0.1149  0.3417
 1810SOL    HW117063   4.431   0.212   5.348  2.6320 -0.0982  0.4191
 1810SOL    HW217064   4.520   0.173   5.235  0.7475 -3.8633  0.0051
 1811SOL     OW17065   2.165   0.503   8.030 -0.5133 -0.0838 -0.3913
 1811SOL    HW117066   2.188   0.429   7.976  0.2024 -0.0248 -0.1634
 1811SOL    HW217067   2.125   0.559   7.964  1.2346  1.4256 -0.1600
 1812SOL     OW17068   3.605   1.388  12.719  0.1573  0.2972 -1.0404
 1812SOL    HW117069   3.592   1.323  12.788 -1.1497  1.4494 -0.2055
 1812SOL    HW217070   3.559   1.356  12.641  0.3344 -0.4229 -0.8459
 1813SOL     OW17071   1.612   3.018   2.457 -0.3096  0.0318 -0.2472
 1813SOL    HW117072   1.660   2.936   2.459  0.6960  0.6272  0.2845
 1813SOL    HW217073   1.673   3.077   2.503 -1.6857  1.7408 -0.6170
 1814SOL     OW17074   2.299   2.399   3.309 -0.2306 -0.4976 -0.2778
 1814SOL    HW117075   2.310   2.486   3.272 -1.0563  0.1799  1.1162
 1814SOL    HW217076   2.386   2.359   3.304 -0.6126 -1.1839 -1.5684
 1815SOL     OW17077   2.811   3.873   8.429 -0.4098  0.3315 -0.0307
 1815SOL    HW117078   2.790   3.945   8.370 -0.7427 -0.3652 -0.7685
 1815SOL    HW217079   2.847   3.802   8.375 -0.3853 -0.3808  0.9321
 1816SOL     OW17080   4.079   1.119  12.333 -1.0306 -0.0029 -0.4686
 1816SOL    HW117081   4.028   1.176  12.389  0.1184 -0.8705  1.4748
 1816SOL    HW217082   4.114   1.064  12.404  0.0507  1.0100 -0.2174
 1817SOL     OW17083   3.107   3.674   9.048 -0.0819 -0.9129  0.1566
 1817SOL    HW117084   3.028   3.622   9.033 -1.1428  0.9735 -0.8614
 1817SOL    HW217085   3.090   3.763   9.017  0.0677  0.3241  3.6409
 1818SOL     OW17086   4.514   3.765   4.142  0.2569  0.5118 -0.0532
 1818SOL    HW117087   4.480   3.678   4.120 -1.0935  0.9465  0.2865
 1818SOL    HW217088   4.439   3.812   4.181 -0.2722  0.5725 -1.1568
 1819SOL     OW17089   2.071   2.057   5.972  0.8301  0.1145 -0.0442
 1819SOL    HW117090   2.138   1.994   5.945  0.6707  1.2998 -3.1739
 1819SOL    HW217091   2.119   2.117   6.028 -0.1357  0.4582  0.4138
 1820SOL     OW17092   0.496   0.574   4.259 -0.0479  0.0825 -0.4456
 1820SOL    HW117093   0.448   0.618   4.329 -0.5770 -0.4178 -0.4915
 1820SOL    HW217094   0.458   0.616   4.182  0.4132 -1.1719 -1.3721
 1821SOL     OW17095   1.272   4.222   4.241 -0.6756  0.4638 -0.5040
 1821SOL    HW117096   1.333   4.196   4.172 -0.1112  1.8209 -0.5212
 1821SOL    HW217097   1.315   4.176   4.313  0.4495 -0.7324 -1.9237
 1822SOL     OW17098   3.415   0.114   7.042  0.1666 -0.5668  0.1265
 1822SOL    HW117099   3.496   0.160   7.065 -0.8555  0.7810  1.0822
 1822SOL    HW217100   3.366   0.190   7.011 -1.0500 -1.9217 -1.2452
 1823SOL     OW17101   1.944   4.612   1.550  0.3789 -0.7610  0.5887
 1823SOL    HW117102   2.016   4.594   1.489  0.3023  0.3212  0.1863
 1823SOL    HW217103   1.879   4.548   1.520  0.6407 -1.3267  1.2147
 1824SOL     OW17104   3.242   4.186   7.468 -0.0844  0.4203  0.2314
 1824SOL    HW117105   3.219   4.252   7.401 -0.3676  1.4153  1.3142
 1824SOL    HW217106   3.187   4.230   7.532 -1.0311 -0.1631 -0.1839
 1825SOL     OW17107   3.718   2.293   5.848  0.0642 -0.9453 -0.3826
 1825SOL    HW117108   3.729   2.381   5.811  1.3543 -1.0623 -0.2890
 1825SOL    HW217109   3.630   2.305   5.884  1.0165 -2.5974  2.5443
 1826SOL     OW17110   3.483   0.092  11.610 -0.1194  0.0168  0.0347
 1826SOL    HW117111   3.522   0.005  11.604  0.1449 -0.0050  2.0140
 1826SOL    HW217112   3.558   0.149  11.621 -1.9082  2.5313 -0.7760
 1827SOL     OW17113   0.142   0.202   5.547  0.3768 -0.0173 -0.0668
 1827SOL    HW117114   0.074   0.260   5.581  0.1875  0.5415 -1.4184
 1827SOL    HW217115   0.219   0.253   5.572  0.0700  0.8780 -0.9704
 1828SOL     OW17116   1.821   2.171   2.165 -0.0918 -0.3867 -0.1336
 1828SOL    HW117117   1.762   2.238   2.129  1.4761  1.8618  1.4253
 1828SOL    HW217118   1.904   2.202   2.128  0.6044 -2.5153 -0.3287
 1829SOL     OW17119   4.421   0.115  12.592 -0.2896  0.9790  0.0419
 1829SOL    HW117120   4.514   0.123  12.571 -0.3262 -0.1757 -0.5553
 1829SOL    HW217121   4.433   0.121  12.687 -2.8868 -0.8435  0.4919
 1830SOL     OW17122   1.308   1.073   4.248 -0.6970  0.3298  0.8769
 1830SOL    HW117123   1.294   0.985   4.285  1.0079 -1.1002 -1.9091
 1830SOL    HW217124   1.356   1.118   4.317 -0.7608  1.3952  0.2183
 1831SOL     OW17125   0.088   4.151   3.464 -0.4464 -0.0677  0.2232
 1831SOL    HW117126   0.067   4.229   3.413  1.8250 -0.8885 -1.9310
 1831SOL    HW217127   0.110   4.088   3.396  1.1412 -0.9989  1.5982
 1832SOL     OW17128   1.814   0.315   7.731  0.5669  0.1758  0.5517
 1832SOL    HW117129   1.826   0.220   7.739 -0.1232 -0.0566 -1.2395
 1832SOL    HW217130   1.727   0.331   7.766 -0.7066  1.6019 -3.2517
 1833SOL     OW17131   2.329   0.426   8.392  0.1811  0.2983  0.0544
 1833SOL    HW117132   2.358   0.411   8.482 -1.3587  2.3358  0.8916
 1833SOL    HW217133   2.398   0.374   8.351  0.8109  0.4562  0.9191
 1834SOL     OW17134   0.327   0.567   7.726  0.5031 -0.3982 -0.0110
 1834SOL    HW117135   0.335   0.656   7.692  0.0391 -0.2544  0.2527
 1834SOL    HW217136   0.420   0.546   7.729  0.7258  0.4474 -1.1755
 1835SOL     OW17137   2.203   1.966   3.418 -0.0910  0.3285 -0.3878
 1835SOL    HW117138   2.140   2.034   3.444  0.8555  0.8970  0.4072
 1835SOL    HW217139   2.249   1.999   3.341 -1.8579  0.7670 -1.2695
 1836SOL     OW17140   3.439   2.205  17.512  1.1955 -0.5467 -0.1727
 1836SOL    HW117141   3.450   2.231  17.603 -1.6488 -0.7103  0.2113
 1836SOL    HW217142   3.531   2.182  17.498  1.6962  1.2755  0.1568
 1837SOL     OW17143   3.361   0.414   8.774  0.5010 -0.1851 -0.3626
 1837SOL    HW117144   3.443   0.453   8.744  1.6208 -0.7011  2.0784
 1837SOL    HW217145   3.385   0.401   8.865 -2.2306 -0.4684  0.3036
 1838SOL     OW17146   4.241   1.849  12.639 -0.2509  0.5238 -0.3604
 1838SOL    HW117147   4.276   1.901  12.712  0.2269 -0.8219  0.3740
 1838SOL    HW217148   4.307   1.779  12.637  0.4427  1.2516 -2.4109
 1839SOL     OW17149   4.509   4.462   9.372  0.3232 -0.1378 -0.6217
 1839SOL    HW117150   4.487   4.428   9.459  0.3724 -1.4291 -1.1058
 1839SOL    HW217151   4.559   4.541   9.393  2.1338 -2.2179  2.9270
 1840SOL     OW17152   3.323   3.858   8.018 -0.0590  0.3269  0.3969
 1840SOL    HW117153   3.396   3.798   8.004  0.5039  0.8716  1.0230
 1840SOL    HW217154   3.345   3.907   8.098 -0.9794  1.0618  0.2027
 1841SOL     OW17155   1.225   0.435   4.943  0.2123 -0.1547  0.3253
 1841SOL    HW117156   1.130   0.448   4.953 -0.1477 -1.4597 -1.4075
 1841SOL    HW217157   1.234   0.462   4.852 -2.7748  0.4642  0.2209
 1842SOL     OW17158   4.552   4.421   0.921  0.1515  0.0832  0.0216
 1842SOL    HW117159   4.551   4.484   0.849  0.5683  0.6311  0.5035
 1842SOL    HW217160   4.576   4.482   0.990 -0.6617 -0.2868  0.6308
 1843SOL     OW17161   0.576   4.111  12.047  0.1519 -0.0643  0.1720
 1843SOL    HW117162   0.522   4.147  12.118  1.1209  1.0496  0.3409
 1843SOL    HW217163   0.650   4.171  12.046 -1.2219  1.6417  0.4707
 1844SOL     OW17164   4.027   0.302  16.422 -0.6628  0.5884  0.2455
 1844SOL    HW117165   4.008   0.210  16.404  1.3740  0.0669  0.6901
 1844SOL    HW217166   3.940   0.342  16.429 -1.6150 -1.5458  0.7241
 1845SOL     OW17167   1.318   4.090   5.605 -0.2462 -0.1484 -0.4085
 1845SOL    HW117168   1.309   4.185   5.602 -1.0427 -0.2015  0.4150
 1845SOL    HW217169   1.281   4.059   5.522 -0.8059 -2.0655  0.5579
 1846SOL     OW17170   0.618   1.888  16.508 -0.9277  0.5183  0.3263
 1846SOL    HW117171   0.649   1.878  16.418 -0.3645 -0.3565  0.6172
 1846SOL    HW217172   0.626   1.983  16.519  0.4284  0.2421  1.7870
 1847SOL     OW17173   0.572   2.967  12.084 -0.5194  0.0710 -0.2581
 1847SOL    HW117174   0.487   2.991  12.122  1.0611  0.7159  2.8360
 1847SOL    HW217175   0.551   2.874  12.072 -1.3111  0.4013 -1.4732
 1848SOL     OW17176   4.003   3.853   5.283  0.0826 -0.1800  0.7208
 1848SOL    HW117177   3.978   3.772   5.328 -0.4790  0.9118  2.3342
 1848SOL    HW217178   3.918   3.897   5.280  0.1383 -0.1549 -0.7463
 1849SOL     OW17179   3.508   0.449  11.448 -0.2309 -0.0205  0.1266
 1849SOL    HW117180   3.576   0.515  11.437  0.4978 -0.8933 -0.5576
 1849SOL    HW217181   3.524   0.405  11.364 -3.3312 -1.6892  0.3906
 1850SOL     OW17182   0.186   3.967   5.018 -0.6493 -0.0994 -0.2961
 1850SOL    HW117183   0.190   3.916   4.937  0.8138  2.1207 -1.6300
 1850SOL    HW217184   0.095   3.963   5.045 -0.1142  0.9811  1.7425
 1851SOL     OW17185   0.808   4.184   3.460 -0.2674  0.3215  0.8516
 1851SOL    HW117186   0.860   4.242   3.405 -1.7421  2.3240  1.5638
 1851SOL    HW217187   0.737   4.242   3.489  0.3542  1.1485  0.7147
 1852SOL     OW17188   3.056   4.445   3.009 -0.2678 -0.9065 -0.0921
 1852SOL    HW117189   3.096   4.503   3.074 -2.3325  0.0457  0.3216
 1852SOL    HW217190   3.072   4.505   2.936 -1.0498 -2.2926 -1.4015
 1853SOL     OW17191   3.069   4.436   1.528 -0.3314 -0.0580  0.1984
 1853SOL    HW117192   3.012   4.406   1.457 -1.2560  0.5886  0.6677
 1853SOL    HW217193   3.072   4.356   1.580 -1.2983 -0.7262 -0.7860
 1854SOL     OW17194   0.940   4.205   0.805  0.5875 -0.0020  0.0037
 1854SOL    HW117195   0.845   4.215   0.798  0.8972  1.7686 -1.7345
 1854SOL    HW217196   0.976   4.228   0.719 -2.2746  0.0609 -1.1958
 1855SOL     OW17197   3.402   1.796  16.893 -0.7291  0.4795 -0.7525
 1855SOL    HW117198   3.372   1.861  16.829 -2.2374 -1.5341 -2.0743
 1855SOL    HW217199   3.334   1.788  16.960 -0.8422  1.3957 -0.7578
 1856SOL     OW17200   3.968   3.808   4.527  0.5889 -0.3218  0.3387
 1856SOL    HW117201   3.958   3.795   4.621  0.1432 -0.9194  0.2010
 1856SOL    HW217202   4.057   3.843   4.516  0.5856  0.5991  3.4335
 1857SOL     OW17203   2.700   2.092  16.689 -0.0745  0.0938  0.6440
 1857SOL    HW117204   2.758   2.155  16.646  0.0624 -0.0319  0.6448
 1857SOL    HW217205   2.681   2.036  16.613 -1.9925 -1.4071  2.2262
 1858SOL     OW17206   2.387   1.436   8.892  0.3425 -0.0445 -0.8431
 1858SOL    HW117207   2.311   1.414   8.945 -1.1676  2.7407 -1.8568
 1858SOL    HW217208   2.367   1.373   8.822  0.2783  0.2994 -1.1329
 1859SOL     OW17209   0.962   2.513   8.773  0.0187  0.2494  0.0371
 1859SOL    HW117210   0.911   2.462   8.709  0.1731  1.5739 -1.1425
 1859SOL    HW217211   0.972   2.449   8.843 -1.1622 -0.3699 -0.3515
 1860SOL     OW17212   2.298   2.998  17.565 -0.1579  0.0442  0.3306
 1860SOL    HW117213   2.369   3.050  17.526 -0.3922 -1.6577 -2.3770
 1860SOL    HW217214   2.240   3.072  17.583 -0.7804 -0.3353 -0.1497
 1861SOL     OW17215   0.704   2.078   2.303 -0.5628 -0.4149  0.1562
 1861SOL    HW117216   0.637   2.026   2.346 -0.9982  0.0744  0.0698
 1861SOL    HW217217   0.785   2.044   2.343 -0.6919 -1.0148 -0.0962
 1862SOL     OW17218   3.568   4.123   3.037 -0.3493  0.2614 -0.2193
 1862SOL    HW117219   3.484   4.162   3.014 -0.0550  1.2855  0.4769
 1862SOL    HW217220   3.546   4.030   3.027 -1.4107  0.3476  1.2758
 1863SOL     OW17221   4.503   2.247   1.409  0.0048 -0.2050  0.2450
 1863SOL    HW117222   4.596   2.228   1.398 -0.0238  0.3687 -0.9663
 1863SOL    HW217223   4.462   2.214   1.328 -1.8827  0.4118  0.9359
 1864SOL     OW17224   1.506   2.308   6.107 -0.5577  0.3966 -0.4938
 1864SOL    HW117225   1.507   2.313   6.203 -1.3751 -0.7352 -0.4289
 1864SOL    HW217226   1.560   2.231   6.089 -2.7369 -1.3958  0.6613
 1865SOL     OW17227   1.828   1.412   0.386 -0.0990  0.3342  0.1109
 1865SOL    HW117228   1.821   1.410   0.481 -0.2869  0.1990  0.0937
 1865SOL    HW217229   1.912   1.376   0.358  0.2877 -0.0518  1.7988
 1866SOL     OW17230   3.289   0.202   3.053 -0.2207  0.1205  0.1397
 1866SOL    HW117231   3.378   0.167   3.062 -0.3377 -0.2359 -0.1194
 1866SOL    HW217232   3.253   0.166   3.134 -1.2548  0.0286 -0.3676
 1867SOL     OW17233   2.270   1.388   7.367 -0.0987 -0.2209  0.7104
 1867SOL    HW117234   2.209   1.350   7.304  0.9990  1.1903 -1.1697
 1867SOL    HW217235   2.299   1.462   7.314 -1.3405  0.6323  1.2277
 1868SOL     OW17236   0.063   3.490   5.576 -0.2539 -0.1357 -0.6543
 1868SOL    HW117237   0.093   3.412   5.623  0.9043  0.9221  0.3526
 1868SOL    HW217238   0.143   3.517   5.531  0.4424 -1.3319 -0.1354
 1869SOL     OW17239   2.351   3.168  13.189  0.8700  0.1667  0.8883
 1869SOL    HW117240   2.388   3.097  13.136  0.1719 -0.1628  0.8483
 1869SOL    HW217241   2.403   3.242  13.159 -1.8515  2.1374  1.0105
 1870SOL     OW17242   0.350   1.062   5.892  0.0536  0.2794  0.2172
 1870SOL    HW117243   0.417   1.025   5.949 -0.2830 -0.8118 -0.0994
 1870SOL    HW217244   0.394   1.110   5.821 -0.0090 -0.4014 -0.2742
 1871SOL     OW17245   1.451   3.925   8.922  0.1735 -0.6607 -0.0391
 1871SOL    HW117246   1.406   3.882   8.849 -1.5620  1.8324 -0.4094
 1871SOL    HW217247   1.460   3.846   8.976  2.5649  0.8644  1.7718
 1872SOL     OW17248   1.710   3.604   9.634 -0.0067  0.2854 -0.1533
 1872SOL    HW117249   1.640   3.587   9.698  0.9980 -0.1250  0.8514
 1872SOL    HW217250   1.711   3.526   9.579  1.2732  0.5766 -0.5331
 1873SOL     OW17251   1.343   3.801   6.273  0.1059 -0.3423  0.1236
 1873SOL    HW117252   1.302   3.772   6.193 -1.8686 -1.3840  1.5210
 1873SOL    HW217253   1.335   3.722   6.326 -0.8694 -0.0730  0.3758
 1874SOL     OW17254   2.066   1.182  12.258 -0.2594  0.1359 -0.1960
 1874SOL    HW117255   2.007   1.193  12.183  0.9885  2.1517 -0.8635
 1874SOL    HW217256   2.138   1.131  12.222  0.1685  1.1733 -0.8005
 1875SOL     OW17257   0.512   2.226   9.753 -0.2664 -0.1005  0.6200
 1875SOL    HW117258   0.431   2.196   9.711 -1.5570  1.4605  1.9829
 1875SOL    HW217259   0.470   2.302   9.794 -1.9367 -1.8026  2.0385
 1876SOL     OW17260   4.184   3.683   7.655 -0.0292  0.0543  0.6124
 1876SOL    HW117261   4.121   3.611   7.650  0.5945 -0.4245 -0.3321
 1876SOL    HW217262   4.259   3.641   7.698  1.6291  1.6208 -0.7519
 1877SOL     OW17263   1.559   0.759  12.173  0.5666  0.6094  0.1562
 1877SOL    HW117264   1.517   0.777  12.088 -1.4655 -1.4914  0.7104
 1877SOL    HW217265   1.646   0.723  12.158 -0.6747 -1.3128 -2.3799
 1878SOL     OW17266   3.591   2.948   7.191 -0.1171  0.0236 -0.3619
 1878SOL    HW117267   3.630   3.030   7.220  0.3287 -1.1631  2.3250
 1878SOL    HW217268   3.503   2.942   7.228 -0.3881  1.4533 -0.7600
 1879SOL     OW17269   0.936   2.047  15.985 -0.4189  0.0592  0.1932
 1879SOL    HW117270   0.848   2.016  16.005 -1.3414  2.1494 -0.6950
 1879SOL    HW217271   0.982   1.964  15.975 -0.2610  0.0757  0.7933
 1880SOL     OW17272   2.347   0.774  13.296  0.1626  0.0712  0.1424
 1880SOL    HW117273   2.403   0.739  13.365 -2.6812 -0.7698  2.0555
 1880SOL    HW217274   2.384   0.861  13.280 -0.4553  0.7765  2.4288
 1881SOL     OW17275   2.717   4.401  14.405 -0.4944 -0.7619  0.0558
 1881SOL    HW117276   2.668   4.445  14.473  0.1762 -0.4483  0.3415
 1881SOL    HW217277   2.675   4.439  14.328  0.3357  0.5631  0.2569
 1882SOL     OW17278   0.650   4.694   6.284  0.0660  0.5108  0.1449
 1882SOL    HW117279   0.737   4.734   6.284  0.1459  0.3354 -0.6272
 1882SOL    HW217280   0.672   4.621   6.342  0.5490  0.4790 -0.0748
 1883SOL     OW17281   1.947   4.154  14.878 -0.0011  0.6512  0.6177
 1883SOL    HW117282   1.908   4.090  14.819  1.6033  0.7413 -0.5445
 1883SOL    HW217283   2.024   4.181  14.829  1.7354 -1.7698  1.9959
 1884SOL     OW17284   0.940   4.710   0.137  0.0078 -0.3184  0.1702
 1884SOL    HW117285   0.846   4.726   0.126  0.3885  2.1242  0.4937
 1884SOL    HW217286   0.972   4.658   0.063  1.5651 -0.5032  0.9645
 1885SOL     OW17287   0.958   0.353   8.312 -0.0098  0.0981  0.2331
 1885SOL    HW117288   0.889   0.418   8.300  0.6168  0.2901 -2.1779
 1885SOL    HW217289   0.978   0.327   8.222 -2.1626 -0.1066 -0.1801
 1886SOL     OW17290   3.981   2.387   5.651 -0.0140  0.2367  0.0555
 1886SOL    HW117291   4.061   2.396   5.702  0.7460 -1.5809 -0.8137
 1886SOL    HW217292   4.004   2.328   5.580  0.8141  0.7558 -0.1069
 1887SOL     OW17293   1.197   3.428  14.760 -0.1972 -0.0756  0.1409
 1887SOL    HW117294   1.268   3.363  14.765 -1.1135 -1.1836 -1.0702
 1887SOL    HW217295   1.253   3.504  14.775  0.6302 -0.7987  0.7280
 1888SOL     OW17296   2.140   1.492   7.964  0.1171  0.0812  0.5518
 1888SOL    HW117297   2.067   1.550   7.984 -1.4034 -0.8783 -2.1491
 1888SOL    HW217298   2.089   1.411   7.968  0.1759  0.0284  0.2744
 1889SOL     OW17299   2.543   3.363  13.003 -0.1674 -0.3812 -0.1255
 1889SOL    HW117300   2.471   3.417  13.037 -1.4300 -0.8534 -2.0225
 1889SOL    HW217301   2.598   3.354  13.080 -0.7181  3.5239  0.7304
 1890SOL     OW17302   2.327   3.994   3.875 -0.3821 -0.1406  0.4778
 1890SOL    HW117303   2.326   3.932   3.802  2.3398  0.0001  0.3411
 1890SOL    HW217304   2.241   3.994   3.918 -1.4076  0.4365 -1.5931
 1891SOL     OW17305   0.176   0.866   2.088 -0.0262  0.7141 -0.0879
 1891SOL    HW117306   0.251   0.926   2.091 -0.0978  0.8039 -0.0974
 1891SOL    HW217307   0.153   0.856   1.996 -0.7933  1.2532  0.0416
 1892SOL     OW17308   2.184   1.725   1.082 -0.2198  0.3025 -0.1391
 1892SOL    HW117309   2.277   1.700   1.083 -0.4262 -0.4057  2.3245
 1892SOL    HW217310   2.182   1.783   1.158 -0.3169  1.6703 -1.1936
 1893SOL     OW17311   1.684   3.289  17.239 -0.5479 -0.5836  0.2462
 1893SOL    HW117312   1.599   3.317  17.274  0.1464  0.4386  1.1053
 1893SOL    HW217313   1.655   3.199  17.223  0.5958 -1.4257  2.8125
 1894SOL     OW17314   3.592   0.933   5.881  0.2801 -0.4197  0.0954
 1894SOL    HW117315   3.554   1.009   5.924 -0.0111 -1.3801  1.5366
 1894SOL    HW217316   3.515   0.884   5.850  0.9533 -0.6528 -1.1949
 1895SOL     OW17317   1.132   0.716  12.483 -0.4632 -0.4546  0.1922
 1895SOL    HW117318   1.180   0.684  12.406  1.7106  0.0485  1.3579
 1895SOL    HW217319   1.176   0.799  12.500 -0.3512 -0.7782  1.4424
 1896SOL     OW17320   0.351   0.186   2.494 -0.8146  0.5767 -0.0915
 1896SOL    HW117321   0.320   0.203   2.405 -1.7536 -2.8914 -0.4255
 1896SOL    HW217322   0.270   0.202   2.543 -1.2179  0.8051 -0.8251
 1897SOL     OW17323   1.572   3.767   7.068 -0.2615 -0.2054  0.2429
 1897SOL    HW117324   1.664   3.761   7.039 -0.5312  0.8740 -0.8053
 1897SOL    HW217325   1.531   3.768   6.982 -1.1165  0.2116  0.6638
 1898SOL     OW17326   1.490   4.619  14.601 -0.2766 -0.1721 -0.8628
 1898SOL    HW117327   1.445   4.687  14.551  1.0777  1.0528 -0.4135
 1898SOL    HW217328   1.572   4.621  14.550  0.3198 -0.9695  0.0576
 1899SOL     OW17329   0.688   2.786   3.961  0.3171 -0.2434  0.8750
 1899SOL    HW117330   0.610   2.765   3.910  1.3554 -3.3390  0.5661
 1899SOL    HW217331   0.652   2.798   4.049  0.1169 -0.3324  0.8042
 1900SOL     OW17332   4.225   1.556  13.378 -0.0097 -0.4706 -0.4918
 1900SOL    HW117333   4.297   1.608  13.342 -1.1397  0.2976 -1.6633
 1900SOL    HW217334   4.160   1.537  13.310 -2.0547 -0.6413  1.5256
 1901SOL     OW17335   0.053   4.702   7.221 -0.4071 -0.3654 -0.0888
 1901SOL    HW117336   0.076   4.711   7.128 -0.8192 -0.5353 -0.2076
 1901SOL    HW217337   0.097   0.041   7.260 -0.9114  0.0603 -0.3563
 1902SOL     OW17338   3.857   1.573   7.600  0.4131 -0.6154  0.1912
 1902SOL    HW117339   3.825   1.483   7.596 -3.0262  0.7057 -1.4045
 1902SOL    HW217340   3.817   1.599   7.682 -0.2387 -3.0578  0.6611
 1903SOL     OW17341   0.288   4.290   8.885  0.0327  0.6060  0.3362
 1903SOL    HW117342   0.276   4.239   8.805  0.3132  0.9894  0.0504
 1903SOL    HW217343   0.257   4.376   8.855 -1.0472  0.4681  1.0610
 1904SOL     OW17344   1.166   0.751   8.542  0.1889  0.0047  0.1488
 1904SOL    HW117345   1.094   0.756   8.606  0.0683 -0.3670  0.0420
 1904SOL    HW217346   1.130   0.696   8.472  0.0759  1.3826 -0.8732
 1905SOL     OW17347   2.883   0.024   6.353  0.0114  0.0947 -0.3894
 1905SOL    HW117348   2.836   4.678   6.346 -1.0365  0.7122 -0.6709
 1905SOL    HW217349   2.912   0.042   6.264  2.5435 -0.4376  0.3076
 1906SOL     OW17350   3.523   3.216   8.805 -0.5155  0.1357  0.7353
 1906SOL    HW117351   3.609   3.258   8.796 -0.0542 -1.0396 -0.3758
 1906SOL    HW217352   3.538   3.121   8.803 -2.8945 -0.2223  0.6871
 1907SOL     OW17353   0.757   1.036   8.840  0.0260 -0.1843  0.2942
 1907SOL    HW117354   0.686   0.973   8.822 -0.5119  0.8352 -1.1505
 1907SOL    HW217355   0.809   1.046   8.761 -1.0664  1.0791 -0.2572
 1908SOL     OW17356   1.606   1.577   2.214 -0.2956  0.0438 -0.1367
 1908SOL    HW117357   1.531   1.522   2.191  0.1912 -1.1131  1.0769
 1908SOL    HW217358   1.614   1.624   2.131  0.4754  0.7222  0.3193
 1909SOL     OW17359   4.154   1.777  12.105  0.4926  0.0998 -0.0104
 1909SOL    HW117360   4.189   1.797  12.192 -0.0450 -0.9193  0.4406
 1909SOL    HW217361   4.116   1.690  12.119  0.8491  0.2826  2.0508
 1910SOL     OW17362   4.237   1.617   0.567 -0.4842  0.0811 -0.7600
 1910SOL    HW117363   4.327   1.598   0.540  0.1315  1.7130  0.1145
 1910SOL    HW217364   4.214   1.686   0.505  1.2510  0.3264 -1.1340
 1911SOL     OW17365   3.317   4.031   3.363  0.3348 -0.5767 -0.6855
 1911SOL    HW117366   3.290   3.977   3.437  1.3132 -1.0902 -0.7027
 1911SOL    HW217367   3.275   3.991   3.287 -0.2971  0.2953 -0.7976
 1912SOL     OW17368   2.917   3.378   4.441 -0.3822  0.0586 -0.1129
 1912SOL    HW117369   2.961   3.418   4.366 -0.3520  1.9585  0.8929
 1912SOL    HW217370   2.912   3.290   4.405  2.1382 -0.5343  1.0274
 1913SOL     OW17371   1.639   0.779  10.680  0.2859 -0.1551  0.1940
 1913SOL    HW117372   1.709   0.818  10.626  1.5563 -2.3229  0.2930
 1913SOL    HW217373   1.573   0.761  10.614 -1.5830 -1.3013  2.4107
 1914SOL     OW17374   1.569   0.403   6.513  0.1152 -0.2303 -0.4586
 1914SOL    HW117375   1.582   0.450   6.596 -1.9427 -1.3594  0.5117
 1914SOL    HW217376   1.652   0.406   6.466  0.9734  0.6779  1.1125
 1915SOL     OW17377   4.532   4.016   9.160  0.0841 -0.1388 -0.2706
 1915SOL    HW117378   4.517   4.033   9.253 -1.2254 -0.2996 -0.4493
 1915SOL    HW217379   4.559   4.105   9.138  4.0906 -1.6037 -1.1956
 1916SOL     OW17380   3.269   4.101  13.521  0.1420  0.1611  0.0690
 1916SOL    HW117381   3.358   4.106  13.488  0.9688  0.3544  2.3510
 1916SOL    HW217382   3.260   4.007  13.537 -0.7335  0.5286  1.6911
 1917SOL     OW17383   4.734   1.583   0.566  0.5856  0.0670 -0.4525
 1917SOL    HW117384   0.038   1.660   0.606  3.0435 -0.7130 -1.4626
 1917SOL    HW217385   0.032   1.596   0.478  0.0623 -1.4088 -0.8761
 1918SOL     OW17386   0.152   2.945   7.631  0.1522 -0.0154 -0.2018
 1918SOL    HW117387   0.180   3.018   7.577  0.0709  0.4988  0.4494
 1918SOL    HW217388   0.063   2.918   7.608 -0.2175  2.5573 -1.7618
 1919SOL     OW17389   3.148   0.144  16.259  0.6340  0.4991  0.2954
 1919SOL    HW117390   3.138   0.147  16.163  2.1882 -0.0766  0.1096
 1919SOL    HW217391   3.115   0.233  16.273 -0.0356  0.4148 -0.7237
 1920SOL     OW17392   4.035   3.239   8.494  0.6413 -0.2297 -0.4452
 1920SOL    HW117393   4.010   3.326   8.525  0.1399  0.3515 -2.4201
 1920SOL    HW217394   3.999   3.233   8.405 -3.7000  2.5328  1.0835
 1921SOL     OW17395   0.444   1.330   5.721  0.4113 -0.1077 -0.3135
 1921SOL    HW117396   0.352   1.310   5.737  0.8089 -1.8981 -0.2720
 1921SOL    HW217397   0.462   1.381   5.799 -2.2743 -0.7738  0.7368
 1922SOL     OW17398   1.031   0.483   6.925 -0.3918  0.2818 -0.2228
 1922SOL    HW117399   1.060   0.396   6.953  2.6870  1.3031 -0.2499
 1922SOL    HW217400   1.048   0.526   7.008  0.3086  1.6794 -1.1029
 1923SOL     OW17401   1.570   0.067   3.423  0.1002  0.2962  0.0282
 1923SOL    HW117402   1.619   0.141   3.389  1.9209 -0.9654 -0.1144
 1923SOL    HW217403   1.483   0.100   3.443 -0.7638 -2.6072  1.1242
 1924SOL     OW17404   1.645   4.690   7.895 -0.0690  0.0130 -0.4872
 1924SOL    HW117405   1.685   4.718   7.812 -0.7652  0.4627 -0.6714
 1924SOL    HW217406   1.706   0.000   7.952 -0.0351 -2.0775  1.1854
 1925SOL     OW17407   2.598   0.540   8.488 -0.5915 -0.3228 -0.1566
 1925SOL    HW117408   2.648   0.470   8.530 -0.4732 -0.1570 -0.0224
 1925SOL    HW217409   2.661   0.582   8.431 -1.2886  1.2361  0.2202
 1926SOL     OW17410   0.838   1.339   5.909  0.1548  0.2413 -0.1054
 1926SOL    HW117411   0.894   1.334   5.832  1.7196  0.7248  1.0109
 1926SOL    HW217412   0.891   1.390   5.970  0.1999  0.0056  0.0538
 1927SOL     OW17413   1.033   3.143  14.810  0.3472  0.6302  0.1682
 1927SOL    HW117414   1.112   3.101  14.777 -1.1325 -1.4041 -0.7928
 1927SOL    HW217415   1.015   3.089  14.888  2.4378 -0.8460 -0.3619
 1928SOL     OW17416   2.256   2.687   4.701  0.5848  0.4530 -0.5687
 1928SOL    HW117417   2.169   2.684   4.661  0.1418 -1.0681  0.5374
 1928SOL    HW217418   2.295   2.601   4.690 -0.3837 -0.0411 -0.0961
 1929SOL     OW17419   2.999   3.861   3.971 -0.1773 -0.3002 -0.4733
 1929SOL    HW117420   2.941   3.937   3.965 -0.6094 -0.4424  1.9313
 1929SOL    HW217421   2.983   3.827   3.884 -1.5933  0.4957 -0.5296
 1930SOL     OW17422   2.794   2.717   4.467  0.2528  0.1131 -0.3875
 1930SOL    HW117423   2.700   2.736   4.478  0.1843 -0.1566 -0.5157
 1930SOL    HW217424   2.841   2.799   4.482 -0.1609  0.0735  1.1146
 1931SOL     OW17425   3.715   2.298   9.429  0.1385  0.0407  0.1478
 1931SOL    HW117426   3.801   2.334   9.412  0.1687  0.2794  0.8138
 1931SOL    HW217427   3.668   2.367   9.476 -1.7151 -1.6764  0.8240
 1932SOL     OW17428   3.262   4.130   5.692 -0.8816 -0.0063 -0.4916
 1932SOL    HW117429   3.230   4.214   5.725  1.4341  0.0187  1.7069
 1932SOL    HW217430   3.206   4.108   5.618 -0.5064 -0.3860 -0.6609
 1933SOL     OW17431   3.395   4.645   6.872 -0.1370  0.6145 -0.4391
 1933SOL    HW117432   3.429   4.703   6.940  1.9827 -2.2733  0.9508
 1933SOL    HW217433   3.304   4.675   6.867 -0.8478 -1.1926  1.4720
 1934SOL     OW17434   0.065   4.245  14.528  0.3716  0.2934 -0.3066
 1934SOL    HW117435   0.145   4.220  14.574  1.8254  2.0198 -1.9194
 1934SOL    HW217436   0.066   4.193  14.448  0.5162 -1.2411  0.6919
 1935SOL     OW17437   2.420   0.249   1.429  0.0789 -0.1386 -0.3652
 1935SOL    HW117438   2.469   0.239   1.348  0.0494 -0.9489 -0.2907
 1935SOL    HW217439   2.364   0.171   1.424 -0.0954  0.0699 -1.5653
 1936SOL     OW17440   4.060   3.936   8.227 -0.2182 -0.4072 -0.0458
 1936SOL    HW117441   4.078   3.946   8.321 -1.9168 -1.3871  0.3813
 1936SOL    HW217442   4.051   3.841   8.218 -1.2065 -0.5148  2.0947
 1937SOL     OW17443   3.914   2.178   8.275 -0.3089 -0.4452 -0.3105
 1937SOL    HW117444   3.834   2.228   8.259  0.1165 -0.0639 -1.2583
 1937SOL    HW217445   3.935   2.146   8.188 -4.2139 -2.0347 -0.6598
 1938SOL     OW17446   4.479   3.890  17.534 -0.2464  0.3917  0.0085
 1938SOL    HW117447   4.458   3.953  17.603  1.9594  1.2015 -0.0417
 1938SOL    HW217448   4.392   3.887  17.495 -0.0905 -1.2971 -0.2081
 1939SOL     OW17449   4.722   3.257   2.746 -0.4212 -0.0422 -0.0921
 1939SOL    HW117450   0.075   3.244   2.774 -0.1717  0.8623 -0.4466
 1939SOL    HW217451   4.736   3.327   2.682  2.3783 -0.7168 -0.2018
 1940SOL     OW17452   2.622   2.512   4.557 -0.1793 -0.2682 -0.0916
 1940SOL    HW117453   2.692   2.576   4.546 -1.5509  1.1502 -0.7513
 1940SOL    HW217454   2.658   2.464   4.631 -0.4944  0.7978  0.7661
 1941SOL     OW17455   0.981   3.968  17.274 -0.2707 -0.0948 -0.7154
 1941SOL    HW117456   0.911   4.011  17.324 -0.5186 -0.5176 -0.7033
 1941SOL    HW217457   0.965   4.006  17.187 -2.9374  1.0328  0.2498
 1942SOL     OW17458   0.668   4.480   8.235  0.0387 -0.3833  0.1652
 1942SOL    HW117459   0.628   4.522   8.311  0.7654  0.2518  0.2003
 1942SOL    HW217460   0.676   4.395   8.278 -3.9009 -1.4026 -1.1711
 1943SOL     OW17461   2.656   3.085  14.836 -0.7874  0.6707  0.4865
 1943SOL    HW117462   2.711   3.049  14.905 -0.5820 -3.3430 -1.8069
 1943SOL    HW217463   2.576   3.041  14.863 -0.6511  0.1794  0.0888
 1944SOL     OW17464   1.065   0.024   1.030  0.4012 -0.3664 -0.0790
 1944SOL    HW117465   1.023   0.009   0.945  1.5261  1.3930 -0.9324
 1944SOL    HW217466   1.134   4.694   1.027 -0.4519 -1.3635  2.1783
 1945SOL     OW17467   2.718   1.692   0.857  0.0958  0.1223  0.6006
 1945SOL    HW117468   2.760   1.686   0.771  0.1853 -1.8836  0.7831
 1945SOL    HW217469   2.624   1.700   0.842 -0.5202 -2.5210  3.0969
 1946SOL     OW17470   3.437   0.027  15.668 -0.2208 -0.1462 -0.2808
 1946SOL    HW117471   3.429   4.678  15.710 -2.8811  0.1182 -0.2271
 1946SOL    HW217472   3.417   0.085  15.742 -2.9803  2.1223 -2.8143
 1947SOL     OW17473   0.993   0.513   4.814  0.0654 -0.8293  0.2991
 1947SOL    HW117474   0.913   0.462   4.822 -1.2547  1.2388  0.1557
 1947SOL    HW217475   0.997   0.497   4.720  0.2491 -0.8294  0.3053
 1948SOL     OW17476   2.045   0.739   8.388 -0.3875 -0.2100  0.6172
 1948SOL    HW117477   2.062   0.736   8.482  3.5703  2.1603  0.0053
 1948SOL    HW217478   2.131   0.712   8.354 -0.6119  0.2139 -0.2834
 1949SOL     OW17479   0.557   3.259   8.988  0.0495 -0.2434  0.0827
 1949SOL    HW117480   0.543   3.248   9.082 -0.3369  1.1840  0.1905
 1949SOL    HW217481   0.651   3.243   8.979  0.2295  0.0404  1.5050
 1950SOL     OW17482   2.797   4.505   6.378 -0.2166  0.7956 -0.4047
 1950SOL    HW117483   2.794   4.538   6.468 -1.0390 -0.0379 -0.1222
 1950SOL    HW217484   2.707   4.472   6.370  0.6243 -1.7484  0.8362
 1951SOL     OW17485   3.118   2.343   1.656 -0.1403  0.5244  0.3357
 1951SOL    HW117486   3.064   2.369   1.581 -1.2362  0.5521  1.1371
 1951SOL    HW217487   3.050   2.311   1.716  0.1724  1.9538  1.4632
 1952SOL     OW17488   1.951   2.532   7.836  1.0715 -0.1087 -0.4249
 1952SOL    HW117489   1.891   2.546   7.763  0.8515 -1.2593 -0.4735
 1952SOL    HW217490   1.950   2.436   7.832  0.1741 -0.1147  0.1942
 1953SOL     OW17491   0.036   3.677   7.336 -0.4226 -0.5475  0.1229
 1953SOL    HW117492   0.036   3.697   7.242 -1.2767  0.6456  0.3794
 1953SOL    HW217493   0.080   3.753   7.373  1.6711 -1.7533  0.1265
 1954SOL     OW17494   1.200   2.255   8.085 -0.0269  0.0125  0.0834
 1954SOL    HW117495   1.137   2.254   8.013  0.6360  4.7078 -0.5918
 1954SOL    HW217496   1.283   2.264   8.038 -0.2548  0.3463 -0.2616
 1955SOL     OW17497   1.015   0.620   8.143 -0.1446  0.1700 -0.3367
 1955SOL    HW117498   0.974   0.608   8.057 -0.7766  2.2118 -0.3338
 1955SOL    HW217499   0.990   0.539   8.188  0.5182 -0.2098 -0.6586
 1956SOL     OW17500   2.980   3.252  13.757 -0.0144 -0.2487  0.0135
 1956SOL    HW117501   3.011   3.294  13.677  1.0440  0.8604  1.0047
 1956SOL    HW217502   2.998   3.315  13.827 -2.8754 -0.2049  0.7313
 1957SOL     OW17503   4.623   2.066   7.239  0.4058 -0.4466 -0.0203
 1957SOL    HW117504   4.595   2.046   7.328 -0.7469  0.2116 -0.2492
 1957SOL    HW217505   4.717   2.084   7.240  0.4990 -0.9740  0.6816
 1958SOL     OW17506   4.059   3.572  17.536 -0.7734  0.1767  0.1324
 1958SOL    HW117507   4.031   3.549  17.447 -0.4056 -0.5720  0.2059
 1958SOL    HW217508   4.154   3.558  17.535 -0.5118  2.2423 -1.5922
 1959SOL     OW17509   0.615   4.601   8.876 -0.0608 -0.1078  0.4741
 1959SOL    HW117510   0.591   4.510   8.894  0.6331 -0.4072 -0.1261
 1959SOL    HW217511   0.709   4.595   8.891 -0.0093  0.3663  0.3206
 1960SOL     OW17512   1.356   1.257   6.512 -0.0626 -0.5083 -0.0144
 1960SOL    HW117513   1.347   1.163   6.526  1.3281 -0.7063 -0.5191
 1960SOL    HW217514   1.389   1.289   6.596 -4.3125 -1.9224  2.2377
 1961SOL     OW17515   1.485   1.021   1.279 -0.2712 -0.3211  0.2959
 1961SOL    HW117516   1.479   0.961   1.353  0.0248  1.7594  2.0260
 1961SOL    HW217517   1.450   1.102   1.317  4.1273  1.2460  1.0386
 1962SOL     OW17518   3.087   1.950   6.779  0.0412 -0.1671 -1.0770
 1962SOL    HW117519   3.021   2.017   6.763 -0.2039 -0.0545  0.3566
 1962SOL    HW217520   3.162   1.994   6.739  2.0754 -2.2945  0.3959
 1963SOL     OW17521   2.008   1.900   4.012 -0.0851  0.1260 -0.3344
 1963SOL    HW117522   2.101   1.905   4.032 -0.1569 -1.4629  0.3778
 1963SOL    HW217523   2.007   1.893   3.916 -0.5816  0.3082 -0.3458
 1964SOL     OW17524   3.144   3.785   2.926  0.1434 -0.1255  0.2256
 1964SOL    HW117525   3.156   3.848   2.855 -0.1726 -0.4481 -0.1202
 1964SOL    HW217526   3.225   3.735   2.921 -0.8700 -1.7730  0.1331
 1965SOL     OW17527   4.348   3.784   1.451 -0.1466 -0.4025  0.0354
 1965SOL    HW117528   4.339   3.704   1.399  1.9970  0.4025 -1.5493
 1965SOL    HW217529   4.295   3.839   1.392  1.4013  0.1252 -0.8587
 1966SOL     OW17530   0.587   1.378  17.621 -0.5675  0.1804 -0.0430
 1966SOL    HW117531   0.666   1.342  17.660  0.3337  1.5059 -0.6750
 1966SOL    HW217532   0.524   1.309  17.643  3.2333 -3.8807 -1.9063
 1967SOL     OW17533   2.252   0.889   6.339 -0.2058  0.2669 -0.0712
 1967SOL    HW117534   2.161   0.878   6.367 -0.6327  2.4174 -0.6385
 1967SOL    HW217535   2.293   0.839   6.410 -3.7942  1.8799  3.1204
 1968SOL     OW17536   0.543   1.163   4.417  0.7754  0.4719  0.2875
 1968SOL    HW117537   0.630   1.203   4.420  0.7100  0.5623  1.2148
 1968SOL    HW217538   0.568   1.099   4.484  0.9257  0.2116 -0.0220
 1969SOL     OW17539   2.920   3.741  12.144 -0.3397  0.5299 -0.5091
 1969SOL    HW117540   2.948   3.741  12.236 -2.5972 -1.7623  0.1771
 1969SOL    HW217541   2.887   3.830  12.135 -0.2762  0.6409  0.3295
 1970SOL     OW17542   1.087   0.267   6.044 -0.5950 -0.2594 -0.0632
 1970SOL    HW117543   1.178   0.284   6.019  0.4238 -1.9695  2.4317
 1970SOL    HW217544   1.046   0.252   5.958  1.5773 -0.6009 -1.0307
 1971SOL     OW17545   1.427   4.161  14.444  0.2800 -0.0209 -0.2543
 1971SOL    HW117546   1.461   4.073  14.460 -1.4282 -0.7437 -0.5223
 1971SOL    HW217547   1.397   4.187  14.531  0.5450 -1.4726  0.2824
 1972SOL     OW17548   0.966   0.080  15.610  0.4087  0.4843 -0.0569
 1972SOL    HW117549   0.920   0.030  15.543  1.3704 -0.8998  0.3196
 1972SOL    HW217550   1.014   0.150  15.566 -0.1020  2.1649  2.0439
 1973SOL     OW17551   4.699   0.995   4.266  0.1380 -0.2389  0.1542
 1973SOL    HW117552   0.002   0.963   4.347  0.0757  0.6953  0.5450
 1973SOL    HW217553   0.018   1.064   4.233  0.3887 -0.6517 -0.2861
 1974SOL     OW17554   3.447   1.948   0.822 -0.2580  0.1232  0.0253
 1974SOL    HW117555   3.363   1.906   0.803  1.6886 -2.7535 -2.2767
 1974SOL    HW217556   3.498   1.868   0.834 -1.2039 -0.3519  0.8135
 1975SOL     OW17557   0.226   2.383   5.470  0.3055  0.1200  0.1475
 1975SOL    HW117558   0.217   2.380   5.374 -1.1956 -0.6028  0.3115
 1975SOL    HW217559   0.172   2.457   5.498 -1.4082 -0.0133 -2.7343
 1976SOL     OW17560   2.052   2.038   0.396  0.0774 -0.0833  0.1411
 1976SOL    HW117561   2.090   2.012   0.312 -1.2444 -0.4175 -0.3514
 1976SOL    HW217562   2.067   2.132   0.408 -0.1125  0.1129 -1.1260
 1977SOL     OW17563   4.622   2.740   3.992 -0.0935  0.6500 -0.5421
 1977SOL    HW117564   4.698   2.751   4.049 -0.4438  1.0882 -0.1597
 1977SOL    HW217565   4.554   2.736   4.060 -0.7813  1.5231 -1.1761
 1978SOL     OW17566   1.302   0.219  10.020 -0.1924  0.3036  0.0558
 1978SOL    HW117567   1.292   0.223   9.925  0.8486 -2.4802 -0.1593
 1978SOL    HW217568   1.391   0.186  10.029 -0.0266  0.8017  0.2087
 1979SOL     OW17569   3.619   1.855   3.200  0.6040 -0.1955  0.4922
 1979SOL    HW117570   3.620   1.906   3.281  1.1341 -0.0945  0.4205
 1979SOL    HW217571   3.623   1.766   3.236  0.5001 -0.9040 -1.2821
 1980SOL     OW17572   4.638   4.668   4.618  0.3229 -0.1182  0.1698
 1980SOL    HW117573   4.554   4.639   4.583 -0.1019 -1.0594  1.9904
 1980SOL    HW217574   4.678   4.583   4.636  0.3818  0.2014  1.5714
 1981SOL     OW17575   2.465   4.579   7.000  0.2018  0.0431  0.3972
 1981SOL    HW117576   2.507   4.510   7.053  0.3596 -0.5982 -0.5701
 1981SOL    HW217577   2.507   4.661   7.027  1.0126  0.2980 -1.6167
 1982SOL     OW17578   0.035   1.305  15.534 -0.5402 -0.1808  0.0021
 1982SOL    HW117579   0.100   1.374  15.548  1.2250 -1.8542 -0.0711
 1982SOL    HW217580   0.094   1.243  15.493  3.0627  3.4361 -0.3025
 1983SOL     OW17581   4.122   2.377  16.295 -0.2979 -0.1358  0.2838
 1983SOL    HW117582   4.206   2.345  16.325 -0.5199  0.7993  1.8921
 1983SOL    HW217583   4.085   2.305  16.243  1.3654 -0.5169 -0.3704
 1984SOL     OW17584   1.234   2.148   6.152  0.4535  0.1420 -0.3355
 1984SOL    HW117585   1.310   2.097   6.125  0.9126  0.0846  1.0427
 1984SOL    HW217586   1.263   2.174   6.240  2.0881  3.7574 -1.9344
 1985SOL     OW17587   1.946   0.610  13.495 -0.5285  0.5346 -0.8235
 1985SOL    HW117588   2.004   0.559  13.439  0.9491 -0.1257  1.3202
 1985SOL    HW217589   1.963   0.557  13.572 -0.6142  0.2775 -0.9832
 1986SOL     OW17590   2.539   4.221   8.074 -0.0884  0.2148 -0.4843
 1986SOL    HW117591   2.477   4.291   8.093  0.2773 -0.3255  2.7413
 1986SOL    HW217592   2.621   4.270   8.079  0.2032 -0.3921  0.8131
 1987SOL     OW17593   3.967   4.480   7.113 -0.5578  0.0774 -0.2633
 1987SOL    HW117594   3.918   4.527   7.180 -2.5164  1.0780 -2.3677
 1987SOL    HW217595   3.906   4.487   7.039 -0.1760  1.0921 -0.4910
 1988SOL     OW17596   3.659   2.529  17.391 -0.2654  0.2909 -0.1114
 1988SOL    HW117597   3.646   2.622  17.377  0.6702  0.5434  0.7096
 1988SOL    HW217598   3.565   2.510  17.393 -0.1761 -0.0205  0.9741
 1989SOL     OW17599   2.539   4.273   8.929  0.1088 -0.0961 -0.4984
 1989SOL    HW117600   2.478   4.199   8.926  0.9334 -0.8382  1.0824
 1989SOL    HW217601   2.594   4.240   9.000  1.1969  1.7644 -0.4723
 1990SOL     OW17602   3.306   0.271  11.479 -0.0335 -0.2947  0.5433
 1990SOL    HW117603   3.360   0.202  11.516  0.2677 -0.7637 -0.8016
 1990SOL    HW217604   3.373   0.332  11.447 -0.0624  0.9741  2.8829
 1991SOL     OW17605   0.211   0.555   6.136  0.3471  0.0208 -0.1468
 1991SOL    HW117606   0.212   0.534   6.229  3.3737  1.6126  0.1558
 1991SOL    HW217607   0.244   0.474   6.097  1.4032  0.6316 -0.5222
 1992SOL     OW17608   0.391   0.797   1.259 -0.5020 -0.1761  0.9495
 1992SOL    HW117609   0.368   0.760   1.174 -2.8576 -0.1283  1.5606
 1992SOL    HW217610   0.486   0.800   1.254 -0.6788  3.2304 -0.2989
 1993SOL     OW17611   3.627   2.675  15.862 -0.2722  0.4168  0.4184
 1993SOL    HW117612   3.577   2.747  15.900  0.7551  0.6451  1.3316
 1993SOL    HW217613   3.653   2.718  15.780 -0.3018  1.7097  1.0877
 1994SOL     OW17614   0.391   2.593  14.894 -0.0647  0.4571  0.3228
 1994SOL    HW117615   0.391   2.504  14.928 -1.0753 -0.1144 -1.1939
 1994SOL    HW217616   0.454   2.650  14.938  0.9703 -1.4872  1.3682
 1995SOL     OW17617   1.908   4.028   2.957  1.0783 -0.1632  0.1475
 1995SOL    HW117618   1.857   4.031   2.876 -1.2589 -0.9042  1.6213
 1995SOL    HW217619   1.983   4.075   2.920  0.9946 -0.4089 -0.3276
 1996SOL     OW17620   3.067   4.571   9.747 -0.4798  0.2953  0.1352
 1996SOL    HW117621   3.089   4.537   9.834 -1.6834  2.9288  1.4679
 1996SOL    HW217622   3.002   4.514   9.706 -0.9384  0.9235 -0.0016
 1997SOL     OW17623   2.342   0.742   5.071  0.0243 -0.3227  0.2340
 1997SOL    HW117624   2.270   0.682   5.088  0.3355 -0.3460  1.4569
 1997SOL    HW217625   2.408   0.725   5.139  1.8624  0.5686 -1.3245
 1998SOL     OW17626   0.315   1.687   7.412 -0.2395 -0.0343 -0.1737
 1998SOL    HW117627   0.349   1.767   7.371 -0.4864 -0.2008 -0.7008
 1998SOL    HW217628   0.298   1.725   7.498  0.5002  0.0227 -0.0523
 1999SOL     OW17629   3.830   0.012  11.446  0.1443  0.0779 -0.2251
 1999SOL    HW117630   3.915   4.714  11.420 -0.4340 -1.1130 -0.5149
 1999SOL    HW217631   3.844   0.103  11.472  2.1505 -0.4807  0.5706
 2000SOL     OW17632   0.793   3.429   7.629  0.1989  0.1714  0.3105
 2000SOL    HW117633   0.775   3.485   7.553 -0.1856 -1.5237 -0.8585
 2000SOL    HW217634   0.850   3.486   7.680  1.0769  0.5534 -1.0990
 2001SOL     OW17635   2.001   2.035  17.025  0.3421 -0.7610  0.3091
 2001SOL    HW117636   2.010   2.089  16.947 -0.9397 -3.0532 -1.4131
 2001SOL    HW217637   2.092   2.007  17.033  0.4184  0.4614  3.6554
 2002SOL     OW17638   2.830   2.658   2.914  0.1254  0.1238 -0.7615
 2002SOL    HW117639   2.816   2.720   2.986  3.0745 -2.8033  2.3037
 2002SOL    HW217640   2.843   2.574   2.957  1.0656  0.4049 -0.4990
 2003SOL     OW17641   4.176   0.938   3.505  0.0073 -0.4487 -0.3168
 2003SOL    HW117642   4.122   0.906   3.577  1.0666 -1.9445 -0.1925
 2003SOL    HW217643   4.113   0.966   3.439  1.0499 -0.6888 -1.4181
 2004SOL     OW17644   2.416   0.302   7.059 -0.2965  0.2797 -0.0527
 2004SOL    HW117645   2.478   0.229   7.054  0.0399  0.6064 -0.7207
 2004SOL    HW217646   2.476   0.375   7.042 -0.6771  0.8391  1.0519
 2005SOL     OW17647   2.111   2.780  14.998  0.1318  1.2629  0.1070
 2005SOL    HW117648   2.094   2.758  14.907  0.0117 -0.3650  0.5180
 2005SOL    HW217649   2.066   2.712  15.049  3.0072  0.5032  1.5964
 2006SOL     OW17650   4.685   0.023   4.867  0.5548 -0.6574 -0.1768
 2006SOL    HW117651   4.604   4.721   4.901 -0.1539 -0.4618 -1.6362
 2006SOL    HW217652   4.693   4.717   4.782 -0.6555 -0.1854 -0.5315
 2007SOL     OW17653   4.411   0.993   8.374 -0.4822  0.1325 -0.1937
 2007SOL    HW117654   4.395   0.950   8.458 -3.1585 -0.0555 -0.7987
 2007SOL    HW217655   4.410   0.924   8.308  2.3151 -0.7241  0.6741
 2008SOL     OW17656   4.153   3.001  15.252 -0.2905  0.5823  0.3282
 2008SOL    HW117657   4.193   2.955  15.179  0.8762  2.1030  0.0098
 2008SOL    HW217658   4.223   2.995  15.317  1.3487 -0.4601 -1.5724
 2009SOL     OW17659   2.040   2.761   1.198  0.1373  0.5631 -0.7193
 2009SOL    HW117660   2.130   2.734   1.177 -1.3094 -3.0353 -2.2848
 2009SOL    HW217661   2.007   2.672   1.206 -0.4184  0.8916  0.6545
 2010SOL     OW17662   1.525   2.642   9.221  0.1617 -0.1063  0.0559
 2010SOL    HW117663   1.509   2.701   9.295 -0.7951 -2.5302  1.7917
 2010SOL    HW217664   1.565   2.564   9.259 -0.5739 -1.2908 -1.6326
 2011SOL     OW17665   2.374   1.798  10.807  0.4664  0.2908  0.5215
 2011SOL    HW117666   2.365   1.721  10.863  1.1680  1.5141  2.3113
 2011SOL    HW217667   2.426   1.854  10.865  0.4210 -0.1569  0.9977
 2012SOL     OW17668   1.150   4.311  17.494  0.9355 -0.1882 -0.5125
 2012SOL    HW117669   1.107   4.312  17.409 -2.7701  0.3379  1.3122
 2012SOL    HW217670   1.226   4.263  17.462 -0.5768 -0.4577 -3.6806
 2013SOL     OW17671   0.331   0.638   8.875 -0.2322  0.1573  0.3696
 2013SOL    HW117672   0.340   0.548   8.845 -0.5470  0.7973 -1.6225
 2013SOL    HW217673   0.315   0.629   8.969 -0.6968 -0.6390  0.2165
 2014SOL     OW17674   0.518   0.865   6.584  0.2765  0.1625 -0.5405
 2014SOL    HW117675   0.436   0.844   6.630  1.0428 -1.4931  0.0598
 2014SOL    HW217676   0.523   0.796   6.517  0.6400 -0.3460  0.0142
 2015SOL     OW17677   3.726   1.283  12.147 -0.3064 -0.5433  0.2570
 2015SOL    HW117678   3.728   1.309  12.055  1.2322 -1.2556  0.0937
 2015SOL    HW217679   3.734   1.371  12.185  1.4204 -1.0441  1.0294
 2016SOL     OW17680   0.076   2.167   4.336 -0.1496  0.2574 -0.8061
 2016SOL    HW117681   0.170   2.173   4.319  0.2790  1.4176  1.9910
 2016SOL    HW217682   0.073   2.197   4.427 -0.5548  1.0442 -1.0856
 2017SOL     OW17683   1.143   1.640   6.050 -0.3081 -0.0062 -0.0098
 2017SOL    HW117684   1.111   1.551   6.038  1.3669 -0.6122 -0.0497
 2017SOL    HW217685   1.058   1.680   6.064 -0.0270 -0.0807  1.8367
 2018SOL     OW17686   3.260   1.179   5.323  0.5572  0.1273  0.0173
 2018SOL    HW117687   3.243   1.207   5.234  1.6318  1.9652  0.3998
 2018SOL    HW217688   3.191   1.118   5.350  0.3589  1.0257  1.5663
 2019SOL     OW17689   2.431   3.846   7.096  0.4080  0.9271  0.4281
 2019SOL    HW117690   2.402   3.858   7.006 -0.5220 -1.9116  0.3555
 2019SOL    HW217691   2.509   3.901   7.095  1.9490 -1.2633  0.0106
 2020SOL     OW17692   0.735   2.459  16.591 -0.3673 -0.1614  0.1295
 2020SOL    HW117693   0.808   2.500  16.636 -0.0558 -0.6408  0.0640
 2020SOL    HW217694   0.662   2.518  16.612 -0.9969 -0.8070 -0.2383
 2021SOL     OW17695   1.778   2.749  10.539 -0.1617  0.3664  0.0536
 2021SOL    HW117696   1.706   2.801  10.574  0.6965  0.9007  1.0270
 2021SOL    HW217697   1.768   2.671  10.595 -2.2014 -0.5840 -1.6486
 2022SOL     OW17698   0.954   1.049  11.674  0.1494  0.2714  0.5906
 2022SOL    HW117699   1.017   1.030  11.744  0.2239  0.7739  0.6629
 2022SOL    HW217700   0.909   1.122  11.716 -3.7871 -1.1260 -1.2229
 2023SOL     OW17701   1.629   0.429   5.052 -0.0766 -0.3039  0.2765
 2023SOL    HW117702   1.614   0.523   5.042 -1.1150 -0.2721  2.1668
 2023SOL    HW217703   1.555   0.408   5.110 -0.3506  1.0613  0.4129
 2024SOL     OW17704   1.795   4.263   5.603 -0.1426  0.4962  0.1693
 2024SOL    HW117705   1.803   4.284   5.509 -0.3232  0.8155  0.2247
 2024SOL    HW217706   1.765   4.343   5.645 -0.1233  0.3948  0.3747
 2025SOL     OW17707   2.319   2.461  14.814 -0.4264  0.5937  0.0278
 2025SOL    HW117708   2.258   2.387  14.806 -0.3488  0.3964  1.2177
 2025SOL    HW217709   2.305   2.460  14.909 -1.2349 -1.7110 -0.0924
 2026SOL     OW17710   1.301   3.194   9.198 -0.0920  0.4102 -0.4483
 2026SOL    HW117711   1.307   3.118   9.255  1.8462 -0.4499 -1.7941
 2026SOL    HW217712   1.392   3.206   9.171  0.1631  1.7029  1.0012
 2027SOL     OW17713   2.593   0.984   8.526 -0.1250  0.5468  0.9160
 2027SOL    HW117714   2.654   0.950   8.592  2.4432  0.4480 -1.5296
 2027SOL    HW217715   2.616   0.926   8.453  1.4629 -2.5638  3.8692
 2028SOL     OW17716   3.779   2.235   8.658 -0.2301 -0.4709 -0.2362
 2028SOL    HW117717   3.700   2.206   8.704  1.1312 -1.3761  1.5331
 2028SOL    HW217718   3.826   2.295   8.714  0.9888 -0.1534 -1.5957
 2029SOL     OW17719   1.912   0.692   0.839 -0.1727  0.1468 -0.3119
 2029SOL    HW117720   1.927   0.605   0.874 -0.8002  0.0737 -0.2166
 2029SOL    HW217721   1.825   0.712   0.875 -0.5128  0.9425 -1.5908
 2030SOL     OW17722   0.239   1.017   8.948  0.4672 -0.6134 -0.0217
 2030SOL    HW117723   0.166   1.060   8.993  1.3518  0.5483  0.3040
 2030SOL    HW217724   0.296   1.091   8.926 -0.0204 -0.1612  0.2571
 2031SOL     OW17725   0.393   3.436   5.121  0.0028  0.2727  0.2234
 2031SOL    HW117726   0.399   3.398   5.034  0.3321  2.4989 -0.7327
 2031SOL    HW217727   0.416   3.528   5.109 -4.3016  1.3597  0.2985
 2032SOL     OW17728   2.343   4.013   4.872  0.3407  0.1074  1.0202
 2032SOL    HW117729   2.255   3.976   4.867  0.9630 -1.0682 -1.4677
 2032SOL    HW217730   2.336   4.073   4.798  1.3637  0.2891  1.0732
 2033SOL     OW17731   0.631   4.652   4.846 -0.2810  0.6565 -0.0455
 2033SOL    HW117732   0.690   4.716   4.887  0.8128 -0.9122  0.8209
 2033SOL    HW217733   0.675   4.571   4.870  2.1489  1.5102 -1.5485
 2034SOL     OW17734   4.187   1.611   3.383  0.0422 -0.1165  0.7457
 2034SOL    HW117735   4.162   1.699   3.353  3.2408  0.8362  0.9041
 2034SOL    HW217736   4.117   1.581   3.441  1.2399 -0.7036  1.8804
 2035SOL     OW17737   2.056   4.407   2.785  0.1298 -0.1585  0.3863
 2035SOL    HW117738   1.990   4.451   2.732 -0.8786 -0.1396  1.6552
 2035SOL    HW217739   2.004   4.399   2.865  1.3645  0.1347  1.2249
 2036SOL     OW17740   3.803   4.657   8.830 -0.0801  0.0582 -0.2351
 2036SOL    HW117741   3.824   4.576   8.784 -0.7917 -0.0125 -0.4375
 2036SOL    HW217742   3.708   4.661   8.822 -0.1365 -1.1545 -0.2077
 2037SOL     OW17743   0.756   2.983   8.930 -0.0947  0.1481  0.3418
 2037SOL    HW117744   0.822   2.915   8.913 -1.2034 -0.8218 -0.0551
 2037SOL    HW217745   0.699   2.973   8.854  1.2535 -2.5018 -0.3355
 2038SOL     OW17746   4.070   2.328   2.701 -0.2435  0.4440  0.1523
 2038SOL    HW117747   4.010   2.389   2.658  0.3228  0.9760  0.1236
 2038SOL    HW217748   4.045   2.246   2.657 -1.6187  0.2706  1.2279
 2039SOL     OW17749   2.353   4.528   1.934  0.1400 -0.1282  0.1630
 2039SOL    HW117750   2.349   4.575   1.851  1.0439 -0.4108 -0.0462
 2039SOL    HW217751   2.338   4.602   1.993 -0.3511  0.5148 -0.7630
 2040SOL     OW17752   1.098   3.574   2.007 -0.4750 -0.0538  0.9231
 2040SOL    HW117753   1.026   3.548   1.950 -1.2260  1.9122  0.9615
 2040SOL    HW217754   1.176   3.543   1.962 -0.8168 -0.9682  0.9537
 2041SOL     OW17755   1.000   2.205   5.067 -0.0193  0.0863  0.3769
 2041SOL    HW117756   0.996   2.116   5.033 -3.3725  0.6445 -0.6780
 2041SOL    HW217757   0.969   2.187   5.156  0.2777  1.7619  0.8315
 2042SOL     OW17758   4.525   1.688   0.682 -0.0818  0.8401 -0.2628
 2042SOL    HW117759   4.579   1.624   0.635 -1.2512 -0.1317 -0.2854
 2042SOL    HW217760   4.520   1.742   0.602 -1.1441  1.6401  0.3365
 2043SOL     OW17761   1.392   1.967  12.647 -0.0235  0.1393  0.3080
 2043SOL    HW117762   1.443   1.887  12.633  1.5339  0.7813  2.3541
 2043SOL    HW217763   1.318   1.933  12.698  1.3222 -3.0852  0.1653
 2044SOL     OW17764   2.211   1.669   3.921  0.1432  0.3787  0.1183
 2044SOL    HW117765   2.194   1.579   3.948 -2.1139  0.3296 -1.4852
 2044SOL    HW217766   2.173   1.662   3.834 -2.6460  0.3877  1.3409
 2045SOL     OW17767   2.249   4.126   3.332 -0.4684 -0.0710  0.2943
 2045SOL    HW117768   2.192   4.091   3.400 -0.5935 -1.1640 -0.3815
 2045SOL    HW217769   2.178   4.145   3.271 -0.6435 -3.4005 -0.5530
 2046SOL     OW17770   3.803   3.902   2.114  0.0032  0.7089  0.1468
 2046SOL    HW117771   3.890   3.907   2.152  0.0612  0.7523  0.0088
 2046SOL    HW217772   3.748   3.875   2.188 -1.0034  2.6946  0.1431
 2047SOL     OW17773   2.736   0.956  16.924 -0.3521  0.4791 -0.0943
 2047SOL    HW117774   2.742   1.047  16.896  1.6156  0.3002 -0.2243
 2047SOL    HW217775   2.651   0.924  16.892 -0.2264  1.0224 -0.9490
 2048SOL     OW17776   0.831   3.191  10.293  0.3642 -0.0191  0.1023
 2048SOL    HW117777   0.920   3.200  10.260 -0.4651  0.1181 -2.0905
 2048SOL    HW217778   0.794   3.278  10.285  0.7750  0.1227 -0.2424
 2049SOL     OW17779   1.701   0.446  10.181  0.2382 -0.0242 -0.1216
 2049SOL    HW117780   1.750   0.527  10.186 -0.7641  0.6812 -1.5212
 2049SOL    HW217781   1.720   0.403  10.264 -1.9308  0.2605  0.5206
 2050SOL     OW17782   2.441   1.642  11.737 -0.2278  1.5707 -0.2054
 2050SOL    HW117783   2.448   1.646  11.832  0.7775 -0.3548 -0.1967
 2050SOL    HW217784   2.362   1.590  11.727 -0.6627  2.1928  0.0074
 2051SOL     OW17785   0.912   0.971   3.363  0.0856 -0.0182 -0.0570
 2051SOL    HW117786   0.871   1.030   3.426  0.7050  0.6768 -0.2939
 2051SOL    HW217787   0.986   0.938   3.413  0.5130  0.5279 -0.3250
 2052SOL     OW17788   4.212   1.051   8.693 -0.4979 -0.1412  0.0926
 2052SOL    HW117789   4.199   1.019   8.604  2.1630  1.6963 -0.9516
 2052SOL    HW217790   4.259   1.134   8.692 -0.4748 -0.1620 -0.4517
 2053SOL     OW17791   4.630   2.573   1.831 -0.3554 -0.0791  0.5607
 2053SOL    HW117792   4.657   2.508   1.766  1.7757  1.3480 -0.0102
 2053SOL    HW217793   4.631   2.653   1.778  0.1734 -0.2337  0.3294
 2054SOL     OW17794   2.673   1.885   6.766 -0.4544  0.2023 -0.7759
 2054SOL    HW117795   2.632   1.964   6.730  0.6312  0.5809 -1.1870
 2054SOL    HW217796   2.736   1.863   6.697  1.0345  0.0900  0.6052
 2055SOL     OW17797   2.799   2.258   2.348 -0.4760 -0.3004 -0.5954
 2055SOL    HW117798   2.829   2.346   2.370  1.4401 -1.1500  0.1897
 2055SOL    HW217799   2.847   2.238   2.268  1.3051  1.5680 -0.0028
 2056SOL     OW17800   0.460   0.603   6.401  0.1185 -1.0628 -0.7207
 2056SOL    HW117801   0.381   0.651   6.380  0.9669  0.5713 -0.1653
 2056SOL    HW217802   0.525   0.665   6.367 -1.2121  0.1972 -0.9424
 2057SOL     OW17803   2.353   4.442   8.472  0.3968  0.0175  0.4638
 2057SOL    HW117804   2.338   4.370   8.533 -0.1421 -1.6085 -1.6061
 2057SOL    HW217805   2.285   4.503   8.502 -0.0512  0.3310 -1.2126
 2058SOL     OW17806   0.911   1.231   1.871  0.2918  1.0577 -0.1015
 2058SOL    HW117807   0.841   1.219   1.935  1.1150  0.0292  0.5976
 2058SOL    HW217808   0.936   1.321   1.891  2.0654  0.1792  1.6312
 2059SOL     OW17809   1.468   0.946   6.813  0.3310  0.3685  0.1371
 2059SOL    HW117810   1.551   0.992   6.809  0.3400  0.4940  1.7256
 2059SOL    HW217811   1.432   0.962   6.726 -0.8060  1.6302  0.8405
 2060SOL     OW17812   0.010   0.194   1.461 -0.2753  0.0996 -0.0189
 2060SOL    HW117813   0.015   0.289   1.450 -0.8596  0.1761  0.3576
 2060SOL    HW217814   0.094   0.166   1.426  0.1158  0.5617  0.5516
 2061SOL     OW17815   2.717   4.089   3.863 -0.0910 -0.5371  0.4974
 2061SOL    HW117816   2.722   3.996   3.842 -0.0696 -0.4065 -0.0704
 2061SOL    HW217817   2.683   4.121   3.779  2.2316  2.4753  0.6988
 2062SOL     OW17818   0.515   1.229   1.823  0.3731 -0.4596 -0.3893
 2062SOL    HW117819   0.448   1.282   1.866  1.9628  2.6970 -1.9014
 2062SOL    HW217820   0.595   1.242   1.872 -0.0448  0.3848  0.0584
 2063SOL     OW17821   3.553   2.323   5.034 -0.4325 -0.1306 -0.0107
 2063SOL    HW117822   3.524   2.380   4.963 -1.7531  0.3615  0.9063
 2063SOL    HW217823   3.528   2.373   5.112 -0.7951 -0.4945  0.1072
 2064SOL     OW17824   1.411   4.198   0.056 -0.1122 -0.4015  0.8561
 2064SOL    HW117825   1.404   4.264  17.733 -3.9296 -1.1611  0.5205
 2064SOL    HW217826   1.507   4.198   0.057 -0.0721 -0.0834 -1.4616
 2065SOL     OW17827   2.499   2.855   7.223 -0.5394 -0.1603  0.6466
 2065SOL    HW117828   2.444   2.887   7.152 -0.6913  1.0333  1.3050
 2065SOL    HW217829   2.576   2.817   7.181 -0.3679  3.1573 -1.9973
 2066SOL     OW17830   3.952   1.440   8.740  0.3325  0.3476 -0.2455
 2066SOL    HW117831   3.975   1.388   8.662  1.3404 -0.8218  0.8201
 2066SOL    HW217832   3.899   1.381   8.794  0.6255  0.5443  0.2585
 2067SOL     OW17833   3.266   3.084   8.353  0.0007 -0.6662  0.2311
 2067SOL    HW117834   3.203   3.121   8.415  0.9226  1.2246  0.0261
 2067SOL    HW217835   3.214   3.021   8.302 -1.1903  1.2390 -0.9356
 2068SOL     OW17836   4.282   1.572   9.308 -0.2648  0.0020 -0.1177
 2068SOL    HW117837   4.322   1.655   9.334 -1.5734 -0.0227  1.9832
 2068SOL    HW217838   4.194   1.586   9.345  0.1793  0.6487  0.7076
 2069SOL     OW17839   2.795   0.455   1.240  0.2286 -0.1814 -0.3306
 2069SOL    HW117840   2.851   0.426   1.313  0.4415  4.7517  1.4728
 2069SOL    HW217841   2.703   0.430   1.250  0.6783 -2.1746 -1.1716
 2070SOL     OW17842   0.722   1.004  15.997 -0.4038 -0.1631  0.3975
 2070SOL    HW117843   0.809   0.969  15.977 -1.0974 -0.7640 -1.5323
 2070SOL    HW217844   0.735   1.090  16.038  0.3011 -0.4827  0.8564
 2071SOL     OW17845   1.875   2.582   1.730 -0.1531  0.0392  0.2622
 2071SOL    HW117846   1.940   2.562   1.798 -0.8124  1.0622  1.1957
 2071SOL    HW217847   1.937   2.611   1.663  0.8844 -2.0574  0.3211
 2072SOL     OW17848   1.270   3.591   6.448  0.2135  0.1201 -0.1323
 2072SOL    HW117849   1.328   3.532   6.400  1.1039 -0.2583  1.4201
 2072SOL    HW217850   1.189   3.541   6.450 -1.0945  2.1532 -2.7525
 2073SOL     OW17851   4.276   0.427   8.679 -0.1046  0.1375  0.2944
 2073SOL    HW117852   4.189   0.448   8.713  0.0366  4.4474 -2.1365
 2073SOL    HW217853   4.265   0.444   8.586  0.2242 -1.9172 -0.1351
 2074SOL     OW17854   0.707   2.345   7.423  0.3607  0.1649 -0.1412
 2074SOL    HW117855   0.635   2.408   7.419  0.5186  0.2433 -1.5615
 2074SOL    HW217856   0.780   2.406   7.435  1.4304 -1.0801 -0.3865
 2075SOL     OW17857   1.274   4.343   3.878  0.2953 -0.1856  0.0896
 2075SOL    HW117858   1.194   4.391   3.856  2.3218  2.1953 -2.1258
 2075SOL    HW217859   1.223   4.270   3.913 -0.0606  0.0379  0.0391
 2076SOL     OW17860   3.063   0.384   9.295 -0.0910  0.6242 -0.1745
 2076SOL    HW117861   3.021   0.304   9.327  2.0992 -0.2811  0.4194
 2076SOL    HW217862   3.005   0.445   9.340  1.8628  3.5558 -1.6154
 2077SOL     OW17863   2.111   1.560   4.829 -0.1618  0.3356  0.5487
 2077SOL    HW117864   2.166   1.513   4.892  1.8017 -0.3087 -1.6745
 2077SOL    HW217865   2.096   1.490   4.765  0.0055 -1.1613  2.1521
 2078SOL     OW17866   1.064   4.178   5.046  0.3787 -0.0891 -0.5425
 2078SOL    HW117867   0.998   4.170   4.978 -1.2279  1.0064  0.8867
 2078SOL    HW217868   1.030   4.258   5.086  2.2164 -0.7621  2.4181
 2079SOL     OW17869   3.864   1.381   6.314 -0.0530 -0.0177  0.4251
 2079SOL    HW117870   3.913   1.314   6.267 -2.0169 -1.6817  0.7825
 2079SOL    HW217871   3.899   1.462   6.276  3.5186 -1.9686 -0.4374
 2080SOL     OW17872   4.092   1.000   8.445 -0.3529 -0.3600  0.0050
 2080SOL    HW117873   4.134   1.052   8.375  1.6727 -2.2360 -0.1693
 2080SOL    HW217874   4.051   0.932   8.392  2.4544 -1.8039 -0.3249
 2081SOL     OW17875   4.490   1.501   9.649 -0.2120  0.5038  0.1388
 2081SOL    HW117876   4.456   1.519   9.737  0.7166 -0.7673  0.7596
 2081SOL    HW217877   4.413   1.511   9.593  1.5030 -1.3670 -2.5630
 2082SOL     OW17878   0.286   4.566  16.564  0.0742 -0.0748  0.2550
 2082SOL    HW117879   0.270   4.566  16.470 -0.2565  0.0394  0.3122
 2082SOL    HW217880   0.214   4.622  16.593 -0.3562 -0.1936 -0.5954
 2083SOL     OW17881   4.461   3.668   9.357 -0.7601  0.1455  0.0137
 2083SOL    HW117882   4.439   3.749   9.312  0.1883 -0.8045 -2.2119
 2083SOL    HW217883   4.389   3.625   9.310  0.0691 -1.9849  0.6887
 2084SOL     OW17884   2.688   4.736   2.847  0.2564  0.9579  0.1248
 2084SOL    HW117885   2.767   0.047   2.819  0.5948  0.2765 -0.0974
 2084SOL    HW217886   2.637   0.070   2.885  1.9472  1.7252  0.9710
 2085SOL     OW17887   3.558   4.294   3.253  0.5155 -0.0123  0.3419
 2085SOL    HW117888   3.621   4.361   3.229 -0.7420  1.8753  2.3269
 2085SOL    HW217889   3.592   4.231   3.189  0.0831 -0.2252  0.3171
 2086SOL     OW17890   3.727   3.287   3.837  0.0379  0.3711 -0.1038
 2086SOL    HW117891   3.636   3.303   3.862 -0.0814 -0.3670 -0.0534
 2086SOL    HW217892   3.726   3.340   3.758  0.8425  0.2819 -0.1720
 2087SOL     OW17893   3.459   0.549   8.363 -0.3553 -0.1597  0.2135
 2087SOL    HW117894   3.411   0.468   8.379 -0.9370 -0.2842 -2.1158
 2087SOL    HW217895   3.394   0.619   8.363  1.8544  1.9167 -3.2917
 2088SOL     OW17896   3.478   0.314   6.303  0.3699  0.0878 -0.3541
 2088SOL    HW117897   3.390   0.339   6.331 -0.6161 -3.8653  0.1575
 2088SOL    HW217898   3.464   0.238   6.246  0.4774 -1.1797  1.2846
 2089SOL     OW17899   1.171   4.486   7.275 -0.0002 -0.1329  0.2214
 2089SOL    HW117900   1.112   4.478   7.200  0.3181 -0.1157 -0.0311
 2089SOL    HW217901   1.142   4.405   7.318  1.2849 -0.8803 -0.2998
 2090SOL     OW17902   2.976   1.403   3.366  0.3395  0.0513  0.0688
 2090SOL    HW117903   2.916   1.402   3.440 -2.5643 -2.2835 -2.3591
 2090SOL    HW217904   3.036   1.475   3.388  0.5338 -0.3693  0.9219
 2091SOL     OW17905   4.596   4.732   7.575  0.5997 -0.3535 -0.2103
 2091SOL    HW117906   4.516   4.684   7.596 -0.5608  1.0041 -1.4898
 2091SOL    HW217907   4.555   0.080   7.561 -0.4265 -0.2093  3.8101
 2092SOL     OW17908   1.737   1.157  14.263  0.1514  0.2160 -0.6628
 2092SOL    HW117909   1.689   1.075  14.277  1.8879 -0.8657 -0.9443
 2092SOL    HW217910   1.795   1.127  14.193  1.8890 -0.0688  0.8912
 2093SOL     OW17911   1.421   4.046  14.829 -0.1478 -0.2223  0.2948
 2093SOL    HW117912   1.343   4.094  14.858 -0.2396  0.2777 -0.7738
 2093SOL    HW217913   1.392   3.996  14.752  3.8029 -0.8548 -0.7480
 2094SOL     OW17914   4.581   0.734  13.052 -0.4639  0.0996 -0.5525
 2094SOL    HW117915   4.547   0.691  13.131  0.5945 -2.3091 -1.4081
 2094SOL    HW217916   4.670   0.701  13.059  0.6799  3.6781  2.0673
 2095SOL     OW17917   3.258   0.780   8.070 -0.0204  0.7056 -0.1176
 2095SOL    HW117918   3.354   0.781   8.072 -0.0082 -0.4416  0.1849
 2095SOL    HW217919   3.242   0.852   8.010  0.3035  0.6275 -0.2968
 2096SOL     OW17920   0.514   3.532  15.562  0.4834 -0.0929  0.5666
 2096SOL    HW117921   0.422   3.559  15.555  0.7679  1.0483  1.0886
 2096SOL    HW217922   0.505   3.452  15.614 -0.9594  0.1920  0.7557
 2097SOL     OW17923   0.573   2.606  12.327 -0.4415  0.1887 -0.2947
 2097SOL    HW117924   0.620   2.682  12.292  0.7602 -0.3314  0.1904
 2097SOL    HW217925   0.641   2.586  12.391 -1.6865 -0.2538  0.8927
 2098SOL     OW17926   2.559   4.440   6.771 -0.0830 -0.4539  0.2545
 2098SOL    HW117927   2.518   4.354   6.780  2.1078 -1.9052 -4.1405
 2098SOL    HW217928   2.526   4.479   6.852  0.7934  0.7871  0.0119
 2099SOL     OW17929   3.836   0.836   8.890  0.5040 -0.1923 -0.3741
 2099SOL    HW117930   3.878   0.922   8.890  2.1963 -1.0010  0.6776
 2099SOL    HW217931   3.881   0.800   8.813 -1.6145 -0.2921 -1.5531
 2100SOL     OW17932   2.821   4.720   5.856 -0.5218  0.0264  0.3326
 2100SOL    HW117933   2.800   4.671   5.936 -0.3406  1.8933  1.5322
 2100SOL    HW217934   2.906   0.018   5.882  0.7757 -2.8461 -0.0116
 2101SOL     OW17935   2.613   1.379  16.625 -0.3984 -0.5576  0.2846
 2101SOL    HW117936   2.528   1.392  16.668 -1.1354  1.8781 -1.8539
 2101SOL    HW217937   2.587   1.324  16.551 -1.5992  1.4191 -0.7639
 2102SOL     OW17938   2.745   1.676   4.284  0.4119  0.3265  0.1767
 2102SOL    HW117939   2.664   1.717   4.315  1.2746  1.8945  0.3713
 2102SOL    HW217940   2.807   1.694   4.355  1.9046 -1.1803 -0.7346
 2103SOL     OW17941   0.876   4.707   6.723  0.3460  0.2952  0.0036
 2103SOL    HW117942   0.931   0.045   6.701  2.0829 -1.2472 -0.8224
 2103SOL    HW217943   0.789   0.010   6.719 -0.8256 -2.3142 -0.5696
 2104SOL     OW17944   2.013   0.205   4.198  0.0545  0.4935 -0.4750
 2104SOL    HW117945   2.099   0.247   4.209  0.0581 -0.1438  1.9572
 2104SOL    HW217946   2.051   0.125   4.163 -1.4419 -0.0401 -0.8954
 2105SOL     OW17947   0.173   1.008   9.248  0.0186 -1.2798 -0.0610
 2105SOL    HW117948   0.228   1.086   9.260 -1.0626 -0.4888 -0.2156
 2105SOL    HW217949   0.099   1.045   9.200 -0.7842 -0.6173  1.6985
 2106SOL     OW17950   1.116   1.116   8.080 -0.7821  0.2150  0.2931
 2106SOL    HW117951   1.079   1.072   8.004  1.9162 -2.6139  0.6468
 2106SOL    HW217952   1.200   1.147   8.047  0.2463 -1.4970  1.2983
 2107SOL     OW17953   1.062   1.643   4.188  0.2290  0.1231  0.0409
 2107SOL    HW117954   0.992   1.578   4.189 -1.0235  1.4949  2.6954
 2107SOL    HW217955   1.134   1.586   4.160  0.9875  1.2557 -0.3088
 2108SOL     OW17956   4.435   4.439  17.057  0.6493 -0.4683  0.4513
 2108SOL    HW117957   4.445   4.370  16.991  1.9644 -0.3455  0.5192
 2108SOL    HW217958   4.527   4.458  17.075  0.6968  0.6906 -1.0017
 2109SOL     OW17959   1.532   1.582   2.487  0.7373  0.2609  0.1226
 2109SOL    HW117960   1.566   1.581   2.397 -1.0766  0.2769 -0.5573
 2109SOL    HW217961   1.540   1.492   2.518  0.0077 -0.5226 -1.9698
 2110SOL     OW17962   0.444   3.174   7.843 -0.5734  0.3155  0.2621
 2110SOL    HW117963   0.521   3.219   7.879 -2.9557  4.0918  0.6309
 2110SOL    HW217964   0.391   3.247   7.810  1.8355  2.2424  0.6572
 2111SOL     OW17965   1.802   1.130   7.049  0.1868 -0.2889 -0.0054
 2111SOL    HW117966   1.870   1.129   6.982  2.7656 -0.5147  2.6179
 2111SOL    HW217967   1.818   1.044   7.089 -3.0815 -0.8156  0.1980
 2112SOL     OW17968   0.704   0.934   7.649  0.0717 -0.3704 -0.4525
 2112SOL    HW117969   0.727   1.012   7.700 -0.9461 -0.2155 -0.2360
 2112SOL    HW217970   0.631   0.971   7.599  0.1895  2.1240  1.2193
 2113SOL     OW17971   3.919   1.731   9.678  0.0585 -0.2736  0.2907
 2113SOL    HW117972   3.874   1.813   9.659  0.3565  0.1616  1.4673
 2113SOL    HW217973   3.876   1.715   9.762  0.4495 -1.3505  0.2892
 2114SOL     OW17974   2.315   1.731   5.500  0.2537 -0.6360  0.3759
 2114SOL    HW117975   2.287   1.817   5.468 -0.4747  0.0730  2.9387
 2114SOL    HW217976   2.227   1.695   5.514 -0.2691  0.2223 -0.7272
 2115SOL     OW17977   4.675   0.628   6.397  0.2644 -0.1775 -0.2315
 2115SOL    HW117978   4.630   0.553   6.436 -1.3676  1.0663  0.2412
 2115SOL    HW217979   4.601   0.688   6.395 -0.7559 -1.3368  2.3006
 2116SOL     OW17980   2.044   4.045   6.492 -0.5667  0.5872  0.2434
 2116SOL    HW117981   2.096   4.113   6.534 -1.7787  3.1014 -2.3610
 2116SOL    HW217982   1.984   4.018   6.562 -0.5605 -0.5528 -0.1921
 2117SOL     OW17983   0.678   3.632   7.057  0.2600  0.0888  0.0286
 2117SOL    HW117984   0.615   3.677   7.113  1.2743  2.6642 -0.9158
 2117SOL    HW217985   0.747   3.692   7.029 -0.4644 -0.4802 -2.9518
 2118SOL     OW17986   1.979   3.957   9.676 -0.5964 -0.2485 -0.0306
 2118SOL    HW117987   1.968   3.862   9.665 -1.3104 -0.0806 -0.7123
 2118SOL    HW217988   1.902   3.986   9.627  0.5317  1.5399 -0.7218
 2119SOL     OW17989   3.760   2.536   5.736  0.2033 -0.2869  0.1266
 2119SOL    HW117990   3.793   2.553   5.825 -1.1416 -0.0999  0.5947
 2119SOL    HW217991   3.833   2.493   5.691  0.9876  0.8437  0.3016
 2120SOL     OW17992   2.948   3.130   3.806  0.7136  0.0412  0.3275
 2120SOL    HW117993   2.908   3.216   3.792 -1.4110 -0.9129  0.5821
 2120SOL    HW217994   2.903   3.097   3.884 -0.9845  0.7537 -0.3489
 2121SOL     OW17995   3.145   1.500   8.212  0.2582 -0.4548  0.2158
 2121SOL    HW117996   3.137   1.488   8.306 -2.8769 -1.2808 -0.1244
 2121SOL    HW217997   3.225   1.449   8.201 -0.4561 -0.7231 -3.9239
 2122SOL     OW17998   2.414   2.259  17.452 -0.3694  0.0377 -0.1140
 2122SOL    HW117999   2.321   2.282  17.446 -0.6842 -0.9848  0.9719
 2122SOL    HW218000   2.450   2.320  17.517  0.7926 -1.4254  0.6039
 2123SOL     OW18001   0.550   2.496   3.343 -0.3842  0.8612 -0.5041
 2123SOL    HW118002   0.543   2.557   3.270  0.0818  1.5841  0.0435
 2123SOL    HW218003   0.632   2.527   3.382 -0.1516 -1.2218  0.6693
 2124SOL     OW18004   0.452   2.307  17.565 -0.1432 -0.3219 -0.0564
 2124SOL    HW118005   0.442   2.372  17.635  2.4860 -0.3777  0.3787
 2124SOL    HW218006   0.489   2.355  17.491 -1.7054  1.1444  0.1091
 2125SOL     OW18007   1.918   0.953  14.813  0.3191 -0.4224 -0.0485
 2125SOL    HW118008   1.871   1.036  14.822  0.4356 -0.4095  0.4589
 2125SOL    HW218009   1.942   0.934  14.904 -4.1853  0.2982  1.3021
 2126SOL     OW18010   2.906   3.461   7.586  0.5693  0.5452  0.0145
 2126SOL    HW118011   2.896   3.495   7.497  0.2964 -0.3797 -0.3182
 2126SOL    HW218012   2.823   3.497   7.617  1.0636 -0.9868  3.0694
 2127SOL     OW18013   0.558   2.290   3.124 -0.0130  0.8493  0.1875
 2127SOL    HW118014   0.597   2.372   3.096  1.9634  0.5088  1.9355
 2127SOL    HW218015   0.582   2.308   3.215  1.9777 -1.0247  0.0352
 2128SOL     OW18016   2.462   4.266  16.259  0.4892 -0.0536 -0.2805
 2128SOL    HW118017   2.543   4.223  16.231 -0.8663 -2.6034 -0.2753
 2128SOL    HW218018   2.421   4.195  16.309 -2.1991  1.4521 -0.3199
 2129SOL     OW18019   4.486   2.088   4.314  0.1102 -0.1198  0.3940
 2129SOL    HW118020   4.449   2.173   4.335 -0.3119 -0.9508  2.9633
 2129SOL    HW218021   4.516   2.050   4.396 -0.0521 -1.8307 -0.3144
 2130SOL     OW18022   0.846   2.288   6.643 -0.1174  0.1568 -0.0537
 2130SOL    HW118023   0.800   2.211   6.677 -1.1337  0.5115 -0.6055
 2130SOL    HW218024   0.836   2.276   6.548 -1.9691  1.6219 -0.0456
 2131SOL     OW18025   4.426   1.515   3.490 -0.0891  0.5497 -0.5336
 2131SOL    HW118026   4.467   1.594   3.455 -0.8125  1.3935  0.5423
 2131SOL    HW218027   4.340   1.528   3.450 -1.0144 -0.9214  0.9679
 2132SOL     OW18028   3.374   0.142   7.892 -0.3812 -0.6735  0.2628
 2132SOL    HW118029   3.343   0.156   7.803  2.6496  1.8573 -0.4069
 2132SOL    HW218030   3.382   0.047   7.905  0.1499 -0.7834 -0.8898
 2133SOL     OW18031   0.862   1.320  15.761 -0.2836  0.5341  0.4492
 2133SOL    HW118032   0.939   1.366  15.725 -1.2535  0.8852 -1.1903
 2133SOL    HW218033   0.897   1.234  15.782 -0.6059  0.3595  0.2570
 2134SOL     OW18034   0.161   2.158   3.219  0.0196  0.0459  0.1992
 2134SOL    HW118035   0.239   2.181   3.170 -1.3548  1.4264 -1.3533
 2134SOL    HW218036   0.095   2.222   3.193 -0.7448  0.1955  2.4779
 2135SOL     OW18037   3.874   2.999   4.628  0.2269 -0.2531 -0.0622
 2135SOL    HW118038   3.844   2.999   4.537 -1.1328  2.8341  0.3505
 2135SOL    HW218039   3.846   3.087   4.656 -1.3223 -0.1333 -1.9376
 2136SOL     OW18040   4.108   2.069   3.102  0.3913  0.5913  0.2780
 2136SOL    HW118041   4.014   2.081   3.112  0.6721  3.1489 -0.3142
 2136SOL    HW218042   4.122   2.037   3.013 -0.1316  1.8653 -0.2584
 2137SOL     OW18043   1.085   3.637  11.582 -0.3014  0.8927  0.0544
 2137SOL    HW118044   1.013   3.573  11.579  1.7971 -1.5327  1.0298
 2137SOL    HW218045   1.102   3.657  11.490  0.3812  1.1079  0.2266
 2138SOL     OW18046   0.156   2.211   4.721  0.0660  0.2824  0.5661
 2138SOL    HW118047   0.250   2.213   4.701 -0.2930  0.4729 -1.0861
 2138SOL    HW218048   0.127   2.297   4.690  3.4946  1.9843  1.9838
 2139SOL     OW18049   2.122   2.533  17.723  0.0500  0.4967  0.1023
 2139SOL    HW118050   2.103   2.561   0.066  0.8256 -1.0271  0.7569
 2139SOL    HW218051   2.200   2.586  17.706  0.6168  0.0877  1.3735
 2140SOL     OW18052   1.619   0.582   4.685  0.3934  0.6962  0.1186
 2140SOL    HW118053   1.658   0.495   4.697  1.5460  1.0459 -1.1648
 2140SOL    HW218054   1.695   0.637   4.669  1.0892  0.4890  2.6867
 2141SOL     OW18055   2.081   1.951  17.417 -0.8860 -0.4177 -0.0360
 2141SOL    HW118056   2.126   1.979  17.337  0.0994  2.3761  1.4848
 2141SOL    HW218057   2.071   2.029  17.471  3.7426 -0.2264  0.5098
 2142SOL     OW18058   2.303   3.189   3.712  0.4208 -0.4027  0.8662
 2142SOL    HW118059   2.249   3.131   3.766  0.6754 -2.1697 -0.7681
 2142SOL    HW218060   2.237   3.240   3.663  2.3166  0.5461 -0.6937
 2143SOL     OW18061   1.712   3.922  14.490 -0.0511 -0.3829 -0.6725
 2143SOL    HW118062   1.714   3.826  14.492 -1.2852 -0.4276 -2.0644
 2143SOL    HW218063   1.682   3.932  14.400 -0.6210  0.6003 -0.3664
 2144SOL     OW18064   0.519   1.822   4.133  0.5689  0.0203  0.4634
 2144SOL    HW118065   0.561   1.898   4.175  0.5773  1.2208 -1.7009
 2144SOL    HW218066   0.437   1.850   4.093  0.8817 -0.5827 -0.5970
 2145SOL     OW18067   2.457   1.194   3.766 -0.2229  0.0775  0.2273
 2145SOL    HW118068   2.386   1.138   3.734 -1.4364  0.8789  1.5215
 2145SOL    HW218069   2.508   1.119   3.796  1.2648  1.3986  1.0028
 2146SOL     OW18070   0.420   2.301   5.835  0.1923 -0.3569  0.4462
 2146SOL    HW118071   0.500   2.315   5.885 -0.5987 -0.3300  1.7113
 2146SOL    HW218072   0.443   2.303   5.742 -0.9069  1.7734  0.2140
 2147SOL     OW18073   0.207   1.364   8.457  0.1309 -0.5423  0.3244
 2147SOL    HW118074   0.297   1.345   8.431 -0.2734 -1.9357 -0.0673
 2147SOL    HW218075   0.172   1.366   8.368  0.2592 -0.2744  0.2791
 2148SOL     OW18076   2.267   1.029   3.638 -0.9244  0.3280 -0.6357
 2148SOL    HW118077   2.341   0.980   3.603 -0.2717  1.3051 -0.6420
 2148SOL    HW218078   2.203   0.989   3.579 -1.9662 -0.4412  1.0105
 2149SOL     OW18079   3.509   0.453   4.067 -0.1382 -0.5593 -0.7357
 2149SOL    HW118080   3.428   0.441   4.019 -0.4497 -0.7398 -0.1660
 2149SOL    HW218081   3.470   0.452   4.154  0.0608 -0.6576 -0.6455
 2150SOL     OW18082   2.840   3.204   7.150 -0.3495  0.2664 -0.4646
 2150SOL    HW118083   2.904   3.274   7.133  1.1274 -1.3590 -1.6283
 2150SOL    HW218084   2.793   3.234   7.228 -0.4018  3.7012 -1.8203
 2151SOL     OW18085   2.582   4.256  10.841 -0.5204  0.1854 -0.4517
 2151SOL    HW118086   2.641   4.182  10.855  0.4001  0.8815 -0.5918
 2151SOL    HW218087   2.602   4.272  10.749 -4.7418  1.2279 -1.1970
 2152SOL     OW18088   1.151   3.700   7.166  0.4023 -0.1473 -0.5205
 2152SOL    HW118089   1.153   3.754   7.245 -2.0948  0.2457 -0.7299
 2152SOL    HW218090   1.168   3.773   7.107 -2.1277  0.6369 -0.2850
 2153SOL     OW18091   4.682   2.228   5.940  0.3517 -0.7191  0.0054
 2153SOL    HW118092   4.723   2.257   6.021 -0.0337  2.1018 -0.8308
 2153SOL    HW218093   0.013   2.232   5.872 -1.3659  2.4936 -1.5274
 2154SOL     OW18094   2.948   3.972   4.707  0.0411 -0.0801  0.0083
 2154SOL    HW118095   2.949   3.881   4.738  1.5524 -0.7380 -1.9288
 2154SOL    HW218096   2.872   3.965   4.649  0.5979 -0.7163 -0.6476
 2155SOL     OW18097   1.496   2.802   8.173  0.2643 -0.0731 -0.0315
 2155SOL    HW118098   1.522   2.786   8.264  1.5103 -1.1442 -0.5834
 2155SOL    HW218099   1.537   2.884   8.145  0.2085  0.0011  0.1044
 2156SOL     OW18100   3.340   3.363   4.218  0.2693 -0.9565  0.4220
 2156SOL    HW118101   3.390   3.441   4.194 -0.5617 -1.1113 -1.8842
 2156SOL    HW218102   3.407   3.316   4.266  1.5731  1.2468  0.7567
 2157SOL     OW18103   3.711   2.533   3.497 -0.7115  0.0072 -0.3678
 2157SOL    HW118104   3.708   2.604   3.562  0.4212 -0.5374  0.2753
 2157SOL    HW218105   3.727   2.575   3.412 -1.5752 -3.1292 -2.0765
 2158SOL     OW18106   0.847   2.007   1.977  0.2068  0.2741 -0.2678
 2158SOL    HW118107   0.935   2.037   2.001  0.0529 -0.1174  0.7821
 2158SOL    HW218108   0.844   1.928   2.031 -1.0122  1.3348  1.2065
 2159SOL     OW18109   1.880   3.811   9.186  0.7089  0.3087  0.2216
 2159SOL    HW118110   1.801   3.776   9.227  0.1326  1.4648  0.1143
 2159SOL    HW218111   1.933   3.745   9.230  0.4966  0.7287  1.1092
 2160SOL     OW18112   1.038   1.487   6.387  0.1223 -0.0959  0.4064
 2160SOL    HW118113   0.989   1.406   6.368  0.4205 -0.1158 -0.2884
 2160SOL    HW218114   1.063   1.518   6.300 -3.4885 -0.2451 -0.7138
 2161SOL     OW18115   4.414   3.740   5.093  0.4715  0.0058  0.3701
 2161SOL    HW118116   4.360   3.699   5.162  0.1870 -1.1589 -0.5480
 2161SOL    HW218117   4.358   3.734   5.016  2.1786  1.0346 -0.9382
 2162SOL     OW18118   4.197   0.972   4.606 -0.3278 -0.3917  0.0489
 2162SOL    HW118119   4.285   0.934   4.610  0.0022  0.3509 -0.0963
 2162SOL    HW218120   4.142   0.927   4.670  0.4607 -1.4493 -0.0195
 2163SOL     OW18121   0.157   3.904   9.640  0.3451  0.3372 -0.3317
 2163SOL    HW118122   0.206   3.822   9.642 -0.1819  0.1188  3.1393
 2163SOL    HW218123   0.081   3.886   9.584  0.1448  0.4413 -0.0935
 2164SOL     OW18124   2.150   3.606   3.495  0.3593  0.6061 -0.5779
 2164SOL    HW118125   2.112   3.522   3.468 -0.8398  1.4053 -1.3850
 2164SOL    HW218126   2.074   3.664   3.493  0.4544  0.7089 -1.0470
 2165SOL     OW18127   1.775   4.148   8.654  0.1926 -0.2785 -0.6701
 2165SOL    HW118128   1.817   4.187   8.731 -0.4725  1.8173 -1.3707
 2165SOL    HW218129   1.766   4.061   8.694  0.9964 -0.0767 -0.0411
 2166SOL     OW18130   2.133   0.948  13.220 -0.5670  0.0733  0.7251
 2166SOL    HW118131   2.144   0.919  13.310 -0.5565  1.0148  1.0188
 2166SOL    HW218132   2.057   0.894  13.197 -0.8587  1.6715 -2.1189
 2167SOL     OW18133   1.726   4.159   6.775  0.3581  0.3276 -0.2750
 2167SOL    HW118134   1.640   4.121   6.794 -0.6546  1.8199 -1.8038
 2167SOL    HW218135   1.755   4.201   6.856 -0.8103 -2.0839  1.4026
 2168SOL     OW18136   2.618   1.912   6.267  0.1568 -0.0175  0.3543
 2168SOL    HW118137   2.678   1.841   6.290 -0.5427 -0.1369  1.8215
 2168SOL    HW218138   2.659   1.941   6.186  1.1879 -1.5413  0.3469
 2169SOL     OW18139   2.143   4.725   4.464  0.2331 -0.0173  0.0423
 2169SOL    HW118140   2.079   4.709   4.533  0.5405 -1.3838  0.0024
 2169SOL    HW218141   2.197   0.059   4.497  0.3681  0.6831 -1.6877
 2170SOL     OW18142   1.080   4.001   0.619 -0.3850 -0.1098  0.4281
 2170SOL    HW118143   0.988   4.010   0.644 -0.0642  2.3176  0.7186
 2170SOL    HW218144   1.082   4.005   0.524 -2.4231 -2.4934  0.2962
 2171SOL     OW18145   3.634   3.310  14.187 -0.5451  0.4948 -0.0574
 2171SOL    HW118146   3.640   3.307  14.091 -2.1994 -1.7182 -0.0784
 2171SOL    HW218147   3.723   3.278  14.204 -0.6914  0.3394  0.4184
 2172SOL     OW18148   2.417   1.152  17.311  0.7159  0.0387 -0.4879
 2172SOL    HW118149   2.466   1.082  17.266 -0.0782 -0.5760 -0.3924
 2172SOL    HW218150   2.492   1.201  17.345 -0.4919  2.7344 -1.7363
 2173SOL     OW18151   0.375   4.228   8.082  0.4629  0.6815 -0.2092
 2173SOL    HW118152   0.342   4.184   8.004 -0.2801  1.2677 -0.2133
 2173SOL    HW218153   0.469   4.214   8.068 -0.0473 -1.3908 -1.5320
 2174SOL     OW18154   3.038   4.249   8.578  0.1494  0.2458 -0.5348
 2174SOL    HW118155   3.108   4.205   8.625 -1.8283 -2.5859 -0.2546
 2174SOL    HW218156   2.956   4.239   8.627 -0.1488 -0.7805 -1.2381
 2175SOL     OW18157   0.227   2.244   3.482  0.1941 -0.0559 -0.3414
 2175SOL    HW118158   0.176   2.223   3.404  0.7325  1.5811 -1.1462
 2175SOL    HW218159   0.184   2.185   3.544  2.1407 -1.9152 -0.7599
 2176SOL     OW18160   4.499   2.134   9.786 -0.0933 -0.0736  0.0780
 2176SOL    HW118161   4.566   2.072   9.757  1.3805  1.1148  0.8943
 2176SOL    HW218162   4.486   2.183   9.704  0.0157  1.3461  0.9081
 2177SOL     OW18163   4.234   2.628   8.480 -0.0357  0.1471  0.6628
 2177SOL    HW118164   4.170   2.556   8.486  0.8202 -0.8454 -1.8852
 2177SOL    HW218165   4.304   2.583   8.432  0.6024 -1.5771  3.2582
 2178SOL     OW18166   3.545   0.087   4.600  0.0913  0.6362  0.1449
 2178SOL    HW118167   3.593   0.168   4.618 -0.3364  1.0469 -0.5656
 2178SOL    HW218168   3.478   0.110   4.536 -0.5382 -1.8338 -0.0920
 2179SOL     OW18169   0.156   2.057   7.292 -0.0679 -0.2716  0.0333
 2179SOL    HW118170   0.152   2.101   7.377 -1.1357  1.2152 -0.7788
 2179SOL    HW218171   0.212   2.119   7.245 -0.7950  0.1305 -0.2957
 2180SOL     OW18172   2.304   1.871   8.102 -0.4073 -0.5824  0.4899
 2180SOL    HW118173   2.391   1.830   8.102  0.8328  2.0440  1.2635
 2180SOL    HW218174   2.258   1.792   8.130 -0.1489 -0.6755  0.6568
 2181SOL     OW18175   0.640   4.397  12.136  0.3112  0.6074  0.5944
 2181SOL    HW118176   0.718   4.346  12.158 -0.2900 -0.1821  0.8836
 2181SOL    HW218177   0.658   4.427  12.047 -0.0829 -2.8328 -0.6289
 2182SOL     OW18178   2.668   4.510   2.350 -0.0583  0.8936  0.0835
 2182SOL    HW118179   2.607   4.555   2.291 -0.3430 -0.4010 -0.6128
 2182SOL    HW218180   2.683   4.577   2.417  0.1354  0.6270  0.3083
 2183SOL     OW18181   0.880   1.684  15.725 -0.3734  0.1229  0.0029
 2183SOL    HW118182   0.836   1.632  15.658 -1.7374  1.8991 -0.4828
 2183SOL    HW218183   0.865   1.772  15.692 -0.7811 -0.2008 -0.6959
 2184SOL     OW18184   1.631   0.266   7.149  0.8729  0.0284  0.6972
 2184SOL    HW118185   1.563   0.203   7.126  0.1478  1.2032 -0.3842
 2184SOL    HW218186   1.591   0.352   7.138  1.5071  0.2892  0.4242
 2185SOL     OW18187   3.929   3.160   9.082  0.1546 -0.6797 -0.2208
 2185SOL    HW118188   3.952   3.087   9.140  0.0851 -0.3578  0.2142
 2185SOL    HW218189   3.932   3.123   8.994 -1.1162  1.0166 -0.9667
 2186SOL     OW18190   3.333   3.499   2.735  0.2747 -0.1411 -0.3066
 2186SOL    HW118191   3.374   3.513   2.820 -1.4458  2.2075  0.1261
 2186SOL    HW218192   3.368   3.414   2.707 -1.2214 -0.6557 -0.6358
 2187SOL     OW18193   3.114   1.129   8.608  0.1178 -0.5406  0.2433
 2187SOL    HW118194   3.105   1.034   8.609 -1.6097 -0.3707  0.7139
 2187SOL    HW218195   3.071   1.155   8.689  0.4434  0.8127 -0.0146
 2188SOL     OW18196   1.856   4.673   5.663 -0.4718 -0.0410 -0.2331
 2188SOL    HW118197   1.877   4.724   5.584 -0.3551  1.2572  0.6365
 2188SOL    HW218198   1.944   4.667   5.700  0.4108  1.7839 -1.9829
 2189SOL     OW18199   0.423   1.958  14.965  0.4955 -0.1982  0.1967
 2189SOL    HW118200   0.375   1.902  15.025 -0.1214  0.4806  0.3340
 2189SOL    HW218201   0.356   1.966  14.897 -0.4388  0.3164  1.1720
 2190SOL     OW18202   0.124   2.127   6.535 -0.2352  0.8886 -0.2953
 2190SOL    HW118203   0.146   2.216   6.507  2.3923 -0.1567 -1.6270
 2190SOL    HW218204   0.037   2.121   6.495 -0.8602  0.2042  1.1626
 2191SOL     OW18205   4.122   1.298   2.143  0.4903 -0.5013  0.1571
 2191SOL    HW118206   4.027   1.282   2.143 -0.0322  2.5557  1.2455
 2191SOL    HW218207   4.148   1.292   2.234 -0.6043 -0.1000  0.4975
 2192SOL     OW18208   2.065   3.395  12.470  0.3061 -0.6655 -0.0571
 2192SOL    HW118209   2.033   3.444  12.547 -0.1458  0.4458 -0.9510
 2192SOL    HW218210   2.154   3.372  12.500 -0.1826 -1.6103  0.6699
 2193SOL     OW18211   3.984   2.718   8.227  0.3402 -0.8207 -0.0990
 2193SOL    HW118212   4.021   2.797   8.266 -0.8590 -0.1080 -0.3997
 2193SOL    HW218213   3.904   2.758   8.193  0.5842  1.6757  2.2522
 2194SOL     OW18214   4.115   0.482   5.012 -0.3447  0.2095  0.3274
 2194SOL    HW118215   4.180   0.415   4.989 -1.5855 -0.0581 -2.5121
 2194SOL    HW218216   4.167   0.560   5.030 -1.0837  0.6499  0.5637
 2195SOL     OW18217   1.091   1.092   2.130 -0.4788 -0.0278  0.2057
 2195SOL    HW118218   1.078   1.093   2.035 -1.4770 -2.1196  0.3178
 2195SOL    HW218219   1.003   1.061   2.153 -0.9088  1.0036 -0.0879
 2196SOL     OW18220   1.742   4.408   5.178 -0.0931 -0.6852  0.2224
 2196SOL    HW118221   1.762   4.419   5.085  2.8508 -1.5924  0.7411
 2196SOL    HW218222   1.649   4.385   5.182 -0.7427  1.4466 -2.8263
 2197SOL     OW18223   2.417   1.592  10.343 -0.1139  0.1864 -1.0593
 2197SOL    HW118224   2.458   1.661  10.395 -0.8450 -1.0965  1.2216
 2197SOL    HW218225   2.348   1.629  10.288  0.8929  1.7967 -1.2312
 2198SOL     OW18226   1.974   4.615   4.274 -0.1900 -0.8120  0.3424
 2198SOL    HW118227   2.008   4.528   4.252  0.2811 -0.5975  0.2167
 2198SOL    HW218228   2.050   4.646   4.323  0.9093 -2.0751 -0.5523
 2199SOL     OW18229   0.961   2.151   5.326  0.4431 -0.5286  0.0376
 2199SOL    HW118230   1.050   2.139   5.358  0.9802  0.6308 -1.0327
 2199SOL    HW218231   0.923   2.071   5.363  2.1775 -0.0752  2.7913
 2200SOL     OW18232   3.307   1.238   8.462  0.0343 -0.0953  0.6366
 2200SOL    HW118233   3.229   1.207   8.508 -0.4324  1.0841  0.6531
 2200SOL    HW218234   3.329   1.159   8.413  1.3706 -0.2610  1.4802
 2201SOL     OW18235   3.893   2.596   7.652  0.2112  0.6230 -0.2042
 2201SOL    HW118236   3.804   2.608   7.683  0.2161 -0.0011  0.0351
 2201SOL    HW218237   3.920   2.684   7.624  0.0941  0.6598 -0.2002
 2202SOL     OW18238   0.617   4.138   1.904 -0.2989  0.1772  0.3001
 2202SOL    HW118239   0.567   4.119   1.825  2.8790  0.0241 -1.6505
 2202SOL    HW218240   0.586   4.061   1.952  2.2977 -1.3209 -0.4611
 2203SOL     OW18241   1.311   1.216  15.772 -0.1466 -0.1884  0.0460
 2203SOL    HW118242   1.403   1.207  15.798 -0.0816  1.7547  0.4704
 2203SOL    HW218243   1.308   1.131  15.728  2.0925 -1.1951  1.8272
 2204SOL     OW18244   1.687   1.672   8.709 -0.1499  0.2701 -0.3374
 2204SOL    HW118245   1.606   1.720   8.692  0.0783  1.6678  2.4935
 2204SOL    HW218246   1.749   1.742   8.727 -0.4823  0.0263  1.7858
 2205SOL     OW18247   2.987   0.744  12.120  0.2591 -0.6390 -0.4155
 2205SOL    HW118248   3.080   0.749  12.098  0.1314 -0.5247 -0.9229
 2205SOL    HW218249   2.989   0.657  12.159  1.0869  0.5172  2.1552
 2206SOL     OW18250   2.679   0.465  14.765 -0.7426 -0.1811 -0.0884
 2206SOL    HW118251   2.621   0.448  14.691 -0.2157  0.4882 -0.6569
 2206SOL    HW218252   2.704   0.557  14.754 -2.3127  0.0895 -1.5533
 2207SOL     OW18253   0.431   3.696   6.592 -0.1083 -0.0480  0.0751
 2207SOL    HW118254   0.388   3.715   6.509  0.9860  1.6858 -0.0991
 2207SOL    HW218255   0.497   3.633   6.564 -0.3794 -0.7345  0.9789
 2208SOL     OW18256   0.777   2.270   3.319  0.0832 -0.6224 -0.0116
 2208SOL    HW118257   0.804   2.182   3.292 -0.6857 -0.3421 -1.6364
 2208SOL    HW218258   0.815   2.279   3.407 -0.6407 -1.3065  0.3723
 2209SOL     OW18259   0.859   3.334   7.961 -0.5136  0.8226 -0.2860
 2209SOL    HW118260   0.844   3.402   8.027  0.4358 -0.3559  1.1402
 2209SOL    HW218261   0.930   3.377   7.914  0.3378 -0.1807  0.0865
 2210SOL     OW18262   3.454   2.435  15.381  0.5059 -0.8063 -0.7004
 2210SOL    HW118263   3.482   2.507  15.325  1.2695  0.5366  1.4224
 2210SOL    HW218264   3.462   2.481  15.465 -3.1519 -0.8818 -0.3210
 2211SOL     OW18265   4.637   0.213   2.160 -0.0794  0.1311  0.2550
 2211SOL    HW118266   4.678   0.298   2.142 -0.7972  0.2636 -0.8077
 2211SOL    HW218267   4.709   0.151   2.145 -0.3061 -0.4887  1.7524
 2212SOL     OW18268   4.175   3.092  17.049  0.1311 -0.1235  0.4578
 2212SOL    HW118269   4.134   3.166  17.095  1.9645  0.2379  1.5197
 2212SOL    HW218270   4.169   3.024  17.116 -2.3558  0.0576  0.4226
 2213SOL     OW18271   2.558   1.324   2.623  0.6488 -0.1664  0.3243
 2213SOL    HW118272   2.590   1.297   2.537 -2.2738 -0.4463 -0.6822
 2213SOL    HW218273   2.485   1.383   2.606 -0.2219 -0.8207  1.7555
 2214SOL     OW18274   0.261   0.777   3.067 -0.0199  0.1095 -0.1036
 2214SOL    HW118275   0.311   0.849   3.104 -1.4518  0.6213  0.8769
 2214SOL    HW218276   0.253   0.804   2.976  0.7203 -1.1525 -0.5419
 2215SOL     OW18277   2.850   1.983   1.314 -0.5379 -0.0413  0.0412
 2215SOL    HW118278   2.859   1.894   1.349  1.1156  0.5681  1.1266
 2215SOL    HW218279   2.771   1.975   1.260 -0.9671  3.4553  0.1886
 2216SOL     OW18280   1.466   1.610  15.193 -0.4115 -0.3807  0.3537
 2216SOL    HW118281   1.438   1.520  15.173 -1.6738  0.0796  0.0385
 2216SOL    HW218282   1.435   1.620  15.283  0.6654  0.8864  0.5786
 2217SOL     OW18283   3.429   2.926   2.318  0.3224  0.0349 -0.6121
 2217SOL    HW118284   3.471   2.982   2.253 -2.9838 -0.2635 -3.0420
 2217SOL    HW218285   3.491   2.939   2.389 -0.4511 -0.8345  0.2226
 2218SOL     OW18286   2.547   3.692   1.904  0.0020  0.3910 -0.8061
 2218SOL    HW118287   2.583   3.604   1.911  0.7412  0.6629 -1.2847
 2218SOL    HW218288   2.621   3.738   1.944 -0.7121  0.4129  0.5077
 2219SOL     OW18289   0.847   1.976   2.515  1.0580 -0.5543 -0.7495
 2219SOL    HW118290   0.892   1.892   2.521  1.4241 -0.3905 -1.2148
 2219SOL    HW218291   0.756   1.945   2.515  0.6428  0.6640 -1.0718
 2220SOL     OW18292   2.435   0.749   7.544 -0.0380  0.0419 -0.0520
 2220SOL    HW118293   2.384   0.668   7.545  0.8693 -0.5851 -2.9326
 2220SOL    HW218294   2.378   0.804   7.490  1.5366 -0.4906 -2.2496
 2221SOL     OW18295   3.556   3.460   3.427 -0.1682  0.3014  0.2155
 2221SOL    HW118296   3.607   3.379   3.425 -0.4138  0.1151  1.3000
 2221SOL    HW218297   3.619   3.522   3.463 -0.3308  0.9390 -0.6070
 2222SOL     OW18298   1.140   2.931   5.771  0.6109 -0.1775  0.1293
 2222SOL    HW118299   1.143   2.988   5.694  1.5049 -1.9429 -1.1451
 2222SOL    HW218300   1.138   2.844   5.732 -1.5185  0.6052 -1.4767
 2223SOL     OW18301   0.234   0.270   3.693  0.4833 -0.1965 -0.2462
 2223SOL    HW118302   0.179   0.314   3.759  0.4133 -3.2225  1.7138
 2223SOL    HW218303   0.210   0.178   3.705  0.5807 -0.1658  0.1911
 2224SOL     OW18304   0.699   3.289   2.707 -0.0213 -0.8282  0.1467
 2224SOL    HW118305   0.681   3.342   2.785 -0.8176  1.1972 -1.4226
 2224SOL    HW218306   0.743   3.355   2.653 -2.1807  0.3251 -0.2010
 2225SOL     OW18307   2.087   1.098   3.399  0.1715  0.0307 -0.1920
 2225SOL    HW118308   2.148   1.049   3.343 -1.7044 -3.1875  0.5855
 2225SOL    HW218309   2.064   1.170   3.340  2.3860  0.8601 -0.0612
 2226SOL     OW18310   3.088   0.063   5.086 -0.0963 -0.0504  0.6023
 2226SOL    HW118311   3.074   0.125   5.014  0.4500 -0.4622  0.1442
 2226SOL    HW218312   3.120   0.114   5.161  2.9899 -2.7209  1.1003
 2227SOL     OW18313   2.080   4.482   1.842  0.0598  0.6633  0.0635
 2227SOL    HW118314   2.165   4.492   1.801  0.5790  0.7096  1.1698
 2227SOL    HW218315   2.050   4.402   1.798 -1.1748  0.0871  1.9484
 2228SOL     OW18316   0.229   0.242  11.887 -0.0271  0.3405  0.4421
 2228SOL    HW118317   0.207   0.176  11.953  1.0842  1.2412  1.7159
 2228SOL    HW218318   0.201   0.193  11.810  1.8891  0.0893 -0.1043
 2229SOL     OW18319   0.446   2.386   4.178  0.1024 -0.5869  0.1073
 2229SOL    HW118320   0.517   2.376   4.114  0.9617  0.3067  0.9180
 2229SOL    HW218321   0.484   2.382   4.266 -0.4869 -2.0194  0.2907
 2230SOL     OW18322   3.033   0.282   7.065  0.0382  0.4075  0.0327
 2230SOL    HW118323   3.056   0.328   7.146  1.6388  1.2242 -0.8729
 2230SOL    HW218324   2.941   0.304   7.057  0.2631  1.6568  0.9985
 2231SOL     OW18325   3.034   1.784   5.405  0.2983  0.1150 -0.0263
 2231SOL    HW118326   2.979   1.783   5.483  0.0729 -2.9965 -0.2332
 2231SOL    HW218327   2.961   1.802   5.347  0.8117 -3.1202 -1.6365
 2232SOL     OW18328   2.458   1.103   9.636 -0.3029  0.1590  0.9449
 2232SOL    HW118329   2.422   1.106   9.725 -0.9759  2.5446  0.5960
 2232SOL    HW218330   2.430   1.019   9.598 -0.6908  0.2409  1.0522
 2233SOL     OW18331   2.744   1.041   6.739 -0.6379 -0.1984 -0.1834
 2233SOL    HW118332   2.807   0.972   6.760  1.9884  1.8801 -1.2299
 2233SOL    HW218333   2.711   1.070   6.824 -0.4591  0.0132 -0.1865
 2234SOL     OW18334   3.624   2.389   4.310 -0.0748 -0.0364 -0.3147
 2234SOL    HW118335   3.594   2.299   4.296  0.4555 -0.4455  1.1626
 2234SOL    HW218336   3.650   2.392   4.402  0.5420 -2.0053 -0.4163
 2235SOL     OW18337   0.372   0.552  17.504  0.1206  0.0786 -0.3903
 2235SOL    HW118338   0.320   0.604  17.442  0.3809 -0.6553 -1.2253
 2235SOL    HW218339   0.440   0.527  17.441  2.6627  0.2347  2.2837
 2236SOL     OW18340   1.336   2.251   5.005  0.1913  0.0872 -0.5629
 2236SOL    HW118341   1.248   2.214   5.008  0.3258 -0.3599 -2.0138
 2236SOL    HW218342   1.379   2.171   5.037  0.5558  1.2973  1.9339
 2237SOL     OW18343   0.541   1.618   1.892  0.3621  0.0784 -0.7672
 2237SOL    HW118344   0.592   1.567   1.829 -0.6224 -2.3670  0.4103
 2237SOL    HW218345   0.509   1.684   1.831 -1.8989 -0.5730 -0.2993
 2238SOL     OW18346   4.001   3.049   6.196  0.2109 -0.7072  0.3434
 2238SOL    HW118347   3.988   2.991   6.121  0.3429  0.4938 -0.6139
 2238SOL    HW218348   3.918   3.033   6.241 -0.4476 -1.9548 -1.3097
 2239SOL     OW18349   1.940   2.858   7.815  0.2447  0.2412 -0.2810
 2239SOL    HW118350   2.025   2.816   7.803  0.8632  1.2264  0.7226
 2239SOL    HW218351   1.887   2.779   7.822  0.4268 -0.1456 -2.9773
 2240SOL     OW18352   1.164   0.517   2.590  0.6297 -0.2473 -0.5761
 2240SOL    HW118353   1.162   0.461   2.667 -1.0420 -0.6512 -0.9242
 2240SOL    HW218354   1.260   0.523   2.590  0.4344  2.6583  1.4295
 2241SOL     OW18355   2.896   0.124   8.318  0.0676 -0.5818  0.2474
 2241SOL    HW118356   2.904   0.095   8.228  2.3065 -1.2410  0.6707
 2241SOL    HW218357   2.901   0.219   8.302  2.0795 -0.9054 -0.9217
 2242SOL     OW18358   0.038   4.151   3.724  0.0174 -0.0833  0.2067
 2242SOL    HW118359   0.058   4.148   3.630 -0.4329  0.9277  0.0836
 2242SOL    HW218360   0.026   4.245   3.738  0.3735 -0.2448  1.6235
 2243SOL     OW18361   4.123   3.095   4.594  0.2090 -0.0815  0.2092
 2243SOL    HW118362   4.179   3.026   4.559 -0.7561  0.1302 -1.8024
 2243SOL    HW218363   4.044   3.042   4.605 -0.9335  1.8201  1.1945
 2244SOL     OW18364   1.816   1.843   4.754 -0.2676  0.1788 -0.3733
 2244SOL    HW118365   1.799   1.796   4.836  3.3658 -2.0583 -0.9129
 2244SOL    HW218366   1.834   1.771   4.694 -2.6188  1.2886 -2.4214
 2245SOL     OW18367   4.086   3.262   2.811 -0.1653  0.6845 -0.2774
 2245SOL    HW118368   4.027   3.269   2.887 -0.7116  0.3244 -0.6679
 2245SOL    HW218369   4.122   3.350   2.799  0.5567  0.5664  1.0645
 2246SOL     OW18370   1.760   1.868   6.771  0.6068  0.3911 -0.3677
 2246SOL    HW118371   1.702   1.804   6.730  3.6526 -0.0991 -3.7994
 2246SOL    HW218372   1.843   1.865   6.723  0.8646  1.9136 -0.0052
 2247SOL     OW18373   0.532   1.614  15.618  0.0723 -0.2086  0.2519
 2247SOL    HW118374   0.490   1.631  15.533  0.2632  0.7381  0.3487
 2247SOL    HW218375   0.543   1.519  15.620 -0.8460 -0.2861  1.2815
 2248SOL     OW18376   3.411   1.429   1.464  0.6172  0.1754  0.0148
 2248SOL    HW118377   3.378   1.389   1.545 -1.9309 -0.6859 -1.4598
 2248SOL    HW218378   3.491   1.381   1.444  0.3368  0.1771 -1.0933
 2249SOL     OW18379   1.831   1.180   5.804 -0.0869  0.4352 -0.2084
 2249SOL    HW118380   1.748   1.211   5.767  0.7876  0.7328 -1.9560
 2249SOL    HW218381   1.802   1.141   5.886 -2.4073  0.7419 -0.8798
 2250SOL     OW18382   4.357   2.044   2.749  0.1549  0.9511  0.5705
 2250SOL    HW118383   4.360   2.136   2.774 -1.4634  1.0702  0.3099
 2250SOL    HW218384   4.424   2.045   2.680 -0.9771 -0.6554 -0.5515
 2251SOL     OW18385   2.979   1.200   8.227  0.2581  0.0131  0.4565
 2251SOL    HW118386   3.060   1.174   8.183  0.1015 -0.0983  0.2358
 2251SOL    HW218387   2.929   1.121   8.206  0.6827 -0.2963  0.6001
 2252SOL     OW18388   0.891   0.249   2.611  0.1578 -0.1916  0.0744
 2252SOL    HW118389   0.962   0.297   2.653  0.8632 -1.1032 -0.0914
 2252SOL    HW218390   0.830   0.322   2.599 -0.2493 -1.1313 -3.5363
 2253SOL     OW18391   4.129   3.180   2.021  0.3072 -0.6343  0.6303
 2253SOL    HW118392   4.053   3.222   2.062  0.4264 -1.2451  1.4832
 2253SOL    HW218393   4.105   3.089   2.037  0.6238 -0.7500  0.4331
 2254SOL     OW18394   0.246   3.669  12.709  0.5632 -0.0984 -0.1686
 2254SOL    HW118395   0.168   3.624  12.676  0.3725  0.1428 -0.0487
 2254SOL    HW218396   0.211   3.698  12.793 -0.1160 -1.9734  0.2179
 2255SOL     OW18397   2.753   1.595   8.762  0.2263 -0.0776  0.5913
 2255SOL    HW118398   2.761   1.557   8.849 -1.5332  2.8750  2.0498
 2255SOL    HW218399   2.659   1.608   8.753  0.4585  0.7238 -0.7811
 2256SOL     OW18400   0.641   2.321  15.639 -0.2637  0.8294 -0.0777
 2256SOL    HW118401   0.582   2.394  15.656 -0.0910  0.9733 -0.1028
 2256SOL    HW218402   0.595   2.243  15.669 -1.7941  0.6827 -2.8212
 2257SOL     OW18403   0.463   2.079   6.964 -0.0644  0.3106  0.0600
 2257SOL    HW118404   0.392   2.119   7.015  0.7847  0.2720  1.2856
 2257SOL    HW218405   0.517   2.050   7.038 -1.2418 -0.2289  0.7066
 2258SOL     OW18406   0.231   0.010  16.084 -0.2276  0.0736  1.0798
 2258SOL    HW118407   0.314   4.706  16.111 -0.9348 -1.3121  1.1327
 2258SOL    HW218408   0.219   4.685  16.012  0.8516 -1.6508  2.3624
 2259SOL     OW18409   4.496   2.220  12.933 -1.2292  0.3702  0.0626
 2259SOL    HW118410   4.469   2.135  12.896 -0.6012  0.7179 -1.2129
 2259SOL    HW218411   4.564   2.249  12.872 -0.1452 -0.9253  0.6705
 2260SOL     OW18412   0.838   1.267   1.619  0.0180 -0.1316  0.1593
 2260SOL    HW118413   0.801   1.183   1.591 -0.2683  0.3970 -1.0456
 2260SOL    HW218414   0.885   1.236   1.697  1.7761 -0.7807 -1.1565
 2261SOL     OW18415   1.664   2.525   7.359 -0.1154 -0.2682  0.2979
 2261SOL    HW118416   1.570   2.532   7.377  0.0068  0.2263  0.7636
 2261SOL    HW218417   1.653   2.475   7.279 -1.3091 -0.3667  0.5341
 2262SOL     OW18418   3.157   4.453   8.935  0.0936  0.4468 -0.0497
 2262SOL    HW118419   3.180   4.480   8.847  0.4142  2.0234  0.5216
 2262SOL    HW218420   3.063   4.440   8.922 -0.0734  3.7715 -1.9607
 2263SOL     OW18421   2.022   4.442   6.471  0.3320 -0.4258 -0.2121
 2263SOL    HW118422   2.105   4.488   6.485  0.2850 -0.2708 -0.4454
 2263SOL    HW218423   1.976   4.466   6.551  0.9052 -0.6001  0.1723
 2264SOL     OW18424   2.857   0.694   5.941 -0.0458 -0.2557 -0.2628
 2264SOL    HW118425   2.826   0.743   6.016 -1.7562 -1.2779 -0.3019
 2264SOL    HW218426   2.946   0.730   5.937 -0.2131  0.0480 -1.3663
 2265SOL     OW18427   0.653   0.323   7.108  0.0353  0.4460 -0.6904
 2265SOL    HW118428   0.682   0.315   7.199 -0.3618  0.2809 -0.5805
 2265SOL    HW218429   0.624   0.414   7.114 -0.8010  0.1435 -0.1904
 2266SOL     OW18430   2.842   0.014   4.197 -0.0293  0.3043 -0.0133
 2266SOL    HW118431   2.777   4.681   4.200  0.4902 -0.2103 -0.7812
 2266SOL    HW218432   2.785   0.090   4.198  0.1614  0.4581 -0.7157
 2267SOL     OW18433   1.275   4.479  12.444  0.5530  0.7666  0.2111
 2267SOL    HW118434   1.221   4.547  12.405  1.5133  0.7195 -1.2067
 2267SOL    HW218435   1.273   4.504  12.536  3.0267 -0.8677  0.7063
 2268SOL     OW18436   4.006   2.941   2.387  0.3285 -0.7308 -0.5078
 2268SOL    HW118437   4.097   2.911   2.376  0.9388  1.1807 -0.6388
 2268SOL    HW218438   3.954   2.861   2.393  0.1204 -0.5324  0.3023
 2269SOL     OW18439   1.507   1.077   2.750 -0.4522  0.3104  0.5987
 2269SOL    HW118440   1.534   0.987   2.736 -0.7465  0.2886  0.1693
 2269SOL    HW218441   1.584   1.122   2.715 -0.1035 -0.5474  0.2601
 2270SOL     OW18442   0.020   1.666   1.438  0.3724  0.2273  0.1801
 2270SOL    HW118443   4.675   1.623   1.465 -0.6662  1.5944 -0.8347
 2270SOL    HW218444   0.074   1.592   1.409  0.5603  0.1427  0.7272
 2271SOL     OW18445   0.055   2.900   2.455  0.2724 -0.8455  0.2088
 2271SOL    HW118446   0.016   2.986   2.441  0.6850 -0.8196 -0.7800
 2271SOL    HW218447   0.127   2.907   2.393  1.2299  0.5280  1.4696
 2272SOL     OW18448   2.341   3.710   2.664  0.0485  0.6891  0.0806
 2272SOL    HW118449   2.429   3.747   2.666 -0.1905  1.1975  1.1879
 2272SOL    HW218450   2.355   3.616   2.668  0.5429  0.8262  1.6851
 2273SOL     OW18451   1.542   2.457  14.231  0.1329  0.3558 -0.0148
 2273SOL    HW118452   1.456   2.433  14.265  0.1801 -0.8443 -0.7318
 2273SOL    HW218453   1.513   2.500  14.150 -1.4216 -0.4983  0.0804
 2274SOL     OW18454   0.001   3.564   7.942 -0.0440 -0.5772  0.1727
 2274SOL    HW118455   0.006   3.471   7.917  0.2017 -0.9341  1.5739
 2274SOL    HW218456   4.677   3.558   8.015  0.2324  0.1189  0.4517
 2275SOL     OW18457   0.015   4.471  16.127 -0.1574  0.2839  0.2278
 2275SOL    HW118458   0.034   4.378  16.121 -0.9461 -0.1189  4.1573
 2275SOL    HW218459   0.023   4.500  16.036  1.2497  1.6422  0.7783
 2276SOL     OW18460   3.799   0.511   7.077 -0.4848 -0.2226  0.1943
 2276SOL    HW118461   3.894   0.502   7.081 -0.5117 -0.3995  0.4303
 2276SOL    HW218462   3.795   0.492   6.983  0.2981 -1.0126  0.3236
 2277SOL     OW18463   0.647   2.281   4.007  0.1650 -0.5771  1.0430
 2277SOL    HW118464   0.740   2.283   3.983  0.0151  2.5767  0.6957
 2277SOL    HW218465   0.613   2.242   3.927  0.6895  1.0712  0.0251
 2278SOL     OW18466   3.245   3.836  13.556 -0.3967  0.2245  0.0457
 2278SOL    HW118467   3.321   3.816  13.611 -0.3646  1.7400  0.5309
 2278SOL    HW218468   3.248   3.751  13.511  1.6053  0.6260 -0.5678
 2279SOL     OW18469   2.717   1.120   3.430  0.0459 -0.1376  0.0149
 2279SOL    HW118470   2.648   1.182   3.452  0.3681 -0.0135  0.6365
 2279SOL    HW218471   2.724   1.057   3.501 -0.5123  0.3939  0.5381
 2280SOL     OW18472   4.302   2.816  15.131 -0.0932 -0.0618 -0.4827
 2280SOL    HW118473   4.317   2.729  15.168 -0.7068  0.0113 -0.0698
 2280SOL    HW218474   4.391   2.851  15.133  1.0845 -3.2101  2.2208
 2281SOL     OW18475   4.148   2.307   3.246  0.5037  0.1951  0.4382
 2281SOL    HW118476   4.133   2.223   3.203  2.1341 -1.0257  2.2279
 2281SOL    HW218477   4.132   2.277   3.336  0.1243  1.6981  0.8689
 2282SOL     OW18478   4.465   4.672  17.395 -0.0306 -0.3716  0.8803
 2282SOL    HW118479   4.535   4.641  17.338 -1.4638 -1.9389 -0.0402
 2282SOL    HW218480   4.467   0.028  17.374 -1.7899  0.1262  2.8616
 2283SOL     OW18481   1.737   4.363   1.875 -0.2706 -0.5209  0.1660
 2283SOL    HW118482   1.672   4.293   1.862 -3.3982  2.3837  0.3739
 2283SOL    HW218483   1.697   4.442   1.842  3.1893  1.1232 -0.1175
 2284SOL     OW18484   0.004   3.301   7.889 -0.4248 -0.2173 -0.2561
 2284SOL    HW118485   0.041   3.213   7.889 -0.3952 -0.2027 -1.1920
 2284SOL    HW218486   4.733   3.308   7.794  1.3369  0.0977 -0.3694
 2285SOL     OW18487   2.173   0.207  17.688  0.7321 -0.2231  0.5140
 2285SOL    HW118488   2.133   0.131  17.646 -0.8083  1.0146 -0.2231
 2285SOL    HW218489   2.151   0.194   0.034  2.0764  3.3052  1.2990
 2286SOL     OW18490   2.160   0.698  15.590 -0.4207 -0.3019  0.6509
 2286SOL    HW118491   2.196   0.691  15.502  1.0077  0.5770  1.1764
 2286SOL    HW218492   2.202   0.620  15.626  1.2190 -0.7058 -2.1297
 2287SOL     OW18493   0.067   1.091   4.539 -0.4430  0.2722  0.0710
 2287SOL    HW118494   0.031   1.153   4.602 -1.2462  0.9918 -1.0941
 2287SOL    HW218495   0.132   1.139   4.488 -2.4053  2.6459 -0.1709
 2288SOL     OW18496   3.696   3.421   9.045 -0.7149 -0.2865 -0.5954
 2288SOL    HW118497   3.776   3.448   8.999  0.6959 -3.1830  0.1852
 2288SOL    HW218498   3.726   3.343   9.090  0.2478  1.2251  1.3637
 2289SOL     OW18499   2.915   2.214   1.412  0.2862  0.1412 -0.1694
 2289SOL    HW118500   2.869   2.144   1.366  0.2324 -0.0320  0.1515
 2289SOL    HW218501   2.987   2.159   1.443  0.9190  0.8917 -0.2872
 2290SOL     OW18502   1.118   4.213   6.507 -0.3117  0.3521  0.3207
 2290SOL    HW118503   1.189   4.163   6.468 -0.5322 -1.0444  1.7038
 2290SOL    HW218504   1.158   4.300   6.504  2.1471 -0.8061 -0.7987
 2291SOL     OW18505   3.966   0.620   5.354 -0.1465  0.9083 -0.3639
 2291SOL    HW118506   3.938   0.663   5.434 -3.6362 -2.5361  0.2906
 2291SOL    HW218507   4.012   0.691   5.310 -0.2760  2.1966  1.6083
 2292SOL     OW18508   1.752   1.534   6.038  0.1252  0.0197 -0.3572
 2292SOL    HW118509   1.724   1.459   6.089  0.3957  0.3155  0.2243
 2292SOL    HW218510   1.847   1.529   6.045  0.1138 -2.7130 -2.1602
 2293SOL     OW18511   1.446   1.580   0.518 -0.0898 -0.4169  0.1152
 2293SOL    HW118512   1.421   1.553   0.430 -1.0310  0.3439  0.1501
 2293SOL    HW218513   1.405   1.667   0.517  0.2091 -0.2577  1.8646
 2294SOL     OW18514   3.796   3.623   3.116 -0.4029  0.5090  0.0589
 2294SOL    HW118515   3.780   3.673   3.036 -0.4878 -1.2877 -1.0226
 2294SOL    HW218516   3.719   3.566   3.119 -0.9016  1.1809  0.0416
 2295SOL     OW18517   3.462   3.089   5.052 -0.0352 -0.3534  0.2214
 2295SOL    HW118518   3.481   3.089   4.958  1.0737  2.9893  0.4425
 2295SOL    HW218519   3.421   3.175   5.065 -0.6390 -0.6619  0.3516
 2296SOL     OW18520   2.000   1.815   6.653  0.0586  0.1926  0.0616
 2296SOL    HW118521   1.980   1.838   6.562  0.6176  0.8703  0.1187
 2296SOL    HW218522   2.089   1.782   6.641 -0.7975 -2.3094  0.6381
 2297SOL     OW18523   0.855   1.049   8.567  0.0891 -0.0049  0.2229
 2297SOL    HW118524   0.814   0.977   8.520  1.7606 -2.4130  2.4468
 2297SOL    HW218525   0.942   1.010   8.576 -0.3088 -0.7494  0.8545
 2298SOL     OW18526   3.436   3.901  16.952  0.1338  0.5060  0.2997
 2298SOL    HW118527   3.472   3.915  17.040  0.2156  0.5065  0.2661
 2298SOL    HW218528   3.347   3.936  16.955 -0.4239 -0.6092 -3.6874
 2299SOL     OW18529   4.444   2.950   5.362  0.3968 -0.2215 -0.0164
 2299SOL    HW118530   4.373   2.908   5.411  0.6932 -0.5400  0.1453
 2299SOL    HW218531   4.472   3.000   5.439  0.0546 -1.9871  1.2641
 2300SOL     OW18532   1.048   2.387   1.110 -0.1452 -0.4051  0.7043
 2300SOL    HW118533   1.078   2.324   1.043  0.5453  1.6130 -0.8757
 2300SOL    HW218534   1.121   2.448   1.117  0.1414 -0.9045  2.1470
 2301SOL     OW18535   2.759   0.366   7.077  0.2354 -0.2187  0.2628
 2301SOL    HW118536   2.758   0.458   7.052  0.6137 -0.2171  0.2519
 2301SOL    HW218537   2.758   0.372   7.173  2.1481 -2.5075  0.4251
 2302SOL     OW18538   0.593   2.001   6.514  0.6161 -0.1339  0.1786
 2302SOL    HW118539   0.601   2.002   6.610 -0.6168  2.8494  0.2516
 2302SOL    HW218540   0.498   1.995   6.504  0.5973  0.7706 -0.1408
 2303SOL     OW18541   4.002   3.879   6.529 -0.9329  0.6883 -0.6537
 2303SOL    HW118542   3.928   3.824   6.504 -2.5684  1.9425  1.4453
 2303SOL    HW218543   4.072   3.822   6.562 -1.1963  0.0913 -1.1401
 2304SOL     OW18544   4.564   3.137   8.252 -0.0758  0.1601 -0.0945
 2304SOL    HW118545   4.639   3.083   8.226 -0.2565  0.4868 -1.2902
 2304SOL    HW218546   4.511   3.147   8.173  0.8909 -0.2215 -0.7885
 2305SOL     OW18547   1.076   3.839   1.794  0.2324 -0.2644  0.3433
 2305SOL    HW118548   1.132   3.904   1.836  0.2188  0.0205 -0.0807
 2305SOL    HW218549   1.133   3.762   1.792 -0.2437 -0.6021 -0.3301
 2306SOL     OW18550   2.791   0.077   6.829  0.1254  0.1320 -0.2453
 2306SOL    HW118551   2.746   0.019   6.768  1.5431  0.1518 -1.3132
 2306SOL    HW218552   2.785   0.164   6.790  0.1222 -0.1214 -0.8123
 2307SOL     OW18553   3.319   0.977  13.849 -0.2683 -0.3128 -1.0669
 2307SOL    HW118554   3.384   1.005  13.785  0.5983  0.9809  0.3772
 2307SOL    HW218555   3.268   0.914  13.798 -1.5411 -0.1639  0.0251
 2308SOL     OW18556   4.544   4.727  10.659  0.1130  0.4677  0.3563
 2308SOL    HW118557   4.455   0.013  10.633 -0.1816 -1.5442 -0.4846
 2308SOL    HW218558   4.575   0.068  10.704 -1.4198  2.4688 -2.0403
 2309SOL     OW18559   3.257   2.598  16.730  0.3965  0.1519  0.4693
 2309SOL    HW118560   3.239   2.583  16.637  0.1974  0.8089  0.4044
 2309SOL    HW218561   3.351   2.614  16.732  0.7565 -1.9915  1.6395
 2310SOL     OW18562   2.990   0.788   7.902  0.0407 -0.0542  0.5152
 2310SOL    HW118563   3.009   0.850   7.832 -2.2398  1.1442  0.9426
 2310SOL    HW218564   3.058   0.721   7.902  0.0029 -0.0979  3.1837
 2311SOL     OW18565   0.980   1.247   4.228  0.4590 -0.6588  0.4260
 2311SOL    HW118566   0.921   1.294   4.169  1.2298 -1.0346 -0.6492
 2311SOL    HW218567   0.933   1.163   4.235  0.5254 -0.6906  0.4909
 2312SOL     OW18568   1.300   1.522  17.332 -0.3113  0.0752  0.0640
 2312SOL    HW118569   1.304   1.587  17.262  1.2680  1.2063  1.2319
 2312SOL    HW218570   1.348   1.452  17.286 -0.8798 -0.5693  0.4602
 2313SOL     OW18571   2.545   4.609   3.516 -0.4947  0.5706  0.2810
 2313SOL    HW118572   2.510   4.532   3.472 -1.8530  0.3420  1.7363
 2313SOL    HW218573   2.633   4.578   3.540 -1.2060 -1.1847  0.6405
 2314SOL     OW18574   0.718   0.122   9.822 -0.3703  1.1764 -0.1801
 2314SOL    HW118575   0.776   0.138   9.896  0.5756  0.3324 -0.7435
 2314SOL    HW218576   0.783   0.121   9.751 -0.3978  0.3578 -0.1971
 2315SOL     OW18577   0.152   2.231  12.392  0.4299 -0.4904 -0.3282
 2315SOL    HW118578   0.234   2.234  12.442  0.6543 -1.0551 -0.6643
 2315SOL    HW218579   0.111   2.307  12.433  0.8028 -1.3504  1.6360
 2316SOL     OW18580   0.511   2.521   7.462 -0.3522 -0.3563 -0.0488
 2316SOL    HW118581   0.502   2.542   7.555  0.0098  1.8692 -0.5053
 2316SOL    HW218582   0.423   2.483   7.454 -0.2953 -0.4204 -0.3605
 2317SOL     OW18583   2.300   2.874   6.721  0.1120 -0.8311 -0.0509
 2317SOL    HW118584   2.273   2.898   6.810 -1.1197 -2.0652 -0.0802
 2317SOL    HW218585   2.237   2.924   6.669 -1.0116  0.5524  2.6141
 2318SOL     OW18586   0.482   4.116   7.821 -0.2225 -0.3917 -0.0373
 2318SOL    HW118587   0.569   4.114   7.781 -0.2213  3.7798 -0.1754
 2318SOL    HW218588   0.466   4.022   7.833  0.5296 -0.4222  0.7765
 2319SOL     OW18589   4.486   4.399   6.454 -0.5535  0.3220  0.2972
 2319SOL    HW118590   4.422   4.335   6.485  0.9397 -1.3337 -0.0336
 2319SOL    HW218591   4.561   4.382   6.511 -1.3743  0.7171  1.4930
 2320SOL     OW18592   2.723   0.258   9.116 -0.1350 -0.0224 -0.1767
 2320SOL    HW118593   2.780   0.217   9.051  0.3572 -1.7249  1.3173
 2320SOL    HW218594   2.782   0.294   9.181 -1.1410  1.2201  0.0524
 2321SOL     OW18595   4.197   3.738   3.668 -0.0811  0.3568  0.3133
 2321SOL    HW118596   4.188   3.834   3.672  2.8024  0.7347 -2.4414
 2321SOL    HW218597   4.280   3.732   3.716  1.3952 -0.3384 -2.3421
 2322SOL     OW18598   3.985   3.429   0.026  0.3062  0.0167  0.2542
 2322SOL    HW118599   3.913   3.490   0.042 -0.0212  0.4958 -2.9859
 2322SOL    HW218600   4.019   3.474  17.695  0.6810  1.5643  1.3228
 2323SOL     OW18601   2.895   2.593   7.194 -0.1521 -0.3336 -0.3079
 2323SOL    HW118602   2.979   2.640   7.197 -0.0295 -0.6415  1.3693
 2323SOL    HW218603   2.906   2.546   7.277  1.0404 -0.9832 -0.8366
 2324SOL     OW18604   3.919   0.819  14.345  0.4926 -0.3031 -0.1609
 2324SOL    HW118605   3.918   0.875  14.422  0.7435 -0.2391 -0.2029
 2324SOL    HW218606   3.886   0.741  14.389  2.1652 -0.9409 -0.0177
 2325SOL     OW18607   0.753   4.693  13.017 -0.0415 -0.2483 -0.2639
 2325SOL    HW118608   0.733   4.637  12.942  0.7251 -0.0776 -0.5899
 2325SOL    HW218609   0.663   4.727  13.020 -0.2872 -0.9476  0.3407
 2326SOL     OW18610   0.048   1.628   7.963  0.3204  0.6883  0.0852
 2326SOL    HW118611   0.028   1.581   7.882  0.3384  2.4482 -0.9307
 2326SOL    HW218612   4.699   1.642   8.003 -0.1672 -0.1797 -0.6558
 2327SOL     OW18613   4.488   0.408   6.417  0.0283 -0.8897 -0.2058
 2327SOL    HW118614   4.397   0.385   6.397 -1.2013  3.3990  0.4008
 2327SOL    HW218615   4.531   0.323   6.418  1.0652 -0.3405  0.7270
 2328SOL     OW18616   0.955   3.544  11.252 -0.3358 -0.1605 -0.2693
 2328SOL    HW118617   0.908   3.549  11.335 -1.6231 -0.4041 -0.9828
 2328SOL    HW218618   0.951   3.638  11.233  0.5591 -0.2453 -0.8997
 2329SOL     OW18619   4.462   3.267   7.785  0.1263 -0.1676 -0.1227
 2329SOL    HW118620   4.534   3.260   7.848  0.5664  0.8542 -0.5080
 2329SOL    HW218621   4.382   3.243   7.831  1.5170 -0.8346  1.9487
 2330SOL     OW18622   3.627   0.426  16.797 -1.0633 -0.0346 -0.1208
 2330SOL    HW118623   3.679   0.407  16.719 -3.2074 -2.3299 -0.9850
 2330SOL    HW218624   3.658   0.350  16.845  0.1096  0.7793  0.4092
 2331SOL     OW18625   1.301   3.176   8.628  0.2419 -0.4399  0.5676
 2331SOL    HW118626   1.312   3.262   8.669  0.2639  0.6322 -1.6672
 2331SOL    HW218627   1.393   3.155   8.615 -0.7402 -1.5475 -4.7873
 2332SOL     OW18628   2.010   3.505   5.134  0.1400  0.2735 -0.2739
 2332SOL    HW118629   2.010   3.428   5.077 -0.8562  0.3550 -0.3843
 2332SOL    HW218630   1.922   3.540   5.120 -0.0303  0.2811  0.8325
 2333SOL     OW18631   1.656   2.774   8.422 -0.3396 -0.4011 -0.0750
 2333SOL    HW118632   1.591   2.706   8.441 -0.6817 -0.8364 -2.8289
 2333SOL    HW218633   1.675   2.797   8.513  0.7622  2.9489 -1.1854
 2334SOL     OW18634   1.950   3.720   9.599 -0.4554 -0.0935 -0.6411
 2334SOL    HW118635   1.855   3.717   9.586 -0.5780 -0.5408  0.3257
 2334SOL    HW218636   1.978   3.637   9.559  1.1096 -0.0547  0.4084
 2335SOL     OW18637   0.819   2.910   3.579  0.2663 -0.2705 -0.0416
 2335SOL    HW118638   0.793   2.822   3.553  0.5943 -1.1078  2.5644
 2335SOL    HW218639   0.737   2.949   3.610  0.7111 -1.7322  2.9550
 2336SOL     OW18640   3.407   2.163  10.417 -0.2972  0.4024 -0.0379
 2336SOL    HW118641   3.476   2.204  10.365 -0.8832  2.0766  0.4931
 2336SOL    HW218642   3.362   2.119  10.345 -1.1023  1.6518 -0.2949
 2337SOL     OW18643   1.498   1.892   8.164 -0.1677  0.1310 -0.1947
 2337SOL    HW118644   1.475   1.918   8.075 -1.0326 -1.1272 -0.3403
 2337SOL    HW218645   1.460   1.960   8.220  1.3687  0.5053  0.3691
 2338SOL     OW18646   0.530   0.635  13.436 -0.3116 -0.1761 -0.0611
 2338SOL    HW118647   0.530   0.724  13.473 -0.1330 -1.3988  2.8444
 2338SOL    HW218648   0.530   0.579  13.514  2.7266 -1.5238 -1.0552
 2339SOL     OW18649   1.498   2.016   8.912  0.7409 -0.0236 -0.1990
 2339SOL    HW118650   1.504   2.006   8.817  0.8024  0.6382 -0.2652
 2339SOL    HW218651   1.568   1.968   8.956 -1.7152 -2.0836  1.4387
 2340SOL     OW18652   1.498   3.501   7.126 -0.2415 -0.0822 -0.6830
 2340SOL    HW118653   1.512   3.593   7.106  2.2210 -0.6226 -1.4938
 2340SOL    HW218654   1.404   3.485   7.117  0.2904 -2.0980 -2.6482
 2341SOL     OW18655   0.356   0.767   8.080 -0.2035 -0.2063 -0.5246
 2341SOL    HW118656   0.429   0.812   8.038  1.0553 -1.2982  0.4979
 2341SOL    HW218657   0.295   0.841   8.085  1.2361  1.0267 -1.3262
 2342SOL     OW18658   0.383   3.576   4.571 -0.0862 -0.7379  0.4971
 2342SOL    HW118659   0.346   3.664   4.567 -0.5211 -0.8527  1.8785
 2342SOL    HW218660   0.433   3.589   4.652  1.1354  3.8432 -1.0147
 2343SOL     OW18661   1.153   3.649   3.353  0.5318 -0.7825  0.5773
 2343SOL    HW118662   1.225   3.712   3.348  0.0105 -0.2923 -0.7359
 2343SOL    HW218663   1.166   3.593   3.276  0.6129  0.0003  0.0178
 2344SOL     OW18664   1.034   0.084   1.689 -0.3506  0.0459 -0.1518
 2344SOL    HW118665   1.044   0.054   1.779  2.3135 -0.2266 -0.5170
 2344SOL    HW218666   1.109   0.040   1.648  0.4338  1.7287 -0.5258
 2345SOL     OW18667   4.048   4.211   3.163  0.1764 -0.2854  0.6473
 2345SOL    HW118668   3.999   4.190   3.083 -0.0221  1.1350  0.3936
 2345SOL    HW218669   4.031   4.130   3.211 -0.9782  1.0767  2.5419
 2346SOL     OW18670   1.480   0.678   8.584 -0.0262  0.3983  0.4532
 2346SOL    HW118671   1.552   0.615   8.584  0.7288  1.2563  0.2345
 2346SOL    HW218672   1.526   0.749   8.629  1.6196  0.2828 -1.0327
 2347SOL     OW18673   3.618   1.712   9.557  0.6699  0.3568  0.3016
 2347SOL    HW118674   3.666   1.783   9.599  0.5191 -0.0273  1.1101
 2347SOL    HW218675   3.591   1.648   9.623 -1.1658  0.2738 -0.5195
 2348SOL     OW18676   2.205   1.364  16.507 -0.3797  0.3650 -0.2482
 2348SOL    HW118677   2.268   1.360  16.579  1.3242  0.8488 -1.7171
 2348SOL    HW218678   2.121   1.396  16.540  0.8401  0.7670  2.4890
 2349SOL     OW18679   2.717   1.134   2.751  0.3027  0.1486  0.6966
 2349SOL    HW118680   2.655   1.120   2.822 -0.5632  1.7517  0.2609
 2349SOL    HW218681   2.679   1.205   2.699 -0.1465 -0.8772 -0.3926
 2350SOL     OW18682   1.393   4.679   8.486 -0.1745  0.2523 -0.2655
 2350SOL    HW118683   1.335   4.633   8.425  0.2105 -0.8408  0.1973
 2350SOL    HW218684   1.351   4.677   8.572  1.5850  3.2903  0.6872
 2351SOL     OW18685   0.900   0.336   1.736 -0.5182  0.2438 -0.1397
 2351SOL    HW118686   0.930   0.256   1.693  1.8559 -0.1664  2.3174
 2351SOL    HW218687   0.832   0.310   1.797 -0.8260  1.7211  0.1469
 2352SOL     OW18688   3.420   2.960   8.114  0.2998  0.0608 -0.7213
 2352SOL    HW118689   3.439   2.960   8.208  0.9543 -2.1084 -0.8337
 2352SOL    HW218690   3.418   3.052   8.088 -0.7961  0.9054  2.3729
 2353SOL     OW18691   4.058   3.195  10.269  0.3196  0.0035  0.2301
 2353SOL    HW118692   4.114   3.124  10.237  0.1191 -0.3365  0.6388
 2353SOL    HW218693   4.081   3.268  10.212  2.5889 -0.7967  0.1254
 2354SOL     OW18694   3.021   4.557   4.993  0.1739 -0.3386 -0.0117
 2354SOL    HW118695   3.037   4.647   5.021 -1.9273  0.7542 -2.2787
 2354SOL    HW218696   2.925   4.558   4.991  0.1951 -0.6654 -1.4031
 2355SOL     OW18697   3.169   4.510  15.062  0.1055  0.4766 -0.2234
 2355SOL    HW118698   3.089   4.529  15.113 -1.4386 -1.2229 -2.0220
 2355SOL    HW218699   3.167   4.415  15.055 -0.1094  0.3045  2.2425
 2356SOL     OW18700   0.785   0.068   5.941 -0.3653  0.3107  0.0926
 2356SOL    HW118701   0.724   0.096   5.873  2.5427  0.8184 -2.3402
 2356SOL    HW218702   0.854   0.022   5.893  1.5614  3.1072  0.1638
 2357SOL     OW18703   1.161   1.538   7.990  0.1703 -0.3661 -0.0095
 2357SOL    HW118704   1.222   1.503   7.925  0.4331  0.4027 -0.1759
 2357SOL    HW218705   1.190   1.628   8.003  0.2890 -0.4233  0.1322
 2358SOL     OW18706   3.781   3.863   2.549 -0.8440  0.1675 -0.8397
 2358SOL    HW118707   3.702   3.885   2.500 -0.2705  1.8126 -1.0104
 2358SOL    HW218708   3.809   3.787   2.498 -0.0236 -1.7218  2.4154
 2359SOL     OW18709   0.032   1.882  11.000 -0.6313  0.2405 -0.1579
 2359SOL    HW118710   4.674   1.881  10.992 -0.7099  0.7475  0.7633
 2359SOL    HW218711   0.042   1.941  11.075  0.6518  0.7561 -0.7237
 2360SOL     OW18712   1.457   3.644  10.342 -0.1617 -0.0074 -0.2254
 2360SOL    HW118713   1.523   3.654  10.274 -1.6838  0.4367 -1.6302
 2360SOL    HW218714   1.481   3.718  10.398 -0.2131 -0.1431 -0.0226
 2361SOL     OW18715   4.418   1.820   4.200  0.5024 -0.3705  0.4182
 2361SOL    HW118716   4.481   1.757   4.235  0.7837 -0.4940 -0.3093
 2361SOL    HW218717   4.445   1.906   4.234  0.9088 -1.2721  2.4013
 2362SOL     OW18718   3.387   0.072   0.879  0.5682 -0.4853 -0.5518
 2362SOL    HW118719   3.327   4.736   0.895  1.4492 -0.2127  3.9449
 2362SOL    HW218720   3.433   0.039   0.802  1.8045  0.2441 -0.1382
 2363SOL     OW18721   1.325   1.413   3.045  0.6279 -0.8597  0.3707
 2363SOL    HW118722   1.301   1.426   2.954 -0.1324 -0.9039  0.5622
 2363SOL    HW218723   1.418   1.432   3.034  0.6992 -0.4733  1.6781
 2364SOL     OW18724   2.175   1.171   6.690  0.1737  0.2747 -0.4839
 2364SOL    HW118725   2.260   1.214   6.681 -0.4633  1.8948  1.2609
 2364SOL    HW218726   2.199   1.090   6.644  2.1024  1.4401 -1.5348
 2365SOL     OW18727   2.099   3.880  14.809 -0.2035  0.5385 -0.2765
 2365SOL    HW118728   2.174   3.933  14.782 -1.1335  0.5949 -2.6813
 2365SOL    HW218729   2.036   3.912  14.745 -1.0430 -0.4603  0.0460
 2366SOL     OW18730   0.823   2.566   9.450 -0.2206  0.9763 -0.1355
 2366SOL    HW118731   0.767   2.613   9.512 -2.6445 -0.4511 -1.2409
 2366SOL    HW218732   0.762   2.508   9.404  1.0038  0.4019 -1.0321
 2367SOL     OW18733   1.214   1.178   6.768  0.2525 -0.0525 -0.5238
 2367SOL    HW118734   1.134   1.194   6.719 -1.0930 -0.2443  1.6010
 2367SOL    HW218735   1.204   1.085   6.792  2.0197  0.0718  0.7712
 2368SOL     OW18736   3.770   1.141  14.190 -0.1414 -0.0407  0.3846
 2368SOL    HW118737   3.816   1.057  14.195 -0.9478 -0.4107  1.9586
 2368SOL    HW218738   3.737   1.152  14.280  1.2223 -2.2321  1.1673
 2369SOL     OW18739   3.898   1.500   3.188 -0.5115 -0.1074 -0.1326
 2369SOL    HW118740   3.870   1.428   3.131 -0.2314  0.8801 -1.5198
 2369SOL    HW218741   3.951   1.550   3.126  2.2126 -1.1503  1.3844
 2370SOL     OW18742   0.730   1.439   8.245 -0.5187  0.0468  0.3353
 2370SOL    HW118743   0.783   1.506   8.288  1.3324 -0.6195 -0.9322
 2370SOL    HW218744   0.777   1.357   8.259 -2.3619 -1.2640 -1.1308
 2371SOL     OW18745   2.914   3.282   2.328 -0.4237 -0.1381 -0.3582
 2371SOL    HW118746   2.887   3.218   2.262  1.1516  0.4086 -1.5349
 2371SOL    HW218747   3.009   3.269   2.339 -0.5332 -0.9493 -0.3790
 2372SOL     OW18748   3.266   0.569   3.311  0.4487 -0.9413  0.4277
 2372SOL    HW118749   3.213   0.520   3.248 -1.1654  1.3170  0.0448
 2372SOL    HW218750   3.322   0.499   3.344 -0.9282 -2.0874  0.3430
 2373SOL     OW18751   3.921   3.836   5.940 -0.9683  0.4808 -0.6414
 2373SOL    HW118752   3.994   3.851   6.001  0.0369 -1.9543 -1.2083
 2373SOL    HW218753   3.851   3.882   5.985  1.4076  2.7591  0.7372
 2374SOL     OW18754   4.014   3.585   5.435 -0.0251  0.1772 -0.3610
 2374SOL    HW118755   4.000   3.515   5.371 -2.2416  0.7559 -0.5208
 2374SOL    HW218756   4.046   3.543   5.515  1.0848  2.3052  0.3303
 2375SOL     OW18757   3.743   2.046   5.775  0.3486 -0.0386 -0.6413
 2375SOL    HW118758   3.729   2.126   5.824  3.3064 -0.7927  1.4068
 2375SOL    HW218759   3.746   2.079   5.685 -0.2695  0.4982 -0.4632
 2376SOL     OW18760   2.638   2.901   5.776  0.7024 -0.1538 -0.5403
 2376SOL    HW118761   2.644   2.845   5.853  1.0972 -0.6476 -0.9249
 2376SOL    HW218762   2.580   2.969   5.811 -1.0337 -0.3736 -2.9773
 2377SOL     OW18763   2.181   3.104   9.474  0.1251 -0.3423 -0.6961
 2377SOL    HW118764   2.191   3.106   9.569 -2.1296  1.8717 -0.5073
 2377SOL    HW218765   2.219   3.022   9.442 -1.5687 -1.5662  0.4375
 2378SOL     OW18766   3.651   0.211   2.305  0.7946 -0.2138  0.2878
 2378SOL    HW118767   3.701   0.260   2.370 -0.5698  0.8823  0.4955
 2378SOL    HW218768   3.723   0.188   2.245 -1.6522 -0.0094 -2.7641
 2379SOL     OW18769   0.042   4.357   7.261  0.1033 -0.4421 -0.5947
 2379SOL    HW118770   0.084   4.416   7.198 -2.4775  1.5390 -0.4542
 2379SOL    HW218771   0.086   4.377   7.343 -1.9750 -6.3458  1.9360
 2380SOL     OW18772   0.974   2.439   0.738  0.5870  0.0107  0.4793
 2380SOL    HW118773   0.945   2.512   0.792 -0.9159  1.4882 -2.3128
 2380SOL    HW218774   1.052   2.420   0.789  0.6881  1.3843  0.8135
 2381SOL     OW18775   3.127   0.524  16.707  0.3528  0.5415 -0.6002
 2381SOL    HW118776   3.166   0.599  16.753  0.8888 -0.7781  1.0973
 2381SOL    HW218777   3.184   0.457  16.744 -1.1727  1.0858  2.8138
 2382SOL     OW18778   1.033   1.673   2.850  0.1450 -0.2664 -0.8406
 2382SOL    HW118779   0.955   1.725   2.834  0.5090 -0.1449 -2.2793
 2382SOL    HW218780   1.007   1.609   2.916  0.6416  0.7748  0.3635
 2383SOL     OW18781   3.973   3.220   8.199 -0.1562 -0.1170  0.4472
 2383SOL    HW118782   3.974   3.157   8.127  0.5832  0.2506  0.1299
 2383SOL    HW218783   3.881   3.246   8.199 -0.2228 -0.3518  2.2021
 2384SOL     OW18784   1.641   1.589   0.276  0.1464  0.1748  0.3598
 2384SOL    HW118785   1.724   1.548   0.299 -0.1292 -0.8752 -0.5457
 2384SOL    HW218786   1.655   1.672   0.322 -2.3273  0.1493  1.1516
 2385SOL     OW18787   1.050   2.467  12.906  0.2017  0.1462  0.2641
 2385SOL    HW118788   1.047   2.401  12.836 -1.2807 -0.2907  0.7282
 2385SOL    HW218789   1.143   2.471  12.926 -0.0092 -0.4246  1.3518
 2386SOL     OW18790   1.190   4.487   4.330 -0.1310 -0.2164  0.2594
 2386SOL    HW118791   1.103   4.458   4.356 -0.7651  0.5008 -1.1390
 2386SOL    HW218792   1.229   4.404   4.302 -0.0197 -0.2188  0.4177
 2387SOL     OW18793   1.954   3.002   8.851  0.1742  0.2518  0.2961
 2387SOL    HW118794   2.035   2.956   8.828 -0.0649 -0.0344  0.0153
 2387SOL    HW218795   1.953   3.071   8.784  2.3014 -1.6230 -1.6223
 2388SOL     OW18796   0.472   0.853   8.337  0.0874  0.1396 -0.4486
 2388SOL    HW118797   0.392   0.805   8.315  0.6043 -2.2263  2.9560
 2388SOL    HW218798   0.441   0.942   8.320  0.2521  0.0985 -0.9603
 2389SOL     OW18799   3.854   2.463   2.250 -0.3092 -0.0010  0.3055
 2389SOL    HW118800   3.902   2.487   2.170  0.1074 -1.7141  0.0383
 2389SOL    HW218801   3.764   2.467   2.221  0.0143  1.2573 -0.5033
 2390SOL     OW18802   2.290   4.558   0.448 -0.1295  0.2149  0.7097
 2390SOL    HW118803   2.265   4.473   0.485  1.5497 -0.3956  0.4099
 2390SOL    HW218804   2.227   4.578   0.379  0.4448 -0.4298  0.0043
 2391SOL     OW18805   2.811   0.823   5.674  0.2928 -0.2772  0.4967
 2391SOL    HW118806   2.817   0.777   5.758  1.2213  0.8651  1.0584
 2391SOL    HW218807   2.805   0.752   5.611 -2.1171  0.0878  0.3313
 2392SOL     OW18808   0.175   3.712   6.686 -0.3280  0.0264  0.0207
 2392SOL    HW118809   0.152   3.624   6.715  1.5878 -1.1604 -2.0601
 2392SOL    HW218810   0.266   3.703   6.657  0.3087  2.7241  1.1322
 2393SOL     OW18811   1.436   4.109   2.509 -0.1297 -0.4010 -0.0914
 2393SOL    HW118812   1.516   4.161   2.517 -1.8857  2.4254 -0.7887
 2393SOL    HW218813   1.465   4.029   2.465  1.4307  0.1263  0.0013
 2394SOL     OW18814   2.953   4.061  14.232 -0.4401  0.3433  0.0397
 2394SOL    HW118815   3.044   4.033  14.236 -0.6368 -0.0749  1.7000
 2394SOL    HW218816   2.912   4.033  14.314 -1.0662  1.4835  0.1113
 2395SOL     OW18817   1.399   0.985   7.335 -0.1677  0.3467 -0.3212
 2395SOL    HW118818   1.334   0.943   7.279  1.6295 -1.7362 -0.8272
 2395SOL    HW218819   1.455   0.909   7.350  0.2498  0.8411  0.6460
 2396SOL     OW18820   4.092   1.887  16.588 -0.4119 -0.2073 -0.1694
 2396SOL    HW118821   4.056   1.951  16.527 -0.1053 -0.6215 -0.7751
 2396SOL    HW218822   4.104   1.948  16.661 -0.3079 -0.7010  0.2209
 2397SOL     OW18823   1.740   0.985   1.846  0.2414 -0.0132  0.3966
 2397SOL    HW118824   1.817   0.933   1.822  0.2391 -0.9343  2.4133
 2397SOL    HW218825   1.767   1.024   1.929  0.6080 -2.3018  1.3718
 2398SOL     OW18826   0.309   4.501  15.294  0.2068  0.2106  0.0870
 2398SOL    HW118827   0.338   4.585  15.258 -3.1882  1.4304  0.1479
 2398SOL    HW218828   0.378   4.485  15.359 -0.3980 -2.2701  0.1195
 2399SOL     OW18829   3.148   1.304   7.819  0.5112  0.3152  0.1043
 2399SOL    HW118830   3.073   1.364   7.822 -1.2077 -1.7113 -2.3724
 2399SOL    HW218831   3.215   1.355   7.773  1.3752 -1.6855 -0.8702
 2400SOL     OW18832   4.734   0.328   8.664  0.3091  0.1375 -0.1399
 2400SOL    HW118833   4.672   0.350   8.733 -1.8533  1.1089 -2.3741
 2400SOL    HW218834   4.684   0.354   8.586  0.9765  0.1528 -0.5673
 2401SOL     OW18835   1.020   0.178   5.804  0.3359 -0.1965  0.5677
 2401SOL    HW118836   1.075   0.107   5.771  0.1616 -0.4248  0.7661
 2401SOL    HW218837   0.946   0.165   5.745  0.7993  0.0710 -0.0729
 2402SOL     OW18838   3.262   3.498   5.613  0.3040 -0.0790  0.2479
 2402SOL    HW118839   3.199   3.551   5.564 -0.3922 -1.4681 -0.3451
 2402SOL    HW218840   3.226   3.490   5.701  0.1805 -0.9186  0.1204
 2403SOL     OW18841   4.393   1.198   3.235  0.2468  0.1000 -0.5250
 2403SOL    HW118842   4.364   1.233   3.319  1.1666  2.1457 -1.0449
 2403SOL    HW218843   4.388   1.279   3.184  0.4005  0.4866  0.0679
 2404SOL     OW18844   2.696   1.520   0.374  0.7782  0.0962 -0.1099
 2404SOL    HW118845   2.737   1.444   0.414  0.0002 -1.1557 -1.6784
 2404SOL    HW218846   2.734   1.530   0.287 -3.5725 -0.9836 -2.1518
 2405SOL     OW18847   3.082   1.700   2.201  0.6560 -0.8178 -0.0320
 2405SOL    HW118848   3.151   1.656   2.251  0.4565 -2.3472 -1.0804
 2405SOL    HW218849   3.091   1.650   2.120  0.7163 -1.0454  0.1142
 2406SOL     OW18850   3.957   2.848   2.784  0.0863  0.0029 -0.0438
 2406SOL    HW118851   3.969   2.899   2.864  1.1756 -1.1273  0.5175
 2406SOL    HW218852   4.017   2.775   2.800  0.1359  0.5691  2.3451
 2407SOL     OW18853   3.964   3.315   6.856 -0.1574  0.2076  0.0800
 2407SOL    HW118854   3.907   3.366   6.913 -0.1519  0.7643 -0.4190
 2407SOL    HW218855   3.909   3.328   6.779 -1.6843 -0.1086  1.1232
 2408SOL     OW18856   4.126   3.152   5.298  0.4380  0.1419  0.5562
 2408SOL    HW118857   4.202   3.174   5.244 -1.6991 -0.7018 -2.7902
 2408SOL    HW218858   4.174   3.140   5.380 -1.4555  3.2805  2.1122
 2409SOL     OW18859   3.341   1.323  13.585 -0.3105 -0.1570 -0.0780
 2409SOL    HW118860   3.432   1.310  13.611 -0.9423 -2.0363  1.1876
 2409SOL    HW218861   3.346   1.418  13.573 -0.0916 -0.0946  0.5201
 2410SOL     OW18862   0.173   4.115   7.169 -0.2999  0.4508  0.7034
 2410SOL    HW118863   0.113   4.167   7.223  0.9663 -0.3409  2.8404
 2410SOL    HW218864   0.115   4.060   7.116  1.0731 -1.9428  1.7161
 2411SOL     OW18865   1.897   2.537   4.139  0.6023  0.5621 -0.6477
 2411SOL    HW118866   1.939   2.455   4.114 -1.0810 -1.2561  2.3915
 2411SOL    HW218867   1.862   2.513   4.225 -0.1924  0.6523 -0.9443
 2412SOL     OW18868   2.569   0.619   4.053  0.0692  0.2122  0.4201
 2412SOL    HW118869   2.652   0.654   4.019  1.0688 -0.6472  1.9509
 2412SOL    HW218870   2.555   0.537   4.006  0.9125  0.1597  0.2629
 2413SOL     OW18871   2.986   4.074   3.507  0.0819  0.2672  0.2370
 2413SOL    HW118872   2.911   4.094   3.563  1.2578  1.7562  1.2593
 2413SOL    HW218873   2.944   4.043   3.427  1.2716 -0.2049 -0.2071
 2414SOL     OW18874   1.739   4.395   4.339  0.1991  0.4378 -0.3166
 2414SOL    HW118875   1.715   4.405   4.247 -1.1367  1.5615  0.1428
 2414SOL    HW218876   1.808   4.462   4.339 -0.2541  0.9235  1.1795
 2415SOL     OW18877   4.736   3.608  11.972 -0.3048 -0.3765 -0.4357
 2415SOL    HW118878   4.715   3.534  12.029  0.6009 -2.0257 -2.2389
 2415SOL    HW218879   0.029   3.557  11.897  0.7669  0.6814 -0.7278
 2416SOL     OW18880   0.490   3.954  14.651 -0.3348 -0.5502  0.4224
 2416SOL    HW118881   0.543   3.989  14.724 -0.0355 -1.1621  0.5033
 2416SOL    HW218882   0.512   4.010  14.577 -0.1290 -0.2079  0.7441
 2417SOL     OW18883   4.018   1.200   6.745 -0.1602  0.5285  0.2468
 2417SOL    HW118884   3.943   1.232   6.696  0.5464 -1.7428 -2.3018
 2417SOL    HW218885   4.023   1.264   6.816 -1.7106  0.6712  0.2218
 2418SOL     OW18886   3.046   4.101   9.271  0.4726 -0.3509 -0.2293
 2418SOL    HW118887   3.079   4.133   9.187 -2.3853 -0.5752 -1.4178
 2418SOL    HW218888   2.979   4.041   9.239 -1.7639  0.3718  3.1076
 2419SOL     OW18889   3.900   2.000  15.384  0.4130 -0.6339 -0.1568
 2419SOL    HW118890   3.929   2.016  15.294 -0.9798 -1.0895 -0.6828
 2419SOL    HW218891   3.830   2.063  15.400 -1.0374 -1.9968 -1.1275
 2420SOL     OW18892   4.472   4.378   9.643 -0.3227 -0.4964  0.0306
 2420SOL    HW118893   4.540   4.319   9.676  0.1894  0.9613  1.5531
 2420SOL    HW218894   4.473   4.442   9.714  0.5698  0.1165 -0.5443
 2421SOL     OW18895   4.432   3.979   2.672  0.6936  0.5139  0.4910
 2421SOL    HW118896   4.434   4.025   2.588 -2.1507 -1.1372 -0.4803
 2421SOL    HW218897   4.525   3.962   2.678  0.8890  1.3559 -0.1120
 2422SOL     OW18898   3.464   3.091  13.211 -0.1851  0.2665 -0.5241
 2422SOL    HW118899   3.448   3.007  13.168 -0.1509 -0.5278  1.0016
 2422SOL    HW218900   3.484   3.148  13.137  0.6868 -0.6550 -0.9923
 2423SOL     OW18901   3.128   2.015   4.627  0.6224 -0.0004 -0.2657
 2423SOL    HW118902   3.051   2.026   4.682  1.4752  1.0795  0.6790
 2423SOL    HW218903   3.147   1.922   4.638  0.0941  0.0672  1.1256
 2424SOL     OW18904   4.321   0.125  15.558 -0.2700 -0.3098 -0.2738
 2424SOL    HW118905   4.258   0.163  15.618  1.0423  0.4649  0.6239
 2424SOL    HW218906   4.342   0.200  15.501 -0.3667 -0.2093 -0.1770
 2425SOL     OW18907   4.371   2.564   8.795  0.0575 -0.2569  0.0596
 2425SOL    HW118908   4.438   2.499   8.817  0.0999 -0.9224 -2.0334
 2425SOL    HW218909   4.296   2.515   8.764 -1.2399  1.1668  0.9617
 2426SOL     OW18910   2.116   3.382   7.885  0.3674 -0.0762  0.5656
 2426SOL    HW118911   2.050   3.448   7.906  0.9751  0.9374 -0.7400
 2426SOL    HW218912   2.058   3.308   7.867 -1.1731  1.1480  0.4727
 2427SOL     OW18913   2.951   1.028  13.427 -0.1515 -0.4154 -0.0357
 2427SOL    HW118914   2.966   0.943  13.385 -0.8492 -0.1364 -0.8449
 2427SOL    HW218915   3.023   1.073  13.381  0.6526 -3.2975 -1.5836
 2428SOL     OW18916   0.957   2.965  11.718  0.1279 -0.0207 -0.3354
 2428SOL    HW118917   1.016   2.961  11.644  1.0800 -1.5781  0.4904
 2428SOL    HW218918   0.975   2.881  11.762 -0.2649 -1.0534 -2.1799
 2429SOL     OW18919   0.683   1.988   0.134 -0.6004  0.1551 -0.1855
 2429SOL    HW118920   0.720   2.047   0.200 -0.5570  0.8379 -0.8153
 2429SOL    HW218921   0.652   1.918   0.192  2.8572  0.2404  1.7293
 2430SOL     OW18922   1.508   4.360   2.189 -0.0576 -0.5230  0.5584
 2430SOL    HW118923   1.535   4.273   2.159 -0.5316 -0.7794  0.8721
 2430SOL    HW218924   1.441   4.390   2.128  0.7835  1.7123  0.7198
 2431SOL     OW18925   3.484   1.405   6.480 -0.6193 -0.6971  0.5289
 2431SOL    HW118926   3.429   1.348   6.534 -1.1063 -1.7592 -1.0850
 2431SOL    HW218927   3.538   1.445   6.549  0.1140 -1.2305  0.2640
 2432SOL     OW18928   3.987   2.530   4.548 -0.5981  0.3183  0.4158
 2432SOL    HW118929   4.010   2.608   4.600  0.1309 -0.0510  0.6508
 2432SOL    HW218930   4.071   2.489   4.527  0.5185  2.4834  0.6966
 2433SOL     OW18931   4.011   1.417   8.143 -0.1193 -0.4564  0.3700
 2433SOL    HW118932   4.042   1.458   8.062 -1.5171 -2.7889 -1.3381
 2433SOL    HW218933   4.086   1.422   8.202  0.1289  0.7071 -0.0529
 2434SOL     OW18934   1.612   1.254  17.460  0.4054 -0.7248 -0.3216
 2434SOL    HW118935   1.542   1.273  17.523  1.5234  0.9924  0.3863
 2434SOL    HW218936   1.662   1.335  17.454 -2.1088  0.9319  0.6618
 2435SOL     OW18937   4.641   3.806  10.946 -0.6464 -0.3951 -0.5388
 2435SOL    HW118938   4.633   3.873  10.879 -0.6693  0.2095  0.0646
 2435SOL    HW218939   4.560   3.800  10.996 -0.1257  0.5680  0.4389
 2436SOL     OW18940   2.056   0.491   9.078 -0.1454  0.1538 -0.1229
 2436SOL    HW118941   2.065   0.472   8.984 -2.6671  1.0983 -0.5844
 2436SOL    HW218942   2.077   0.410   9.123  2.4806  0.1932 -1.3178
 2437SOL     OW18943   1.943   2.525   8.947 -0.5422 -0.4743 -0.0933
 2437SOL    HW118944   1.905   2.513   9.033 -0.4060  0.7677  0.1323
 2437SOL    HW218945   1.873   2.500   8.887 -1.4347  3.2090 -0.5679
 2438SOL     OW18946   1.148   3.958  12.123 -0.1828  1.2078  0.0980
 2438SOL    HW118947   1.174   4.019  12.054  0.4020  0.9117  0.0520
 2438SOL    HW218948   1.237   3.929  12.146 -0.5177 -0.4290 -0.6295
 2439SOL     OW18949   4.664   3.312   8.450 -0.4723  0.2406  0.0174
 2439SOL    HW118950   4.647   3.403   8.425  0.2129  0.0983 -0.9868
 2439SOL    HW218951   4.629   3.270   8.371 -2.7252  2.9372 -0.4112
 2440SOL     OW18952   0.511   4.631   5.871  0.2498  0.3889  0.2713
 2440SOL    HW118953   0.568   4.555   5.878 -0.8695 -0.5103 -0.2679
 2440SOL    HW218954   0.426   4.588   5.884 -1.0820  3.0830  0.5490
 2441SOL     OW18955   2.382   0.333   8.666 -0.1919  0.1219 -0.1425
 2441SOL    HW118956   2.441   0.320   8.741  1.0644 -2.3212 -1.5365
 2441SOL    HW218957   2.370   0.245   8.628 -0.4564 -0.3406  1.0100
 2442SOL     OW18958   3.090   3.128   1.675 -0.4030 -0.1743  0.0162
 2442SOL    HW118959   3.114   3.133   1.767 -0.4567  0.7627 -0.0205
 2442SOL    HW218960   3.064   3.036   1.668 -0.2755 -0.2659  0.7424
 2443SOL     OW18961   3.366   0.116   7.598 -0.2405 -0.0283 -0.0560
 2443SOL    HW118962   3.310   0.193   7.609  0.6729  0.2871  2.4597
 2443SOL    HW218963   3.359   0.121   7.503  0.2414  0.6193 -0.0633
 2444SOL     OW18964   1.094   0.265   1.124  0.3346 -0.2045 -0.7599
 2444SOL    HW118965   1.086   0.179   1.083  0.0203 -1.0103  0.9884
 2444SOL    HW218966   1.180   0.294   1.093  0.9388  1.0635  2.0431
 2445SOL     OW18967   3.432   0.507   7.018 -0.2798  0.0031  0.3837
 2445SOL    HW118968   3.383   0.431   6.987  0.6256 -0.3776 -0.1043
 2445SOL    HW218969   3.468   0.533   6.933  1.5246 -1.2663  0.7799
 2446SOL     OW18970   1.693   2.428  14.619 -0.4613  0.4789 -0.3324
 2446SOL    HW118971   1.645   2.360  14.573  1.0733 -0.1551 -1.0204
 2446SOL    HW218972   1.750   2.453  14.546 -1.3397 -0.3089 -1.2728
 2447SOL     OW18973   1.019   4.000  10.797  0.4228  0.8011  0.1601
 2447SOL    HW118974   1.076   3.941  10.846 -3.6871 -2.1323  1.3317
 2447SOL    HW218975   0.931   3.972  10.818  1.7396 -1.8247  2.1672
 2448SOL     OW18976   1.342   0.921   8.794  0.1869 -0.3779  0.2486
 2448SOL    HW118977   1.334   0.831   8.827 -0.2046  0.0981  1.4732
 2448SOL    HW218978   1.432   0.919   8.764 -0.0349  2.0061 -0.5796
 2449SOL     OW18979   1.129   2.450   7.001  0.1176 -0.1314 -0.0227
 2449SOL    HW118980   1.050   2.463   6.949  0.8370  0.5663 -0.9496
 2449SOL    HW218981   1.132   2.355   7.007  1.4214 -0.1733 -1.3277
 2450SOL     OW18982   0.221   0.925   5.586  0.2237  0.6247  0.3721
 2450SOL    HW118983   0.311   0.893   5.599  0.1758 -0.2436 -1.3084
 2450SOL    HW218984   0.181   0.839   5.575 -0.6440  1.1774 -0.8485
 2451SOL     OW18985   0.204   2.763   9.569 -0.0049 -0.1715  0.0150
 2451SOL    HW118986   0.197   2.675   9.606  1.7893 -1.0318 -1.7221
 2451SOL    HW218987   0.189   2.815   9.649  0.2130  1.7872 -1.2211
 2452SOL     OW18988   3.448   4.606   6.610  0.4374  0.3394 -0.2874
 2452SOL    HW118989   3.405   4.629   6.692 -2.5302  1.2316 -2.1048
 2452SOL    HW218990   3.368   4.586   6.561  1.1751 -0.3088 -1.2381
 2453SOL     OW18991   3.167   2.947   9.181  0.1981 -0.3137 -0.1362
 2453SOL    HW118992   3.080   2.948   9.141  1.0171 -0.6749 -1.9218
 2453SOL    HW218993   3.216   3.012   9.131  0.3612  0.7988  1.4833
 2454SOL     OW18994   1.388   0.537   7.316  0.0643  0.1653 -0.0811
 2454SOL    HW118995   1.337   0.458   7.337 -1.7057  1.3112 -0.0361
 2454SOL    HW218996   1.458   0.510   7.257  0.2485 -0.6567  0.5094
 2455SOL     OW18997   2.557   1.915   5.947 -0.6117  0.3848 -0.0073
 2455SOL    HW118998   2.629   1.979   5.945 -0.1656 -0.1382 -0.7498
 2455SOL    HW218999   2.569   1.884   5.857  1.3452  1.0207  0.0304
 2456SOL     OW19000   1.148   1.616   3.636  0.0859  0.9439 -0.2721
 2456SOL    HW119001   1.066   1.566   3.633  1.1318 -0.8090  0.6474
 2456SOL    HW219002   1.123   1.664   3.557  0.4427 -0.9810 -1.5489
 2457SOL     OW19003   3.944   2.426   5.275  0.0882  0.0384 -0.1484
 2457SOL    HW119004   3.970   2.506   5.320 -3.1819  0.5974  0.7372
 2457SOL    HW219005   4.028   2.393   5.243  0.5590 -0.5585  1.7363
 2458SOL     OW19006   0.372   1.772   6.052  0.1038  0.1676 -0.0838
 2458SOL    HW119007   0.416   1.813   5.977 -0.5610  0.3849 -0.3490
 2458SOL    HW219008   0.317   1.716   5.997 -0.6178  0.3681  0.4402
 2459SOL     OW19009   0.099   3.718   4.867  0.4105 -0.2384  0.0274
 2459SOL    HW119010   0.133   3.633   4.894  0.7761  0.6940  2.5327
 2459SOL    HW219011   0.131   3.723   4.777  0.9933  2.7142  0.3853
 2460SOL     OW19012   4.623   0.405   8.383 -0.4280 -0.0840  0.4619
 2460SOL    HW119013   4.599   0.467   8.314 -2.1264  0.9693  2.0018
 2460SOL    HW219014   4.704   0.365   8.354  0.5033  1.5956  0.7343
 2461SOL     OW19015   4.354   1.488   3.779 -0.1096  0.4818  0.3142
 2461SOL    HW119016   4.321   1.409   3.737 -1.4566  0.0437  2.1868
 2461SOL    HW219017   4.389   1.536   3.704  1.0469 -0.3419  0.3186
 2462SOL     OW19018   0.814   3.737   5.612 -0.0378 -0.3304 -0.0580
 2462SOL    HW119019   0.742   3.714   5.554 -0.8748 -0.3505  0.9931
 2462SOL    HW219020   0.885   3.690   5.568 -0.3295 -0.8967  0.0686
 2463SOL     OW19021   0.869   0.167   6.212  0.2196  0.4459 -0.6421
 2463SOL    HW119022   0.813   0.162   6.135  0.1234  2.5812 -0.7159
 2463SOL    HW219023   0.944   0.222   6.189 -1.0142  0.9940 -3.2504
 2464SOL     OW19024   0.322   4.485   5.655  0.3558  0.1390 -0.7141
 2464SOL    HW119025   0.289   4.473   5.744 -1.1320  0.4437 -1.2406
 2464SOL    HW219026   0.249   4.528   5.612 -0.9752 -1.2074  0.2109
 2465SOL     OW19027   3.247   1.399  16.004 -0.0883  0.0028  0.1352
 2465SOL    HW119028   3.175   1.456  15.977 -0.9427  0.6311  3.6462
 2465SOL    HW219029   3.288   1.374  15.921  0.8538 -0.0513  0.6190
 2466SOL     OW19030   1.953   3.656   2.736  0.1105  0.2256 -0.0301
 2466SOL    HW119031   1.925   3.670   2.827  1.1325 -0.6213  0.4167
 2466SOL    HW219032   1.999   3.738   2.717 -1.0523  0.9988  0.4922
 2467SOL     OW19033   3.525   4.346   5.968 -0.2101  0.1018  0.2122
 2467SOL    HW119034   3.596   4.329   6.031  2.4670  1.7710 -2.3456
 2467SOL    HW219035   3.499   4.258   5.942 -2.5620  1.3633 -1.6650
 2468SOL     OW19036   1.049   2.463  12.173  0.0245 -0.2038  0.0309
 2468SOL    HW119037   0.968   2.443  12.220 -0.6746  0.1569 -1.0298
 2468SOL    HW219038   1.114   2.435  12.238  1.5164  1.6238 -0.6687
 2469SOL     OW19039   2.275   0.207   0.614  0.6658 -0.7641 -0.0548
 2469SOL    HW119040   2.335   0.138   0.587 -1.3380 -1.5180 -2.6238
 2469SOL    HW219041   2.283   0.207   0.709  2.1520 -1.6547 -0.1826
 2470SOL     OW19042   3.779   1.438   5.943  0.0661  0.3644  0.2001
 2470SOL    HW119043   3.813   1.525   5.924  0.9497 -0.0618 -0.1370
 2470SOL    HW219044   3.825   1.370   5.895  0.2358 -0.6613  1.7860
 2471SOL     OW19045   2.530   0.772   0.351 -0.3892  0.2507 -0.3704
 2471SOL    HW119046   2.572   0.846   0.307 -0.4588  0.6053  0.1471
 2471SOL    HW219047   2.439   0.787   0.325 -0.2231  2.1135  0.0707
 2472SOL     OW19048   0.715   0.854   3.657  0.4085 -0.0762  0.5447
 2472SOL    HW119049   0.716   0.794   3.582 -1.1978  0.3697  0.1605
 2472SOL    HW219050   0.690   0.797   3.730 -0.5407 -0.0005  0.2844
 2473SOL     OW19051   2.804   2.667   9.430  0.2966 -0.6461  0.4050
 2473SOL    HW119052   2.738   2.610   9.392 -1.6477  0.2223  2.4708
 2473SOL    HW219053   2.756   2.725   9.489  1.5695  0.1575  0.6729
 2474SOL     OW19054   4.023   3.436   5.987  0.0969 -0.1389  0.5333
 2474SOL    HW119055   3.998   3.485   5.909  3.2738  2.2749  1.0206
 2474SOL    HW219056   3.944   3.438   6.042 -1.0930  0.1505 -1.2033
 2475SOL     OW19057   1.051   2.323  16.551 -0.1135 -0.1618  0.6170
 2475SOL    HW119058   1.113   2.252  16.571  0.4581  0.4064  0.8443
 2475SOL    HW219059   0.965   2.281  16.561 -0.6922  1.3972  2.0711
 2476SOL     OW19060   2.515   0.792  14.539  0.0718  0.4654 -0.4523
 2476SOL    HW119061   2.433   0.783  14.587  1.2129 -1.0108  1.1991
 2476SOL    HW219062   2.524   0.702  14.509 -3.7421 -0.2726  0.6995
 2477SOL     OW19063   2.753   3.275   7.403 -0.1978 -0.0858 -0.0895
 2477SOL    HW119064   2.694   3.220   7.454  0.1864  2.0346  2.6158
 2477SOL    HW219065   2.731   3.360   7.440 -1.0641 -0.5872  0.5307
 2478SOL     OW19066   0.973   1.146   5.066 -0.4112  0.6340 -0.4424
 2478SOL    HW119067   1.002   1.071   5.013  0.9268  1.2302 -0.5428
 2478SOL    HW219068   0.972   1.104   5.152  1.2790 -0.8047 -1.1370
 2479SOL     OW19069   2.882   0.379  11.705 -0.3053 -0.3234  0.2980
 2479SOL    HW119070   2.884   0.464  11.749  1.5006 -0.3706  0.2854
 2479SOL    HW219071   2.961   0.394  11.655 -0.8559  0.8463 -0.2278
 2480SOL     OW19072   2.653   2.376   5.943 -0.0661  0.0239  0.0400
 2480SOL    HW119073   2.566   2.354   5.978  0.8770  0.7342  2.8836
 2480SOL    HW219074   2.696   2.385   6.028 -1.4019 -0.5417  0.7709
 2481SOL     OW19075   2.120   0.029   8.771 -0.0090 -1.0105  0.2371
 2481SOL    HW119076   2.093   4.723   8.690  1.0573  0.6561 -1.0030
 2481SOL    HW219077   2.215   0.020   8.764  0.3906  4.2417 -1.4682
 2482SOL     OW19078   0.031   3.737   7.733  0.3794  0.1208  0.2654
 2482SOL    HW119079   4.736   3.669   7.792 -1.9338 -0.5944 -1.7886
 2482SOL    HW219080   0.088   3.799   7.779  1.5973  0.1650 -1.3168
 2483SOL     OW19081   3.054   4.250   1.722 -0.0448  0.2659  0.2280
 2483SOL    HW119082   3.026   4.159   1.726  1.3727 -0.1258  1.2187
 2483SOL    HW219083   2.979   4.296   1.761  0.2172  1.6305 -0.8726
 2484SOL     OW19084   4.342   4.082   8.433 -0.0552 -0.4402 -0.1245
 2484SOL    HW119085   4.380   4.003   8.472 -1.0411 -1.1114 -0.5001
 2484SOL    HW219086   4.397   4.149   8.474  0.4367 -0.7007 -0.3683
 2485SOL     OW19087   0.384   0.008   6.138 -0.5175  0.4863  0.4453
 2485SOL    HW119088   0.467   0.023   6.184 -0.9372  0.6266  1.1637
 2485SOL    HW219089   0.408   4.696   6.059 -1.0144 -1.9029  1.8117
 2486SOL     OW19090   4.049   1.527  13.208 -0.1818 -0.0884  0.4601
 2486SOL    HW119091   3.991   1.456  13.239  1.0717 -0.8440  1.0692
 2486SOL    HW219092   4.054   1.505  13.115  1.3081  0.0266  0.5193
 2487SOL     OW19093   1.760   3.078   0.045 -0.3242 -0.3199  0.1767
 2487SOL    HW119094   1.716   3.033  17.719 -1.1017  0.6938  0.0214
 2487SOL    HW219095   1.699   3.149   0.067 -1.1922 -0.7575 -0.8247
 2488SOL     OW19096   1.022   3.754   3.037 -0.0489 -0.2000  0.4441
 2488SOL    HW119097   1.086   3.809   2.992  0.0792  0.0441  0.9250
 2488SOL    HW219098   1.000   3.815   3.107 -2.3296  0.2993 -0.7380
 2489SOL     OW19099   1.566   4.588  12.861 -0.8690 -0.1183 -0.1039
 2489SOL    HW119100   1.605   4.614  12.945 -0.2281  0.5441 -0.6123
 2489SOL    HW219101   1.498   4.530  12.896  0.3723  0.5260  3.3961
 2490SOL     OW19102   1.559   0.520   7.114  0.2808 -0.1424  0.5242
 2490SOL    HW119103   1.634   0.577   7.131 -0.1318 -0.1564  2.3124
 2490SOL    HW219104   1.532   0.551   7.027  0.1010 -1.5098  0.0982
 2491SOL     OW19105   1.290   4.084   0.285  0.0823  0.7316  0.5025
 2491SOL    HW119106   1.359   4.026   0.317 -1.5154 -0.1923  2.2575
 2491SOL    HW219107   1.329   4.111   0.201  2.1842  0.0714  1.2692
 2492SOL     OW19108   3.335   4.611   7.934 -0.3948 -0.7173 -0.1332
 2492SOL    HW119109   3.336   4.547   8.005  0.6586 -1.4589 -0.8271
 2492SOL    HW219110   3.418   4.588   7.892 -1.5671 -0.5333 -2.5720
 2493SOL     OW19111   3.614   3.693   0.703 -0.6693  0.2803 -0.9330
 2493SOL    HW119112   3.552   3.766   0.710 -1.3734 -0.8051  3.9013
 2493SOL    HW219113   3.602   3.642   0.783  3.3641  2.2478  0.9072
 2494SOL     OW19114   0.156   2.757  14.559 -0.1146 -0.1536  0.2172
 2494SOL    HW119115   0.200   2.752  14.475  1.8517 -0.4979  1.2738
 2494SOL    HW219116   0.198   2.699  14.623 -2.1239  0.8504  2.4493
 2495SOL     OW19117   3.785   0.179  14.676 -0.1978  0.2028 -0.2304
 2495SOL    HW119118   3.784   0.167  14.581  0.9966  0.2427 -0.2451
 2495SOL    HW219119   3.838   0.258  14.679  1.5353 -1.0847  2.1978
 2496SOL     OW19120   3.905   0.100   2.215 -0.2554 -0.1667  0.7232
 2496SOL    HW119121   3.893   0.022   2.161  1.8402 -0.7096  1.0633
 2496SOL    HW219122   3.957   0.055   2.281 -0.1184  3.2256  2.9270
 2497SOL     OW19123   0.295   1.920  14.714  0.1563  0.6668 -0.8101
 2497SOL    HW119124   0.205   1.900  14.690 -0.0384 -0.3083  0.7361
 2497SOL    HW219125   0.348   1.868  14.654  1.4171  0.2213  0.6880
 2498SOL     OW19126   0.595   4.189   7.063  0.4626 -0.1015 -0.2597
 2498SOL    HW119127   0.628   4.278   7.050 -2.0815  1.0169  1.0488
 2498SOL    HW219128   0.504   4.208   7.040  0.5365 -0.6164 -0.9747
 2499SOL     OW19129   3.703   2.143  15.658  0.4327  0.1567  0.1053
 2499SOL    HW119130   3.648   2.213  15.694 -0.9183 -1.0083  0.2789
 2499SOL    HW219131   3.647   2.070  15.683 -0.6428  0.6310 -0.9087
 2500SOL     OW19132   3.255   3.703   5.838  0.7201  0.2590 -0.4412
 2500SOL    HW119133   3.196   3.779   5.834  0.5892  0.3352  2.7209
 2500SOL    HW219134   3.209   3.644   5.898 -0.2520  1.5564  0.0960
 2501SOL     OW19135   0.350   1.150  10.616  0.5610 -0.3398  0.2491
 2501SOL    HW119136   0.349   1.227  10.673  1.0966  0.6487 -1.0732
 2501SOL    HW219137   0.437   1.111  10.613  0.3346 -0.9252  1.4349
 2502SOL     OW19138   1.585   0.420   7.838  0.0239 -0.5259  0.4139
 2502SOL    HW119139   1.593   0.499   7.785  1.8131  0.7330  2.5683
 2502SOL    HW219140   1.635   0.446   7.915  1.3869 -0.7305 -0.3889
 2503SOL     OW19141   3.108   4.324   5.163  0.3241  0.2155  0.0529
 2503SOL    HW119142   3.071   4.390   5.105  1.2164  1.5658  1.0102
 2503SOL    HW219143   3.031   4.320   5.219  0.1527  0.1737 -0.1861
 2504SOL     OW19144   1.412   1.613   3.711 -0.4238 -0.6197  0.1457
 2504SOL    HW119145   1.359   1.569   3.645 -0.9192 -0.0915  0.1897
 2504SOL    HW219146   1.387   1.568   3.792 -0.6139 -1.5948 -0.4493
 2505SOL     OW19147   2.300   2.197   9.204 -0.5928  0.2980  0.6313
 2505SOL    HW119148   2.343   2.254   9.140 -0.8690  0.2651  0.4158
 2505SOL    HW219149   2.293   2.117   9.152 -2.3094  0.8054  0.1140
 2506SOL     OW19150   1.544   4.281  11.250 -0.2524 -0.3273 -0.4044
 2506SOL    HW119151   1.628   4.282  11.295 -0.5912 -1.4085  0.2385
 2506SOL    HW219152   1.523   4.374  11.256  1.8024  0.2047 -1.3580
 2507SOL     OW19153   1.835   1.156   1.377 -0.3126  1.0285  0.8256
 2507SOL    HW119154   1.905   1.222   1.384  0.8868  0.1443 -2.5745
 2507SOL    HW219155   1.765   1.213   1.408 -1.3500  0.5075 -0.5722
 2508SOL     OW19156   2.721   1.620   6.839 -0.2078  0.3107 -0.8564
 2508SOL    HW119157   2.749   1.704   6.876  1.4086 -0.7520  0.3665
 2508SOL    HW219158   2.735   1.631   6.745 -1.6558 -2.1479 -1.3403
 2509SOL     OW19159   3.314   2.199  12.645  0.2907 -0.0520 -0.5252
 2509SOL    HW119160   3.267   2.248  12.713 -0.4425  0.8296 -1.6799
 2509SOL    HW219161   3.279   2.231  12.562 -0.6650 -0.9080 -0.4534
 2510SOL     OW19162   3.097   1.406   7.522 -0.5594  0.1400 -0.0723
 2510SOL    HW119163   3.168   1.440   7.576 -0.1490  2.0377 -1.8102
 2510SOL    HW219164   3.128   1.456   7.446 -0.8235  0.4451  0.0191
 2511SOL     OW19165   3.468   1.685   2.847 -0.2886  0.6524 -0.0296
 2511SOL    HW119166   3.530   1.716   2.781 -2.2930  1.7293 -1.3974
 2511SOL    HW219167   3.447   1.768   2.891 -1.4928  0.1877  0.2843
 2512SOL     OW19168   4.417   0.169   7.465  0.2855  0.8451  0.3023
 2512SOL    HW119169   4.456   0.256   7.459  1.4066  0.4259  1.5901
 2512SOL    HW219170   4.325   0.194   7.478 -0.5241 -2.2734  0.6336
 2513SOL     OW19171   0.726   4.511   7.336 -0.5053 -0.1609 -0.2221
 2513SOL    HW119172   0.797   4.474   7.389  1.1219  0.2462 -2.1352
 2513SOL    HW219173   0.767   4.581   7.285  1.0232  0.4214  1.7910
 2514SOL     OW19174   1.128   2.407  10.883 -0.4998  0.3298  0.3204
 2514SOL    HW119175   1.096   2.369  10.801  1.9985 -1.8709  0.3691
 2514SOL    HW219176   1.069   2.479  10.905 -0.9412  0.1034 -0.1078
 2515SOL     OW19177   0.047   0.835   0.288 -0.4286  0.0750 -0.6545
 2515SOL    HW119178   4.731   0.772   0.239  0.7278 -0.7999 -0.7879
 2515SOL    HW219179   0.084   0.794   0.366 -0.3708 -0.3394 -0.9004
 2516SOL     OW19180   4.720   2.452   1.601  0.1896 -0.2608  0.0817
 2516SOL    HW119181   4.730   2.453   1.505  1.7713 -0.1499  0.2341
 2516SOL    HW219182   0.013   2.363   1.617  0.3972  0.1506  1.9059
 2517SOL     OW19183   3.043   4.112   5.538  0.6965 -0.4548  0.1696
 2517SOL    HW119184   2.961   4.072   5.510  0.0491  0.4716  0.7281
 2517SOL    HW219185   3.003   4.198   5.548 -0.1845 -0.5715 -2.4917
 2518SOL     OW19186   3.686   3.411   9.756 -0.0684 -0.0759 -0.5427
 2518SOL    HW119187   3.613   3.471   9.770 -1.2341 -1.3992 -0.9177
 2518SOL    HW219188   3.645   3.358   9.688 -1.4593 -1.5457  1.4420
 2519SOL     OW19189   1.048   2.342  17.424  0.6402 -0.3259 -0.4056
 2519SOL    HW119190   0.961   2.303  17.416  0.9540 -1.0697 -0.1857
 2519SOL    HW219191   1.094   2.302  17.350 -2.4699 -1.7868 -1.5226
 2520SOL     OW19192   3.302   4.300   3.365 -0.4179 -0.3697  0.3454
 2520SOL    HW119193   3.294   4.210   3.394  2.8168 -0.2374  1.7293
 2520SOL    HW219194   3.380   4.281   3.314 -0.5867 -0.1496  0.0054
 2521SOL     OW19195   1.977   3.849   1.447 -0.0294  0.0332 -0.6195
 2521SOL    HW119196   1.978   3.824   1.355  1.2721 -2.3607  0.0471
 2521SOL    HW219197   2.059   3.802   1.463  2.1073  3.0789 -2.7159
 2522SOL     OW19198   0.629   1.670   5.252  0.2449 -0.6055 -0.8760
 2522SOL    HW119199   0.707   1.649   5.201  1.1320  2.5364 -0.7908
 2522SOL    HW219200   0.619   1.760   5.223  0.8077 -0.1176  0.4191
 2523SOL     OW19201   1.322   0.730   5.129  0.3458  0.1007  0.3122
 2523SOL    HW119202   1.410   0.696   5.112 -0.2576 -0.0338 -2.5224
 2523SOL    HW219203   1.278   0.701   5.049  0.9732 -2.4261  0.8947
 2524SOL     OW19204   2.251   4.565   6.540 -0.5980 -0.1313 -0.1690
 2524SOL    HW119205   2.252   4.611   6.624 -0.4034 -0.6477  0.1114
 2524SOL    HW219206   2.320   4.610   6.490 -0.9788  1.2972  0.5740
 2525SOL     OW19207   1.677   4.664  13.087 -0.1202  0.4585 -0.4653
 2525SOL    HW119208   1.708   0.017  13.081  2.9983 -0.4423  2.1910
 2525SOL    HW219209   1.709   4.635  13.172 -2.2384  0.6552  0.3824
 2526SOL     OW19210   1.033   4.566   3.500 -0.4182  0.4392  0.6704
 2526SOL    HW119211   1.029   4.483   3.452 -0.4050  1.2625 -0.7382
 2526SOL    HW219212   1.024   4.522   3.585 -2.9267 -0.2988  0.0465
 2527SOL     OW19213   4.190   1.789   0.992  0.0618 -0.5294 -0.2292
 2527SOL    HW119214   4.119   1.832   1.042 -0.5983 -1.4574 -0.3709
 2527SOL    HW219215   4.178   1.697   1.015  2.5932 -1.0413 -0.9605
 2528SOL     OW19216   1.656   2.701   2.717  0.4904 -0.2971 -0.2608
 2528SOL    HW119217   1.708   2.634   2.672  0.3922  0.8561 -2.0766
 2528SOL    HW219218   1.707   2.737   2.789 -0.0714 -0.7743  0.3749
 2529SOL     OW19219   2.835   3.772   9.708  0.2899 -0.8045  0.0202
 2529SOL    HW119220   2.905   3.834   9.728  0.2339 -0.7778  0.1308
 2529SOL    HW219221   2.883   3.693   9.684  0.4713 -0.3609 -1.0682
 2530SOL     OW19222   2.112   0.784   2.230 -0.3396  0.0106 -0.1454
 2530SOL    HW119223   2.057   0.709   2.205 -0.9304 -0.7777  3.4895
 2530SOL    HW219224   2.049   0.823   2.291 -1.6516 -1.6259 -0.4240
 2531SOL     OW19225   3.376   2.524   3.405  0.1013 -0.3561 -0.1588
 2531SOL    HW119226   3.342   2.515   3.494 -2.3476  1.4872 -0.9129
 2531SOL    HW219227   3.332   2.606   3.381 -0.4131 -0.5527  0.1022
 2532SOL     OW19228   2.761   3.101   6.104 -0.5270 -0.4389 -0.0885
 2532SOL    HW119229   2.756   3.081   6.197  1.8997  5.5605  1.3383
 2532SOL    HW219230   2.794   3.191   6.104  0.2099 -0.7263  2.8523
 2533SOL     OW19231   3.166   0.631   6.112  0.2608 -0.4921 -0.4181
 2533SOL    HW119232   3.159   0.648   6.206  1.4664  2.5377 -0.8707
 2533SOL    HW219233   3.120   0.548   6.101 -1.0301  0.3078 -1.0851
 2534SOL     OW19234   1.479   0.423   2.807  0.5288  0.2855 -0.1667
 2534SOL    HW119235   1.422   0.486   2.852  0.1950  0.4808 -0.8572
 2534SOL    HW219236   1.491   0.358   2.876 -2.3758 -1.2963 -1.1368
 2535SOL     OW19237   0.587   3.456   7.329  0.2583  0.1917  0.0160
 2535SOL    HW119238   0.679   3.481   7.335  0.0842  1.1838 -1.3891
 2535SOL    HW219239   0.550   3.526   7.275  1.1347  0.0879 -0.7215
 2536SOL     OW19240   4.284   0.062   2.262 -0.0946  0.3470 -0.3754
 2536SOL    HW119241   4.348   4.735   2.292  0.0882  2.1331  3.0006
 2536SOL    HW219242   4.204   0.016   2.289 -0.3812  1.4450  0.6173
 2537SOL     OW19243   1.757   0.485   1.817  0.2254 -0.3455 -0.6136
 2537SOL    HW119244   1.693   0.544   1.856  0.0736 -1.4629  0.8593
 2537SOL    HW219245   1.737   0.471   1.725  2.2900 -1.6607 -0.8751
 2538SOL     OW19246   3.279   4.175   1.475 -0.0955  0.2339  0.1830
 2538SOL    HW119247   3.322   4.203   1.556 -0.3453  1.8626 -0.2537
 2538SOL    HW219248   3.188   4.203   1.488 -0.5791 -1.1614 -0.2533
 2539SOL     OW19249   0.384   1.116   1.610  0.0218 -0.1325 -0.1157
 2539SOL    HW119250   0.409   1.026   1.588  1.4615  0.1483  0.4302
 2539SOL    HW219251   0.428   1.143   1.690 -0.7454 -2.0614  0.9641
 2540SOL     OW19252   2.337   2.262   2.273  0.3170  0.0257 -0.5456
 2540SOL    HW119253   2.406   2.226   2.218  0.8893 -0.7474  0.6900
 2540SOL    HW219254   2.369   2.345   2.308  0.9372  0.0004 -1.0522
 2541SOL     OW19255   3.715   0.309   7.826  0.7334 -0.6123  0.3883
 2541SOL    HW119256   3.674   0.298   7.912 -0.7573  0.7788 -0.1455
 2541SOL    HW219257   3.787   0.246   7.835  0.3172 -0.7268  2.7684
 2542SOL     OW19258   1.733   2.443  16.807  0.1364  0.0403  0.2328
 2542SOL    HW119259   1.665   2.511  16.803 -1.0845 -1.1575  0.8225
 2542SOL    HW219260   1.743   2.427  16.901  0.5416 -0.0940  0.1705
 2543SOL     OW19261   4.518   4.662   8.682 -0.3686  0.2003 -0.6595
 2543SOL    HW119262   4.576   4.716   8.736  1.7648  0.4796 -3.2415
 2543SOL    HW219263   4.461   4.720   8.631  0.6527  0.5519 -1.3886
 2544SOL     OW19264   3.604   0.640   3.389  0.5543  0.4326  0.4860
 2544SOL    HW119265   3.559   0.720   3.360 -0.4135 -0.9599 -1.8072
 2544SOL    HW219266   3.610   0.599   3.303  0.8325  1.0809  0.1970
 2545SOL     OW19267   1.549   2.084   3.396 -1.0187 -0.4584 -0.1345
 2545SOL    HW119268   1.506   2.112   3.477 -0.2606  0.2588  0.0139
 2545SOL    HW219269   1.495   2.008   3.375  1.5648 -1.9489 -1.3280
 2546SOL     OW19270   2.490   1.966   7.470  0.5700  0.4900 -0.0785
 2546SOL    HW119271   2.493   2.018   7.551 -1.3867 -0.2114  0.4600
 2546SOL    HW219272   2.509   2.033   7.405 -1.0561 -0.2580 -1.3362
 2547SOL     OW19273   1.212   3.202   9.460 -0.3775 -0.4824 -0.1343
 2547SOL    HW119274   1.147   3.134   9.477  1.0430 -3.0500 -4.9739
 2547SOL    HW219275   1.184   3.227   9.372 -0.7625 -4.2455 -1.0620
 2548SOL     OW19276   1.046   4.212   8.394  0.0937 -0.4373  0.3388
 2548SOL    HW119277   0.953   4.217   8.371  0.6079  1.3325 -1.4189
 2548SOL    HW219278   1.041   4.165   8.477  0.6358 -2.6030 -0.8617
 2549SOL     OW19279   2.928   3.594   2.310 -0.6048 -0.6059  0.0271
 2549SOL    HW119280   2.931   3.599   2.214 -0.5546 -0.4051  0.0383
 2549SOL    HW219281   2.905   3.502   2.316 -0.7575 -0.5970 -0.4408
 2550SOL     OW19282   3.529   2.882   9.487 -0.5774  0.6271  0.0713
 2550SOL    HW119283   3.588   2.872   9.562 -0.9195 -0.0631  0.2470
 2550SOL    HW219284   3.523   2.975   9.467 -0.7123  0.3431 -1.1818
 2551SOL     OW19285   1.562   3.093  16.855 -0.1462 -0.1543  0.7352
 2551SOL    HW119286   1.644   3.066  16.897 -0.9747 -1.9232  1.2019
 2551SOL    HW219287   1.588   3.162  16.794 -0.8978 -0.0247  0.5658
 2552SOL     OW19288   4.199   0.661   3.930  0.8696  0.6188 -0.5780
 2552SOL    HW119289   4.183   0.690   4.019 -0.2366  0.6650 -0.7844
 2552SOL    HW219290   4.261   0.591   3.949  1.5034  0.7517 -2.1452
 2553SOL     OW19291   3.982   3.808  12.407 -0.1319  0.2166  0.1754
 2553SOL    HW119292   4.070   3.826  12.375 -1.4664  0.1215 -3.4809
 2553SOL    HW219293   3.983   3.713  12.421 -0.1875  0.3186  0.8937
 2554SOL     OW19294   1.478   2.662  11.169 -0.7912  0.2347 -0.5733
 2554SOL    HW119295   1.509   2.618  11.248  2.8623  0.0129 -2.1230
 2554SOL    HW219296   1.446   2.591  11.114 -0.2418  0.0812 -0.6984
 2555SOL     OW19297   3.516   1.706  12.445  0.3719 -0.1575 -0.8215
 2555SOL    HW119298   3.506   1.630  12.389  1.2645 -1.8808  1.3372
 2555SOL    HW219299   3.528   1.672  12.534  2.0162 -0.0631 -1.0034
 2556SOL     OW19300   3.735   1.951   7.623 -0.0470  0.3932  0.2414
 2556SOL    HW119301   3.662   1.953   7.561 -1.5955 -1.4643  2.0182
 2556SOL    HW219302   3.780   2.035   7.621 -0.4643  0.6078 -0.0493
 2557SOL     OW19303   1.510   3.124   1.326 -0.0983 -0.2214  0.1331
 2557SOL    HW119304   1.439   3.154   1.268  0.4634  2.3358  0.7690
 2557SOL    HW219305   1.486   3.159   1.411  0.6754  3.3145 -1.1158
 2558SOL     OW19306   4.199   4.010   3.658 -0.8356  0.1353 -0.1976
 2558SOL    HW119307   4.148   4.080   3.617  1.4954  1.6962 -0.4576
 2558SOL    HW219308   4.256   3.997   3.581 -1.5132  1.8968 -0.9986
 2559SOL     OW19309   0.834   4.239  12.024 -0.6858 -0.2905  0.0282
 2559SOL    HW119310   0.907   4.195  11.981 -0.4429 -0.8671  1.0401
 2559SOL    HW219311   0.835   4.322  11.977  0.4276 -0.6475 -0.5676
 2560SOL     OW19312   0.006   0.538   3.449  1.1089 -0.9782 -0.2225
 2560SOL    HW119313   4.670   0.555   3.389  1.3301  2.9611  0.6312
 2560SOL    HW219314   0.000   0.616   3.503 -0.9748 -0.4235 -1.2425
 2561SOL     OW19315   3.981   3.638  11.245 -0.1339  0.4419 -0.2402
 2561SOL    HW119316   3.993   3.682  11.161  1.1764  0.1605 -0.2007
 2561SOL    HW219317   3.894   3.600  11.232  0.3876 -0.4636 -1.0910
 2562SOL     OW19318   1.371   1.237   3.538 -0.0602  0.3240  0.2836
 2562SOL    HW119319   1.426   1.306   3.501 -0.1613  1.0471  1.4958
 2562SOL    HW219320   1.437   1.169   3.553  1.0786  1.2964 -0.3082
 2563SOL     OW19321   3.192   3.439   5.920 -0.4926  0.4418  0.0693
 2563SOL    HW119322   3.097   3.428   5.923 -0.5281  1.1597  1.7105
 2563SOL    HW219323   3.222   3.352   5.894 -0.2681  0.9106 -1.2127
 2564SOL     OW19324   0.209   2.625   3.375 -0.5151  0.4145  0.1678
 2564SOL    HW119325   0.191   2.718   3.361 -1.3850  0.5134  1.9314
 2564SOL    HW219326   0.279   2.630   3.440  0.3367 -0.0641 -0.7247
 2565SOL     OW19327   0.921   3.268   9.909  0.3671  0.5898 -0.5195
 2565SOL    HW119328   0.896   3.359   9.927  1.0434  1.4158 -3.8891
 2565SOL    HW219329   1.011   3.269   9.943  0.2804 -0.5211 -0.2605
 2566SOL     OW19330   2.421   3.154  11.161  0.2532  0.2831  0.2764
 2566SOL    HW119331   2.457   3.169  11.249  1.0769 -2.0634  0.3426
 2566SOL    HW219332   2.485   3.093  11.123  3.1324  2.6110  1.4206
 2567SOL     OW19333   3.311   2.567   0.642  0.0103  0.1548  0.0244
 2567SOL    HW119334   3.226   2.608   0.627  1.1308  2.3956 -0.1105
 2567SOL    HW219335   3.316   2.506   0.568 -0.4702  0.0621  0.0698
 2568SOL     OW19336   0.995   3.486   5.152 -0.0923 -0.2561 -0.3648
 2568SOL    HW119337   1.040   3.463   5.233 -1.4055 -0.6378  0.2432
 2568SOL    HW219338   1.037   3.568   5.126 -0.4030 -0.4934 -1.6339
 2569SOL     OW19339   0.520   1.253  15.944 -0.0629  0.7197 -0.3296
 2569SOL    HW119340   0.560   1.235  16.029  0.1616 -1.5388 -0.9173
 2569SOL    HW219341   0.582   1.324  15.925 -0.3977  0.4034 -2.6716
 2570SOL     OW19342   0.560   4.171  16.396 -0.0826 -0.3738 -0.0193
 2570SOL    HW119343   0.599   4.155  16.482  1.0690  0.5234 -0.3692
 2570SOL    HW219344   0.491   4.230  16.427  0.8801  0.1825  1.0461
 2571SOL     OW19345   2.392   2.087   7.083 -0.7143 -0.4390  0.0013
 2571SOL    HW119346   2.452   2.034   7.030 -0.8105  0.1680 -0.7032
 2571SOL    HW219347   2.339   2.022   7.129 -0.5625  0.0470  0.8695
 2572SOL     OW19348   3.718   2.461   4.550 -0.1997  0.3750  0.5140
 2572SOL    HW119349   3.810   2.484   4.555 -0.4596  1.4269  0.3498
 2572SOL    HW219350   3.691   2.479   4.640 -0.7687  2.3909 -0.0796
 2573SOL     OW19351   1.546   0.135   6.567 -0.6667  0.0751 -0.1104
 2573SOL    HW119352   1.636   0.147   6.599 -0.0014 -1.4792 -1.4243
 2573SOL    HW219353   1.527   0.219   6.525  1.2912  0.3315 -0.4592
 2574SOL     OW19354   0.280   4.105  12.495 -0.0450 -0.3058 -0.5625
 2574SOL    HW119355   0.210   4.042  12.513  0.5994 -0.1986  2.2551
 2574SOL    HW219356   0.225   4.183  12.488 -1.6487 -1.4553 -0.5710
 2575SOL     OW19357   1.195   2.815   3.456 -0.0563 -0.1986  0.0200
 2575SOL    HW119358   1.134   2.744   3.437  0.4137 -0.0573 -2.1215
 2575SOL    HW219359   1.256   2.764   3.509 -1.5577  0.6509  2.5661
 2576SOL     OW19360   2.101   1.015   5.748 -0.2692  0.1771  0.6011
 2576SOL    HW119361   2.188   1.055   5.749 -1.4702  2.8748 -0.7105
 2576SOL    HW219362   2.044   1.084   5.783  0.3602  0.7380  0.5115
 2577SOL     OW19363   3.077   0.063   1.017  0.2468  0.1945  0.5294
 2577SOL    HW119364   3.137   4.727   1.002 -1.4606 -1.1207  0.0020
 2577SOL    HW219365   3.060   0.101   0.931  1.1126  0.2699  0.3966
 2578SOL     OW19366   0.715   0.206  14.453  0.0206 -0.6601 -0.1979
 2578SOL    HW119367   0.654   0.258  14.401  2.1345  0.8271 -1.1926
 2578SOL    HW219368   0.802   0.245  14.444  0.3621 -1.5169 -0.6686
 2579SOL     OW19369   0.749   0.556   2.070  0.0266  0.1341  0.0986
 2579SOL    HW119370   0.759   0.651   2.069 -0.0387  0.1387 -0.7256
 2579SOL    HW219371   0.691   0.543   1.995 -0.0871 -0.7949  0.3549
 2580SOL     OW19372   3.456   2.796   1.708  1.0100 -0.2505 -0.1907
 2580SOL    HW119373   3.461   2.714   1.758  0.3169 -0.3918 -0.3662
 2580SOL    HW219374   3.544   2.828   1.687  1.7427 -1.9896  0.1752
 2581SOL     OW19375   2.699   0.703   1.576  0.6106  0.0085 -0.2378
 2581SOL    HW119376   2.635   0.690   1.506  0.8650  2.7061 -0.9810
 2581SOL    HW219377   2.743   0.619   1.564 -1.1039 -1.1059  1.2902
 2582SOL     OW19378   3.530   2.550   4.105 -0.2578 -0.4367  0.4627
 2582SOL    HW119379   3.484   2.466   4.097  0.4781 -0.8200  0.3135
 2582SOL    HW219380   3.592   2.544   4.177  1.2405  1.2714 -0.6859
 2583SOL     OW19381   2.712   4.492   4.227 -0.0591 -0.5730  0.1453
 2583SOL    HW119382   2.657   4.417   4.244 -1.2439  0.3024  0.1819
 2583SOL    HW219383   2.774   4.500   4.299 -0.0517  0.0359  0.0718
 2584SOL     OW19384   3.310   1.479   5.748  0.3138  0.1543 -0.3542
 2584SOL    HW119385   3.334   1.570   5.729  1.6444 -0.0034  0.6183
 2584SOL    HW219386   3.283   1.449   5.661 -0.1575  0.8209 -0.4381
 2585SOL     OW19387   1.994   0.737   3.207  0.2433 -0.2265 -0.7073
 2585SOL    HW119388   2.037   0.745   3.122  1.8521 -0.8402  0.0556
 2585SOL    HW219389   1.960   0.648   3.198 -0.4246  0.1609 -1.9801
 2586SOL     OW19390   0.965   1.441   3.047  0.4680 -0.0868 -0.4127
 2586SOL    HW119391   0.983   1.410   2.958  2.7028  0.9385 -0.3305
 2586SOL    HW219392   0.962   1.359   3.097  3.6348 -0.4481 -0.7769
 2587SOL     OW19393   4.190   1.348  10.147 -0.1839  0.5007  0.0992
 2587SOL    HW119394   4.161   1.386  10.230 -3.0598  1.8129 -1.5090
 2587SOL    HW219395   4.246   1.283  10.188  0.9965  0.8153 -1.0403
 2588SOL     OW19396   1.766   3.149   1.193  0.2338 -0.0151 -0.4009
 2588SOL    HW119397   1.702   3.156   1.264  0.3638 -0.0811 -0.2781
 2588SOL    HW219398   1.815   3.228   1.213 -0.2583  0.1723  0.0890
 2589SOL     OW19399   3.842   2.734   0.689 -0.4157 -0.2878 -0.1224
 2589SOL    HW119400   3.749   2.734   0.669 -0.5456 -0.8095  0.4670
 2589SOL    HW219401   3.859   2.807   0.748 -0.7954 -0.1902 -0.1380
 2590SOL     OW19402   3.020   0.123   6.117  0.6600 -0.3246 -0.0358
 2590SOL    HW119403   3.091   0.171   6.074 -0.9210  0.6302 -1.5751
 2590SOL    HW219404   3.037   0.036   6.083 -1.9042 -0.5350 -0.7544
 2591SOL     OW19405   1.214   3.442   9.141 -0.1813 -1.0891 -0.5893
 2591SOL    HW119406   1.176   3.467   9.224 -2.1016 -1.7952 -1.2534
 2591SOL    HW219407   1.230   3.348   9.153  0.2949 -0.9669 -0.2851
 2592SOL     OW19408   3.933   1.516   1.314  0.4899 -0.1186 -0.4581
 2592SOL    HW119409   3.907   1.608   1.324 -1.4075 -0.6407 -0.6274
 2592SOL    HW219410   4.027   1.528   1.330  0.1902 -1.6371  2.4625
 2593SOL     OW19411   1.453   0.319  16.940 -0.1026 -0.0501  0.4983
 2593SOL    HW119412   1.511   0.285  16.871  1.4995  0.2906  1.7023
 2593SOL    HW219413   1.474   0.411  16.931 -0.4297  0.0230  0.4662
 2594SOL     OW19414   1.502   4.190   9.990  0.7335  0.9046 -0.2441
 2594SOL    HW119415   1.517   4.097  10.007 -1.3649  0.6844  0.3553
 2594SOL    HW219416   1.424   4.186   9.935 -0.4722 -2.2673  1.7368
 2595SOL     OW19417   2.153   0.612   6.916  0.4385  0.0529 -0.1431
 2595SOL    HW119418   2.136   0.545   6.850 -1.2981 -0.9036  1.2739
 2595SOL    HW219419   2.142   0.558   6.994  0.5576 -1.7395 -1.3876
 2596SOL     OW19420   1.850   4.568   0.600 -0.4255  0.7257 -0.5331
 2596SOL    HW119421   1.817   4.606   0.681 -2.3700 -1.3309 -0.3702
 2596SOL    HW219422   1.768   4.535   0.564 -0.6406  1.0756 -0.3647
 2597SOL     OW19423   2.334   4.025   8.553  0.0052  0.1530 -0.4018
 2597SOL    HW119424   2.351   4.107   8.599  1.4194 -1.6772  2.4273
 2597SOL    HW219425   2.243   4.017   8.581 -0.1899 -1.6947 -1.5433
 2598SOL     OW19426   1.038   2.926   3.815 -0.2254 -0.2234 -0.2068
 2598SOL    HW119427   0.956   2.932   3.767 -0.1672 -1.5224 -0.4585
 2598SOL    HW219428   1.066   2.840   3.786  5.1339  1.3626  0.2278
 2599SOL     OW19429   4.101   0.163  15.709 -0.0859 -0.3117  0.4189
 2599SOL    HW119430   4.069   0.074  15.725 -0.3113 -0.3735 -0.3589
 2599SOL    HW219431   4.029   0.211  15.751  2.8050  2.2765  2.4373
 2600SOL     OW19432   0.527   3.292   3.453 -0.3537  0.0133 -0.4077
 2600SOL    HW119433   0.594   3.230   3.424 -0.2744  0.4967 -1.2460
 2600SOL    HW219434   0.446   3.243   3.448 -0.3688  0.1745 -1.6615
 2601SOL     OW19435   1.819   0.839   1.490 -0.4025 -0.3009 -0.0478
 2601SOL    HW119436   1.819   0.834   1.394 -2.0655 -0.7471 -0.0263
 2601SOL    HW219437   1.771   0.921   1.501 -1.8433 -0.8383 -2.3057
 2602SOL     OW19438   3.506   3.177   4.364 -0.1000 -0.3593  0.2711
 2602SOL    HW119439   3.477   3.102   4.416  1.0120 -0.1747  1.1493
 2602SOL    HW219440   3.531   3.138   4.280  0.4428  2.0605 -0.7139
 2603SOL     OW19441   3.762   2.502  15.536  0.1973 -0.3286  0.0079
 2603SOL    HW119442   3.726   2.589  15.518  0.4294  0.1532  1.9494
 2603SOL    HW219443   3.801   2.482  15.450  0.0077 -1.1351  0.1110
 2604SOL     OW19444   2.536   1.017   1.972 -0.0793 -0.3282 -0.4646
 2604SOL    HW119445   2.557   0.930   1.939  2.5310  0.5574 -1.1316
 2604SOL    HW219446   2.474   0.993   2.041 -0.1325  0.3037 -0.2884
 2605SOL     OW19447   2.675   4.328   9.305 -0.4145 -0.4989 -0.6565
 2605SOL    HW119448   2.636   4.249   9.344 -2.4201  0.0287 -1.6290
 2605SOL    HW219449   2.763   4.315   9.341 -0.3517  0.0781 -0.6035
 2606SOL     OW19450   4.288   2.498   3.372 -0.0288 -0.9987 -0.3183
 2606SOL    HW119451   4.378   2.468   3.361  0.0142 -1.0461  0.1771
 2606SOL    HW219452   4.239   2.431   3.324  0.9044 -1.1877 -1.0054
 2607SOL     OW19453   4.190   0.893   9.031 -0.1549 -0.2738 -0.3434
 2607SOL    HW119454   4.178   0.802   9.005  0.6686 -0.7821  1.0344
 2607SOL    HW219455   4.150   0.900   9.118 -0.4586  1.7014 -0.6453
 2608SOL     OW19456   1.700   0.732   3.763  0.4552  0.0239  0.1418
 2608SOL    HW119457   1.688   0.662   3.827  0.7726  2.1657  2.5425
 2608SOL    HW219458   1.769   0.778   3.811  3.0271 -2.1128 -1.4752
 2609SOL     OW19459   0.606   4.672   5.153 -0.0313 -0.2079 -0.2674
 2609SOL    HW119460   0.532   4.622   5.186  1.0242 -1.3171  0.4442
 2609SOL    HW219461   0.652   4.602   5.106 -1.4853 -0.4324 -1.3563
 2610SOL     OW19462   2.872   3.297   6.529  0.0787 -0.1451 -0.4010
 2610SOL    HW119463   2.785   3.287   6.568 -0.1339  0.1088 -0.8040
 2610SOL    HW219464   2.854   3.336   6.443 -1.1125  0.2534  0.0332
 2611SOL     OW19465   3.047   4.229  15.104  0.0640 -0.0791  0.1167
 2611SOL    HW119466   2.980   4.297  15.109  1.2987  0.9947  2.0130
 2611SOL    HW219467   3.015   4.185  15.025  0.1850  0.2812 -0.1341
 2612SOL     OW19468   1.868   1.254  17.368  0.2300 -0.2179  0.2982
 2612SOL    HW119469   1.867   1.343  17.403  0.1825 -0.0132 -0.2229
 2612SOL    HW219470   1.772   1.244  17.365  0.4047 -1.4430 -0.7483
 2613SOL     OW19471   0.500   4.303   0.160  0.1415  0.1560 -0.2125
 2613SOL    HW119472   0.411   4.275   0.182  0.0367  0.1830 -0.5977
 2613SOL    HW219473   0.487   4.397   0.154 -0.1627  0.1576  0.4961
 2614SOL     OW19474   0.487   1.582  14.871  0.0320 -0.0409 -0.4020
 2614SOL    HW119475   0.576   1.582  14.834  0.7555 -0.2817  1.3327
 2614SOL    HW219476   0.446   1.582  14.785 -1.5094  1.2138  0.3287
 2615SOL     OW19477   1.968   3.450   9.819 -0.3038  0.1269  0.2543
 2615SOL    HW119478   1.940   3.369   9.775  0.2201 -0.2041  0.5302
 2615SOL    HW219479   1.999   3.493   9.739 -0.0853 -1.0385 -0.2973
 2616SOL     OW19480   0.843   4.688   7.167  0.0277 -0.9625  0.0244
 2616SOL    HW119481   0.886   4.734   7.240 -1.2182 -0.5959  0.5469
 2616SOL    HW219482   0.843   0.020   7.101  0.5481 -2.2631 -1.3177
 2617SOL     OW19483   0.088   2.612  12.062  0.0060 -0.0672  0.0552
 2617SOL    HW119484   0.002   2.570  12.064 -0.2881  0.5378 -0.0469
 2617SOL    HW219485   0.125   2.559  11.991 -1.8434 -3.1141  1.3780
 2618SOL     OW19486   4.396   1.430   4.835  0.3327 -0.2169  0.3486
 2618SOL    HW119487   4.478   1.480   4.829 -0.8832  1.8016  0.6697
 2618SOL    HW219488   4.427   1.348   4.798  0.2901 -0.4305  0.7874
 2619SOL     OW19489   1.119   0.988   1.468 -0.2262  0.5228  0.3780
 2619SOL    HW119490   1.203   0.951   1.496 -0.5762  0.3205  1.1470
 2619SOL    HW219491   1.053   0.925   1.496  1.4591  0.6466  4.6115
 2620SOL     OW19492   3.282   3.692   4.403 -0.1576 -0.6155  0.2539
 2620SOL    HW119493   3.338   3.657   4.334  2.0226 -0.0356  1.7295
 2620SOL    HW219494   3.195   3.652   4.398 -0.1601 -0.8887  2.1495
 2621SOL     OW19495   1.440   4.661   4.709 -0.2510 -0.7445 -0.2942
 2621SOL    HW119496   1.490   4.640   4.629  0.0457 -0.1771 -0.2632
 2621SOL    HW219497   1.427   0.018   4.691  1.2156 -0.4807  0.0361
 2622SOL     OW19498   0.108   0.411   2.453  0.2803  0.0769  0.6115
 2622SOL    HW119499   0.127   0.386   2.544  0.2914  1.0091  0.8662
 2622SOL    HW219500   0.114   0.507   2.456  0.0863  0.0735  1.1370
 2623SOL     OW19501   0.573   3.643   4.312 -0.3698 -0.3744  0.0923
 2623SOL    HW119502   0.564   3.560   4.265  0.5839 -0.5007  0.1441
 2623SOL    HW219503   0.606   3.599   4.390  0.5388 -0.4243 -0.3239
 2624SOL     OW19504   3.789   2.101  13.357 -0.1190 -0.8292  0.4409
 2624SOL    HW119505   3.720   2.117  13.422 -1.2939 -1.0501 -0.7614
 2624SOL    HW219506   3.865   2.102  13.415 -1.4609  0.2083  2.1908
 2625SOL     OW19507   4.286   2.763   0.003  0.0764  0.0207  0.1197
 2625SOL    HW119508   4.284   2.689  17.689 -1.4259 -0.9424  1.3702
 2625SOL    HW219509   4.244   2.727   0.080 -1.0831 -0.5047 -0.7603
 2626SOL     OW19510   3.617   4.619  11.556 -0.5978 -0.5425 -0.0814
 2626SOL    HW119511   3.680   4.662  11.499  0.8342 -1.0962  1.0870
 2626SOL    HW219512   3.665   4.538  11.572  2.1339  0.8148 -1.3401
 2627SOL     OW19513   0.496   4.218   6.300 -0.4334  0.2997  0.3080
 2627SOL    HW119514   0.463   4.194   6.214 -0.2334  4.4048 -0.9267
 2627SOL    HW219515   0.418   4.262   6.333 -0.2726 -0.4654  1.7039
 2628SOL     OW19516   2.477   0.436  15.067  0.0099  0.4541 -0.3667
 2628SOL    HW119517   2.489   0.370  15.135 -2.3968 -0.6515 -1.0261
 2628SOL    HW219518   2.511   0.381  14.996 -2.5900  0.5623 -1.6957
 2629SOL     OW19519   2.101   0.082   6.969  0.4393 -0.1389 -0.1746
 2629SOL    HW119520   2.011   0.111   6.984  0.2385  0.4753 -2.6851
 2629SOL    HW219521   2.118   0.058   7.060 -2.3101 -3.0587 -0.4359
 2630SOL     OW19522   3.984   1.659   5.111  0.5081 -0.6517 -0.4673
 2630SOL    HW119523   3.956   1.662   5.202 -0.4497 -3.8335 -0.6347
 2630SOL    HW219524   4.025   1.573   5.101  0.5006 -0.6336 -0.6572
 2631SOL     OW19525   3.291   3.620   5.023  0.2164  0.3296  0.3714
 2631SOL    HW119526   3.240   3.700   5.019 -1.4322 -0.8104 -1.2576
 2631SOL    HW219527   3.351   3.640   5.095  0.5593  0.0795  0.1580
 2632SOL     OW19528   1.564   0.685   2.403 -0.0152 -0.2189 -0.2778
 2632SOL    HW119529   1.567   0.663   2.496  2.4241  2.7261  0.3548
 2632SOL    HW219530   1.627   0.757   2.402  1.2900 -1.3361  1.8683
 2633SOL     OW19531   1.668   1.146   4.848 -0.1931 -0.0734  0.4093
 2633SOL    HW119532   1.762   1.128   4.847 -0.4250 -1.3511  1.2997
 2633SOL    HW219533   1.632   1.073   4.897  0.1195 -0.6615 -0.2429
 2634SOL     OW19534   4.181   3.475   7.968  0.4371 -0.2889 -0.1763
 2634SOL    HW119535   4.158   3.390   7.930  2.5413 -0.1244 -1.8379
 2634SOL    HW219536   4.255   3.503   7.914  0.4617  1.8440  0.9738
 2635SOL     OW19537   4.603   1.691   6.652  0.0215  0.5643 -0.0878
 2635SOL    HW119538   4.533   1.646   6.699  0.5373 -0.3364 -0.1892
 2635SOL    HW219539   4.679   1.666   6.705 -0.3072 -1.0405 -0.3893
 2636SOL     OW19540   2.821   1.824   5.601 -0.0048  0.4560 -0.4301
 2636SOL    HW119541   2.864   1.767   5.666  2.1736  0.2082 -2.0782
 2636SOL    HW219542   2.750   1.765   5.574  1.9319 -3.0062  1.9686
 2637SOL     OW19543   3.839   0.869   5.823 -0.1141  0.0022 -0.0580
 2637SOL    HW119544   3.902   0.914   5.879 -0.6952  0.3025  0.3548
 2637SOL    HW219545   3.751   0.893   5.854  0.2368 -0.0710  1.0092
 2638SOL     OW19546   0.686   2.614   6.271 -0.0282  0.5032  0.1784
 2638SOL    HW119547   0.639   2.653   6.344  2.7060  0.9795  1.6926
 2638SOL    HW219548   0.635   2.648   6.197 -0.4565 -1.0503 -0.2503
 2639SOL     OW19549   1.849   3.081  16.957 -0.4401 -0.7577  0.6990
 2639SOL    HW119550   1.938   3.047  16.957  0.6181  2.0861  1.8046
 2639SOL    HW219551   1.858   3.165  17.002  0.3776  0.1429 -1.1616
 2640SOL     OW19552   0.871   1.951  12.372 -0.0350  0.9867  0.2372
 2640SOL    HW119553   0.833   1.922  12.289 -0.2936  0.3019  0.5984
 2640SOL    HW219554   0.926   2.023  12.341  0.3984  1.4464  2.0660
 2641SOL     OW19555   4.319   2.147   5.390 -0.2269 -0.4295 -0.1070
 2641SOL    HW119556   4.387   2.208   5.360 -0.1246 -0.6833 -0.3859
 2641SOL    HW219557   4.350   2.124   5.478  0.2201  0.7808  0.0624
 2642SOL     OW19558   3.589   0.995   9.321  0.2545  0.5457 -0.0726
 2642SOL    HW119559   3.598   1.079   9.276  0.6642  1.0308  0.9093
 2642SOL    HW219560   3.501   0.970   9.295  0.2785  1.4254 -0.9970
 2643SOL     OW19561   1.318   2.030   4.260 -0.0642  0.4906 -0.3466
 2643SOL    HW119562   1.365   1.948   4.242  2.8949  2.0908  0.0602
 2643SOL    HW219563   1.235   1.995   4.291  0.4919  0.1285  0.7251
 2644SOL     OW19564   2.906   3.317  12.311  0.4308  0.2053 -0.5720
 2644SOL    HW119565   2.972   3.383  12.333 -0.4595  1.5717 -2.0439
 2644SOL    HW219566   2.939   3.287  12.226 -0.8282 -0.5986 -0.7801
 2645SOL     OW19567   4.503   1.150   5.263  0.3274 -0.5118  0.2194
 2645SOL    HW119568   4.525   1.057   5.273  1.2908 -0.2336  0.7174
 2645SOL    HW219569   4.577   1.195   5.223 -1.2596  1.8835  0.0314
 2646SOL     OW19570   2.928   3.216  10.303 -0.1702 -0.0399  0.2598
 2646SOL    HW119571   2.996   3.149  10.315  0.3194  0.5599  0.8286
 2646SOL    HW219572   2.867   3.202  10.376  1.2578 -0.8108  1.3170
 2647SOL     OW19573   2.655   2.315   0.934  0.1489 -0.9785  0.2597
 2647SOL    HW119574   2.664   2.220   0.936 -2.6906 -1.2258  1.7287
 2647SOL    HW219575   2.746   2.343   0.940 -0.4653  1.4192 -1.6359
 2648SOL     OW19576   2.207   3.427   2.251  0.6043  0.2633  0.2659
 2648SOL    HW119577   2.264   3.496   2.284  1.3673  0.1920 -0.9318
 2648SOL    HW219578   2.221   3.369   2.326 -2.0618 -1.2482 -0.4208
 2649SOL     OW19579   2.584   4.116  10.347  0.2847  0.2366  0.6437
 2649SOL    HW119580   2.625   4.136  10.263 -1.0088 -0.6220 -0.1785
 2649SOL    HW219581   2.501   4.078  10.318  0.3619  0.9873 -0.5423
 2650SOL     OW19582   2.552   4.556   2.680 -0.2825 -0.1725 -0.7731
 2650SOL    HW119583   2.600   4.604   2.748  0.3829 -1.2352 -0.4955
 2650SOL    HW219584   2.468   4.553   2.727  0.0434 -0.9550 -0.2329
 2651SOL     OW19585   3.169   0.466   9.061 -0.2058 -0.3747 -0.4517
 2651SOL    HW119586   3.112   0.449   9.136  0.5715 -0.4226  0.1285
 2651SOL    HW219587   3.222   0.543   9.083 -2.2972  1.7419 -2.7872
 2652SOL     OW19588   0.149   2.070   0.511  0.3551 -0.1073 -0.0552
 2652SOL    HW119589   0.057   2.097   0.516  0.5920  0.2514  2.4763
 2652SOL    HW219590   0.147   1.986   0.556 -1.9645  0.1945  0.3825
 2653SOL     OW19591   1.635   3.324   4.815 -0.2135  0.1984 -0.3628
 2653SOL    HW119592   1.660   3.416   4.821 -0.2590  0.0423  2.1126
 2653SOL    HW219593   1.690   3.301   4.740  0.2292 -2.9100  0.9018
 2654SOL     OW19594   3.677   3.878   7.788  0.2156 -0.0594 -0.2959
 2654SOL    HW119595   3.758   3.896   7.836  0.0449  1.0032 -0.4090
 2654SOL    HW219596   3.664   3.958   7.738  2.7230  0.6254  0.1534
 2655SOL     OW19597   1.051   4.634  10.004 -0.0474 -0.1742  0.4654
 2655SOL    HW119598   0.967   4.588   9.997 -0.5508  0.8245 -0.0076
 2655SOL    HW219599   1.093   4.612   9.921  0.3074  4.1179 -0.4812
 2656SOL     OW19600   1.543   3.674   7.884  0.3691 -0.1496  0.5746
 2656SOL    HW119601   1.559   3.691   7.977  0.4832 -0.3861  0.5970
 2656SOL    HW219602   1.626   3.690   7.840 -0.1872  2.1435  0.3236
 2657SOL     OW19603   3.702   1.223   8.627 -0.0253  0.1710 -0.0411
 2657SOL    HW119604   3.777   1.210   8.570  1.4350 -0.7972  2.1013
 2657SOL    HW219605   3.741   1.241   8.713  1.7139  1.0358 -1.0177
 2658SOL     OW19606   0.713   1.727   3.064 -0.2911  0.3746  0.0442
 2658SOL    HW119607   0.734   1.731   2.971 -1.6337 -0.9422 -0.3081
 2658SOL    HW219608   0.690   1.819   3.078 -0.8857  0.5445 -2.1002
 2659SOL     OW19609   1.813   0.596   6.471 -0.1720 -0.2418  0.3660
 2659SOL    HW119610   1.743   0.598   6.537 -0.9957  1.4792 -0.5535
 2659SOL    HW219611   1.890   0.641   6.503 -0.8723 -0.3087  2.1560
 2660SOL     OW19612   0.176   2.626   2.196  0.0732 -0.4728 -0.0955
 2660SOL    HW119613   0.266   2.599   2.180  0.3368  0.1232  0.3983
 2660SOL    HW219614   0.193   2.720   2.195  1.7263 -0.7776  0.6110
 2661SOL     OW19615   0.250   4.247  16.263  0.0939  0.0046  0.1174
 2661SOL    HW119616   0.266   4.251  16.169  1.4599  0.2745  0.3559
 2661SOL    HW219617   0.250   4.340  16.287 -0.7827  0.5578 -2.0882
 2662SOL     OW19618   0.894   3.959   1.992 -0.1783 -0.1606 -0.3617
 2662SOL    HW119619   0.951   3.909   1.933  0.7763 -0.6680  0.9776
 2662SOL    HW219620   0.828   4.004   1.940 -1.7227 -0.1389  1.6294
 2663SOL     OW19621   4.349   4.256   6.838  0.1270  0.8585 -0.4702
 2663SOL    HW119622   4.390   4.277   6.922  0.8289  1.0717 -0.8571
 2663SOL    HW219623   4.259   4.279   6.863  0.4105  2.2528 -0.6918
 2664SOL     OW19624   1.307   4.712   9.277  0.3848  0.6271 -0.2298
 2664SOL    HW119625   1.234   4.662   9.239  1.1897 -2.2088  1.9704
 2664SOL    HW219626   1.318   0.053   9.222 -3.6136 -0.5857 -2.7875
 2665SOL     OW19627   3.356   0.598  10.074 -0.5294 -0.1985  0.2411
 2665SOL    HW119628   3.302   0.602  10.153  0.3776  1.0178  0.8063
 2665SOL    HW219629   3.423   0.533  10.096 -1.5293 -1.2816  0.0947
 2666SOL     OW19630   1.777   4.395   6.968 -0.8200  0.0560  0.2867
 2666SOL    HW119631   1.846   4.384   7.034 -1.2702 -0.5483  0.6617
 2666SOL    HW219632   1.698   4.419   7.017  0.0656  2.9742  0.2655
 2667SOL     OW19633   4.380   1.001   4.907 -0.4935 -0.0533 -0.1404
 2667SOL    HW119634   4.323   0.947   4.852  1.6583 -2.3071 -0.1418
 2667SOL    HW219635   4.427   1.032   4.829 -0.4207 -0.6591 -0.3375
 2668SOL     OW19636   0.082   1.784   7.123  0.6848  0.0588 -0.6518
 2668SOL    HW119637   0.000   1.793   7.074 -0.2129 -1.1040  0.6328
 2668SOL    HW219638   0.116   1.873   7.116 -1.0175  0.8526  1.3872
 2669SOL     OW19639   1.371   1.888   3.712 -0.1763  0.1155  0.6149
 2669SOL    HW119640   1.280   1.898   3.681  1.0325  2.9222 -2.0041
 2669SOL    HW219641   1.389   1.796   3.694  0.0871  0.5480 -1.2354
 2670SOL     OW19642   2.301   1.225   2.324 -0.0764 -0.7250 -0.2232
 2670SOL    HW119643   2.275   1.221   2.232 -1.6854  2.2439  0.1249
 2670SOL    HW219644   2.236   1.286   2.360 -0.9244 -1.5965 -0.2855
 2671SOL     OW19645   2.388   4.512  10.099 -0.6341 -0.0784  0.4952
 2671SOL    HW119646   2.293   4.504  10.086 -0.4757  0.0813 -0.7321
 2671SOL    HW219647   2.410   4.472  10.183  0.4748  1.2530  0.8336
 2672SOL     OW19648   2.912   2.355   7.851 -0.4052 -0.1488  0.3648
 2672SOL    HW119649   2.854   2.334   7.924 -1.3414  1.8205  0.2069
 2672SOL    HW219650   2.930   2.266   7.821  1.4222  0.3263  0.0216
 2673SOL     OW19651   2.819   3.500   2.713 -0.4030 -0.0102  0.0297
 2673SOL    HW119652   2.911   3.525   2.720 -0.2475 -0.3637 -0.7610
 2673SOL    HW219653   2.776   3.579   2.745  0.2255 -1.3358  4.1253
 2674SOL     OW19654   2.678   1.962  16.396 -0.5377 -0.1605  0.0963
 2674SOL    HW119655   2.682   1.866  16.395 -2.0756 -0.2301  0.5793
 2674SOL    HW219656   2.662   1.983  16.304 -1.8266 -0.6099  0.2099
 2675SOL     OW19657   1.029   3.242  16.293 -0.3877  0.4174 -0.4385
 2675SOL    HW119658   1.070   3.261  16.209 -1.2972  1.1561 -0.7195
 2675SOL    HW219659   1.106   3.216  16.343  0.4701  1.2067 -1.3411
 2676SOL     OW19660   4.422   0.984   4.195  0.2538  0.0681 -0.1262
 2676SOL    HW119661   4.448   1.004   4.105  0.0804  0.2391 -0.1372
 2676SOL    HW219662   4.510   0.966   4.230  0.8920  0.1367 -1.7268
 2677SOL     OW19663   3.400   3.754   5.264 -0.2350 -0.4344 -0.0424
 2677SOL    HW119664   3.430   3.845   5.262  0.4443 -0.7008 -1.4656
 2677SOL    HW219665   3.440   3.719   5.344  0.0657 -0.2124 -0.0986
 2678SOL     OW19666   3.074   1.693   6.878 -0.3742 -0.1231 -0.3351
 2678SOL    HW119667   3.078   1.787   6.863  2.5659 -0.0389  0.9861
 2678SOL    HW219668   2.987   1.672   6.843  0.1723 -0.2870 -1.5761
 2679SOL     OW19669   2.879   3.304  17.077  0.1049  0.2850  0.1251
 2679SOL    HW119670   2.966   3.279  17.046 -0.7799 -0.9538 -1.3437
 2679SOL    HW219671   2.856   3.233  17.135  0.6907  0.5302  0.6630
 2680SOL     OW19672   3.161   1.775   0.999 -0.0303 -0.4128 -0.0136
 2680SOL    HW119673   3.206   1.855   1.027 -0.4867 -0.2720  0.3279
 2680SOL    HW219674   3.195   1.756   0.912 -0.2308  5.0006 -1.2773
 2681SOL     OW19675   0.579   4.036   2.626 -0.0750 -0.1385  0.0443
 2681SOL    HW119676   0.502   4.092   2.620 -1.1671 -1.7313 -1.0105
 2681SOL    HW219677   0.549   3.947   2.607 -1.1881  0.0713  0.8438
 2682SOL     OW19678   3.232   4.121   3.669 -0.1178  0.4444  0.1693
 2682SOL    HW119679   3.266   4.036   3.698 -0.6310  0.0539 -0.3641
 2682SOL    HW219680   3.154   4.106   3.615  0.4573 -1.5044 -0.1244
 2683SOL     OW19681   0.767   1.255   2.882 -0.4885 -0.0756  0.1976
 2683SOL    HW119682   0.758   1.171   2.926  1.2072 -1.2194 -1.6189
 2683SOL    HW219683   0.860   1.274   2.884 -0.3076 -1.1206  1.3223
 2684SOL     OW19684   1.246   2.881   9.303  0.3007 -0.5145  0.1457
 2684SOL    HW119685   1.205   2.848   9.224  0.0559 -0.8758  0.4229
 2684SOL    HW219686   1.172   2.885   9.363 -0.2697 -0.0116 -0.5995
 2685SOL     OW19687   1.723   3.155  14.177  0.0482 -0.6300 -0.0396
 2685SOL    HW119688   1.682   3.153  14.090  0.6332 -1.5470 -0.2866
 2685SOL    HW219689   1.647   3.198  14.218 -1.6106 -1.3883 -2.3418
 2686SOL     OW19690   0.069   4.731   8.484 -0.3955 -0.3840  0.4419
 2686SOL    HW119691   0.137   0.026   8.544 -0.9118 -1.0473  1.3882
 2686SOL    HW219692   0.009   0.068   8.489 -0.1564 -0.2163  0.8396
 2687SOL     OW19693   1.642   0.497  10.855  0.4362  0.1237 -0.3502
 2687SOL    HW119694   1.555   0.477  10.889  1.0413 -0.6982  0.7121
 2687SOL    HW219695   1.674   0.409  10.833 -1.2405  0.2719 -3.3317
 2688SOL     OW19696   0.777   1.122   8.231  0.4534 -0.0108  0.4443
 2688SOL    HW119697   0.799   1.031   8.214 -1.8039 -0.0598 -2.2362
 2688SOL    HW219698   0.840   1.137   8.302  1.0957 -1.1121  0.1074
 2689SOL     OW19699   1.290   3.582   1.800  0.5079  0.4150 -0.0624
 2689SOL    HW119700   1.384   3.598   1.798  0.7355 -0.7045  1.9437
 2689SOL    HW219701   1.269   3.599   1.708  0.1042 -1.9136 -0.4075
 2690SOL     OW19702   0.282   1.786   7.935  0.7879  0.0274  0.0572
 2690SOL    HW119703   0.208   1.726   7.929  0.3582  0.5533  0.0323
 2690SOL    HW219704   0.273   1.811   8.027  0.0550 -1.2389  0.3206
 2691SOL     OW19705   2.403   3.823   7.777 -0.2255 -0.0467 -0.0305
 2691SOL    HW119706   2.389   3.737   7.819  0.5585  0.0082  0.3431
 2691SOL    HW219707   2.492   3.839   7.809 -1.1169  0.3484  2.2593
 2692SOL     OW19708   3.783   4.045   0.912  0.0982  0.2423 -0.3075
 2692SOL    HW119709   3.821   4.118   0.961  1.7802 -0.6819 -0.2405
 2692SOL    HW219710   3.843   4.030   0.839 -0.6355 -0.1200 -0.8368
 2693SOL     OW19711   3.202   1.137   6.412  0.5114 -0.0499 -0.2847
 2693SOL    HW119712   3.144   1.208   6.441  2.0085  0.6320  1.1255
 2693SOL    HW219713   3.250   1.181   6.342  0.4008  0.1438 -0.2393
 2694SOL     OW19714   3.951   2.444  10.241 -0.5067 -0.4949 -0.2289
 2694SOL    HW119715   4.021   2.407  10.295  1.2547 -0.9394 -2.7989
 2694SOL    HW219716   3.952   2.536  10.266 -0.5092 -0.4000 -0.5789
 2695SOL     OW19717   1.354   2.158  10.747 -0.9120 -0.3961 -1.7037
 2695SOL    HW119718   1.345   2.063  10.748  0.3344 -0.5015  1.0648
 2695SOL    HW219719   1.310   2.191  10.669  1.1607 -0.9123 -3.0949
 2696SOL     OW19720   3.791   1.429  13.204 -0.5122 -0.9983  0.1884
 2696SOL    HW119721   3.759   1.350  13.159 -1.1569  0.3855 -1.7644
 2696SOL    HW219722   3.787   1.407  13.297  2.0540  2.7056  1.1611
 2697SOL     OW19723   4.727   0.799   7.922 -0.4541 -0.0512  0.0114
 2697SOL    HW119724   4.716   0.713   7.880  0.4200  1.1084 -2.5781
 2697SOL    HW219725   0.060   0.843   7.875 -1.8602  2.0597 -0.1119
 2698SOL     OW19726   1.557   4.381   5.956  0.2938 -0.1048  0.7870
 2698SOL    HW119727   1.615   4.328   6.011  2.1324  0.6705 -0.4006
 2698SOL    HW219728   1.609   4.399   5.878 -1.3729  2.4375  0.2722
 2699SOL     OW19729   2.848   3.852   7.008 -0.7601 -0.5118  0.4872
 2699SOL    HW119730   2.903   3.855   7.086 -1.2700 -0.0700  0.8316
 2699SOL    HW219731   2.830   3.758   7.007 -0.8215 -0.4821 -2.1219
 2700SOL     OW19732   4.160   0.981  16.237  0.6430 -0.0891  0.6479
 2700SOL    HW119733   4.097   0.957  16.169 -0.7086 -2.2744  2.6703
 2700SOL    HW219734   4.236   0.933  16.207  0.3070 -0.1916 -0.0169
 2701SOL     OW19735   0.423   1.778   4.411 -0.0581 -0.0087  0.0516
 2701SOL    HW119736   0.385   1.794   4.325 -0.4702 -2.5527 -0.2393
 2701SOL    HW219737   0.503   1.727   4.398 -0.1861 -0.0455 -0.5784
 2702SOL     OW19738   0.864   3.474  11.560  0.2443  0.3688  0.6510
 2702SOL    HW119739   0.792   3.429  11.515  1.4727 -0.3838 -0.5620
 2702SOL    HW219740   0.840   3.473  11.652 -0.0110 -1.5795  0.5607
 2703SOL     OW19741   0.263   4.361   2.237 -0.0434 -0.4171 -0.0696
 2703SOL    HW119742   0.317   4.285   2.260 -0.6526 -1.2766 -1.4815
 2703SOL    HW219743   0.292   4.386   2.150 -0.1465 -0.4499 -0.1131
 2704SOL     OW19744   2.632   1.388   7.153 -0.0374 -0.3948  0.2120
 2704SOL    HW119745   2.611   1.480   7.169  0.8616 -0.2237  0.4259
 2704SOL    HW219746   2.658   1.387   7.061 -0.5918  1.6937  0.0306
 2705SOL     OW19747   0.021   4.559   7.449  0.0384  0.1404 -0.0263
 2705SOL    HW119748   0.032   4.591   7.360 -0.8830  0.5093 -0.0142
 2705SOL    HW219749   4.683   4.607   7.485 -0.6519 -0.4625 -0.6605
 2706SOL     OW19750   1.999   2.918   5.492  0.3962  0.3105  0.4175
 2706SOL    HW119751   1.949   2.989   5.452  0.1884  0.7978  1.5470
 2706SOL    HW219752   1.933   2.849   5.483  1.5412 -1.0347  2.4273
 2707SOL     OW19753   0.829   1.615   5.001  0.0116 -0.2362 -0.5152
 2707SOL    HW119754   0.884   1.545   4.967  1.3006  0.3773  0.3274
 2707SOL    HW219755   0.753   1.594   4.947  1.2868 -0.1837 -2.3137
 2708SOL     OW19756   2.767   0.831   7.128 -0.6726 -0.4404  0.1812
 2708SOL    HW119757   2.841   0.892   7.129 -1.0904  0.0742 -0.3382
 2708SOL    HW219758   2.753   0.841   7.222  0.7153  2.7882  0.0335
 2709SOL     OW19759   0.848   3.933   5.259  0.0326  0.1409 -0.1272
 2709SOL    HW119760   0.805   4.015   5.233 -0.5833 -0.4846 -1.0680
 2709SOL    HW219761   0.896   3.971   5.332  2.1032 -1.2877 -0.7603
 2710SOL     OW19762   0.878   1.401   0.116  0.3629 -0.9426  0.4905
 2710SOL    HW119763   0.831   1.476   0.152 -1.4185  0.5934 -4.9537
 2710SOL    HW219764   0.897   1.431   0.027  0.0589  0.1546  0.8084
 2711SOL     OW19765   1.814   0.211   0.340  0.1881 -0.5566  0.0829
 2711SOL    HW119766   1.832   0.225   0.433 -1.3037 -0.1685  0.3147
 2711SOL    HW219767   1.850   0.123   0.330 -2.2433 -1.4899 -0.5615
 2712SOL     OW19768   0.378   1.622   3.195 -0.3927 -0.3645 -0.3941
 2712SOL    HW119769   0.376   1.687   3.125 -0.7654  1.7269  1.5577
 2712SOL    HW219770   0.419   1.542   3.161  2.1909  0.7312  0.2155
 2713SOL     OW19771   2.630   3.840   3.408 -0.1519  0.0428 -0.4032
 2713SOL    HW119772   2.559   3.777   3.416  0.4351 -0.3733  1.4107
 2713SOL    HW219773   2.592   3.908   3.351  1.2132 -0.8452 -2.4013
 2714SOL     OW19774   3.065   3.891   9.786 -0.0863 -0.3135 -0.0328
 2714SOL    HW119775   3.129   3.901   9.715  1.9202 -1.2841  1.6535
 2714SOL    HW219776   3.101   3.943   9.858 -0.3108  0.2400 -0.3199
 2715SOL     OW19777   3.818   1.014   4.116 -0.2183 -0.6554 -0.7432
 2715SOL    HW119778   3.833   0.986   4.026  0.8267 -0.3415 -0.6721
 2715SOL    HW219779   3.845   0.929   4.150 -0.4618 -1.0708 -1.6135
 2716SOL     OW19780   0.156   3.865  10.376  0.4100 -0.0869 -0.3277
 2716SOL    HW119781   0.128   3.949  10.339 -2.5302 -0.5106  0.9052
 2716SOL    HW219782   0.251   3.875  10.382  0.7513 -2.0017 -2.6361
 2717SOL     OW19783   0.333   0.037   8.586  0.2493  0.2129 -0.0170
 2717SOL    HW119784   0.350   0.100   8.516  2.2230  1.0822  1.2494
 2717SOL    HW219785   0.332   0.095   8.663  0.4446  0.6347 -0.3303
 2718SOL     OW19786   1.072   0.445   6.650 -0.1349 -0.2106 -0.3560
 2718SOL    HW119787   1.139   0.511   6.633  1.3871 -1.7690 -0.3310
 2718SOL    HW219788   1.062   0.454   6.745 -2.5657 -1.3312 -0.4960
 2719SOL     OW19789   3.387   0.139   6.122 -0.0492  0.6131  0.2981
 2719SOL    HW119790   3.331   0.175   6.053  1.4817 -0.2345 -1.3850
 2719SOL    HW219791   3.441   0.080   6.070 -2.7831 -0.8164 -0.9246
 2720SOL     OW19792   4.309   3.222  11.739  0.9071  0.2630  0.7503
 2720SOL    HW119793   4.240   3.274  11.781 -0.7397 -1.0325 -0.3501
 2720SOL    HW219794   4.316   3.138  11.784  0.1576 -0.7736 -1.0578
 2721SOL     OW19795   1.925   4.691   4.662  1.1110  0.7327  0.2340
 2721SOL    HW119796   1.990   4.736   4.715  2.3144 -0.6887 -0.0577
 2721SOL    HW219797   1.850   0.014   4.663 -0.6434 -1.4685 -0.0613
 2722SOL     OW19798   4.643   1.259   7.435 -0.2324  0.0536 -0.0284
 2722SOL    HW119799   4.626   1.266   7.529 -2.5541  1.5505 -0.5512
 2722SOL    HW219800   4.713   1.324   7.426 -0.2872  0.1101 -0.0495
 2723SOL     OW19801   1.188   2.513  13.264  0.1450  0.4664  0.3807
 2723SOL    HW119802   1.109   2.559  13.238  0.8401  0.1146 -2.4178
 2723SOL    HW219803   1.160   2.493  13.353  1.1440 -1.9932  0.1548
 2724SOL     OW19804   3.263   1.457   5.456 -0.2132 -0.2043  0.4372
 2724SOL    HW119805   3.304   1.375   5.426 -1.0038 -0.4967  0.1554
 2724SOL    HW219806   3.282   1.526   5.392 -2.2581  0.1495  0.2345
 2725SOL     OW19807   2.174   3.288   9.038 -0.1624 -0.4458 -0.3910
 2725SOL    HW119808   2.138   3.217   9.093  0.6858 -1.0591 -0.6327
 2725SOL    HW219809   2.096   3.319   8.991  0.8274  1.0244 -1.0320
 2726SOL     OW19810   2.392   2.382  13.856  0.0530 -0.1301 -0.4274
 2726SOL    HW119811   2.319   2.394  13.796 -0.8962 -0.7355  0.6149
 2726SOL    HW219812   2.413   2.476  13.860  1.4914 -0.3722 -2.3450
 2727SOL     OW19813   2.106   1.494  11.384  0.3325  0.5384 -0.1184
 2727SOL    HW119814   2.047   1.421  11.367  1.5493  0.1950 -2.8597
 2727SOL    HW219815   2.130   1.538  11.303 -0.5228  1.0519 -0.0937
 2728SOL     OW19816   3.980   3.795  17.733 -0.1023 -0.1118  0.0893
 2728SOL    HW119817   4.051   3.850   0.020 -1.7350  2.0957 -0.0595
 2728SOL    HW219818   4.026   3.732  17.678  0.3162  1.1433 -1.0168
 2729SOL     OW19819   3.621   1.439   7.689 -0.4536 -0.0827  0.7417
 2729SOL    HW119820   3.580   1.494   7.756 -1.6647 -0.6151  0.4297
 2729SOL    HW219821   3.654   1.366   7.742  0.0948 -1.0251 -0.8882
 2730SOL     OW19822   1.014   1.900  11.945 -0.1279 -0.0771 -0.4305
 2730SOL    HW119823   1.020   1.856  12.031  0.4934  1.0241  0.0877
 2730SOL    HW219824   1.068   1.977  11.961 -1.0547  0.2329  1.2583
 2731SOL     OW19825   2.659   2.640   1.821  0.3936  0.3029  0.1750
 2731SOL    HW119826   2.663   2.553   1.782 -0.3542  0.4359 -0.1935
 2731SOL    HW219827   2.702   2.697   1.757  1.6719 -2.7545 -1.6812
 2732SOL     OW19828   3.279   0.076  16.972  0.2307 -0.0176 -0.4553
 2732SOL    HW119829   3.258   0.028  17.052 -1.2079 -0.0806 -0.8750
 2732SOL    HW219830   3.195   0.060  16.929 -1.0315 -0.8720  2.3759
 2733SOL     OW19831   2.839   0.618   6.996  0.2524  0.5621 -0.3342
 2733SOL    HW119832   2.925   0.596   7.031 -0.5894 -1.6553  0.3449
 2733SOL    HW219833   2.815   0.690   7.053 -1.0371 -0.4740  0.4430
 2734SOL     OW19834   0.501   3.803   2.230 -0.1293  0.2687  0.4415
 2734SOL    HW119835   0.510   3.855   2.150 -3.1695  1.6082  0.9687
 2734SOL    HW219836   0.420   3.757   2.207 -1.7271  3.7327 -0.8887
 2735SOL     OW19837   0.661   2.696  11.415 -0.3115  0.2496 -0.5594
 2735SOL    HW119838   0.640   2.606  11.391 -0.8416  0.1729  0.1898
 2735SOL    HW219839   0.615   2.700  11.500 -0.8204  3.5307 -0.9961
 2736SOL     OW19840   4.055   1.000  12.102 -0.6309  0.4604  0.2011
 2736SOL    HW119841   4.136   1.042  12.074 -0.5881  0.3399  0.1464
 2736SOL    HW219842   4.055   1.027  12.193  1.5563  1.3539 -0.0824
 2737SOL     OW19843   2.726   2.624   6.709  0.0691  0.3252  0.4547
 2737SOL    HW119844   2.792   2.663   6.766 -0.4250  0.5548  0.8653
 2737SOL    HW219845   2.655   2.630   6.772 -1.7054  2.8680 -1.7937
 2738SOL     OW19846   0.426   2.586   4.585 -0.3035 -0.2165 -0.3174
 2738SOL    HW119847   0.477   2.525   4.533 -2.5537  0.0287 -2.8221
 2738SOL    HW219848   0.477   2.667   4.583  0.8893 -0.9475  0.4455
 2739SOL     OW19849   4.251   1.079   7.745  0.0331  0.0679 -0.0741
 2739SOL    HW119850   4.180   1.055   7.685 -2.3344  0.1990  2.7006
 2739SOL    HW219851   4.308   1.009   7.713 -0.9888 -1.0233  0.4700
 2740SOL     OW19852   0.020   4.529   2.275  0.2524 -0.3942  0.1411
 2740SOL    HW119853   0.076   4.451   2.273  1.0861  0.1948  0.5538
 2740SOL    HW219854   0.067   4.593   2.221  2.3218  0.2798  2.7063
 2741SOL     OW19855   1.024   3.649   7.710  0.2405 -0.3343  0.4250
 2741SOL    HW119856   0.987   3.671   7.796 -0.6772 -1.5295  0.3184
 2741SOL    HW219857   1.105   3.612   7.745  1.5830  2.0471 -0.1749
 2742SOL     OW19858   3.322   3.401   8.743 -0.4225 -0.1388  0.1739
 2742SOL    HW119859   3.366   3.484   8.728 -2.4787  0.7939 -0.8243
 2742SOL    HW219860   3.394   3.339   8.754 -0.8198 -0.9478 -1.5571
 2743SOL     OW19861   0.350   1.612  16.769  0.1597 -0.0911  0.3589
 2743SOL    HW119862   0.338   1.637  16.860  0.7462 -0.1878  0.4621
 2743SOL    HW219863   0.339   1.701  16.734 -2.1160  0.0170  1.3674
 2744SOL     OW19864   0.995   2.592   9.253  0.3517 -0.7181 -0.1404
 2744SOL    HW119865   0.980   2.507   9.210  0.3160 -0.7948  0.0249
 2744SOL    HW219866   0.927   2.584   9.320  0.0469 -0.8553 -0.4596
 2745SOL     OW19867   4.198   4.500   8.293 -0.0679  0.0200 -0.4604
 2745SOL    HW119868   4.258   4.572   8.270  0.5207 -0.1232  0.6593
 2745SOL    HW219869   4.235   4.424   8.248  2.7992  2.6546 -2.5696
 2746SOL     OW19870   3.662   4.356   7.208  0.2759 -0.0043 -0.4423
 2746SOL    HW119871   3.593   4.349   7.141  0.2140  0.5969 -0.4376
 2746SOL    HW219872   3.622   4.302   7.277  2.8880 -1.6051 -0.2107
 2747SOL     OW19873   1.374   2.873  17.179  0.0532 -1.1449 -0.0906
 2747SOL    HW119874   1.301   2.875  17.241  1.1589 -0.3829  1.1836
 2747SOL    HW219875   1.413   2.787  17.194  0.8112 -0.9767 -1.1087
 2748SOL     OW19876   3.856   2.674   3.904 -0.6067  0.0791  0.5108
 2748SOL    HW119877   3.927   2.712   3.852 -1.3549 -1.2372 -1.4993
 2748SOL    HW219878   3.899   2.626   3.974  1.8670  0.3685 -0.8132
 2749SOL     OW19879   2.433   0.479  12.485  0.2293 -0.4526 -0.0035
 2749SOL    HW119880   2.451   0.389  12.510  1.5448 -0.2448 -0.1975
 2749SOL    HW219881   2.451   0.536  12.560 -0.0553 -1.7871  1.0727
 2750SOL     OW19882   4.043   2.707  15.091 -0.0045  0.0448  0.3903
 2750SOL    HW119883   4.116   2.744  15.140  0.4614 -1.0096  0.4998
 2750SOL    HW219884   4.067   2.615  15.078  0.1943  0.2323 -0.5771
 2751SOL     OW19885   2.625   0.622   3.439  0.0712  0.6745  0.1080
 2751SOL    HW119886   2.688   0.582   3.499  0.5127 -0.6879 -1.2842
 2751SOL    HW219887   2.625   0.559   3.367 -0.5417  0.5064  0.2523
 2752SOL     OW19888   4.381   0.019  16.656  0.0133 -0.1120 -0.2527
 2752SOL    HW119889   4.352   0.001  16.567  0.1016 -2.7849  0.2563
 2752SOL    HW219890   4.420   4.671  16.675  1.1965  0.4101 -0.3490
 2753SOL     OW19891   1.219   0.567   8.340  0.2390  0.4403  0.6278
 2753SOL    HW119892   1.251   0.477   8.344 -0.1152  0.4290  3.7136
 2753SOL    HW219893   1.164   0.564   8.263  0.9826  2.6912 -0.0112
 2754SOL     OW19894   2.139   0.537  16.928  0.0300 -0.0411 -0.1958
 2754SOL    HW119895   2.164   0.626  16.906  0.3582 -0.2868 -0.8479
 2754SOL    HW219896   2.198   0.513  17.000 -1.7656  1.1904  1.6613
 2755SOL     OW19897   4.455   1.691  12.084 -0.1561 -0.0985  0.3413
 2755SOL    HW119898   4.368   1.679  12.046  0.5904 -1.4898 -0.9257
 2755SOL    HW219899   4.477   1.771  12.035 -1.1083 -0.2669 -0.3399
 2756SOL     OW19900   3.076   0.014   4.321  0.0186 -0.0559 -0.1463
 2756SOL    HW119901   3.124   4.694   4.261 -1.7142 -0.3674 -1.2188
 2756SOL    HW219902   2.992   0.017   4.275  0.3764  1.4123 -0.6931
 2757SOL     OW19903   0.296   1.201  17.541 -0.2851 -0.4030  0.3492
 2757SOL    HW119904   0.204   1.226  17.547  0.2770  0.9160  3.6998
 2757SOL    HW219905   0.296   1.174  17.633  2.2270 -2.3114 -0.2096
 2758SOL     OW19906   2.406   0.151   5.645  0.4685 -0.7526  0.0556
 2758SOL    HW119907   2.391   0.217   5.713  1.3704 -1.5159  0.9970
 2758SOL    HW219908   2.494   0.122   5.667  0.7927  1.1483  1.2970
 2759SOL     OW19909   3.219   0.332  10.516  0.1463 -0.2866 -0.0197
 2759SOL    HW119910   3.257   0.418  10.496  0.3213 -0.5468 -0.8071
 2759SOL    HW219911   3.133   0.357  10.551 -0.1968 -1.1076 -0.2795
 2760SOL     OW19912   1.053   4.468   4.035  0.2095  0.0032 -0.0307
 2760SOL    HW119913   0.977   4.518   4.068 -0.6872 -0.4178 -1.4616
 2760SOL    HW219914   1.043   4.383   4.078 -0.3487  0.5900  1.0074
 2761SOL     OW19915   2.866   0.371   4.380 -0.7096  0.5631 -0.0162
 2761SOL    HW119916   2.864   0.458   4.340 -1.1788  0.9360  0.8295
 2761SOL    HW219917   2.915   0.317   4.317  0.0964  0.6577  0.5347
 2762SOL     OW19918   3.106   3.589   1.077 -0.2602  0.2275  0.3484
 2762SOL    HW119919   3.058   3.605   0.995  0.3158 -0.1459 -0.0617
 2762SOL    HW219920   3.197   3.617   1.064  0.0638 -1.7564 -1.5463
 2763SOL     OW19921   1.736   1.281   2.154 -0.5932 -0.4010 -0.1892
 2763SOL    HW119922   1.661   1.318   2.108 -0.8905  1.8018  2.1165
 2763SOL    HW219923   1.737   1.333   2.234 -2.7611 -0.9973  0.2228
 2764SOL     OW19924   0.106   2.416   6.165  0.1565  0.3443  0.4031
 2764SOL    HW119925   0.033   2.457   6.118 -0.6667 -3.3034 -1.5649
 2764SOL    HW219926   0.172   2.482   6.148  0.7707 -0.2589  0.4480
 2765SOL     OW19927   0.323   3.315  15.456 -0.1146 -0.2178 -0.6612
 2765SOL    HW119928   0.271   3.394  15.442 -0.5873 -0.2292  1.0081
 2765SOL    HW219929   0.260   3.243  15.454 -0.3854  0.0338 -1.0563
 2766SOL     OW19930   2.138   4.344  15.148  0.2057 -0.1670 -0.3116
 2766SOL    HW119931   2.214   4.288  15.155 -0.8884 -1.1935  3.2440
 2766SOL    HW219932   2.071   4.280  15.122  0.0149 -0.3451  0.6093
 2767SOL     OW19933   2.018   0.824   6.527  0.4761  0.1553 -0.3839
 2767SOL    HW119934   2.078   0.814   6.601  0.0435 -0.5460 -0.1302
 2767SOL    HW219935   1.972   0.907   6.543  0.4329  0.0289  0.1383
 2768SOL     OW19936   1.768   0.226   0.867 -0.0863 -0.1350  0.4023
 2768SOL    HW119937   1.808   0.197   0.785  1.4450  0.6207  0.8933
 2768SOL    HW219938   1.677   0.207   0.843 -0.6865  0.4527  2.2252
 2769SOL     OW19939   1.792   1.183   2.663  0.3030  0.0133  0.3060
 2769SOL    HW119940   1.843   1.244   2.716 -0.7682  0.8369  0.3861
 2769SOL    HW219941   1.829   1.099   2.690 -2.5131 -1.3680 -0.1210
 2770SOL     OW19942   4.304   0.037  16.021  0.2896 -0.6731  0.2635
 2770SOL    HW119943   4.229   0.087  15.992  2.0121  1.7387 -0.0069
 2770SOL    HW219944   4.349   0.104  16.072  0.8145 -0.0040 -1.0931
 2771SOL     OW19945   1.829   2.610  15.417 -0.2274 -0.3222 -0.2478
 2771SOL    HW119946   1.761   2.558  15.460 -2.2486  1.6581 -1.0453
 2771SOL    HW219947   1.796   2.699  15.428 -1.0365 -0.8389  1.5633
 2772SOL     OW19948   2.237   2.189   3.874  0.1464  0.0841  1.0833
 2772SOL    HW119949   2.313   2.228   3.916  1.3367  0.4390 -1.4351
 2772SOL    HW219950   2.252   2.095   3.890 -0.5197 -0.9007 -4.2542
 2773SOL     OW19951   2.299   0.502  17.154  0.2755 -0.2232  0.5782
 2773SOL    HW119952   2.286   0.427  17.211 -2.3006  0.4609  0.8745
 2773SOL    HW219953   2.251   0.573  17.197  1.2212  1.1145 -0.5652
 2774SOL     OW19954   3.046   0.643   4.017 -0.4409  0.8684  0.5135
 2774SOL    HW119955   3.112   0.711   4.003 -1.8084  1.5024 -2.8353
 2774SOL    HW219956   3.084   0.561   3.987 -0.1485  0.8506  0.9319
 2775SOL     OW19957   3.978   1.254   1.222  0.0830  0.8650  0.4374
 2775SOL    HW119958   4.021   1.219   1.301 -1.6778  1.0726  1.4872
 2775SOL    HW219959   3.969   1.347   1.240 -0.8162  1.1611 -1.5552
 2776SOL     OW19960   3.780   2.338   6.578  0.0126  0.2864 -0.2249
 2776SOL    HW119961   3.823   2.326   6.493  0.7499  1.4908 -0.0183
 2776SOL    HW219962   3.749   2.428   6.585 -3.0597 -1.1172  3.8486
 2777SOL     OW19963   0.999   2.071   6.021 -0.2888  0.2598 -0.7455
 2777SOL    HW119964   0.982   2.008   6.091  1.4488  0.2722 -0.2943
 2777SOL    HW219965   1.071   2.126   6.053  0.6146 -0.4037 -1.6530
 2778SOL     OW19966   4.060   2.903  16.893  0.1163  0.0838  0.4454
 2778SOL    HW119967   4.118   2.976  16.915 -0.5521  0.9761 -0.7355
 2778SOL    HW219968   3.983   2.953  16.921  1.1629  0.6958  2.2391
 2779SOL     OW19969   4.108   0.622   8.978  0.3063 -0.1851  0.1991
 2779SOL    HW119970   4.163   0.545   8.990 -1.8076 -1.8730 -0.7369
 2779SOL    HW219971   4.023   0.581   8.959  1.0667 -0.9368 -1.5758
 2780SOL     OW19972   0.416   2.184   4.696  0.0031  0.1523 -0.0826
 2780SOL    HW119973   0.434   2.162   4.605 -1.1528  1.4155 -0.6159
 2780SOL    HW219974   0.489   2.133   4.732 -0.5504 -1.4119 -1.1868
 2781SOL     OW19975   0.882   4.054   3.717  0.7893  0.1903 -0.0745
 2781SOL    HW119976   0.883   4.127   3.780 -1.8400 -1.3434  1.7777
 2781SOL    HW219977   0.876   4.106   3.637  1.2633 -0.1998 -0.3557
 2782SOL     OW19978   0.054   1.332  17.535 -0.2891  0.2901 -0.1953
 2782SOL    HW119979   0.120   1.401  17.543  1.6578 -1.5039 -0.4618
 2782SOL    HW219980   0.011   1.353  17.453  2.3720  0.0412 -1.6624
 2783SOL     OW19981   3.468   4.448   8.624  0.3209 -0.2982 -0.0289
 2783SOL    HW119982   3.461   4.527   8.571  0.9976 -0.7124 -0.7315
 2783SOL    HW219983   3.545   4.408   8.584  1.8250  1.6510  0.9159
 2784SOL     OW19984   1.331   3.357   5.328 -0.0652  0.0379 -0.3040
 2784SOL    HW119985   1.240   3.364   5.357  0.4181 -1.0663  1.4657
 2784SOL    HW219986   1.322   3.331   5.236  1.7521  0.5849 -0.6367
 2785SOL     OW19987   2.493   4.544  17.537 -0.4917  0.3113  0.0270
 2785SOL    HW119988   2.549   4.469  17.557  0.2898  0.4083 -1.8082
 2785SOL    HW219989   2.499   4.596  17.617 -1.4170 -1.8535  1.5185
 2786SOL     OW19990   1.331   0.882  15.595 -0.0907  0.5379  0.5321
 2786SOL    HW119991   1.377   0.960  15.566  1.4036 -1.2316 -1.9087
 2786SOL    HW219992   1.365   0.808  15.544  0.3681  0.6609  0.6562
 2787SOL     OW19993   0.481   2.029   8.426 -0.0084  0.4184 -0.4877
 2787SOL    HW119994   0.461   2.121   8.410 -3.4207 -0.5252 -1.8600
 2787SOL    HW219995   0.441   1.989   8.348 -0.7615 -1.1437  0.6989
 2788SOL     OW19996   3.892   4.598  10.577  0.3196 -0.2364  0.3033
 2788SOL    HW119997   3.907   4.518  10.627 -1.3647 -1.3075 -0.9231
 2788SOL    HW219998   3.984   4.621  10.564  0.2991 -0.7603 -0.7852
 2789SOL     OW19999   2.832   1.582   6.605  0.2985  0.2830  0.1261
 2789SOL    HW120000   2.909   1.529   6.584 -0.3734  0.0576 -1.8503
 2789SOL    HW220001   2.837   1.648   6.536  0.6274  0.0022 -0.1212
 2790SOL     OW20002   0.126   3.205  14.100 -0.6287 -0.2364  0.4381
 2790SOL    HW120003   0.067   3.133  14.079  0.3441 -1.4627  1.8661
 2790SOL    HW220004   0.170   3.174  14.179 -2.4424  1.2879  2.0718
 2791SOL     OW20005   1.364   1.170  13.300  0.7251 -0.5493  0.2801
 2791SOL    HW120006   1.332   1.151  13.212  0.1280 -3.6972  1.1800
 2791SOL    HW220007   1.309   1.241  13.332  1.7830  0.5413 -0.3172
 2792SOL     OW20008   0.779   3.165   7.264 -0.5651 -0.1424 -0.9070
 2792SOL    HW120009   0.800   3.257   7.247  0.9265 -0.2101  0.4595
 2792SOL    HW220010   0.709   3.149   7.202  0.2856 -0.6177 -1.7415
 2793SOL     OW20011   1.208   2.519   8.207  0.2398 -0.0004 -0.0523
 2793SOL    HW120012   1.205   2.484   8.296 -2.8778  1.7501  0.5319
 2793SOL    HW220013   1.203   2.436   8.160  0.2002 -0.3231  0.5244
 2794SOL     OW20014   2.328   3.859   6.576 -0.1464 -0.0214 -0.0455
 2794SOL    HW120015   2.395   3.888   6.514 -1.3335  0.1595 -1.2336
 2794SOL    HW220016   2.262   3.834   6.512  2.2871  0.0980 -2.5917
 2795SOL     OW20017   2.477   2.539   0.643 -0.1079 -0.0264 -0.6215
 2795SOL    HW120018   2.459   2.450   0.616 -0.3093 -0.1824  0.0286
 2795SOL    HW220019   2.494   2.526   0.736 -0.6322 -1.8863 -0.7965
 2796SOL     OW20020   3.597   1.555   8.233 -0.3938  0.1730 -0.3837
 2796SOL    HW120021   3.583   1.585   8.323 -1.0257  0.7460 -0.6746
 2796SOL    HW220022   3.606   1.638   8.185 -0.2280  0.0775 -0.5169
 2797SOL     OW20023   1.700   3.496   2.758  0.3426  0.1055  0.6205
 2797SOL    HW120024   1.698   3.432   2.829 -0.2920 -0.3593  0.1873
 2797SOL    HW220025   1.780   3.547   2.772 -0.6763  2.0073 -0.4336
 2798SOL     OW20026   4.374   0.431   8.093  0.4349  0.5881  0.4404
 2798SOL    HW120027   4.346   0.520   8.072  2.5946  1.0664 -0.4722
 2798SOL    HW220028   4.461   0.449   8.130 -0.9982 -0.0725  4.0730
 2799SOL     OW20029   0.464   1.275   7.885  0.5649 -0.3093 -0.5675
 2799SOL    HW120030   0.517   1.216   7.938  0.4412  2.0897  2.2375
 2799SOL    HW220031   0.406   1.327   7.940 -1.4581 -1.8154 -1.2749
 2800SOL     OW20032   4.105   0.777   6.582  0.1115  0.0869  0.4550
 2800SOL    HW120033   4.011   0.791   6.569  0.4485  2.1086  0.1420
 2800SOL    HW220034   4.134   0.693   6.546 -2.6165 -0.7231  0.1683
 2801SOL     OW20035   0.236   0.827   6.672 -0.0490 -0.7969 -0.4143
 2801SOL    HW120036   0.169   0.769   6.708 -2.3719  1.7580 -0.7019
 2801SOL    HW220037   0.244   0.771   6.595 -0.9912  0.0619 -1.1275
 2802SOL     OW20038   3.333   4.477   9.327  0.0993 -0.3944 -0.2574
 2802SOL    HW120039   3.277   4.555   9.325  0.0583 -0.4301 -0.5033
 2802SOL    HW220040   3.367   4.490   9.239 -0.9081 -0.1757 -0.6217
 2803SOL     OW20041   1.343   0.308   7.588 -0.3860  0.4611  0.7268
 2803SOL    HW120042   1.373   0.372   7.653 -0.1035  0.8950  0.1684
 2803SOL    HW220043   1.358   0.229   7.640  1.5233  0.2072 -0.2228
 2804SOL     OW20044   2.384   2.024  15.642  0.2593  0.4897  0.2064
 2804SOL    HW120045   2.415   1.934  15.634  1.6888  0.8507  1.6991
 2804SOL    HW220046   2.381   2.040  15.548  1.0885 -1.1933 -0.1095
 2805SOL     OW20047   4.447   2.833   2.128 -0.6673 -0.4047 -0.5217
 2805SOL    HW120048   4.393   2.787   2.065  0.1529  0.9303 -2.2235
 2805SOL    HW220049   4.525   2.779   2.114 -0.8281 -0.7080 -0.2561
 2806SOL     OW20050   4.364   1.276   7.203  0.4851 -0.2712  0.8448
 2806SOL    HW120051   4.293   1.328   7.165  1.6091  0.2268 -0.5628
 2806SOL    HW220052   4.439   1.293   7.146 -0.4512 -1.8435 -0.8761
 2807SOL     OW20053   2.927   4.670  10.060  0.3573  0.1101 -0.1620
 2807SOL    HW120054   2.875   4.704  10.133  0.8945  0.2447  0.1587
 2807SOL    HW220055   2.859   4.615  10.023 -1.9402  1.5897  1.8855
 2808SOL     OW20056   1.152   4.099   6.768 -0.0579 -0.3821  0.0111
 2808SOL    HW120057   1.110   4.152   6.700 -1.8420 -2.5199 -0.5234
 2808SOL    HW220058   1.242   4.092   6.734 -0.2639 -0.1422 -0.5882
 2809SOL     OW20059   2.321   1.100   0.144 -0.1941 -0.5713 -0.1319
 2809SOL    HW120060   2.263   1.156   0.093 -0.9973  0.1698  1.5830
 2809SOL    HW220061   2.378   1.064   0.076  0.0222 -1.3955  0.4853
 2810SOL     OW20062   4.263   0.752   8.248 -0.0264 -0.5931 -0.1996
 2810SOL    HW120063   4.314   0.729   8.171 -0.1127 -1.5965  0.0476
 2810SOL    HW220064   4.172   0.728   8.230  0.4710 -2.2534 -0.5330
 2811SOL     OW20065   4.664   2.660   3.448  0.3969  0.2687  0.7020
 2811SOL    HW120066   0.022   2.647   3.459  0.2286 -1.0826  0.5969
 2811SOL    HW220067   4.655   2.687   3.356  2.9214 -0.1016  0.3236
 2812SOL     OW20068   2.994   4.729   8.694  0.0600  0.0664 -0.1681
 2812SOL    HW120069   2.927   4.700   8.632 -0.2253 -0.2920  0.3129
 2812SOL    HW220070   3.059   4.662   8.670  0.1906  0.0358  0.2792
 2813SOL     OW20071   2.758   3.327  12.818  0.1705 -0.0939  0.4057
 2813SOL    HW120072   2.680   3.316  12.874  0.4980  1.1910  1.1187
 2813SOL    HW220073   2.773   3.421  12.818  0.1508 -0.1058 -2.7539
 2814SOL     OW20074   0.962   0.871   4.841 -0.2301 -0.1744  0.3324
 2814SOL    HW120075   0.902   0.943   4.822  0.5888  0.7342  1.1780
 2814SOL    HW220076   0.945   0.816   4.765  2.9733  0.5245 -0.9023
 2815SOL     OW20077   1.805   1.370   4.580 -0.2996 -0.6873 -0.0797
 2815SOL    HW120078   1.817   1.280   4.549 -2.0657 -1.5843  1.8126
 2815SOL    HW220079   1.844   1.354   4.666  1.3119 -3.1587 -1.2639
 2816SOL     OW20080   2.302   0.875   7.329 -0.3142  1.0136  0.2057
 2816SOL    HW120081   2.317   0.962   7.292  1.7117 -0.0207 -1.4504
 2816SOL    HW220082   2.260   0.835   7.253  0.3015 -1.8792  1.3890
 2817SOL     OW20083   1.181   4.731   1.935 -0.0312  0.8827  0.0986
 2817SOL    HW120084   1.211   0.046   2.009  0.2374 -0.4959  0.9663
 2817SOL    HW220085   1.118   4.669   1.973  1.4292  0.2154  1.4226
 2818SOL     OW20086   3.561   0.211   1.110  0.4832 -0.4334  0.2751
 2818SOL    HW120087   3.497   0.194   1.042 -0.1068  0.6144  0.5737
 2818SOL    HW220088   3.556   0.124   1.151 -1.4262  1.0237  3.1758
 2819SOL     OW20089   4.566   3.089   2.196 -0.6967  0.3329  0.7188
 2819SOL    HW120090   4.530   3.022   2.138  0.6110  0.1245  0.1505
 2819SOL    HW220091   4.498   3.155   2.184 -1.1629  0.1433  2.3791
 2820SOL     OW20092   1.271   0.171   9.751  0.1911 -0.1790 -0.1719
 2820SOL    HW120093   1.276   0.225   9.672 -1.0655 -1.1528 -0.9156
 2820SOL    HW220094   1.231   0.087   9.728 -0.0670  0.2224 -1.1795
 2821SOL     OW20095   2.123   1.134  16.917 -0.3188 -0.4332  0.3803
 2821SOL    HW120096   2.077   1.133  16.833  2.0991  2.0774 -0.9526
 2821SOL    HW220097   2.053   1.135  16.983  0.3241  0.8942  1.0365
 2822SOL     OW20098   2.161   3.183   8.091  0.3993  0.2833  0.0396
 2822SOL    HW120099   2.190   3.234   8.015  0.9317 -0.6948 -0.4035
 2822SOL    HW220100   2.201   3.101   8.063  0.3762  0.7745 -1.4543
 2823SOL     OW20101   2.450   1.834   1.366 -0.8757 -0.0856  0.5488
 2823SOL    HW120102   2.357   1.838   1.347 -1.1576 -2.3184  1.4367
 2823SOL    HW220103   2.453   1.804   1.457 -0.7947  0.1933  0.6404
 2824SOL     OW20104   4.716   0.111   3.351 -0.1657  0.8186 -0.2875
 2824SOL    HW120105   0.022   0.184   3.307  0.3706 -1.4322 -3.5214
 2824SOL    HW220106   0.043   0.084   3.417 -0.1314  0.6364 -0.3937
 2825SOL     OW20107   0.461   2.124   4.445  0.2788  0.0017 -0.0843
 2825SOL    HW120108   0.533   2.123   4.382 -2.0800 -0.4812 -2.7849
 2825SOL    HW220109   0.387   2.127   4.384  0.8838 -0.5769 -0.8501
 2826SOL     OW20110   4.384   4.515  10.409  0.3207 -0.2049  0.4370
 2826SOL    HW120111   4.405   4.496  10.501 -0.4549 -1.4971  0.3448
 2826SOL    HW220112   4.428   4.444  10.363  1.3504  1.5736 -1.3197
 2827SOL     OW20113   2.536   1.638  11.444 -0.4371  0.4510 -0.1511
 2827SOL    HW120114   2.549   1.543  11.440  2.2168  0.8963 -1.8022
 2827SOL    HW220115   2.558   1.659  11.535 -3.7514 -2.2618  1.2632
 2828SOL     OW20116   3.926   1.244   7.525  0.4892  0.2965  0.3210
 2828SOL    HW120117   3.955   1.307   7.591  2.1842  0.4117 -0.5332
 2828SOL    HW220118   3.944   1.163   7.573  1.3839 -0.3701 -1.1483
 2829SOL     OW20119   4.039   2.015   7.758  0.3674 -0.1542  0.2685
 2829SOL    HW120120   4.125   1.980   7.735 -0.0668 -1.8056  1.1149
 2829SOL    HW220121   3.983   1.972   7.693 -0.5198 -0.1154  1.0094
 2830SOL     OW20122   0.249   4.301   6.408  0.1806  0.3289  0.2098
 2830SOL    HW120123   0.268   4.392   6.385 -0.0683  0.8126  1.9609
 2830SOL    HW220124   0.170   4.276   6.360  0.8331 -2.1433  0.4164
 2831SOL     OW20125   1.438   1.442   5.892 -0.5041 -0.4655  0.0779
 2831SOL    HW120126   1.385   1.383   5.945  0.6067 -0.7402  0.8661
 2831SOL    HW220127   1.431   1.525   5.939  2.0272 -0.6077  0.7042
 2832SOL     OW20128   0.158   2.192   9.395 -0.3259 -0.3947  0.2568
 2832SOL    HW120129   0.115   2.266   9.352 -2.4812 -2.5487 -1.3838
 2832SOL    HW220130   0.166   2.140   9.315  0.9547  2.1623 -1.2716
 2833SOL     OW20131   2.038   1.213   2.477  0.4293  0.5694 -0.5705
 2833SOL    HW120132   2.072   1.227   2.565  2.9088 -2.5337 -0.9984
 2833SOL    HW220133   2.005   1.302   2.471 -2.6414 -0.3273  3.0782
 2834SOL     OW20134   0.220   1.345   3.167 -0.0980 -0.0903  0.2792
 2834SOL    HW120135   0.200   1.325   3.075  0.4664 -0.5915  0.2611
 2834SOL    HW220136   0.142   1.398   3.182  0.1646  0.1611  0.7306
 2835SOL     OW20137   0.847   0.948  14.412 -0.3256 -0.0995 -0.3906
 2835SOL    HW120138   0.930   0.997  14.412  0.6369 -1.7324  0.0526
 2835SOL    HW220139   0.839   0.926  14.505  0.8212  1.6502  0.1263
 2836SOL     OW20140   1.260   4.239   0.501  0.1689  0.6964  0.6538
 2836SOL    HW120141   1.271   4.172   0.433 -0.2508  0.4953  0.7857
 2836SOL    HW220142   1.167   4.254   0.485  0.3039  2.1098  1.2243
 2837SOL     OW20143   2.217   1.488  11.691  0.0239  0.6352 -0.5300
 2837SOL    HW120144   2.173   1.482  11.606  1.2097 -0.5532 -1.0495
 2837SOL    HW220145   2.141   1.463  11.743  1.2947  0.4169  1.1949
 2838SOL     OW20146   4.545   3.517  12.397 -0.2900 -0.7089  0.1327
 2838SOL    HW120147   4.511   3.433  12.367  1.4841 -0.6972 -1.8736
 2838SOL    HW220148   4.517   3.579  12.330 -0.1642  0.1224  0.8543
 2839SOL     OW20149   3.218   3.057  10.920  0.7278 -0.6160 -0.2227
 2839SOL    HW120150   3.151   3.055  10.852 -0.4333 -0.7619  0.9140
 2839SOL    HW220151   3.167   3.046  11.001 -0.8831  0.2424 -1.1276
 2840SOL     OW20152   0.067   4.060   6.016 -0.5068  0.3395  0.5365
 2840SOL    HW120153   4.709   4.071   6.026 -0.6333 -0.4075  0.2210
 2840SOL    HW220154   0.090   4.101   5.932  0.3829 -2.1033 -0.4317
 2841SOL     OW20155   2.850   4.325   7.174 -0.0368  0.3649  0.1515
 2841SOL    HW120156   2.846   4.253   7.111 -0.3015  1.1909 -0.7766
 2841SOL    HW220157   2.876   4.396   7.116 -0.7645 -1.2471 -2.1402
 2842SOL     OW20158   3.498   1.106   8.804  0.1021  0.2145 -0.3485
 2842SOL    HW120159   3.432   1.049   8.764 -2.2254  1.8612  1.1036
 2842SOL    HW220160   3.536   1.149   8.728  1.8759  0.4885  0.6993
 2843SOL     OW20161   4.354   0.029   7.937 -0.2417 -0.0660  0.4681
 2843SOL    HW120162   4.338   4.684   7.892  0.2251  0.8688 -1.3961
 2843SOL    HW220163   4.396   0.014   8.022  0.6974  0.3808  0.0874
 2844SOL     OW20164   1.287   1.688  15.452 -0.5969  0.9043 -0.4665
 2844SOL    HW120165   1.296   1.772  15.497  0.6016  0.0752  0.8491
 2844SOL    HW220166   1.348   1.628  15.496 -1.8275 -0.4115 -0.5621
 2845SOL     OW20167   0.685   4.415   7.821  0.7678  0.3496 -0.1811
 2845SOL    HW120168   0.660   4.449   7.906 -0.6398 -0.2101 -0.3668
 2845SOL    HW220169   0.768   4.462   7.812  0.7192  0.4342 -0.1855
 2846SOL     OW20170   0.074   0.139   4.542  0.7934  0.0563 -0.5953
 2846SOL    HW120171   0.030   0.056   4.563  1.2396  0.2332  1.0018
 2846SOL    HW220172   0.069   0.132   4.446  0.4332 -2.2369 -0.4259
 2847SOL     OW20173   2.507   1.642   3.741  0.4142  0.5013  0.2538
 2847SOL    HW120174   2.465   1.721   3.706 -0.2584  0.1297  0.2233
 2847SOL    HW220175   2.525   1.668   3.832  0.9663  0.6570  0.0991
 2848SOL     OW20176   0.690   1.041   6.483  0.0388  0.5381 -0.3774
 2848SOL    HW120177   0.597   1.045   6.459  0.4730 -0.9488 -2.3991
 2848SOL    HW220178   0.690   0.957   6.529  1.5996  1.5005  1.3552
 2849SOL     OW20179   1.398   3.367   3.133 -0.4942  0.5132  0.1805
 2849SOL    HW120180   1.411   3.280   3.095  4.3774  0.6544  1.4914
 2849SOL    HW220181   1.305   3.374   3.111 -0.9379 -3.1403  0.8693
 2850SOL     OW20182   2.583   2.145  15.369 -0.5644  0.3001 -0.2952
 2850SOL    HW120183   2.540   2.165  15.286  0.1650  0.4341 -0.6351
 2850SOL    HW220184   2.549   2.208  15.433  1.1081  1.9459 -1.0388
 2851SOL     OW20185   0.748   0.354   3.684  0.0557 -0.3055 -0.2759
 2851SOL    HW120186   0.742   0.365   3.589 -1.7273  1.2426  0.0227
 2851SOL    HW220187   0.668   0.303   3.696  0.0040  0.3059  1.9843
 2852SOL     OW20188   1.049   2.550   5.810 -0.4796 -0.6401  0.6894
 2852SOL    HW120189   0.958   2.539   5.836 -0.8706  0.3596 -0.2406
 2852SOL    HW220190   1.095   2.478   5.853 -2.1798 -2.1776 -0.0624
 2853SOL     OW20191   4.444   0.222   8.488  0.5570 -0.0924 -0.5644
 2853SOL    HW120192   4.359   0.265   8.473  0.7942  0.8771  0.8610
 2853SOL    HW220193   4.494   0.291   8.444 -1.4778  1.9301  0.2422
 2854SOL     OW20194   1.841   0.863   6.950  0.1550 -0.0206  0.4436
 2854SOL    HW120195   1.837   0.783   7.002 -2.2803 -0.0872  0.1546
 2854SOL    HW220196   1.922   0.906   6.977  0.4654  0.6072 -1.4788
 2855SOL     OW20197   0.772   4.478  14.306 -0.1238 -0.1119 -0.3796
 2855SOL    HW120198   0.755   4.554  14.362 -1.1005 -1.1841  0.7860
 2855SOL    HW220199   0.771   4.402  14.365 -0.3816 -0.3576 -0.6997
 2856SOL     OW20200   2.744   4.412  10.333 -0.1988  0.0230 -0.1734
 2856SOL    HW120201   2.813   4.345  10.335 -1.7357 -1.5540  0.0730
 2856SOL    HW220202   2.795   4.493  10.332 -1.1427  0.5767 -2.6003
 2857SOL     OW20203   1.149   4.038  12.405 -0.1520 -0.6536  0.2214
 2857SOL    HW120204   1.234   3.997  12.389 -0.3033  0.2897 -3.0768
 2857SOL    HW220205   1.104   4.018  12.323 -1.2605 -0.3830  0.7746
 2858SOL     OW20206   3.313   2.841   7.697  0.0607  0.2829 -0.5676
 2858SOL    HW120207   3.292   2.757   7.737 -2.2957 -0.5862 -3.6160
 2858SOL    HW220208   3.400   2.846   7.738 -0.3198  0.2205  0.2335
 2859SOL     OW20209   3.016   0.963   7.688  0.0511  0.5148 -0.0042
 2859SOL    HW120210   3.052   1.036   7.638  0.4310  0.3232 -0.0008
 2859SOL    HW220211   2.926   0.996   7.696 -0.6235 -1.3091 -0.0704
 2860SOL     OW20212   2.128   3.234   1.120  0.5809  0.1447 -0.3064
 2860SOL    HW120213   2.085   3.165   1.069 -1.4885  1.1086  0.1406
 2860SOL    HW220214   2.136   3.195   1.207 -1.1210 -0.2174 -0.3102
 2861SOL     OW20215   0.622   1.680  11.443  0.4766  0.2850 -0.0244
 2861SOL    HW120216   0.543   1.672  11.389  0.4626 -0.1781  0.0631
 2861SOL    HW220217   0.687   1.672  11.373 -1.5599 -1.6447 -1.7085
 2862SOL     OW20218   3.369   1.612   1.263  0.0311  0.1123  0.1111
 2862SOL    HW120219   3.384   1.543   1.328 -0.6114  0.9645  1.1545
 2862SOL    HW220220   3.292   1.571   1.223 -1.1425 -0.0671  2.6012
 2863SOL     OW20221   4.214   1.601   7.583 -0.0015 -0.2672  0.3003
 2863SOL    HW120222   4.289   1.656   7.564  0.3030 -0.3068  1.3865
 2863SOL    HW220223   4.237   1.538   7.514 -0.2474  0.4595 -0.4384
 2864SOL     OW20224   0.205   0.165   7.326 -0.2165 -0.4903  0.3408
 2864SOL    HW120225   0.297   0.163   7.352  0.1271 -0.4628 -0.8624
 2864SOL    HW220226   0.191   0.234   7.261  3.1926  1.1858  1.3415
 2865SOL     OW20227   4.512   1.478   8.766 -0.0461  0.2553  0.1033
 2865SOL    HW120228   4.466   1.561   8.757 -0.6468 -0.0933 -0.0191
 2865SOL    HW220229   4.464   1.420   8.707 -1.2451  1.4474 -0.0850
 2866SOL     OW20230   2.456   0.020   0.545 -0.4211 -1.2796  0.4827
 2866SOL    HW120231   2.506   0.049   0.468  0.8578 -1.4649  1.2402
 2866SOL    HW220232   2.399   4.694   0.501 -0.4621  0.9434 -2.6347
 2867SOL     OW20233   3.260   1.698   5.274  0.4255 -0.0771  0.1910
 2867SOL    HW120234   3.176   1.736   5.303 -0.3505  0.2583 -2.5526
 2867SOL    HW220235   3.249   1.668   5.184  0.8227  1.6533 -0.4273
 2868SOL     OW20236   3.611   2.995  14.018 -0.5978  0.0119 -0.3111
 2868SOL    HW120237   3.527   3.039  14.005 -0.6947 -0.8908 -2.8076
 2868SOL    HW220238   3.586   2.914  13.974 -1.9661 -0.2994  1.0593
 2869SOL     OW20239   3.295   1.887   4.866 -0.2338  0.3198 -0.1175
 2869SOL    HW120240   3.318   1.978   4.887 -0.3313  0.4001 -0.3493
 2869SOL    HW220241   3.361   1.848   4.923 -0.7040 -1.9589 -1.1314
 2870SOL     OW20242   4.543   2.678   7.406 -0.5703  0.4096 -0.6221
 2870SOL    HW120243   4.580   2.704   7.322  0.8047 -0.0929 -0.1675
 2870SOL    HW220244   4.453   2.657   7.382 -0.9860  2.4362 -0.8759
 2871SOL     OW20245   3.568   1.918   5.426  0.4670 -0.1144 -0.1968
 2871SOL    HW120246   3.649   1.937   5.474 -0.5791  0.7257  1.2490
 2871SOL    HW220247   3.518   1.992   5.461  0.0660 -1.1268  1.3775
 2872SOL     OW20248   2.739   0.378   0.421 -0.5060 -0.3438  0.2587
 2872SOL    HW120249   2.665   0.319   0.410 -0.5493 -0.7322  2.6316
 2872SOL    HW220250   2.698   0.453   0.465 -0.5156 -0.3045  0.1833
 2873SOL     OW20251   3.676   3.349  10.847 -0.1158 -0.0229 -0.2481
 2873SOL    HW120252   3.707   3.283  10.909  2.5339  1.3001 -0.1924
 2873SOL    HW220253   3.598   3.308  10.810 -1.8629  0.8526  2.4697
 2874SOL     OW20254   1.513   4.300  14.861 -0.5120  0.5541 -0.0393
 2874SOL    HW120255   1.493   4.208  14.847 -2.9004  0.8198  1.4558
 2874SOL    HW220256   1.582   4.328  14.801 -0.7940 -2.4458 -1.7476
 2875SOL     OW20257   2.871   1.016   1.948 -0.4084  0.1162 -0.3301
 2875SOL    HW120258   2.916   0.944   1.992  0.2077  1.5863  1.4759
 2875SOL    HW220259   2.793   0.977   1.910 -0.8249  0.2853  0.3485
 2876SOL     OW20260   0.747   3.729   2.279  0.5405  0.1452 -0.1576
 2876SOL    HW120261   0.706   3.642   2.283 -1.1826  0.9304 -0.4131
 2876SOL    HW220262   0.665   3.778   2.282  0.7257  0.3077  3.1084
 2877SOL     OW20263   1.694   3.559   4.876 -0.0130 -0.0362  0.4741
 2877SOL    HW120264   1.740   3.553   4.960 -0.1235  3.1589  0.7390
 2877SOL    HW220265   1.665   3.650   4.871  0.4556  0.0251 -0.9018
 2878SOL     OW20266   0.343   4.623   4.829  0.4988 -0.4926  0.0863
 2878SOL    HW120267   0.302   4.706   4.852  1.5470  0.0180  0.1339
 2878SOL    HW220268   0.436   4.644   4.828  1.0108 -2.7852 -0.6381
 2879SOL     OW20269   4.644   0.253   2.870 -0.7181 -0.2090 -0.3769
 2879SOL    HW120270   4.575   0.267   2.936  0.3153 -1.0370  0.8815
 2879SOL    HW220271   4.591   0.252   2.791 -1.1778  1.1596 -0.0860
 2880SOL     OW20272   2.428   2.610   6.817 -0.3794  0.1259 -0.1458
 2880SOL    HW120273   2.402   2.698   6.788 -2.2702 -0.4904 -0.2737
 2880SOL    HW220274   2.365   2.557   6.768  0.9578 -2.2532  0.6959
 2881SOL     OW20275   0.995   1.554   4.443  0.5838 -0.1452  0.5254
 2881SOL    HW120276   1.000   1.633   4.390 -0.7231  0.4455  1.2817
 2881SOL    HW220277   1.080   1.513   4.426  0.4483 -0.9009  1.6753
 2882SOL     OW20278   4.194   2.854   7.512  0.4568 -0.4034 -0.6465
 2882SOL    HW120279   4.285   2.862   7.483  0.5118  0.1549 -0.3373
 2882SOL    HW220280   4.175   2.762   7.495 -1.1131  0.1185 -1.5899
 2883SOL     OW20281   0.316   1.901   3.070 -0.6133  0.9411 -0.0069
 2883SOL    HW120282   0.287   1.972   3.013  2.4325  2.1343 -0.0644
 2883SOL    HW220283   0.339   1.963   3.139 -0.5127  1.6390 -0.6689
 2884SOL     OW20284   2.813   4.505   1.323 -0.1089 -0.3480 -0.0442
 2884SOL    HW120285   2.831   4.416   1.354  0.9455  0.4809  1.7060
 2884SOL    HW220286   2.874   4.534   1.255  1.4534 -0.1192  1.4679
 2885SOL     OW20287   3.628   4.097   7.614 -0.5357  0.4518  0.3446
 2885SOL    HW120288   3.606   4.168   7.554 -0.0135  0.9089  0.7032
 2885SOL    HW220289   3.550   4.040   7.614  0.3627 -0.7466  3.5174
 2886SOL     OW20290   2.676   3.568   3.078 -0.2278  0.0216 -0.4464
 2886SOL    HW120291   2.607   3.562   3.144 -0.4304 -0.3392 -0.6901
 2886SOL    HW220292   2.651   3.650   3.034  0.9997  0.7826  0.2544
 2887SOL     OW20293   3.324   3.305   5.381  0.1666  0.8312 -0.1036
 2887SOL    HW120294   3.302   3.383   5.431  0.0895  0.8541 -0.1713
 2887SOL    HW220295   3.338   3.233   5.443  0.4174  1.9181  1.0957
 2888SOL     OW20296   2.908   2.414   0.988  0.5968 -0.7273  0.3092
 2888SOL    HW120297   2.929   2.479   1.055  1.0085  0.3100 -0.8102
 2888SOL    HW220298   2.960   2.338   1.015  0.2760 -0.1365  2.6017
 2889SOL     OW20299   4.023   4.213  12.038 -0.3534 -0.6485  0.0293
 2889SOL    HW120300   3.991   4.289  12.087 -0.5313  0.6871 -2.1109
 2889SOL    HW220301   4.014   4.145  12.104  0.2924 -1.6840 -0.9527
 2890SOL     OW20302   2.723   2.334  12.484  0.0170 -0.3643 -0.4296
 2890SOL    HW120303   2.680   2.415  12.457  2.0488  0.8422 -0.0218
 2890SOL    HW220304   2.656   2.266  12.494 -0.6980  0.5774  1.2263
 2891SOL     OW20305   4.360   2.539   7.677  0.6507  0.3355 -0.2282
 2891SOL    HW120306   4.317   2.539   7.592  0.3537 -3.7986 -0.0826
 2891SOL    HW220307   4.368   2.445   7.696  1.5671  0.6326  0.8142
 2892SOL     OW20308   4.374   2.712   6.976 -0.3578  0.0908 -0.7919
 2892SOL    HW120309   4.380   2.677   6.887  0.1154  0.6181 -0.9682
 2892SOL    HW220310   4.369   2.628   7.021 -3.1475  1.8893  2.3568
 2893SOL     OW20311   3.235   4.412   6.095 -0.0856  0.5355  0.2743
 2893SOL    HW120312   3.312   4.368   6.061  0.4348  0.5774  1.3938
 2893SOL    HW220313   3.196   4.350   6.157 -0.5668 -1.6957 -2.2708
 2894SOL     OW20314   0.509   3.617   7.603 -0.0048  0.3945 -0.0429
 2894SOL    HW120315   0.522   3.545   7.542 -0.3601  0.7546 -0.5484
 2894SOL    HW220316   0.441   3.671   7.563  0.6319  0.4323 -1.0725
 2895SOL     OW20317   3.133   1.482   8.496 -0.0872  0.1605 -0.2768
 2895SOL    HW120318   3.101   1.456   8.582 -2.8158  0.6970 -1.1522
 2895SOL    HW220319   3.194   1.409   8.484  0.0558 -0.1134  2.1112
 2896SOL     OW20320   3.110   1.708   7.474 -0.1675  0.6025 -0.2139
 2896SOL    HW120321   3.114   1.707   7.379 -2.5680  0.1730 -0.3085
 2896SOL    HW220322   3.018   1.698   7.497  0.0018  0.8279  0.5673
 2897SOL     OW20323   3.556   1.997   7.438 -0.0530  0.6194 -0.1913
 2897SOL    HW120324   3.464   1.992   7.410  0.1153 -0.0391 -0.6287
 2897SOL    HW220325   3.534   2.027   7.526  2.4629 -1.5576  1.1606
 2898SOL     OW20326   0.104   3.734   3.039 -0.7313 -0.2513  0.3764
 2898SOL    HW120327   0.077   3.668   3.102 -0.5034  0.5844  1.3539
 2898SOL    HW220328   0.020   3.763   3.002 -0.0789  1.0771 -0.0449
 2899SOL     OW20329   0.752   2.275   2.089 -0.5271 -0.5378  0.4208
 2899SOL    HW120330   0.735   2.192   2.133 -0.8322  0.4486  2.1423
 2899SOL    HW220331   0.708   2.337   2.147  1.1787 -0.0776  1.2190
 2900SOL     OW20332   0.126   4.079   2.461 -0.0750 -0.1374 -0.1610
 2900SOL    HW120333   0.062   4.147   2.437 -1.4215 -2.2309 -2.4876
 2900SOL    HW220334   0.132   4.021   2.386 -0.4928  1.8703 -1.7560
 2901SOL     OW20335   3.995   0.471   2.609  0.1056  0.0258  0.1195
 2901SOL    HW120336   4.033   0.548   2.649  0.0627 -0.0407  0.2865
 2901SOL    HW220337   3.981   0.422   2.690  0.1127 -1.0380 -0.5197
 2902SOL     OW20338   3.658   2.568  11.928 -0.1383  0.0627 -0.2122
 2902SOL    HW120339   3.636   2.504  11.995  0.4888  1.6112  1.4684
 2902SOL    HW220340   3.736   2.607  11.966 -0.5565  0.9316 -0.2375
 2903SOL     OW20341   3.420   3.660   4.156  0.2174  0.0160  0.4315
 2903SOL    HW120342   3.481   3.587   4.140  0.0753 -0.1118  0.4704
 2903SOL    HW220343   3.472   3.740   4.148 -0.2457  0.2659 -0.0887
 2904SOL     OW20344   1.329   0.394   0.070  0.1467 -0.0016 -0.0505
 2904SOL    HW120345   1.396   0.327   0.086 -0.0707 -0.3109 -0.4472
 2904SOL    HW220346   1.304   0.405   0.162 -1.0794  0.3138 -0.4309
 2905SOL     OW20347   2.587   1.946   3.845  0.4436 -0.0434  0.1046
 2905SOL    HW120348   2.666   1.928   3.793  0.1749  0.7777 -0.5936
 2905SOL    HW220349   2.542   2.009   3.789  1.1424  0.8049  0.4813
 2906SOL     OW20350   2.106   2.894   5.226  0.6394  0.3684  0.0600
 2906SOL    HW120351   2.016   2.910   5.199  0.6992 -1.7750 -1.4205
 2906SOL    HW220352   2.091   2.891   5.320  1.2568 -0.5694  0.1242
 2907SOL     OW20353   0.673   2.250   2.561  0.7600  0.1432 -0.2099
 2907SOL    HW120354   0.713   2.166   2.537 -2.2671 -1.7135  1.1435
 2907SOL    HW220355   0.641   2.293   2.482 -3.6140 -1.3724  0.6959
 2908SOL     OW20356   2.092   4.145   6.257 -0.6393 -0.1897 -0.0549
 2908SOL    HW120357   2.063   4.128   6.346 -0.8643 -2.1045 -0.4922
 2908SOL    HW220358   2.076   4.065   6.207 -0.6616  0.2371 -0.7260
 2909SOL     OW20359   1.630   4.275   7.506 -0.0327 -0.0203  0.1777
 2909SOL    HW120360   1.567   4.279   7.434  0.2816  1.2441 -0.0190
 2909SOL    HW220361   1.582   4.326   7.571  0.8599  0.1238  0.7165
 2910SOL     OW20362   3.783   2.941   6.312  0.1135 -0.7343 -0.3015
 2910SOL    HW120363   3.697   2.903   6.297 -0.9601  1.7715 -0.5048
 2910SOL    HW220364   3.825   2.863   6.348 -1.1336 -1.8591 -1.2948
 2911SOL     OW20365   3.253   0.681  12.018 -0.0236 -0.1835 -0.0670
 2911SOL    HW120366   3.212   0.596  12.002 -1.2818 -0.1463  2.9950
 2911SOL    HW220367   3.343   0.658  11.996 -0.2137 -1.6919  0.7706
 2912SOL     OW20368   0.085   2.347   8.286  0.3819 -0.0521 -0.1243
 2912SOL    HW120369   0.114   2.433   8.315 -0.7220  1.0736 -2.3348
 2912SOL    HW220370   0.061   2.368   8.196  0.6784 -0.1088 -0.2173
 2913SOL     OW20371   4.309   3.235   5.111 -0.1012  0.1103 -0.7979
 2913SOL    HW120372   4.350   3.307   5.159 -0.4127  0.6272 -1.3046
 2913SOL    HW220373   4.372   3.212   5.042  0.0791 -2.1527  0.1338
 2914SOL     OW20374   2.329   3.278  15.072 -0.2180 -0.1232 -1.0313
 2914SOL    HW120375   2.400   3.223  15.105 -1.1541 -0.0028  1.2033
 2914SOL    HW220376   2.351   3.294  14.980 -1.0651  0.3557 -1.1433
 2915SOL     OW20377   1.297   1.143   5.279  0.5558  0.1756  1.0300
 2915SOL    HW120378   1.364   1.130   5.346  0.6761  1.7115  1.1988
 2915SOL    HW220379   1.232   1.187   5.334  2.3661  2.8574  1.0114
 2916SOL     OW20380   0.488   2.088   3.837 -0.3493  0.6256  0.4144
 2916SOL    HW120381   0.464   2.180   3.824  1.9615  1.2105  0.2093
 2916SOL    HW220382   0.402   2.050   3.854 -0.6847  1.4028  0.4351
 2917SOL     OW20383   3.302   3.198   6.699 -0.0405 -0.3004 -0.0269
 2917SOL    HW120384   3.224   3.155   6.666  1.3604 -1.2068 -2.1379
 2917SOL    HW220385   3.269   3.270   6.753 -2.6141 -2.1331  0.8492
 2918SOL     OW20386   4.606   2.635   6.354 -0.3742 -0.0460  0.6661
 2918SOL    HW120387   4.550   2.566   6.389 -2.4483  0.8541 -0.8557
 2918SOL    HW220388   4.682   2.615   6.408  0.5916  0.4630 -0.5102
 2919SOL     OW20389   2.804   3.997  15.950 -0.3305 -0.1214 -0.2881
 2919SOL    HW120390   2.762   3.954  15.876  2.0903 -2.9972  0.0243
 2919SOL    HW220391   2.895   4.006  15.920 -0.1575  2.7795  1.1109
 2920SOL     OW20392   2.646   0.753   1.297  0.0080 -0.2619  0.3183
 2920SOL    HW120393   2.582   0.686   1.271 -0.5404  0.5512 -0.4267
 2920SOL    HW220394   2.617   0.826   1.242 -1.3535 -0.7014  0.4319
 2921SOL     OW20395   0.572   4.086   2.998  0.3613 -0.3647 -0.0648
 2921SOL    HW120396   0.479   4.093   3.017  0.5005  0.4007  0.3397
 2921SOL    HW220397   0.602   4.122   3.081 -0.4534  0.6017 -0.1930
 2922SOL     OW20398   3.137   2.632   4.059 -0.3973 -0.3897 -0.8113
 2922SOL    HW120399   3.069   2.696   4.082  1.4513  0.4725  2.3327
 2922SOL    HW220400   3.216   2.682   4.078  0.3464 -1.8744  0.0033
 2923SOL     OW20401   2.929   1.973  10.587 -0.2341  0.1975 -0.0766
 2923SOL    HW120402   2.899   1.898  10.639 -0.4857 -0.3802 -1.0586
 2923SOL    HW220403   2.947   2.034  10.659  0.1555 -1.5886  1.3620
 2924SOL     OW20404   2.082   3.970   5.414 -0.3722 -0.0347  0.0541
 2924SOL    HW120405   2.050   4.008   5.332  2.1053 -1.0122 -1.3301
 2924SOL    HW220406   2.095   3.877   5.397 -1.0219  0.0615 -0.9783
 2925SOL     OW20407   0.120   3.701   0.450  0.2088  0.1745  0.0381
 2925SOL    HW120408   0.149   3.645   0.522 -0.8680  0.4513  0.6888
 2925SOL    HW220409   0.031   3.725   0.476  0.5335  0.9794  0.4213
 2926SOL     OW20410   2.118   3.023   5.728 -0.4458 -0.3008 -0.1529
 2926SOL    HW120411   2.137   3.116   5.716  2.3798 -0.9066 -0.4210
 2926SOL    HW220412   2.035   3.020   5.681 -0.6075 -0.6374  0.1627
 2927SOL     OW20413   1.604   3.023  17.232 -0.0917  0.0713  0.8329
 2927SOL    HW120414   1.514   3.004  17.260  0.0494  0.3556  1.4674
 2927SOL    HW220415   1.615   2.976  17.149  1.7021  1.8408  0.0771
 2928SOL     OW20416   2.903   3.622   7.364 -0.2635  0.6043  0.7351
 2928SOL    HW120417   2.975   3.679   7.336  1.6379 -2.5601 -0.7766
 2928SOL    HW220418   2.823   3.676   7.363 -0.4183  0.3565 -1.5582
 2929SOL     OW20419   1.119   1.387  15.698 -0.0486  0.3874  0.1179
 2929SOL    HW120420   1.171   1.395  15.618  1.2258 -0.7325  0.8316
 2929SOL    HW220421   1.178   1.326  15.742 -1.3598 -1.5276 -0.8046
 2930SOL     OW20422   4.229   4.713   8.723 -0.8232 -0.1717 -0.2562
 2930SOL    HW120423   4.150   4.679   8.681 -1.3687  0.1609  0.4964
 2930SOL    HW220424   4.271   4.628   8.739 -0.8372 -0.6144 -2.6159
 2931SOL     OW20425   2.200   4.100  15.011 -0.2646  0.0109  0.2732
 2931SOL    HW120426   2.226   4.078  14.922 -0.9075  1.4565 -0.2599
 2931SOL    HW220427   2.107   4.080  15.014 -0.1387 -0.8489 -2.1328
 2932SOL     OW20428   3.777   4.674  15.266 -0.2271  0.5495  0.4454
 2932SOL    HW120429   3.778   0.031  15.247  0.8062  0.6043  0.7592
 2932SOL    HW220430   3.692   4.646  15.231  0.7017 -2.8764  0.9916
 2933SOL     OW20431   3.583   1.951   4.970 -0.2800  0.9097 -0.1066
 2933SOL    HW120432   3.649   1.882   4.962 -1.0968  0.0591  0.5324
 2933SOL    HW220433   3.599   1.981   5.059  1.3082 -0.0505 -0.0682
 2934SOL     OW20434   4.069   3.410  10.011  0.0099 -0.2879 -0.2971
 2934SOL    HW120435   4.114   3.469  10.071 -3.7585  2.5347 -0.1765
 2934SOL    HW220436   4.116   3.437   9.933 -1.4756 -0.0852 -1.1343
 2935SOL     OW20437   3.491   2.137   8.443 -0.1111  0.0118  0.0787
 2935SOL    HW120438   3.546   2.214   8.462 -0.5343  0.5249 -0.7939
 2935SOL    HW220439   3.493   2.080   8.520 -0.9054  0.3102  0.3192
 2936SOL     OW20440   0.837   4.311   6.073  0.2106  0.0495  0.2373
 2936SOL    HW120441   0.877   4.272   5.995 -3.5911 -2.5328 -0.4199
 2936SOL    HW220442   0.857   4.238   6.133  0.6109  0.2322  0.3270
 2937SOL     OW20443   0.551   2.790   2.458  0.2559  0.7198  0.4210
 2937SOL    HW120444   0.472   2.794   2.404  0.1776 -0.0483  0.4738
 2937SOL    HW220445   0.576   2.879   2.481 -0.3328  1.5815 -2.3708
 2938SOL     OW20446   1.056   2.430   9.557 -0.4549 -0.0866 -0.4860
 2938SOL    HW120447   1.055   2.457   9.649  0.5399 -0.3756 -0.3912
 2938SOL    HW220448   0.996   2.491   9.514  0.1240  0.3113 -0.7217
 2939SOL     OW20449   0.868   1.953   3.302  0.2966  0.7901  0.1681
 2939SOL    HW120450   0.856   1.858   3.299  0.0574  0.7780  1.5507
 2939SOL    HW220451   0.893   1.952   3.394  0.2865  0.5474  0.1676
 2940SOL     OW20452   2.759   2.432   1.427 -0.0242 -0.3812 -0.9550
 2940SOL    HW120453   2.704   2.412   1.350  0.5557 -1.5240 -1.0820
 2940SOL    HW220454   2.837   2.379   1.413 -1.1312 -2.0072 -1.1128
 2941SOL     OW20455   2.915   3.495  17.320 -0.4109 -0.2543  0.0669
 2941SOL    HW120456   2.874   3.421  17.275 -1.8963  0.4232  0.3021
 2941SOL    HW220457   3.005   3.470  17.302  0.8820  2.7459  2.4732
 2942SOL     OW20458   1.028   2.988   2.287  0.3043 -0.2183  0.3535
 2942SOL    HW120459   1.059   2.901   2.262  0.5138 -0.2205  0.6150
 2942SOL    HW220460   1.098   3.044   2.255 -2.2522  2.2586 -0.8721
 2943SOL     OW20461   2.050   2.822  10.177 -0.2125 -0.1339 -0.1613
 2943SOL    HW120462   1.975   2.847  10.230  1.4874  2.1932  1.1551
 2943SOL    HW220463   2.085   2.747  10.224  1.2749 -0.6174 -2.0214
 2944SOL     OW20464   1.632   3.060   6.270  0.7051 -0.3867 -0.1393
 2944SOL    HW120465   1.635   3.151   6.300 -2.1030 -0.0985 -0.7362
 2944SOL    HW220466   1.637   3.081   6.176 -0.0039  1.2714  0.1896
 2945SOL     OW20467   0.704   4.022   7.261 -0.6232 -0.3626 -0.4129
 2945SOL    HW120468   0.740   3.966   7.193  1.0701  0.0173  0.1831
 2945SOL    HW220469   0.662   4.090   7.209 -1.1535 -0.0311  0.4339
 2946SOL     OW20470   0.439   0.779   9.663 -0.1971 -0.5732  0.0502
 2946SOL    HW120471   0.528   0.748   9.677  0.0566  0.4962  0.8200
 2946SOL    HW220472   0.447   0.817   9.576  0.7182 -1.1942 -0.1345
 2947SOL     OW20473   1.071   0.449   0.349 -0.0720  0.3375 -0.3264
 2947SOL    HW120474   1.065   0.354   0.346  0.1495  0.3519 -1.1820
 2947SOL    HW220475   1.162   0.463   0.373  0.4485 -0.0757 -2.0674
 2948SOL     OW20476   0.360   4.192  12.233 -0.3578  0.5565  0.1951
 2948SOL    HW120477   0.285   4.142  12.202  0.1944  0.4037 -0.8994
 2948SOL    HW220478   0.372   4.160  12.323  0.5404 -0.2830 -0.2190
 2949SOL     OW20479   4.183   1.334  13.602 -0.5200  0.2144 -0.0755
 2949SOL    HW120480   4.232   1.316  13.683  0.4859  1.1520 -0.4763
 2949SOL    HW220481   4.224   1.419  13.583  0.5999 -0.2339  0.3172
 2950SOL     OW20482   1.194   1.351   7.126 -0.3335  0.6751 -0.0315
 2950SOL    HW120483   1.115   1.404   7.138 -1.7496 -1.0895 -1.6837
 2950SOL    HW220484   1.212   1.391   7.041 -2.9775  0.9048 -0.4722
 2951SOL     OW20485   4.332   3.261   4.648  0.4192 -0.1811 -0.2478
 2951SOL    HW120486   4.257   3.201   4.646 -0.2724  0.5907  3.0301
 2951SOL    HW220487   4.361   3.253   4.739  1.9107  1.9096 -0.5529
 2952SOL     OW20488   4.442   2.634  12.781  0.2173  0.4698 -0.0968
 2952SOL    HW120489   4.366   2.674  12.737  0.7897 -1.6414 -3.0115
 2952SOL    HW220490   4.407   2.611  12.867 -0.3439  0.7373 -0.2486
 2953SOL     OW20491   1.094   3.320   8.852  0.3327 -0.0042  0.0623
 2953SOL    HW120492   1.151   3.390   8.882  0.1760  0.0314  0.2743
 2953SOL    HW220493   1.080   3.345   8.760  0.5741 -2.3251 -0.6270
 2954SOL     OW20494   1.988   0.669   0.464 -0.2402 -0.1666 -0.4914
 2954SOL    HW120495   1.984   0.762   0.484 -1.6631 -0.0939 -1.1329
 2954SOL    HW220496   2.002   0.626   0.548 -1.1228 -2.0749 -1.3049
 2955SOL     OW20497   4.499   1.699   7.873 -0.2211  0.1950  0.3258
 2955SOL    HW120498   4.458   1.613   7.866 -1.1780  0.7200 -0.5599
 2955SOL    HW220499   4.527   1.695   7.965  0.6016 -1.1714  0.0118
 2956SOL     OW20500   2.832   4.220  14.571  0.4900  0.4544 -0.1084
 2956SOL    HW120501   2.781   4.250  14.496  1.2939 -1.2443 -1.3324
 2956SOL    HW220502   2.888   4.297  14.581  2.8541 -1.4238  1.0874
 2957SOL     OW20503   1.148   3.876   7.416 -0.1608 -0.3903  0.0389
 2957SOL    HW120504   1.191   3.953   7.455 -1.2854 -0.3260  1.1718
 2957SOL    HW220505   1.063   3.870   7.460  0.5526 -0.5043  1.4237
 2958SOL     OW20506   3.440   1.902   7.025 -0.4338 -0.4862  0.2747
 2958SOL    HW120507   3.484   1.983   7.051  1.1651 -1.9884  2.2672
 2958SOL    HW220508   3.489   1.871   6.949  0.5965  2.0991 -0.1212
 2959SOL     OW20509   2.584   1.409   1.349  0.0490  0.0814  0.0433
 2959SOL    HW120510   2.625   1.331   1.310 -1.5932 -0.7179 -0.0781
 2959SOL    HW220511   2.629   1.467   1.288  1.8403 -0.0736  1.2214
 2960SOL     OW20512   4.197   2.654  14.410  0.0463  0.2243  0.4992
 2960SOL    HW120513   4.179   2.569  14.449 -1.5084  0.1760 -0.3306
 2960SOL    HW220514   4.116   2.703  14.426  1.6847  2.6742  1.4214
 2961SOL     OW20515   2.549   3.789  16.556 -0.1023  0.2722  0.1282
 2961SOL    HW120516   2.574   3.811  16.467 -1.5755 -0.2587 -0.4167
 2961SOL    HW220517   2.610   3.719  16.582  0.8321  0.8308 -0.5967
 2962SOL     OW20518   3.644   2.645   9.793  0.1502 -0.1990  0.2724
 2962SOL    HW120519   3.579   2.701   9.834  0.3528  0.1062  0.1755
 2962SOL    HW220520   3.696   2.615   9.868 -0.2152 -0.4111  0.4416
 2963SOL     OW20521   3.034   2.017   8.030  0.2941  0.2391  0.8064
 2963SOL    HW120522   3.046   2.046   7.939 -1.0863 -0.0491  0.5318
 2963SOL    HW220523   2.949   1.973   8.025  0.4267 -0.0573  1.1736
 2964SOL     OW20524   3.523   0.314   4.920  0.3709  0.3352 -0.1918
 2964SOL    HW120525   3.480   0.400   4.928  1.5045  0.8454  0.3619
 2964SOL    HW220526   3.548   0.309   5.012 -1.2435 -2.2053  0.1087
 2965SOL     OW20527   0.681   4.676  14.457 -0.1097 -0.1800 -0.1530
 2965SOL    HW120528   0.694   0.031  14.432  0.8445  0.1954  1.6729
 2965SOL    HW220529   0.588   4.683  14.480 -0.2833  0.0939 -0.9635
 2966SOL     OW20530   4.271   4.141   6.178 -0.1014 -0.1647 -0.7943
 2966SOL    HW120531   4.248   4.164   6.088  1.7629 -0.1141 -1.2582
 2966SOL    HW220532   4.198   4.188   6.219  0.3558  0.1130 -0.3040
 2967SOL     OW20533   1.774   0.986  12.269  0.1489 -0.1441 -0.9793
 2967SOL    HW120534   1.688   0.970  12.230 -0.6753  1.4758  0.1530
 2967SOL    HW220535   1.818   1.044  12.206  0.5009 -1.8038 -2.2532
 2968SOL     OW20536   2.378   3.428   6.260 -0.0545 -0.6830 -0.4937
 2968SOL    HW120537   2.352   3.469   6.342 -0.0828 -3.5792  0.9341
 2968SOL    HW220538   2.387   3.334   6.274  1.9015 -0.2693  0.9001
 2969SOL     OW20539   1.255   3.436  17.108  0.0087 -0.3298 -0.3416
 2969SOL    HW120540   1.167   3.453  17.141  0.1639  1.1737 -0.7062
 2969SOL    HW220541   1.267   3.522  17.068 -0.1984  0.2347  0.7991
 2970SOL     OW20542   2.694   3.357   3.480  0.1376  0.1884  0.0157
 2970SOL    HW120543   2.755   3.383   3.412  0.9038  0.9032  0.9791
 2970SOL    HW220544   2.637   3.300   3.429 -1.4772  1.3931  0.4545
 2971SOL     OW20545   0.983   2.954   8.379  0.5928  0.3429 -1.2613
 2971SOL    HW120546   1.040   2.885   8.346  1.4710 -1.3093  3.7051
 2971SOL    HW220547   1.039   3.031   8.384  1.5561 -0.4619  0.4949
 2972SOL     OW20548   1.638   1.597   8.046  0.2224 -0.1709  0.2441
 2972SOL    HW120549   1.620   1.680   8.002 -0.4003 -0.3524  0.1507
 2972SOL    HW220550   1.585   1.617   8.124 -0.0730  1.3197 -0.3373
 2973SOL     OW20551   4.578   4.460   3.144  0.1370 -0.5455  0.4635
 2973SOL    HW120552   4.522   4.532   3.174 -1.0543 -1.6614  0.9245
 2973SOL    HW220553   4.620   4.512   3.075  0.0920 -0.6632  0.3482
 2974SOL     OW20554   0.891   1.399   7.897 -0.2879  0.2095 -0.1442
 2974SOL    HW120555   0.847   1.391   7.982  0.5945  0.4699  0.3269
 2974SOL    HW220556   0.976   1.430   7.926  0.7929 -1.0239 -1.9871
 2975SOL     OW20557   0.305   1.026   0.581  0.5986 -0.0421  0.1147
 2975SOL    HW120558   0.263   0.941   0.569  0.8253 -0.2457  0.7941
 2975SOL    HW220559   0.372   1.005   0.645 -1.4551 -2.8494  1.3504
 2976SOL     OW20560   1.344   0.527   5.415 -0.4861  0.3335 -0.3500
 2976SOL    HW120561   1.375   0.473   5.488  1.6573 -0.0536 -1.5674
 2976SOL    HW220562   1.355   0.472   5.338 -1.8675 -0.6012  0.1093
 2977SOL     OW20563   4.647   1.170   2.763 -0.2842 -0.7670 -0.9615
 2977SOL    HW120564   4.630   1.077   2.748 -0.4692 -0.9386  0.3674
 2977SOL    HW220565   4.616   1.170   2.853 -0.8529  1.5994 -1.1550
 2978SOL     OW20566   0.610   1.852   2.521  0.1605  0.3650 -0.1920
 2978SOL    HW120567   0.563   1.832   2.439  1.6308  0.7219 -1.1124
 2978SOL    HW220568   0.546   1.843   2.592 -0.1047 -0.3297 -0.5163
 2979SOL     OW20569   0.124   1.409  12.800  0.2842  0.0491 -0.2354
 2979SOL    HW120570   0.107   1.316  12.818 -0.8115 -0.1872 -2.4711
 2979SOL    HW220571   0.159   1.449  12.879 -0.2751  2.3615 -1.1720
 2980SOL     OW20572   2.213   1.117   0.581 -0.3625 -0.3216 -0.5800
 2980SOL    HW120573   2.228   1.186   0.517  0.3713  1.1120  1.1463
 2980SOL    HW220574   2.160   1.164   0.645 -0.8658 -2.8681  0.8816
 2981SOL     OW20575   4.589   0.079  16.230 -0.2621 -0.0670 -0.1111
 2981SOL    HW120576   4.543   0.125  16.160 -0.1470  0.4640  0.1612
 2981SOL    HW220577   4.679   0.109  16.216 -0.0472 -1.2805 -1.3340
 2982SOL     OW20578   1.256   3.432   3.571 -0.5075  0.4660  0.1067
 2982SOL    HW120579   1.345   3.412   3.543 -0.5083  0.3162  0.2109
 2982SOL    HW220580   1.237   3.505   3.512  0.8035  0.6389 -0.1048
 2983SOL     OW20581   1.621   0.161   2.118  0.7153 -0.0405 -0.0184
 2983SOL    HW120582   1.693   0.169   2.056 -0.4123  0.2284 -1.2993
 2983SOL    HW220583   1.603   0.254   2.131 -1.4366 -0.2958 -1.1473
 2984SOL     OW20584   1.675   3.958   8.050  0.2700 -0.2446 -0.1308
 2984SOL    HW120585   1.735   4.026   8.081  0.7049 -0.3837 -0.6479
 2984SOL    HW220586   1.602   3.980   8.107 -0.1626 -0.6370 -0.5338
 2985SOL     OW20587   2.932   0.057   8.054  0.0187 -0.0023 -0.1382
 2985SOL    HW120588   2.924   0.066   7.959 -0.8556  1.8880  0.1026
 2985SOL    HW220589   3.026   0.071   8.063  0.2470  1.1962 -4.2498
 2986SOL     OW20590   3.784   3.684   3.993  0.4519  0.1355  0.0504
 2986SOL    HW120591   3.872   3.660   3.965  0.3117 -0.9010  0.5026
 2986SOL    HW220592   3.785   3.780   3.988 -0.0794  0.2453  1.9707
 2987SOL     OW20593   2.606   2.855   3.329 -0.0085  0.3217 -0.1714
 2987SOL    HW120594   2.531   2.914   3.320 -0.4947 -0.1628  0.7457
 2987SOL    HW220595   2.585   2.798   3.403 -0.0807  1.5432  0.7395
 2988SOL     OW20596   2.788   1.026   3.186  0.4142 -0.5591  0.0084
 2988SOL    HW120597   2.771   1.066   3.272  3.1238 -0.3166  0.4415
 2988SOL    HW220598   2.883   1.016   3.196  0.7141  0.6168 -1.6696
 2989SOL     OW20599   2.159   0.081   4.787 -0.0979  0.1962 -0.4009
 2989SOL    HW120600   2.186   0.166   4.753 -0.1344  0.7674  1.0074
 2989SOL    HW220601   2.248   0.045   4.783 -0.4142 -0.8167  1.5226
 2990SOL     OW20602   3.706   4.468   9.157 -0.0210  0.0248  0.2736
 2990SOL    HW120603   3.620   4.502   9.132 -0.0761  0.4357  1.0412
 2990SOL    HW220604   3.683   4.405   9.225 -0.4798 -1.4095 -1.1991
 2991SOL     OW20605   0.747   1.609   6.678 -0.2442  0.7800 -0.3860
 2991SOL    HW120606   0.666   1.646   6.643 -0.1113  1.5665  0.1188
 2991SOL    HW220607   0.738   1.517   6.652  0.1567  0.3240  1.1378
 2992SOL     OW20608   0.207   4.078   9.824 -0.2903  0.3900 -0.2361
 2992SOL    HW120609   0.175   4.015   9.760 -0.9350 -0.0556  0.5217
 2992SOL    HW220610   0.286   4.033   9.853  1.0334  2.5358 -0.5019
 2993SOL     OW20611   2.614   4.304   8.540 -0.0444 -0.2302  0.0109
 2993SOL    HW120612   2.543   4.327   8.481 -0.7505 -0.3607  0.8129
 2993SOL    HW220613   2.570   4.340   8.617  2.3325  1.9702  0.3616
 2994SOL     OW20614   1.480   1.942   7.547 -0.3381 -0.4343  0.0152
 2994SOL    HW120615   1.569   1.914   7.569  0.6335  0.7914 -2.2875
 2994SOL    HW220616   1.492   2.036   7.559 -0.1529 -0.3068 -1.1524
 2995SOL     OW20617   1.888   0.984   3.119 -0.0797 -0.3107 -0.0869
 2995SOL    HW120618   1.853   0.897   3.102 -0.4862 -0.5990  2.2302
 2995SOL    HW220619   1.963   0.955   3.172  0.4155  0.5162 -0.3274
 2996SOL     OW20620   1.355   1.160   7.897  0.0612 -0.9493 -0.4908
 2996SOL    HW120621   1.391   1.248   7.900  2.1719 -1.8181 -0.0377
 2996SOL    HW220622   1.324   1.152   7.807  1.5321  1.2209 -1.1929
 2997SOL     OW20623   4.312   2.403   6.144  0.4760 -0.4844  0.0525
 2997SOL    HW120624   4.377   2.440   6.203 -0.3186 -0.5048  0.9402
 2997SOL    HW220625   4.283   2.480   6.094  1.5645 -1.4595 -2.0742
 2998SOL     OW20626   0.540   4.015   0.133 -0.4053  0.4282 -0.0126
 2998SOL    HW120627   0.462   3.979   0.174  0.6441 -0.8454  0.8753
 2998SOL    HW220628   0.522   4.109   0.141  2.8649  0.9122  1.9183
 2999SOL     OW20629   3.038   0.759   8.235  0.1304  0.1208  0.2945
 2999SOL    HW120630   2.979   0.827   8.203 -2.2146 -1.1182  1.9816
 2999SOL    HW220631   3.091   0.747   8.156 -1.9702 -2.0109 -0.8136
 3000SOL     OW20632   2.691   2.824   8.032  0.2823 -0.0232 -0.0697
 3000SOL    HW120633   2.700   2.869   8.116 -0.9429  2.5437 -1.3235
 3000SOL    HW220634   2.598   2.807   8.020  0.3957 -0.9379  0.2903
 3001SOL     OW20635   0.265   4.417  16.991  0.2112  0.1216  0.2931
 3001SOL    HW120636   0.271   4.508  16.964 -2.4196  0.6707  1.5636
 3001SOL    HW220637   0.354   4.389  16.968  1.4444  3.5885  0.8747
 3002SOL     OW20638   3.124   2.978   0.417 -0.2171  0.0606 -0.1747
 3002SOL    HW120639   3.033   2.949   0.413 -0.1180 -0.5649  2.0096
 3002SOL    HW220640   3.127   3.017   0.504  0.3881 -2.1836  0.8212
 3003SOL     OW20641   3.173   2.344   4.245 -0.0445  0.1002  0.6058
 3003SOL    HW120642   3.086   2.375   4.270  0.9587  4.5730 -1.6396
 3003SOL    HW220643   3.148   2.285   4.174  0.8417 -0.4841  0.7834
 3004SOL     OW20644   4.561   2.285   9.986  0.2352  0.0395 -0.1976
 3004SOL    HW120645   4.653   2.264   9.971 -0.4801 -2.4258 -1.2993
 3004SOL    HW220646   4.515   2.227   9.925 -1.7064 -1.6324  2.8425
 3005SOL     OW20647   4.497   1.836   0.449 -0.2417  0.2118  0.5095
 3005SOL    HW120648   4.417   1.822   0.397  0.0638 -0.0173  0.0975
 3005SOL    HW220649   4.532   1.904   0.392 -2.2565  0.1390 -0.8282
 3006SOL     OW20650   2.777   3.274   8.440 -0.5077  0.3902  0.7576
 3006SOL    HW120651   2.794   3.338   8.509  0.8665  0.0287  0.7671
 3006SOL    HW220652   2.688   3.298   8.416 -0.5009 -1.3379 -0.9846
 3007SOL     OW20653   0.504   3.189   7.375  0.1464 -0.1373  0.1102
 3007SOL    HW120654   0.503   3.273   7.330 -0.1182  1.3147  2.7876
 3007SOL    HW220655   0.586   3.196   7.424  0.0322 -1.4773  0.4884
 3008SOL     OW20656   0.744   1.603  14.483 -0.1578 -0.3044 -0.0778
 3008SOL    HW120657   0.727   1.544  14.410 -0.2887  0.0772 -0.3532
 3008SOL    HW220658   0.760   1.678  14.426 -0.7315  0.2825  0.5348
 3009SOL     OW20659   3.833   3.838   7.412  0.2799  0.0607  0.1290
 3009SOL    HW120660   3.892   3.857   7.486  0.1056  1.1575 -0.0228
 3009SOL    HW220661   3.890   3.837   7.336 -2.2969  0.1859 -1.7893
 3010SOL     OW20662   3.551   3.485   7.151 -0.3957 -0.2427  0.5686
 3010SOL    HW120663   3.553   3.532   7.068 -1.1865  1.3085  1.4000
 3010SOL    HW220664   3.579   3.401   7.116  0.6807  0.5328 -0.3833
 3011SOL     OW20665   3.192   3.227  13.329 -0.2630  0.7285  0.6861
 3011SOL    HW120666   3.125   3.203  13.266 -0.4306 -1.0579  1.5475
 3011SOL    HW220667   3.267   3.231  13.269 -1.2390 -0.0373 -0.6020
 3012SOL     OW20668   1.956   4.663   7.896  0.0004 -0.0900 -0.3505
 3012SOL    HW120669   2.005   0.008   7.901 -0.3955  0.1595 -0.5469
 3012SOL    HW220670   1.874   4.691   7.856  0.3070  0.1882 -0.7807
 3013SOL     OW20671   0.009   4.017   6.977  0.4888  0.3369  0.3653
 3013SOL    HW120672   4.696   4.074   6.918 -0.3209  0.4424  1.1600
 3013SOL    HW220673   0.018   3.939   6.923  1.3521  0.3325  0.5167
 3014SOL     OW20674   1.784   4.698   3.912  0.6947 -0.0000  0.0097
 3014SOL    HW120675   1.712   0.020   3.891  0.7247  0.4927  1.2856
 3014SOL    HW220676   1.796   4.710   4.006  1.0733 -0.7138  0.0537
 3015SOL     OW20677   4.510   1.927  11.086 -1.2616  0.3464 -0.2633
 3015SOL    HW120678   4.483   2.009  11.127  3.9344  0.7785  2.2558
 3015SOL    HW220679   4.443   1.869  11.123 -1.5586  0.6583 -0.3053
 3016SOL     OW20680   0.439   1.161  12.172 -0.4583  0.3033 -0.2525
 3016SOL    HW120681   0.442   1.119  12.258  1.0472  1.1548  0.1095
 3016SOL    HW220682   0.488   1.102  12.114 -1.6157 -2.0190  1.1093
 3017SOL     OW20683   1.852   0.805   4.269 -0.3229 -0.5905 -0.1151
 3017SOL    HW120684   1.774   0.861   4.265 -1.3478 -1.9265  1.4132
 3017SOL    HW220685   1.923   0.865   4.246 -0.8993 -0.2493 -1.0340
 3018SOL     OW20686   1.193   1.513   2.537  0.2877 -0.2324  0.0687
 3018SOL    HW120687   1.122   1.454   2.510 -0.7828  0.8820  0.4432
 3018SOL    HW220688   1.269   1.455   2.529 -0.7873 -1.7559  0.8555
 3019SOL     OW20689   1.771   1.066   9.611  0.7283  0.0463 -0.3598
 3019SOL    HW120690   1.700   1.075   9.548  0.7442 -1.4318 -0.5884
 3019SOL    HW220691   1.837   1.040   9.547 -1.6045 -1.2000 -2.2055
 3020SOL     OW20692   3.154   1.744   8.119  0.1119  0.0176 -0.3536
 3020SOL    HW120693   3.081   1.779   8.170 -0.5064 -0.7669 -0.6955
 3020SOL    HW220694   3.143   1.652   8.144 -1.9088  0.5774  0.7723
 3021SOL     OW20695   1.784   0.454   7.449 -0.0412  0.2643 -0.1133
 3021SOL    HW120696   1.756   0.526   7.505  0.4531  1.4268 -1.3631
 3021SOL    HW220697   1.731   0.382   7.482 -0.8779  1.7030  1.7166
 3022SOL     OW20698   1.133   1.876   7.548  1.2498 -0.7892  0.4537
 3022SOL    HW120699   1.190   1.925   7.607 -0.1835  1.5832 -0.1641
 3022SOL    HW220700   1.194   1.845   7.482 -2.0080 -0.8592 -2.5440
 3023SOL     OW20701   4.117   3.262  15.757 -0.2126 -0.2320 -0.3757
 3023SOL    HW120702   4.207   3.288  15.770  0.0220 -1.2219 -0.0087
 3023SOL    HW220703   4.087   3.295  15.841  0.8212  0.9273 -0.4719
 3024SOL     OW20704   0.141   3.593  10.133  0.3699 -0.0103  0.4004
 3024SOL    HW120705   0.092   3.520  10.170  0.6271 -0.1713  0.4260
 3024SOL    HW220706   0.179   3.612  10.219 -0.4803 -2.1006  1.2405
 3025SOL     OW20707   0.295   2.796   4.361 -0.2580 -0.1150 -0.1077
 3025SOL    HW120708   0.373   2.817   4.310 -0.2191 -0.7447 -0.3028
 3025SOL    HW220709   0.313   2.705   4.382 -2.2239 -0.3553  0.5755
 3026SOL     OW20710   0.396   3.344   4.857 -0.7869 -0.0349 -0.4051
 3026SOL    HW120711   0.454   3.268   4.859  0.6630  1.1730  3.3315
 3026SOL    HW220712   0.462   3.408   4.831 -0.9201  0.5089  0.5847
 3027SOL     OW20713   3.071   4.154  15.672 -0.0639 -0.2901 -0.3764
 3027SOL    HW120714   3.090   4.154  15.578 -0.6864 -0.3304 -0.5004
 3027SOL    HW220715   3.031   4.240  15.683 -0.5822 -0.4134 -1.3501
 3028SOL     OW20716   0.683   0.004   8.632 -0.8428 -0.8587  0.5279
 3028SOL    HW120717   0.702   4.656   8.591 -0.5724 -0.5625  0.0499
 3028SOL    HW220718   0.642   4.709   8.713 -2.4404 -0.5148 -0.1490
 3029SOL     OW20719   0.399   4.208   6.006  0.2530  0.4909 -0.3568
 3029SOL    HW120720   0.442   4.178   5.925  0.7928  0.0185  0.1084
 3029SOL    HW220721   0.312   4.170   5.990  0.0698  1.2499 -1.1931
 3030SOL     OW20722   4.620   3.868   9.745  0.4195 -0.0662 -0.0235
 3030SOL    HW120723   4.613   3.853   9.651 -2.9996 -0.9548  0.3852
 3030SOL    HW220724   4.700   3.829   9.780  0.9160  2.2219  1.3629
 3031SOL     OW20725   4.293   2.672   4.304 -0.6278 -0.5423  0.1740
 3031SOL    HW120726   4.245   2.701   4.227  0.0541  0.1828  0.0233
 3031SOL    HW220727   4.360   2.613   4.271 -0.9739 -0.9343  0.1590
 3032SOL     OW20728   3.694   2.883  16.064  0.2015 -0.1555  0.1419
 3032SOL    HW120729   3.738   2.948  16.120 -0.6904 -0.3341  1.0579
 3032SOL    HW220730   3.738   2.892  15.980  2.4359 -0.8788  1.2297
 3033SOL     OW20731   3.638   2.696   9.313  0.5924  0.3909 -0.4256
 3033SOL    HW120732   3.587   2.735   9.384  1.8988  1.7280 -0.2227
 3033SOL    HW220733   3.679   2.630   9.369  1.9042 -1.1274 -3.1941
 3034SOL     OW20734   4.691   3.129   5.583 -0.1019 -0.4597 -0.1455
 3034SOL    HW120735   0.010   3.186   5.636  1.2941 -0.2444 -1.8183
 3034SOL    HW220736   4.615   3.110   5.637  0.4692 -0.8156  0.5351
 3035SOL     OW20737   4.071   3.868   2.437 -0.1094 -0.0255 -0.0276
 3035SOL    HW120738   4.111   3.871   2.350  1.5539 -2.3310  0.6503
 3035SOL    HW220739   3.995   3.810   2.436 -1.0610  1.1769  1.9506
 3036SOL     OW20740   1.119   0.393   1.943  0.0726 -0.1604 -0.0734
 3036SOL    HW120741   1.044   0.373   1.887  0.6042 -0.8560 -0.5511
 3036SOL    HW220742   1.108   0.487   1.953 -1.6594 -0.2391 -1.1273
 3037SOL     OW20743   3.011   0.977   6.320 -0.5843 -0.1918 -0.1720
 3037SOL    HW120744   3.100   1.012   6.330 -1.1694  1.1864  0.1594
 3037SOL    HW220745   2.968   1.046   6.271 -0.5351 -0.8591 -1.1569
 3038SOL     OW20746   2.200   1.367   0.490 -0.7686 -0.0350 -0.0439
 3038SOL    HW120747   2.148   1.370   0.409 -2.9516  3.0290  1.4843
 3038SOL    HW220748   2.236   1.455   0.505 -0.7679 -0.0771  0.1954
 3039SOL     OW20749   2.174   0.545  12.657  0.7063  0.4372 -0.0465
 3039SOL    HW120750   2.083   0.573  12.646  1.1072  3.0188  2.9909
 3039SOL    HW220751   2.169   0.456  12.625 -0.1541  0.6027 -0.3625
 3040SOL     OW20752   2.009   3.431   2.612 -0.1031  0.4677  0.0029
 3040SOL    HW120753   2.010   3.513   2.660  1.0328 -0.1472  1.0358
 3040SOL    HW220754   1.971   3.445   2.525 -2.7034 -0.7867  0.9353
 3041SOL     OW20755   4.297   0.316   2.380 -0.1192  0.0416  0.1607
 3041SOL    HW120756   4.382   0.345   2.411 -0.8714  1.6769  0.7252
 3041SOL    HW220757   4.310   0.239   2.324 -0.0376  1.8976 -2.3747
 3042SOL     OW20758   4.598   0.835   6.202  0.0894 -0.0430  0.2086
 3042SOL    HW120759   4.593   0.930   6.188  2.4194  0.2243  1.2719
 3042SOL    HW220760   4.531   0.818   6.269 -2.1696 -1.4034 -2.4219
 3043SOL     OW20761   0.843   0.912   7.979 -0.3492  0.2674  0.2413
 3043SOL    HW120762   0.906   0.887   8.047 -2.8738 -0.1076  2.4178
 3043SOL    HW220763   0.884   0.987   7.937  0.2771  0.1340  0.6146
 3044SOL     OW20764   2.898   0.969   8.100  0.3530  0.8972  0.3025
 3044SOL    HW120765   2.949   0.933   8.028 -0.2266  0.2109  0.2398
 3044SOL    HW220766   2.814   0.961   8.055  0.1102 -4.2794  1.7729
 3045SOL     OW20767   3.276   0.962   6.619  0.2846  0.4704 -0.6028
 3045SOL    HW120768   3.255   1.025   6.551 -0.8578 -0.4350 -1.0893
 3045SOL    HW220769   3.323   0.899   6.565 -0.3029 -0.8979  0.4769
 3046SOL     OW20770   3.265   3.819   2.400 -0.1270 -0.3002  0.0115
 3046SOL    HW120771   3.192   3.881   2.398 -0.4747 -0.7514 -1.0524
 3046SOL    HW220772   3.232   3.758   2.335  0.2442  0.7683 -1.1740
 3047SOL     OW20773   1.437   0.898  10.859  0.0661 -0.8257  0.3580
 3047SOL    HW120774   1.499   0.861  10.796 -0.3888 -1.1255  0.0843
 3047SOL    HW220775   1.397   0.976  10.819 -0.6251 -1.0975  0.5191
 3048SOL     OW20776   2.707   2.380  13.651  0.3177 -0.7247  0.3388
 3048SOL    HW120777   2.695   2.423  13.566  1.5272 -3.0672 -1.0116
 3048SOL    HW220778   2.624   2.398  13.693  0.5435  1.4168 -0.1300
 3049SOL     OW20779   0.909   3.681  16.369  0.7775  0.2115  0.1727
 3049SOL    HW120780   0.932   3.591  16.393  1.7046 -0.0114 -1.5927
 3049SOL    HW220781   0.996   3.721  16.374  0.9066 -0.3009  2.2183
 3050SOL     OW20782   2.332   3.832   1.995  0.4369  0.0146 -0.3455
 3050SOL    HW120783   2.327   3.797   2.084 -0.6184  1.4817  0.1751
 3050SOL    HW220784   2.397   3.772   1.959  1.3761  1.9322 -1.8354
 3051SOL     OW20785   3.540   3.758  15.327  0.2854 -0.1934  1.3529
 3051SOL    HW120786   3.629   3.775  15.297  1.0711  0.3084  3.9794
 3051SOL    HW220787   3.500   3.697  15.265 -0.4522  1.3802  0.2824
 3052SOL     OW20788   1.520   2.379   6.373  0.0537 -0.2941 -0.2269
 3052SOL    HW120789   1.517   2.448   6.307  1.5635  2.6127  2.7386
 3052SOL    HW220790   1.569   2.428   6.439  2.2898 -1.3428 -1.0952
 3053SOL     OW20791   0.812   0.739   6.212 -0.3079  0.1197 -0.0658
 3053SOL    HW120792   0.806   0.652   6.172 -0.8917 -0.1122  0.5192
 3053SOL    HW220793   0.904   0.737   6.236  0.0597 -1.6542 -1.6452
 3054SOL     OW20794   1.305   4.584   6.269  0.1400  0.3675 -0.8392
 3054SOL    HW120795   1.246   4.655   6.246 -0.6665 -0.5389 -1.5568
 3054SOL    HW220796   1.238   4.517   6.278 -0.4633  1.2086  0.7924
 3055SOL     OW20797   0.700   2.443   5.624  0.4277 -0.1107  0.2471
 3055SOL    HW120798   0.767   2.457   5.558 -0.5210  0.7968 -0.5327
 3055SOL    HW220799   0.636   2.397   5.569  0.9450 -1.9439  1.1922
 3056SOL     OW20800   3.192   3.609  10.882 -0.6796 -0.6505  0.1079
 3056SOL    HW120801   3.185   3.699  10.916  1.2942 -0.8737  1.1485
 3056SOL    HW220802   3.264   3.612  10.819 -2.1565  1.3423 -1.4842
 3057SOL     OW20803   0.569   4.380   9.887  0.7112 -0.2763  0.1527
 3057SOL    HW120804   0.574   4.288   9.912  2.3507  0.0556  1.0401
 3057SOL    HW220805   0.478   4.383   9.856  0.1899  0.7615  1.7569
 3058SOL     OW20806   0.024   1.625  17.384 -0.0701  0.0705 -0.3678
 3058SOL    HW120807   0.071   1.588  17.459 -0.5308  1.1227  0.4365
 3058SOL    HW220808   4.736   1.545  17.338  2.3760 -0.8362 -0.1618
 3059SOL     OW20809   3.883   4.478   4.094 -0.3640  0.0938  0.4145
 3059SOL    HW120810   3.893   4.446   4.004  0.2408  1.4407  0.0027
 3059SOL    HW220811   3.897   4.404   4.152 -0.4075 -0.0627  0.2260
 3060SOL     OW20812   0.716   0.537  17.579 -0.1961 -0.1308 -0.4765
 3060SOL    HW120813   0.693   0.520  17.488  0.6779  0.7331 -0.8563
 3060SOL    HW220814   0.798   0.587  17.579  1.2466 -2.5129 -1.8556
 3061SOL     OW20815   0.603   2.095  12.495 -0.1993  0.0285 -0.0916
 3061SOL    HW120816   0.698   2.110  12.497 -0.1774 -0.2988  1.7576
 3061SOL    HW220817   0.596   2.003  12.471  2.8492 -0.0284 -0.7736
 3062SOL     OW20818   2.288   2.687   4.250 -0.1099  0.4968 -0.0159
 3062SOL    HW120819   2.265   2.620   4.314 -0.9191 -0.8294 -1.6897
 3062SOL    HW220820   2.377   2.654   4.239 -0.0894  0.4974  0.1542
 3063SOL     OW20821   2.811   3.945   2.593 -0.0311  0.2090  0.4818
 3063SOL    HW120822   2.855   4.027   2.616 -0.4391  1.3813 -2.8930
 3063SOL    HW220823   2.759   3.981   2.521  0.8957 -0.7951 -0.6902
 3064SOL     OW20824   2.978   0.228   2.985  0.7997 -0.0347 -0.6699
 3064SOL    HW120825   2.970   0.323   2.990  1.6983 -0.1107  2.5753
 3064SOL    HW220826   3.066   0.218   3.021  0.2665  1.1822  1.0098
 3065SOL     OW20827   3.248   3.056   7.556  0.2832  0.0328  0.5284
 3065SOL    HW120828   3.278   2.974   7.594 -0.6771 -1.4268 -1.8909
 3065SOL    HW220829   3.157   3.036   7.535  0.7882 -2.1258  0.4179
 3066SOL     OW20830   1.956   3.431  10.809  0.5837 -0.0481  0.6976
 3066SOL    HW120831   1.936   3.350  10.762  1.1318  0.0689  0.2543
 3066SOL    HW220832   2.015   3.475  10.748 -3.1323  1.9540 -1.5180
 3067SOL     OW20833   0.618   0.437  13.616 -0.1102  0.3148 -0.3586
 3067SOL    HW120834   0.570   0.356  13.630 -0.8800  0.3217 -2.8992
 3067SOL    HW220835   0.681   0.411  13.548  0.1726  2.2365 -0.8339
 3068SOL     OW20836   2.705   3.724   1.307 -0.0101  0.0865  0.2854
 3068SOL    HW120837   2.675   3.807   1.270 -3.8679 -1.2050  0.5502
 3068SOL    HW220838   2.627   3.693   1.352 -1.0779  1.0014 -0.9426
 3069SOL     OW20839   2.270   2.419   5.006  0.2946  0.0001  1.0104
 3069SOL    HW120840   2.202   2.485   5.021 -0.5874 -0.4569 -1.0862
 3069SOL    HW220841   2.345   2.472   4.978 -0.9753  1.5299  0.4937
 3070SOL     OW20842   2.783   4.598   5.613  0.0735 -0.6049  0.0524
 3070SOL    HW120843   2.800   4.642   5.696 -1.9568 -1.2487  0.8186
 3070SOL    HW220844   2.818   4.654   5.544  2.1295 -1.6165  0.2836
 3071SOL     OW20845   0.482   0.550  12.048 -0.1731 -0.2580 -0.4444
 3071SOL    HW120846   0.452   0.625  11.998 -2.5713  1.2121  3.1695
 3071SOL    HW220847   0.396   0.509  12.062  0.9672 -2.2838  0.6718
 3072SOL     OW20848   0.295   4.043   4.752  0.7223  0.1585  0.0202
 3072SOL    HW120849   0.295   4.073   4.843 -0.9906 -1.1821  0.4678
 3072SOL    HW220850   0.324   4.121   4.705  0.1964  1.0481  1.1756
 3073SOL     OW20851   1.104   0.227  13.273  0.4031  0.1135 -0.5427
 3073SOL    HW120852   1.034   0.167  13.249 -0.1462  0.3175  0.5517
 3073SOL    HW220853   1.114   0.274  13.190 -0.6751  2.0852  0.4622
 3074SOL     OW20854   1.289   3.055   6.999  0.0934 -0.3432  0.1270
 3074SOL    HW120855   1.261   2.964   7.010 -1.6523  0.1955  0.2381
 3074SOL    HW220856   1.356   3.064   7.066  0.5368 -0.4051 -0.3115
 3075SOL     OW20857   0.276   0.504  10.867 -0.7431 -0.3931  0.3140
 3075SOL    HW120858   0.250   0.595  10.875  0.3800  0.0256 -0.7229
 3075SOL    HW220859   0.282   0.492  10.772 -0.7913  1.7359  0.0596
 3076SOL     OW20860   0.504   3.002   9.236  0.1621 -0.0222 -0.2249
 3076SOL    HW120861   0.512   2.927   9.178 -0.0332  0.0756 -0.3800
 3076SOL    HW220862   0.424   2.971   9.279 -0.5915 -0.8807 -2.2371
 3077SOL     OW20863   2.852   1.326   5.350 -0.2574 -0.4282 -0.7768
 3077SOL    HW120864   2.820   1.264   5.415  0.9091 -0.8888 -0.6298
 3077SOL    HW220865   2.928   1.281   5.313  0.0244 -0.7651  0.2080
 3078SOL     OW20866   4.083   3.960   2.167  0.0528  0.3801  0.2304
 3078SOL    HW120867   4.103   4.050   2.191  2.1934 -0.3928  1.3344
 3078SOL    HW220868   4.123   3.950   2.081 -1.0431  2.6898 -0.5337
 3079SOL     OW20869   1.868   3.909   8.428 -0.5001  0.0308  0.0709
 3079SOL    HW120870   1.797   3.906   8.492  1.2887 -1.9661  1.9173
 3079SOL    HW220871   1.849   3.990   8.379  1.9401  0.3690 -0.3057
 3080SOL     OW20872   3.098   1.416   6.959 -0.1936  0.6402  0.4282
 3080SOL    HW120873   3.104   1.510   6.943  0.9853  0.3553 -0.8053
 3080SOL    HW220874   3.121   1.421   7.052  0.7586  0.3044  0.2069
 3081SOL     OW20875   1.730   0.350   4.776  0.2183 -0.4332 -0.5419
 3081SOL    HW120876   1.713   0.356   4.870  0.6346 -1.7799 -0.3774
 3081SOL    HW220877   1.825   0.353   4.787  0.4845 -1.2941 -2.6289
 3082SOL     OW20878   3.011   2.551   8.816 -0.0854 -0.9952  0.4046
 3082SOL    HW120879   3.084   2.493   8.791  0.8099  0.9678 -1.5278
 3082SOL    HW220880   3.041   2.569   8.905 -0.1202  0.6944  0.0629
 3083SOL     OW20881   4.638   1.279   0.366  0.2437  0.0625 -0.0390
 3083SOL    HW120882   4.548   1.255   0.385  0.0739 -0.2744 -1.2821
 3083SOL    HW220883   4.688   1.217   0.420  0.6458 -0.0922 -0.5897
 3084SOL     OW20884   4.137   2.327   9.198 -0.1855 -0.5016  0.2220
 3084SOL    HW120885   4.187   2.287   9.127  0.9864  0.4131  0.5364
 3084SOL    HW220886   4.083   2.252   9.221  0.0628 -0.9838 -0.7570
 3085SOL     OW20887   2.849   3.071   8.629 -0.0727 -0.2451 -0.9976
 3085SOL    HW120888   2.771   3.079   8.683  0.8494 -2.6581  0.7021
 3085SOL    HW220889   2.843   3.145   8.569  0.1800  0.3106 -0.3363
 3086SOL     OW20890   0.937   1.809   7.001  0.5204 -0.0414 -0.2950
 3086SOL    HW120891   0.908   1.786   7.089  1.4881 -1.1391 -0.2686
 3086SOL    HW220892   0.919   1.902   6.992 -1.2265 -0.1701  1.8178
 3087SOL     OW20893   4.090   1.990  17.122 -0.5604 -0.6511 -0.6790
 3087SOL    HW120894   4.063   2.081  17.124 -0.3491 -0.6310  1.4100
 3087SOL    HW220895   4.183   1.997  17.100 -0.3383 -0.1148  0.4627
 3088SOL     OW20896   2.125   2.288   8.789 -0.2642 -0.4052  0.3341
 3088SOL    HW120897   2.087   2.356   8.844  2.9050  1.1533  0.6075
 3088SOL    HW220898   2.216   2.319   8.796  0.3783 -2.0211 -0.7448
 3089SOL     OW20899   0.071   2.175   2.772 -0.4344  0.3552 -0.2501
 3089SOL    HW120900   0.045   2.221   2.693  0.0483  0.4020 -0.3808
 3089SOL    HW220901   0.153   2.219   2.795  0.3360 -1.1225 -0.1701
 3090SOL     OW20902   1.994   1.230   4.310  0.0404  0.2938  0.0202
 3090SOL    HW120903   1.910   1.265   4.280 -2.0623 -2.3930  2.7134
 3090SOL    HW220904   1.971   1.184   4.391  1.3020 -0.9409 -0.3187
 3091SOL     OW20905   4.169   4.675  15.408  0.4176 -0.5929 -0.2232
 3091SOL    HW120906   4.216   4.734  15.466 -0.5387  0.3113 -0.3649
 3091SOL    HW220907   4.159   4.600  15.467 -1.7900  1.3616  1.8980
 3092SOL     OW20908   3.057   4.502   1.168 -0.1123  0.1786  0.0966
 3092SOL    HW120909   3.088   4.422   1.125 -1.1633 -0.0362 -0.2821
 3092SOL    HW220910   3.139   4.534   1.205 -0.3837  0.2860  0.6094
 3093SOL     OW20911   3.370   3.295   9.232 -0.0685  0.1339  0.0276
 3093SOL    HW120912   3.363   3.244   9.151 -2.2819 -0.7445  0.7743
 3093SOL    HW220913   3.310   3.367   9.215  1.2505  1.0385 -0.8087
 3094SOL     OW20914   3.516   2.435   2.626  0.1298  0.4611  0.3155
 3094SOL    HW120915   3.561   2.517   2.607  1.0814 -0.2932 -0.6770
 3094SOL    HW220916   3.582   2.369   2.603 -1.3304 -0.1893 -2.0159
 3095SOL     OW20917   4.488   4.720   3.192 -0.5877  0.1882  0.3906
 3095SOL    HW120918   4.562   0.003   3.249  0.7006  1.0419 -1.5995
 3095SOL    HW220919   4.438   0.064   3.194  0.3435  0.7562  0.4820
 3096SOL     OW20920   0.736   4.619   1.940  0.4135  0.2416  0.5597
 3096SOL    HW120921   0.698   4.533   1.919  0.6659 -0.0964  1.5045
 3096SOL    HW220922   0.818   4.584   1.974  0.4468 -1.2940 -1.0525
 3097SOL     OW20923   0.160   3.266   5.715 -0.0603  0.5586  0.3228
 3097SOL    HW120924   0.245   3.234   5.685 -0.0217  0.7282  0.2518
 3097SOL    HW220925   0.179   3.301   5.802 -0.7793  1.6388  0.0519
 3098SOL     OW20926   2.684   0.825   7.402  0.1245  0.2771 -0.0656
 3098SOL    HW120927   2.668   0.918   7.420  0.6657  0.5702 -1.1501
 3098SOL    HW220928   2.626   0.793   7.472  0.8704 -2.0974 -0.5443
 3099SOL     OW20929   4.643   2.813  14.794 -0.3117  0.2796  0.0197
 3099SOL    HW120930   4.615   2.840  14.706  1.1930  2.2904  0.1627
 3099SOL    HW220931   4.714   2.754  14.769  1.0796  2.5905 -1.5382
 3100SOL     OW20932   2.100   1.713   5.120 -0.2082  0.5811 -0.1992
 3100SOL    HW120933   2.080   1.623   5.147 -0.3788  0.3869 -0.9977
 3100SOL    HW220934   2.195   1.717   5.114 -0.5136  3.7312 -3.0078
 3101SOL     OW20935   2.457   2.283  15.147  0.2576 -0.5024  0.4911
 3101SOL    HW120936   2.424   2.373  15.146  1.0111 -0.2217  1.0207
 3101SOL    HW220937   2.541   2.292  15.102 -1.4022  0.8281 -2.3200
 3102SOL     OW20938   3.590   2.130   4.229  0.2519 -0.1236 -0.2186
 3102SOL    HW120939   3.618   2.092   4.313 -2.6463 -0.0637  0.7736
 3102SOL    HW220940   3.666   2.108   4.176 -0.6354  0.2532 -1.6306
 3103SOL     OW20941   2.017   0.897   5.100 -0.0984 -0.3145 -0.2910
 3103SOL    HW120942   2.018   0.804   5.124  0.2096  0.0396  1.1089
 3103SOL    HW220943   2.034   0.940   5.184  0.1907  1.0925 -1.0687
 3104SOL     OW20944   0.856   3.498  10.078  0.7969  0.7513 -0.3134
 3104SOL    HW120945   0.841   3.472  10.169 -2.1334 -2.0365 -1.5925
 3104SOL    HW220946   0.881   3.588  10.098  0.0193  1.3602 -2.0684
 3105SOL     OW20947   1.214   4.191   2.188 -0.2374 -0.6965  0.6932
 3105SOL    HW120948   1.286   4.130   2.203  1.9707  1.7373  0.0111
 3105SOL    HW220949   1.203   4.226   2.276 -0.8006 -1.0576  0.7677
 3106SOL     OW20950   1.502   3.189   4.080  0.1412  0.8905  0.6439
 3106SOL    HW120951   1.588   3.226   4.098  2.9351 -4.2175 -2.3554
 3106SOL    HW220952   1.448   3.267   4.066 -1.5360 -0.1083  1.5236
 3107SOL     OW20953   0.901   2.625  13.277 -0.0620 -0.1121 -0.1051
 3107SOL    HW120954   0.868   2.645  13.189  0.8840 -0.7794 -0.5996
 3107SOL    HW220955   0.879   2.533  13.294  1.3008 -1.0991 -3.6744
 3108SOL     OW20956   3.425   2.055   6.659  0.2911 -0.8258  0.4652
 3108SOL    HW120957   3.449   1.969   6.693  0.5582 -0.2601  1.7163
 3108SOL    HW220958   3.505   2.073   6.609 -0.6260 -0.2321 -0.7805
 3109SOL     OW20959   3.758   1.452   1.504 -0.1924 -0.0713 -0.0219
 3109SOL    HW120960   3.828   1.470   1.441 -0.8560 -2.1351 -1.3492
 3109SOL    HW220961   3.719   1.372   1.468 -0.5088  0.9466 -1.9514
 3110SOL     OW20962   2.390   1.883  11.587 -0.5018  0.5207 -0.1304
 3110SOL    HW120963   2.383   1.788  11.576  1.8124  0.2822  0.4260
 3110SOL    HW220964   2.445   1.887  11.666 -0.7841  1.7335 -0.0063
 3111SOL     OW20965   1.218   3.850   4.025 -0.6266 -0.1157 -0.5453
 3111SOL    HW120966   1.276   3.897   3.965 -1.2576  0.9493 -0.3224
 3111SOL    HW220967   1.198   3.768   3.981  2.2884  0.1549 -2.3994
 3112SOL     OW20968   4.374   1.189   4.651  0.0474  0.1184  0.4476
 3112SOL    HW120969   4.294   1.143   4.675  0.6904 -1.1359  0.1666
 3112SOL    HW220970   4.407   1.142   4.575 -1.7142  0.4164 -0.4998
 3113SOL     OW20971   4.522   3.542   9.054  0.1395 -0.3988  0.3170
 3113SOL    HW120972   4.559   3.499   9.131  1.4697  0.0244 -0.0864
 3113SOL    HW220973   4.436   3.565   9.089 -1.0132 -1.3814 -1.8862
 3114SOL     OW20974   2.523   3.123  15.193  0.6662 -0.3038  0.5243
 3114SOL    HW120975   2.594   3.076  15.151  0.8371  0.2311  0.2168
 3114SOL    HW220976   2.566   3.148  15.275  1.4131 -0.4734  0.1812
 3115SOL     OW20977   4.686   3.054   6.726  0.1990  0.3902 -0.4785
 3115SOL    HW120978   4.619   3.121   6.713 -0.5533 -0.2532  0.0687
 3115SOL    HW220979   4.682   2.998   6.648 -1.6545  2.2756 -1.7211
 3116SOL     OW20980   1.014   4.480  12.812  0.0544  0.5963 -0.1112
 3116SOL    HW120981   1.021   4.510  12.903 -0.4034 -0.5553  0.3023
 3116SOL    HW220982   0.919   4.481  12.803 -0.0193  1.1236  0.7742
 3117SOL     OW20983   3.071   3.907   5.792 -0.0732 -0.1088 -0.6624
 3117SOL    HW120984   3.086   3.998   5.766 -1.3472  0.4321  0.4418
 3117SOL    HW220985   3.053   3.913   5.886  0.0100 -0.4575 -0.6243
 3118SOL     OW20986   0.817   2.539   9.903  0.4037  0.6751  0.6645
 3118SOL    HW120987   0.773   2.475   9.847  3.0034 -0.9108  0.4408
 3118SOL    HW220988   0.739   2.591   9.922 -0.4809  0.4599 -2.3666
 3119SOL     OW20989   3.046   2.473   2.009 -0.0430  0.2068 -0.1537
 3119SOL    HW120990   3.114   2.456   2.075  3.3758  0.0071 -3.7542
 3119SOL    HW220991   3.052   2.569   2.009  0.6008  0.1667 -2.4672
 3120SOL     OW20992   1.462   3.489   7.500 -0.5769  0.0707 -0.1744
 3120SOL    HW120993   1.418   3.520   7.421 -3.0369 -0.1318  1.1132
 3120SOL    HW220994   1.430   3.557   7.559 -0.9994 -0.8970  0.7013
 3121SOL     OW20995   3.768   1.993   1.498  0.1559  0.2379 -0.0504
 3121SOL    HW120996   3.776   2.012   1.592  1.8778  0.3463 -0.2219
 3121SOL    HW220997   3.701   1.924   1.506  1.0426 -0.7542 -1.1806
 3122SOL     OW20998   3.014   3.876  10.217 -0.2683  0.0371 -0.3133
 3122SOL    HW120999   2.930   3.836  10.238  0.0003 -0.1054  0.4772
 3122SOL    HW221000   3.017   3.957  10.268 -0.3133 -0.6158  0.7080
 3123SOL     OW21001   2.176   0.470   4.400  0.3927  0.2783 -0.0906
 3123SOL    HW121002   2.080   0.471   4.406  0.4846 -1.1226  1.5108
 3123SOL    HW221003   2.192   0.523   4.322 -2.2151  0.3655 -0.5874
 3124SOL     OW21004   1.436   1.968   5.445 -0.1428  0.3696  0.0834
 3124SOL    HW121005   1.414   1.881   5.478  1.7872 -0.6394 -1.3025
 3124SOL    HW221006   1.430   2.010   5.531 -0.5747  1.0459 -0.2749
 3125SOL     OW21007   1.290   1.209   3.238 -0.5817 -0.7088  0.2328
 3125SOL    HW121008   1.322   1.249   3.318 -1.5498 -1.4441  0.9839
 3125SOL    HW221009   1.307   1.280   3.175 -1.2760 -0.3996  0.3913
 3126SOL     OW21010   3.255   4.457  17.094 -0.0862  0.3121 -0.5460
 3126SOL    HW121011   3.331   4.433  17.039  0.3623 -2.4977  1.2835
 3126SOL    HW221012   3.277   4.530  17.151  1.7972 -0.7166  0.0623
 3127SOL     OW21013   2.638   2.462   5.572  0.7458  0.1448  0.0287
 3127SOL    HW121014   2.577   2.490   5.640  0.4001 -1.0913  0.2298
 3127SOL    HW221015   2.687   2.544   5.568  1.3488 -0.1959  0.3083
 3128SOL     OW21016   2.198   2.281   2.997  0.2167  0.4465  0.0746
 3128SOL    HW121017   2.249   2.342   3.050  0.1105 -0.3750  1.1482
 3128SOL    HW221018   2.206   2.326   2.913  1.2269 -0.2387 -0.1910
 3129SOL     OW21019   0.836   0.315   1.021  0.3634  0.7353 -0.0187
 3129SOL    HW121020   0.913   0.366   1.046  1.2263 -0.6855  0.2249
 3129SOL    HW221021   0.838   0.312   0.926 -0.1801 -0.5074  0.0040
 3130SOL     OW21022   1.506   1.714   7.150  0.4379  0.1284 -0.1250
 3130SOL    HW121023   1.483   1.654   7.079  0.0170 -1.0152  0.9829
 3130SOL    HW221024   1.453   1.671   7.217 -1.5709  0.5292 -1.4578
 3131SOL     OW21025   0.983   4.663   4.752 -0.2289 -0.3544 -0.2089
 3131SOL    HW121026   1.028   4.715   4.686 -1.5095 -1.3068 -1.8447
 3131SOL    HW221027   1.063   4.629   4.791  0.6656  0.5286 -1.2658
 3132SOL     OW21028   1.068   3.973   0.325 -0.1341 -0.3021 -0.4796
 3132SOL    HW121029   1.152   4.018   0.316 -0.5541  0.9894  2.0731
 3132SOL    HW221030   1.011   4.021   0.264 -1.0522 -0.8274 -0.0286
 3133SOL     OW21031   2.188   0.207   3.111 -0.4038  0.1398 -0.6933
 3133SOL    HW121032   2.117   0.218   3.173 -1.6656  0.9136 -2.2674
 3133SOL    HW221033   2.260   0.177   3.167 -1.0928 -3.2869 -1.6561
 3134SOL     OW21034   4.285   3.706   6.959  0.5047  0.3822  0.2152
 3134SOL    HW121035   4.269   3.798   6.938 -0.9123  0.2476  0.7322
 3134SOL    HW221036   4.358   3.720   7.019  0.6857  1.2405 -0.2040
 3135SOL     OW21037   4.266   1.154   0.817  0.4262  0.8648  0.3595
 3135SOL    HW121038   4.312   1.161   0.900  1.7594  0.7568 -0.3669
 3135SOL    HW221039   4.189   1.211   0.807  0.6614  1.2518  0.7812
 3136SOL     OW21040   0.299   0.645   9.185  0.0728  0.6014  0.2813
 3136SOL    HW121041   0.342   0.592   9.253  0.1356 -1.9624 -1.7573
 3136SOL    HW221042   0.342   0.730   9.188  1.9593 -0.3785  0.9966
 3137SOL     OW21043   0.575   0.865   7.933  0.2169 -1.1560 -0.1791
 3137SOL    HW121044   0.544   0.946   7.972  1.4496 -0.1637 -1.2394
 3137SOL    HW221045   0.666   0.867   7.963  0.0353 -3.3257  0.4880
 3138SOL     OW21046   1.488   0.907  13.073  0.1487  0.1536 -0.2474
 3138SOL    HW121047   1.408   0.858  13.096  0.5257 -0.0482  0.6521
 3138SOL    HW221048   1.553   0.839  13.088  0.8597  0.4649 -2.0539
 3139SOL     OW21049   1.167   0.824   7.688 -0.4035  0.1537  0.0592
 3139SOL    HW121050   1.098   0.766   7.720 -1.4765  2.8623  2.6723
 3139SOL    HW221051   1.215   0.831   7.770  1.1002 -0.4805 -0.7701
 3140SOL     OW21052   1.216   2.169   5.428  1.1168 -0.3530  0.6438
 3140SOL    HW121053   1.310   2.165   5.447  1.5831  1.1029 -1.4388
 3140SOL    HW221054   1.186   2.212   5.508 -0.5861  1.6519 -1.0755
 3141SOL     OW21055   2.659   2.577   5.124 -0.0381  0.2842 -0.0778
 3141SOL    HW121056   2.623   2.505   5.176 -2.1036  0.7453 -0.8659
 3141SOL    HW221057   2.616   2.657   5.156 -1.8124 -0.4513 -0.6585
 3142SOL     OW21058   2.990   1.496   5.543  0.4467 -0.1171 -0.4158
 3142SOL    HW121059   2.932   1.487   5.468 -1.0131  0.6257  0.6424
 3142SOL    HW221060   3.072   1.518   5.499 -0.3341  0.5264 -1.5247
 3143SOL     OW21061   3.780   2.693   9.079  0.3611 -0.1557 -0.4626
 3143SOL    HW121062   3.817   2.604   9.086  0.3136 -0.1843 -0.5687
 3143SOL    HW221063   3.706   2.684   9.138 -2.3461  1.1210 -3.6719
 3144SOL     OW21064   2.997   1.139   3.403 -0.2838 -0.4560 -0.8564
 3144SOL    HW121065   2.982   1.166   3.493 -0.4112 -0.8116 -0.7721
 3144SOL    HW221066   3.018   1.216   3.350  1.1585  0.6193  1.2832
 3145SOL     OW21067   4.502   4.513  16.721 -0.0425 -0.6611  0.1094
 3145SOL    HW121068   4.529   4.452  16.653 -0.1904 -0.3023 -0.2712
 3145SOL    HW221069   4.583   4.522  16.771 -0.2198 -3.4074  0.8641
 3146SOL     OW21070   3.095   3.933   6.072  0.3265 -0.3139  0.9103
 3146SOL    HW121071   3.033   3.933   6.145 -0.8707 -0.8961 -0.1066
 3146SOL    HW221072   3.065   4.016   6.036  0.3244  0.1107  1.8880
 3147SOL     OW21073   1.315   3.140   3.056 -0.6208 -0.1636  0.1237
 3147SOL    HW121074   1.300   3.069   3.118  1.0956  0.3007  1.0829
 3147SOL    HW221075   1.283   3.102   2.974  0.5616 -2.2378  0.6082
 3148SOL     OW21076   3.935   4.542   7.529 -0.7347 -0.2504  0.2163
 3148SOL    HW121077   3.914   4.451   7.550 -2.6914  0.4543  1.2597
 3148SOL    HW221078   3.866   4.564   7.467  1.3368 -0.4946 -2.1739
 3149SOL     OW21079   0.032   0.408  11.538 -0.8121  0.7447  0.2370
 3149SOL    HW121080   0.122   0.422  11.568 -0.7468  0.5461  0.1338
 3149SOL    HW221081   0.028   0.439  11.448  0.6611  2.8122  0.8998
 3150SOL     OW21082   0.924   2.323   8.289 -0.2518  0.6315 -0.1764
 3150SOL    HW121083   1.005   2.324   8.340  0.2813  0.1612 -1.0119
 3150SOL    HW221084   0.924   2.403   8.236 -0.9845  1.0457  0.4559
 3151SOL     OW21085   3.984   2.391   7.347 -0.7242 -0.1176  0.4113
 3151SOL    HW121086   4.014   2.480   7.331 -0.6557 -0.1684  0.2552
 3151SOL    HW221087   3.917   2.368   7.281  0.0007 -0.1331 -0.3202
 3152SOL     OW21088   0.952   2.416   5.472 -0.6764  0.0799  0.5894
 3152SOL    HW121089   0.946   2.334   5.423  1.8598  1.2378 -1.6219
 3152SOL    HW221090   0.962   2.372   5.556  2.9430  1.5772  0.9295
 3153SOL     OW21091   0.628   2.975   3.764 -0.4948 -0.2128 -0.4447
 3153SOL    HW121092   0.570   2.902   3.744 -1.5149  0.7623 -1.0496
 3153SOL    HW221093   0.687   2.928   3.824  0.2219  1.3429  0.0819
 3154SOL     OW21094   2.189   3.478  16.216 -0.6051  0.2232  0.0342
 3154SOL    HW121095   2.147   3.453  16.298 -0.3292 -1.3933 -0.3061
 3154SOL    HW221096   2.125   3.432  16.162 -0.1006  1.3948 -1.5897
 3155SOL     OW21097   2.797   3.992   5.491  0.2542  0.2212 -0.1227
 3155SOL    HW121098   2.763   3.981   5.402  1.1039 -2.2167 -0.1593
 3155SOL    HW221099   2.718   3.979   5.542  1.1680 -1.6090  0.8216
 3156SOL     OW21100   0.321   2.443   2.383  0.5797 -0.0581  0.6499
 3156SOL    HW121101   0.352   2.417   2.470 -3.2533 -5.1636  0.4552
 3156SOL    HW221102   0.241   2.492   2.404  0.7877 -0.4592  2.4219
 3157SOL     OW21103   0.744   2.552   7.908  0.3982 -0.0015 -0.5147
 3157SOL    HW121104   0.698   2.469   7.900  0.5195 -0.0944 -0.2123
 3157SOL    HW221105   0.693   2.602   7.843 -0.5250 -0.0762  0.1620
 3158SOL     OW21106   4.632   2.562   6.029 -0.2673  0.9757 -0.0897
 3158SOL    HW121107   4.646   2.601   6.115 -0.5624  0.9072 -0.0105
 3158SOL    HW221108   4.680   2.622   5.972 -0.1079  0.4164 -0.5471
 3159SOL     OW21109   2.673   1.913  17.060 -0.7101 -1.3897 -0.0030
 3159SOL    HW121110   2.590   1.942  17.021  1.9645  0.2025 -4.5884
 3159SOL    HW221111   2.742   1.951  17.006  1.5931 -4.9857  0.4645
 3160SOL     OW21112   1.707   1.688   3.418 -0.2062 -0.2091 -0.0714
 3160SOL    HW121113   1.747   1.765   3.377  0.5437  0.6249  2.1783
 3160SOL    HW221114   1.739   1.623   3.356 -2.6970 -0.2759 -1.2640
 3161SOL     OW21115   2.790   1.674   3.180 -0.1908 -0.1943  0.0561
 3161SOL    HW121116   2.833   1.627   3.251 -2.0095 -0.3380  1.0743
 3161SOL    HW221117   2.811   1.622   3.103  0.1832 -1.1251  0.7839
 3162SOL     OW21118   3.088   3.802   2.141 -0.0394  0.7149  0.2640
 3162SOL    HW121119   3.032   3.759   2.076  0.9507  1.8814 -1.3574
 3162SOL    HW221120   3.148   3.728   2.151  1.9481  2.4871  1.3664
 3163SOL     OW21121   3.725   1.430  17.492  0.0243 -0.1500 -0.5249
 3163SOL    HW121122   3.819   1.415  17.481  0.2995  2.0905 -1.0399
 3163SOL    HW221123   3.708   1.411  17.399  1.0521  0.9579 -0.9339
 3164SOL     OW21124   1.671   1.610  10.038 -0.0946 -0.4274  0.1938
 3164SOL    HW121125   1.585   1.572  10.016 -0.8206  0.1220  2.0858
 3164SOL    HW221126   1.733   1.560   9.985  0.6126 -1.7140  2.2493
 3165SOL     OW21127   1.301   1.227   2.243  0.2029 -0.1129  0.0282
 3165SOL    HW121128   1.353   1.151   2.269  1.3309  0.4537 -0.6149
 3165SOL    HW221129   1.236   1.174   2.196 -1.5030  2.0378  0.0060
 3166SOL     OW21130   1.624   2.350   9.562 -0.2086  0.2062  0.8499
 3166SOL    HW121131   1.531   2.375   9.557 -0.4094 -0.4719  1.1648
 3166SOL    HW221132   1.654   2.361   9.472 -1.2962 -0.7319  0.3642
 3167SOL     OW21133   2.283   2.766  17.419  0.5165  0.3480 -0.6137
 3167SOL    HW121134   2.294   2.853  17.459  0.9627  0.3675 -0.7811
 3167SOL    HW221135   2.187   2.760  17.423  0.4448  1.1778 -1.1303
 3168SOL     OW21136   3.384   0.653   5.933 -0.4595  0.1532 -0.0335
 3168SOL    HW121137   3.345   0.624   5.851  2.5132 -1.5935 -0.8333
 3168SOL    HW221138   3.304   0.655   5.986  0.3667  3.4300  1.0852
 3169SOL     OW21139   0.559   3.385   6.269 -0.2664 -0.2613  0.2133
 3169SOL    HW121140   0.618   3.355   6.201  0.5354 -1.8644  1.6092
 3169SOL    HW221141   0.551   3.307   6.324 -1.5046 -1.3151 -1.4573
 3170SOL     OW21142   2.433   0.441   5.256  0.1764  0.0992 -0.4844
 3170SOL    HW121143   2.441   0.346   5.262  0.0376 -0.0124 -2.0599
 3170SOL    HW221144   2.442   0.451   5.161  0.2331 -1.3787 -0.6448
 3171SOL     OW21145   2.071   0.965   8.805  0.3984  0.1306  0.1905
 3171SOL    HW121146   1.999   0.950   8.744  0.8579  1.8852 -0.7989
 3171SOL    HW221147   2.125   0.890   8.780 -0.9355 -0.8637  0.3526
 3172SOL     OW21148   2.146   3.091   2.964 -1.2016 -0.7090 -0.3829
 3172SOL    HW121149   2.162   3.137   2.882  0.2241 -1.0516 -0.2933
 3172SOL    HW221150   2.081   3.029   2.931 -0.1319 -1.6070 -0.7983
 3173SOL     OW21151   3.233   4.589   0.883 -0.1739 -0.5192 -0.2755
 3173SOL    HW121152   3.284   4.512   0.906  0.2835  0.8823  3.4411
 3173SOL    HW221153   3.172   4.551   0.820 -1.5383  0.2557  0.5655
 3174SOL     OW21154   2.227   4.604   9.642 -0.3176 -0.0436 -0.0132
 3174SOL    HW121155   2.200   4.522   9.683 -0.3413  0.6428  1.3380
 3174SOL    HW221156   2.291   4.639   9.705  0.5328 -1.8093  0.1093
 3175SOL     OW21157   2.235   1.822   5.895 -0.3472  0.0795  0.3304
 3175SOL    HW121158   2.329   1.840   5.901 -0.5138  0.8169  0.7317
 3175SOL    HW221159   2.227   1.859   5.806 -0.7067  0.2953  0.4512
 3176SOL     OW21160   3.070   3.384   4.201 -0.0594  0.0593 -0.8489
 3176SOL    HW121161   3.058   3.467   4.155 -2.6953  0.1923  0.0840
 3176SOL    HW221162   3.165   3.377   4.189  0.3739  1.8472  1.5373
 3177SOL     OW21163   4.497   1.718   3.200 -0.2781  0.0138  0.2785
 3177SOL    HW121164   4.545   1.746   3.278  0.2433  2.6555 -0.9695
 3177SOL    HW221165   4.437   1.792   3.195 -1.9077 -1.1403  2.8231
 3178SOL     OW21166   0.708   1.505  12.050 -0.1254 -0.1517 -0.3541
 3178SOL    HW121167   0.769   1.547  11.990  0.4874 -3.3646 -1.9881
 3178SOL    HW221168   0.755   1.427  12.080  1.2357  0.3746 -1.1086
 3179SOL     OW21169   3.260   1.039   5.655  0.0212  0.8005 -0.1570
 3179SOL    HW121170   3.214   1.105   5.603 -0.6191 -0.1559 -0.8114
 3179SOL    HW221171   3.215   1.054   5.738  1.6865  0.9339  0.7074
 3180SOL     OW21172   3.605   2.772   0.888  0.6825  0.3707 -0.2982
 3180SOL    HW121173   3.652   2.727   0.959 -1.3087 -1.0065  0.1359
 3180SOL    HW221174   3.573   2.697   0.838 -0.7278  1.1998 -0.6325
 3181SOL     OW21175   2.286   2.482  15.349  0.5316  0.7176 -0.3193
 3181SOL    HW121176   2.346   2.525  15.410  0.0154 -1.1817  1.5567
 3181SOL    HW221177   2.198   2.489  15.384  0.9594  0.4708  0.8170
 3182SOL     OW21178   1.197   0.802   2.990 -0.0089  0.4068 -0.1440
 3182SOL    HW121179   1.260   0.864   3.027  1.8844 -2.3241  1.2868
 3182SOL    HW221180   1.132   0.851   2.941 -1.4016 -2.0155 -0.7264
 3183SOL     OW21181   3.204   3.285   2.374 -0.2795  0.1934  0.7733
 3183SOL    HW121182   3.299   3.301   2.376 -0.6520  2.5501 -0.0018
 3183SOL    HW221183   3.182   3.333   2.454 -0.0199  2.0272 -0.2649
 3184SOL     OW21184   2.569   4.057   5.799  0.4340 -0.3813  0.4538
 3184SOL    HW121185   2.598   3.968   5.778  1.3578  0.0749 -0.1976
 3184SOL    HW221186   2.557   4.092   5.711  0.4600  1.3525  1.1468
 3185SOL     OW21187   3.085   3.747  15.126  0.3529 -0.1217  0.5384
 3185SOL    HW121188   3.018   3.785  15.068  0.7637  0.4962  0.4649
 3185SOL    HW221189   3.043   3.665  15.151  2.2756 -1.4145 -0.3882
 3186SOL     OW21190   0.860   3.734   0.523 -0.2304 -0.8576  0.7817
 3186SOL    HW121191   0.786   3.716   0.580 -0.3075 -1.9423  0.3239
 3186SOL    HW221192   0.854   3.830   0.518  1.0331 -0.8896 -1.2949
 3187SOL     OW21193   4.042   1.984  10.042  0.7400  0.6113  0.1400
 3187SOL    HW121194   4.131   1.995  10.009  0.8483 -0.5520  0.0327
 3187SOL    HW221195   4.044   1.894  10.075  0.0226  0.7531  0.5759
 3188SOL     OW21196   0.730   2.093   8.528  0.1167  0.5267  0.4866
 3188SOL    HW121197   0.637   2.091   8.505  0.4568  0.3597 -0.8602
 3188SOL    HW221198   0.763   2.062   8.444  0.9951  0.1219  0.9871
 3189SOL     OW21199   0.590   0.471  13.886 -0.3016 -0.1893 -0.6054
 3189SOL    HW121200   0.605   0.484  13.793 -0.2447 -1.5347 -0.7790
 3189SOL    HW221201   0.616   0.379  13.891 -0.2881  0.0624  4.4034
 3190SOL     OW21202   3.482   1.546   0.330  0.0612 -0.2080  0.2695
 3190SOL    HW121203   3.542   1.619   0.319 -0.1150 -0.1065 -0.0331
 3190SOL    HW221204   3.444   1.563   0.416  1.1656  1.1371  0.4858
 3191SOL     OW21205   0.539   0.864   8.787 -0.1945  0.0457 -0.0286
 3191SOL    HW121206   0.545   0.770   8.769 -1.7304 -0.2458  0.9928
 3191SOL    HW221207   0.465   0.885   8.731  0.9056  0.2269 -1.4229
 3192SOL     OW21208   0.404   1.999   3.315 -0.3573 -0.1056  0.3278
 3192SOL    HW121209   0.389   2.071   3.376  0.2444  1.3779 -1.2412
 3192SOL    HW221210   0.378   1.929   3.374  1.0492 -0.2506  0.7569
 3193SOL     OW21211   3.302   1.915  15.914 -0.6142 -0.5929 -0.1064
 3193SOL    HW121212   3.333   1.958  15.994  0.7082  2.0497 -2.0280
 3193SOL    HW221213   3.321   1.991  15.858 -2.9332  0.3727  0.4153
 3194SOL     OW21214   1.414   4.244   7.280 -0.4551 -0.4278  0.1269
 3194SOL    HW121215   1.340   4.296   7.311  1.6064  1.4464  1.8714
 3194SOL    HW221216   1.360   4.182   7.230 -0.2580 -0.5585  0.0761
 3195SOL     OW21217   3.491   2.096   7.714  0.0645  0.1882 -0.1214
 3195SOL    HW121218   3.499   2.126   7.804 -3.2579  1.5493 -0.2672
 3195SOL    HW221219   3.403   2.060   7.708  0.9422 -1.8698 -0.5664
 3196SOL     OW21220   0.663   2.599  17.602 -0.0653  0.1168  0.2601
 3196SOL    HW121221   0.574   2.577  17.628  0.2737 -0.6379  0.8026
 3196SOL    HW221222   0.723   2.550  17.660  0.5569 -0.7884 -1.1527
 3197SOL     OW21223   2.095   0.865  13.488 -0.2386  0.5937 -0.5426
 3197SOL    HW121224   2.031   0.793  13.489 -0.4837  0.8409  3.4904
 3197SOL    HW221225   2.134   0.863  13.575 -1.0678 -0.4498 -0.1920
 3198SOL     OW21226   0.928   2.336  10.392  0.2600  0.4717 -0.2688
 3198SOL    HW121227   0.886   2.368  10.313 -3.0050  0.5441  1.5005
 3198SOL    HW221228   0.867   2.385  10.447  0.5351  0.7201 -0.1887
 3199SOL     OW21229   2.209   3.537   4.040 -0.0806  0.2060  0.2247
 3199SOL    HW121230   2.231   3.520   4.131 -0.4504 -3.3628 -0.3565
 3199SOL    HW221231   2.288   3.534   3.987 -1.0473 -2.6738 -1.0855
 3200SOL     OW21232   3.439   4.574   3.129  0.0748 -0.2944  0.2442
 3200SOL    HW121233   3.474   4.498   3.174 -1.4827 -1.9625 -1.3968
 3200SOL    HW221234   3.345   4.564   3.139 -0.0521 -0.0819 -0.7226
 3201SOL     OW21235   4.293   1.575   5.458 -0.3458 -0.5277 -0.3199
 3201SOL    HW121236   4.372   1.584   5.404  0.3461  1.2365  1.0105
 3201SOL    HW221237   4.286   1.664   5.491  1.1703  0.4741 -2.6568
 3202SOL     OW21238   1.321   0.188  17.594  0.1042  0.1240  0.5238
 3202SOL    HW121239   1.315   0.249  17.668 -1.6598 -0.2594  0.7104
 3202SOL    HW221240   1.314   0.240  17.514 -1.1124 -0.4116  0.2831
 3203SOL     OW21241   1.269   1.215   1.403  0.7614 -0.0053 -0.2911
 3203SOL    HW121242   1.227   1.130   1.400 -0.2173  0.5095 -1.3444
 3203SOL    HW221243   1.191   1.269   1.417  1.8401  2.2707 -2.8610
 3204SOL     OW21244   0.843   2.092  13.383  0.0727  0.2856 -0.3313
 3204SOL    HW121245   0.773   2.047  13.431  1.2183 -0.2719  0.8335
 3204SOL    HW221246   0.812   2.092  13.293 -1.6255 -0.9000  0.2411
 3205SOL     OW21247   3.572   3.875   9.391 -0.8627 -0.3716  0.1114
 3205SOL    HW121248   3.628   3.951   9.373  0.0915 -1.2020 -0.4618
 3205SOL    HW221249   3.616   3.813   9.333  0.7147 -1.4230  2.4352
 3206SOL     OW21250   0.643   1.630   4.455  0.1848  0.2498  0.3664
 3206SOL    HW121251   0.638   1.569   4.529 -0.4920 -0.3951 -0.2044
 3206SOL    HW221252   0.714   1.582   4.412 -0.3677 -0.1694 -0.0915
 3207SOL     OW21253   2.214   3.355   6.864  0.8012  0.6251  0.4596
 3207SOL    HW121254   2.124   3.379   6.887 -0.3174 -1.5511 -1.6949
 3207SOL    HW221255   2.229   3.273   6.911 -3.3068  0.6633  1.9010
 3208SOL     OW21256   2.314   1.488   5.999 -0.1694  0.1145  0.1084
 3208SOL    HW121257   2.391   1.545   5.994 -1.5327  1.9200 -0.5256
 3208SOL    HW221258   2.262   1.523   5.926  3.2228  1.8644 -1.4557
 3209SOL     OW21259   1.763   1.623  10.912  0.2774 -0.0746 -0.2429
 3209SOL    HW121260   1.680   1.670  10.900  0.4974  0.5755  0.7681
 3209SOL    HW221261   1.754   1.546  10.855 -1.1790  1.4297 -2.0696
 3210SOL     OW21262   2.189   2.459   6.733 -0.0999  0.0904  0.6474
 3210SOL    HW121263   2.119   2.524   6.744 -1.5729 -1.6474  1.6335
 3210SOL    HW221264   2.196   2.426   6.823  1.9578 -0.2828  0.3537
 3211SOL     OW21265   4.392   0.005   8.257  0.3928 -0.4112 -0.3521
 3211SOL    HW121266   4.419   0.027   8.347 -2.2362  0.1689  0.3107
 3211SOL    HW221267   4.473   4.704   8.225  0.1536 -1.4939  0.3251
 3212SOL     OW21268   2.509   3.235  12.669  0.4810  0.5150  0.2956
 3212SOL    HW121269   2.442   3.195  12.615  1.1880 -1.0673  0.5954
 3212SOL    HW221270   2.556   3.284  12.601  0.2473 -0.0587 -0.2767
 3213SOL     OW21271   3.206   4.377  10.888  0.6932 -0.1369  1.0249
 3213SOL    HW121272   3.160   4.361  10.970  1.3471 -2.1687  0.9849
 3213SOL    HW221273   3.172   4.321  10.818  0.1559  0.9967  0.3572
 3214SOL     OW21274   2.343   4.410   4.946 -0.3237  0.1514  0.2659
 3214SOL    HW121275   2.318   4.378   4.859 -1.0810 -0.0650  0.5623
 3214SOL    HW221276   2.427   4.366   4.959  0.6380  1.7719 -0.5290
 3215SOL     OW21277   1.220   3.449  11.257 -0.0659 -0.8469  0.6275
 3215SOL    HW121278   1.127   3.472  11.267  0.6506  2.1757  0.5189
 3215SOL    HW221279   1.243   3.392  11.330 -1.6217 -2.9748 -0.5255
 3216SOL     OW21280   4.636   1.568   4.794  0.8354  0.1298 -0.3953
 3216SOL    HW121281   4.628   1.663   4.800 -2.3180 -0.0155 -2.6314
 3216SOL    HW221282   4.721   1.557   4.752  0.4049  0.9175 -1.4704
 3217SOL     OW21283   0.583   4.673   9.255  0.0003  0.9100  0.3108
 3217SOL    HW121284   0.532   4.721   9.189 -1.0776  0.2599  0.6679
 3217SOL    HW221285   0.600   4.735   9.326  4.7056  0.1720 -0.1497
 3218SOL     OW21286   1.899   4.244   5.341  0.2982 -0.3470 -0.6844
 3218SOL    HW121287   1.933   4.231   5.252  0.4833  0.5333 -0.7469
 3218SOL    HW221288   1.832   4.311   5.325  1.7486  0.8721 -1.6445
 3219SOL     OW21289   1.865   2.781   0.363  0.0148 -0.4887  1.0019
 3219SOL    HW121290   1.923   2.785   0.439  0.0063 -0.7588  1.0217
 3219SOL    HW221291   1.908   2.831   0.293 -1.4079 -0.6414  0.0170
 3220SOL     OW21292   3.789   4.142   6.686 -0.0789 -0.2349 -0.4635
 3220SOL    HW121293   3.832   4.152   6.771  1.0844  1.1434 -1.2100
 3220SOL    HW221294   3.750   4.228   6.669 -0.4073  0.0706  1.8007
 3221SOL     OW21295   2.932   1.033   1.191 -0.0667 -0.2890  0.4285
 3221SOL    HW121296   2.893   0.949   1.169  1.9858 -0.7277 -1.4344
 3221SOL    HW221297   2.971   1.054   1.107 -0.3414 -0.8315  0.1680
 3222SOL     OW21298   0.281   3.677  17.103  0.0358 -0.8840 -0.2006
 3222SOL    HW121299   0.204   3.674  17.159  1.8844  0.0575  2.3479
 3222SOL    HW221300   0.342   3.708  17.169 -1.3849 -1.1379  1.2165
 3223SOL     OW21301   1.403   3.788  16.384  0.3438 -0.7925 -0.1459
 3223SOL    HW121302   1.370   3.873  16.355  0.3495 -0.8515 -0.3237
 3223SOL    HW221303   1.496   3.804  16.402  0.3022 -1.2359  0.5132
 3224SOL     OW21304   2.412   2.748   2.504 -0.1736 -0.5692  0.2143
 3224SOL    HW121305   2.473   2.748   2.578 -2.3847  0.0536  2.0423
 3224SOL    HW221306   2.449   2.678   2.451 -0.9334 -0.7549 -0.0658
 3225SOL     OW21307   4.094   1.228  13.346  0.9030 -0.4300 -0.2369
 3225SOL    HW121308   4.105   1.236  13.441 -1.9234 -0.0626  0.0389
 3225SOL    HW221309   4.187   1.251  13.335  0.0161  4.2619  2.1271
 3226SOL     OW21310   3.052   3.210   2.824 -0.2458  0.0515  0.6826
 3226SOL    HW121311   2.991   3.190   2.753  1.1639 -1.3145 -0.1667
 3226SOL    HW221312   2.989   3.252   2.882  1.5045  1.2612  1.7014
 3227SOL     OW21313   2.018   0.984  12.945 -0.5349  0.7082 -0.0491
 3227SOL    HW121314   1.928   0.951  12.953 -0.7334  1.4111  0.6460
 3227SOL    HW221315   2.019   1.046  13.017  1.0362  1.1975 -0.4905
 3228SOL     OW21316   1.648   1.427  12.270 -0.0890 -0.3007  0.4230
 3228SOL    HW121317   1.586   1.380  12.325  0.4140 -2.0010 -0.4563
 3228SOL    HW221318   1.625   1.387  12.186 -2.1945  1.3726  0.1994
 3229SOL     OW21319   2.833   4.097   3.263 -0.4562  0.2190  0.0751
 3229SOL    HW121320   2.778   4.147   3.323  1.1196  1.1893  0.7165
 3229SOL    HW221321   2.772   4.077   3.193 -0.7439  0.3480  0.2922
 3230SOL     OW21322   1.512   4.532   2.396  0.2577  0.3346 -0.7363
 3230SOL    HW121323   1.527   4.455   2.341  0.2664  0.8823 -1.4954
 3230SOL    HW221324   1.427   4.556   2.359 -0.3103 -0.2724  0.1678
 3231SOL     OW21325   1.480   3.955  10.292 -0.5830 -0.2313  0.2014
 3231SOL    HW121326   1.554   3.922  10.344 -1.7898 -2.5297  0.4372
 3231SOL    HW221327   1.460   4.035  10.341  0.3410  2.3939 -3.6705
 3232SOL     OW21328   3.806   0.616  15.899 -0.0964  0.0659  0.2597
 3232SOL    HW121329   3.801   0.581  15.810 -1.9489  1.1580 -0.0650
 3232SOL    HW221330   3.723   0.580  15.932  1.6307 -3.5122  0.7395
 3233SOL     OW21331   4.592   3.825   8.234 -0.2011 -0.2340 -0.8323
 3233SOL    HW121332   4.561   3.843   8.145 -0.3944 -2.3692 -1.1888
 3233SOL    HW221333   4.639   3.908   8.243 -1.0232  0.0806  0.4811
 3234SOL     OW21334   2.540   2.320  15.580  0.6553 -0.2317  0.2473
 3234SOL    HW121335   2.590   2.331  15.661  3.7572 -0.9670 -1.5452
 3234SOL    HW221336   2.451   2.340  15.608 -0.0661 -3.4541  0.2090
 3235SOL     OW21337   1.831   0.170   6.604 -0.3191 -0.1979  0.1391
 3235SOL    HW121338   1.869   0.097   6.555 -0.9743  0.4663 -1.3452
 3235SOL    HW221339   1.905   0.230   6.609  0.5364 -1.4263  2.0769
 3236SOL     OW21340   1.792   0.038   4.174  0.0452 -0.2790 -0.4140
 3236SOL    HW121341   1.852   0.109   4.195 -1.1284  0.9378 -1.1565
 3236SOL    HW221342   1.841   4.697   4.198  1.1892  0.4879 -0.2621
 3237SOL     OW21343   4.369   1.787   9.475  0.0493 -0.7680 -0.2109
 3237SOL    HW121344   4.338   1.778   9.565  2.4359 -0.8785  0.5937
 3237SOL    HW221345   4.460   1.810   9.493 -0.2293  0.2440 -0.0692
 3238SOL     OW21346   1.149   1.432   5.157 -0.0342  0.1861  0.6821
 3238SOL    HW121347   1.131   1.380   5.235 -0.6621  2.2847  1.9128
 3238SOL    HW221348   1.177   1.514   5.197 -0.1448  0.7251 -0.3445
 3239SOL     OW21349   0.989   4.342   2.672 -0.3709 -0.5779 -0.6700
 3239SOL    HW121350   0.983   4.334   2.576 -1.1100  2.2005 -0.8702
 3239SOL    HW221351   0.913   4.290   2.697 -1.9912  2.4661  0.6774
 3240SOL     OW21352   0.551   0.095   4.362  0.2372  0.6096 -0.2247
 3240SOL    HW121353   0.518   0.014   4.323  1.3616  0.9291 -1.8258
 3240SOL    HW221354   0.492   0.160   4.324 -1.6714 -1.4521 -0.8120
 3241SOL     OW21355   0.059   3.311   7.611 -0.1746 -0.4507  0.0616
 3241SOL    HW121356   0.135   3.269   7.573 -0.7128  0.5249 -2.1283
 3241SOL    HW221357   0.065   3.400   7.575 -0.3514 -0.7538 -0.7204
 3242SOL     OW21358   1.196   0.220  16.795  0.2368  0.4612  0.0819
 3242SOL    HW121359   1.283   0.226  16.834  0.2938 -0.4263  0.0935
 3242SOL    HW221360   1.163   0.309  16.796 -0.2909  0.2574  0.5811
 3243SOL     OW21361   3.693   3.400  11.679  0.3145  0.7287  0.4342
 3243SOL    HW121362   3.776   3.361  11.707  0.1607  0.1020  0.0346
 3243SOL    HW221363   3.711   3.492  11.693  0.8560  0.8031 -0.7579
 3244SOL     OW21364   1.153   1.570  11.383 -0.4617 -0.2272  0.3032
 3244SOL    HW121365   1.095   1.498  11.359 -0.9886  0.3345 -0.1223
 3244SOL    HW221366   1.154   1.617  11.300  1.1385  0.2210  0.5815
 3245SOL     OW21367   4.553   2.819   9.883 -0.1623 -0.5555 -0.3942
 3245SOL    HW121368   4.610   2.748   9.853  0.3519 -0.2881 -0.0419
 3245SOL    HW221369   4.601   2.894   9.849 -0.4768  0.7014  1.9634
 3246SOL     OW21370   0.914   3.396   3.974 -0.3167 -0.6852  0.6103
 3246SOL    HW121371   0.822   3.395   4.001 -0.3491  0.8313  0.5643
 3246SOL    HW221372   0.905   3.394   3.878 -1.5241  0.4098  0.6902
 3247SOL     OW21373   3.901   2.782   6.963 -0.0470 -0.1722 -0.2936
 3247SOL    HW121374   3.864   2.808   7.047 -0.3977 -1.6462  0.0050
 3247SOL    HW221375   3.975   2.843   6.954 -0.5811  0.8059  2.0618
 3248SOL     OW21376   1.954   3.003  14.992 -0.1887 -0.2443  0.7757
 3248SOL    HW121377   2.031   2.949  15.007 -0.1203 -0.6671 -1.0854
 3248SOL    HW221378   1.935   3.015  14.899 -3.1664  0.0260  1.4055
 3249SOL     OW21379   1.560   1.371   7.245 -0.4181 -0.4168 -0.1705
 3249SOL    HW121380   1.550   1.325   7.329  0.4941  1.2345  0.8244
 3249SOL    HW221381   1.480   1.423   7.248  0.4415  0.8990 -0.2932
 3250SOL     OW21382   1.958   4.612   2.021  0.2660  0.6159  0.1415
 3250SOL    HW121383   2.002   4.554   1.959 -2.2888  0.5091 -1.5605
 3250SOL    HW221384   1.942   4.553   2.095 -0.0954  0.6523  0.0921
 3251SOL     OW21385   2.451   4.106   6.040  0.0787  0.6491 -0.0408
 3251SOL    HW121386   2.494   4.073   5.961 -1.2286  0.8913 -0.8589
 3251SOL    HW221387   2.372   4.053   6.032 -1.0717  2.3306  0.1796
 3252SOL     OW21388   3.886   4.145  16.158 -0.7189 -0.5854  0.7593
 3252SOL    HW121389   3.877   4.236  16.132  2.2687 -0.6716 -0.6779
 3252SOL    HW221390   3.973   4.137  16.119 -2.0011  0.2385 -2.2162
 3253SOL     OW21391   4.324   0.445   6.098  0.2637  0.3559 -0.3984
 3253SOL    HW121392   4.416   0.469   6.111 -0.0247  1.2208  0.0618
 3253SOL    HW221393   4.292   0.424   6.185 -1.1461 -0.5265 -1.1383
 3254SOL     OW21394   1.305   3.923   8.483 -0.3566  0.1600 -0.4398
 3254SOL    HW121395   1.256   3.943   8.404  1.1931  0.2218 -1.3759
 3254SOL    HW221396   1.291   4.000   8.538 -0.1999 -0.8014  0.9630
 3255SOL     OW21397   0.387   3.119   5.161  0.3224 -0.5102 -0.6577
 3255SOL    HW121398   0.372   3.024   5.163 -0.5694 -0.3849 -1.3863
 3255SOL    HW221399   0.460   3.117   5.100 -0.5390  2.8866 -1.8206
 3256SOL     OW21400   2.630   2.304   3.520 -0.3075  0.0867 -0.1342
 3256SOL    HW121401   2.547   2.341   3.551 -1.3756 -0.8502 -1.8661
 3256SOL    HW221402   2.694   2.311   3.591 -1.5107 -0.8491  1.0377
 3257SOL     OW21403   4.086   3.670   6.776 -0.0899  0.5211 -0.4387
 3257SOL    HW121404   4.147   3.682   6.848 -0.9859  1.1488  0.2212
 3257SOL    HW221405   4.139   3.686   6.697  0.8981  1.0646  0.3391
 3258SOL     OW21406   0.830   1.758   5.912  0.4721  0.1569 -0.2027
 3258SOL    HW121407   0.747   1.768   5.866  0.9719 -0.0367 -1.1422
 3258SOL    HW221408   0.813   1.837   5.964  0.6022 -0.1060  0.2434
 3259SOL     OW21409   3.732   1.035   3.219 -0.0681  0.3800 -0.5124
 3259SOL    HW121410   3.711   1.098   3.288  0.9545  1.0379 -0.7903
 3259SOL    HW221411   3.826   1.030   3.238  0.4135  0.1556 -2.8869
 3260SOL     OW21412   3.300   2.123   1.640 -0.2263 -0.2496 -0.0667
 3260SOL    HW121413   3.260   2.208   1.625 -1.0909 -0.6384  0.0559
 3260SOL    HW221414   3.259   2.113   1.725 -0.5904 -1.4839 -0.3858
 3261SOL     OW21415   1.678   3.745  10.162 -0.4356  0.0602  0.1724
 3261SOL    HW121416   1.721   3.831  10.169 -1.2709  0.6473 -1.7375
 3261SOL    HW221417   1.671   3.729  10.068  0.7142 -0.6774  0.2059
 3262SOL     OW21418   1.925   2.121   8.370 -0.8456 -0.5830 -0.3404
 3262SOL    HW121419   1.832   2.131   8.353 -0.5775  1.3558 -0.6443
 3262SOL    HW221420   1.928   2.032   8.405  0.4048 -0.7483 -0.8721
 3263SOL     OW21421   2.656   0.354  12.846  0.3784  0.1414 -0.0573
 3263SOL    HW121422   2.706   0.398  12.777 -0.5430 -1.5021 -1.7760
 3263SOL    HW221423   2.703   0.273  12.864  0.2419  0.0420 -0.1488
 3264SOL     OW21424   1.258   2.571   9.326 -0.2581  0.2413 -0.6471
 3264SOL    HW121425   1.297   2.657   9.342  1.2058 -0.8316  1.6375
 3264SOL    HW221426   1.169   2.594   9.303  0.3805  1.6621 -1.6876
 3265SOL     OW21427   2.213   0.600   5.625 -0.1044  0.0863 -0.1675
 3265SOL    HW121428   2.291   0.648   5.652  0.2690 -0.5374 -0.1421
 3265SOL    HW221429   2.222   0.613   5.530 -0.0575 -3.2614 -0.6202
 3266SOL     OW21430   3.490   0.333   0.034  0.1426 -0.2183  0.3997
 3266SOL    HW121431   3.427   0.336  17.708 -0.2380 -1.0762  0.7004
 3266SOL    HW221432   3.497   0.423   0.064 -1.3651  0.4980 -1.3496
 3267SOL     OW21433   4.589   1.096   6.511 -0.1123 -0.1799 -0.2352
 3267SOL    HW121434   4.599   1.106   6.605 -1.0289 -1.8355  0.0423
 3267SOL    HW221435   4.549   1.010   6.499 -1.8292  0.8784 -2.2065
 3268SOL     OW21436   1.094   0.176   0.286  0.2284 -0.6726 -0.1116
 3268SOL    HW121437   1.028   0.132   0.233 -1.4109  0.8454  0.6501
 3268SOL    HW221438   1.170   0.118   0.284 -0.0118 -1.0292  0.8661
 3269SOL     OW21439   4.454   1.902   2.963 -0.5121  0.0592 -0.3911
 3269SOL    HW121440   4.512   1.833   2.931  0.1505  1.9772 -3.1968
 3269SOL    HW221441   4.424   1.944   2.883  0.8554 -0.1131 -0.9897
 3270SOL     OW21442   1.279   1.225   5.672  0.3286 -0.0028 -0.1407
 3270SOL    HW121443   1.271   1.132   5.696 -1.0081  0.2007  0.2151
 3270SOL    HW221444   1.364   1.223   5.627  1.3469 -0.1932  1.7783
 3271SOL     OW21445   3.836   4.318   1.029  0.2973 -0.3592  0.2647
 3271SOL    HW121446   3.881   4.402   1.029 -0.5811  0.1110  2.7919
 3271SOL    HW221447   3.751   4.351   1.002 -0.0095 -1.8072 -0.5264
 3272SOL     OW21448   0.750   2.106  13.150 -0.1070 -0.0074  0.4018
 3272SOL    HW121449   0.771   2.117  13.057 -1.7608 -0.7205 -0.0493
 3272SOL    HW221450   0.676   2.165  13.151  2.0763  2.7863 -2.3668
 3273SOL     OW21451   1.963   0.177   3.264 -0.3633 -0.2080 -0.2330
 3273SOL    HW121452   1.960   0.191   3.359  0.2340 -3.0201  0.1896
 3273SOL    HW221453   1.871   0.156   3.250 -0.4723 -0.1655  0.4374
 3274SOL     OW21454   1.036   4.050  10.402  0.5349 -0.4390  0.7815
 3274SOL    HW121455   0.951   4.010  10.421  0.4700  0.3080  2.0651
 3274SOL    HW221456   1.046   4.114  10.473  0.8607 -2.0084  2.1643
 3275SOL     OW21457   0.088   2.446  12.511 -0.6181  0.3357  0.7034
 3275SOL    HW121458   0.067   2.519  12.453  0.7347  1.1978  1.3046
 3275SOL    HW221459   0.167   2.478  12.555 -0.6334 -0.9261  1.6826
 3276SOL     OW21460   2.890   0.609   5.507  0.9130  0.1365 -0.1978
 3276SOL    HW121461   2.946   0.558   5.565  0.9372  2.6332  1.9641
 3276SOL    HW221462   2.853   0.538   5.454  0.7197 -0.8695  1.2945
 3277SOL     OW21463   0.870   2.824   6.957 -0.2941  0.2568  0.1899
 3277SOL    HW121464   0.869   2.916   6.930  2.2148 -0.5758 -2.7245
 3277SOL    HW221465   0.802   2.802   6.894 -1.6198 -0.3175  1.8580
 3278SOL     OW21466   0.908   0.927   7.424 -0.3961 -0.3119  0.4347
 3278SOL    HW121467   0.838   0.886   7.373 -1.2092  0.0241  1.2977
 3278SOL    HW221468   0.869   0.928   7.511 -1.0841  2.2599  0.1064
 3279SOL     OW21469   1.838   1.788  14.232 -0.4263  0.3767  0.2981
 3279SOL    HW121470   1.837   1.692  14.226  0.1385  0.3553  0.5242
 3279SOL    HW221471   1.844   1.799  14.327  0.4263 -1.3706  0.4617
 3280SOL     OW21472   0.518   3.729   7.255 -0.1540 -0.3163  0.4047
 3280SOL    HW121473   0.462   3.803   7.232 -0.8049 -0.8177  0.4005
 3280SOL    HW221474   0.526   3.748   7.349 -1.2566  0.8583  0.2568
 3281SOL     OW21475   3.250   1.025   3.109  0.2275  0.4445  0.0099
 3281SOL    HW121476   3.220   1.005   3.021 -1.5355 -2.6952  1.3186
 3281SOL    HW221477   3.158   1.023   3.138  0.5050  0.7590  0.9185
 3282SOL     OW21478   0.411   0.410   4.518 -0.1667 -0.1810 -0.1928
 3282SOL    HW121479   0.411   0.420   4.613 -0.0357  3.3139 -0.5663
 3282SOL    HW221480   0.506   0.413   4.506 -0.2789 -0.2174 -1.1565
 3283SOL     OW21481   4.323   3.310   0.096 -0.4917 -0.4931  0.2920
 3283SOL    HW121482   4.267   3.243   0.135 -0.3222 -1.3836 -0.9783
 3283SOL    HW221483   4.408   3.269   0.078  1.2641  2.9853  0.5995
 3284SOL     OW21484   2.730   4.605   6.113 -0.1988 -0.1892  0.1118
 3284SOL    HW121485   2.667   4.558   6.057  1.1192 -1.7429 -0.0522
 3284SOL    HW221486   2.699   4.571   6.197 -0.5687 -1.7446 -0.6403
 3285SOL     OW21487   1.841   4.358  13.544  0.1864  0.3413 -0.4626
 3285SOL    HW121488   1.809   4.332  13.630 -0.1245  0.7341 -0.4577
 3285SOL    HW221489   1.790   4.438  13.527  0.6207  0.8022  0.4385
 3286SOL     OW21490   2.464   0.097   6.643  0.0039 -0.2741 -0.1090
 3286SOL    HW121491   2.391   0.067   6.696 -0.7720 -0.2113 -1.1476
 3286SOL    HW221492   2.419   0.098   6.559  0.1102  0.7441 -0.1562
 3287SOL     OW21493   3.182   0.201   0.129 -0.0792  0.7659 -0.2681
 3287SOL    HW121494   3.235   0.260   0.076  0.4462 -0.7623 -1.4264
 3287SOL    HW221495   3.160   0.262   0.200 -0.1562 -1.6694  1.8180
 3288SOL     OW21496   0.783   0.820   1.988 -0.4541 -0.2736 -0.2720
 3288SOL    HW121497   0.805   0.881   2.059  0.3929 -1.1848  0.2538
 3288SOL    HW221498   0.689   0.837   1.978 -0.4080  0.0657 -0.1488
 3289SOL     OW21499   0.481   3.412   8.596  0.0555 -0.6572 -0.3840
 3289SOL    HW121500   0.450   3.351   8.664 -2.1345  0.5727 -0.2742
 3289SOL    HW221501   0.395   3.444   8.569 -0.2162 -1.3560 -0.3714
 3290SOL     OW21502   0.935   3.419   6.846 -0.2451  0.2017 -0.2192
 3290SOL    HW121503   0.993   3.383   6.778 -1.0859 -3.2320  0.8992
 3290SOL    HW221504   0.864   3.355   6.851  1.7500 -2.1515 -1.4320
 3291SOL     OW21505   1.812   0.832   8.890 -0.4651 -0.0703  0.1076
 3291SOL    HW121506   1.811   0.786   8.974 -0.4780 -0.3355 -0.0386
 3291SOL    HW221507   1.879   0.782   8.844 -1.7399 -0.8920 -0.8426
 3292SOL     OW21508   3.140   2.845   5.232 -0.5409  0.3812  0.2368
 3292SOL    HW121509   3.219   2.859   5.285 -1.3783 -0.3828  1.7000
 3292SOL    HW221510   3.079   2.795   5.288 -1.5546  0.9177 -0.3950
 3293SOL     OW21511   2.391   4.707   1.182  0.2461 -0.4532 -0.5294
 3293SOL    HW121512   2.336   4.733   1.256  0.3850 -1.8048  0.0437
 3293SOL    HW221513   2.337   4.691   1.105 -1.4044  1.5872  0.2097
 3294SOL     OW21514   0.960   3.212   2.957 -0.8114 -0.0820 -0.1951
 3294SOL    HW121515   0.874   3.179   2.982 -0.8720 -0.5010 -0.9747
 3294SOL    HW221516   0.993   3.226   3.046  0.7160 -0.1556 -0.7432
 3295SOL     OW21517   2.284   4.286   3.049  0.5763  0.0691 -0.0324
 3295SOL    HW121518   2.293   4.376   3.078  2.3495 -0.6802  1.7382
 3295SOL    HW221519   2.204   4.256   3.093 -0.2284  0.5872 -1.1277
 3296SOL     OW21520   0.407   0.861   5.076 -0.2580 -0.5505 -0.0773
 3296SOL    HW121521   0.455   0.787   5.111  0.7209 -0.6590 -1.6270
 3296SOL    HW221522   0.406   0.921   5.151  3.6475  0.0287 -0.4683
 3297SOL     OW21523   2.228   0.009   0.874  0.1350 -0.5794  0.6024
 3297SOL    HW121524   2.174   0.078   0.911  2.5197  1.8641 -0.5084
 3297SOL    HW221525   2.170   4.711   0.807  0.1971  2.4682 -1.0070
 3298SOL     OW21526   0.857   1.975   6.271 -0.5452  0.1472  0.4889
 3298SOL    HW121527   0.934   1.921   6.291 -0.0402  0.3183 -0.9970
 3298SOL    HW221528   0.798   1.955   6.343  0.6618 -1.5472  0.9991
 3299SOL     OW21529   3.902   3.758   9.010  0.4752 -0.4127  0.2491
 3299SOL    HW121530   3.908   3.847   8.975  1.1134 -0.2133  0.8571
 3299SOL    HW221531   3.988   3.759   9.054  0.1813  0.4511  0.8010
 3300SOL     OW21532   0.629   0.273   8.671  0.0132  0.3876  0.1718
 3300SOL    HW121533   0.622   0.179   8.655 -3.1778 -0.0311  3.7579
 3300SOL    HW221534   0.722   0.287   8.684  0.2487 -1.2373  0.2857
 3301SOL     OW21535   1.356   2.635   8.971 -0.0459 -0.0044  0.3265
 3301SOL    HW121536   1.399   2.611   9.053  2.6207  0.3726 -0.9394
 3301SOL    HW221537   1.272   2.668   9.002  0.6809  0.0589  2.2255
 3302SOL     OW21538   3.852   3.453   3.324  0.4039  0.1293 -0.0645
 3302SOL    HW121539   3.882   3.488   3.407 -1.9145  2.8083 -0.3785
 3302SOL    HW221540   3.834   3.532   3.273 -0.1290 -0.2858 -0.5240
 3303SOL     OW21541   1.920   1.046   7.574 -0.3617  0.2058  0.0383
 3303SOL    HW121542   1.950   1.137   7.581  0.8290 -0.3494  2.2829
 3303SOL    HW221543   1.997   1.004   7.535 -1.4738 -0.3623 -1.5421
 3304SOL     OW21544   1.438   0.967  12.811 -0.5369  0.2248 -0.2229
 3304SOL    HW121545   1.445   0.967  12.906  0.4245  1.8584 -0.3012
 3304SOL    HW221546   1.528   0.945  12.784 -0.9652 -2.4260  0.4672
 3305SOL     OW21547   1.486   2.327   5.578 -0.3031  0.2816  0.5318
 3305SOL    HW121548   1.464   2.239   5.608 -0.3209  0.9211  2.3869
 3305SOL    HW221549   1.572   2.335   5.620 -0.3700  0.2966  0.6641
 3306SOL     OW21550   4.504   4.058  15.583 -0.6702 -0.1211 -0.0184
 3306SOL    HW121551   4.427   4.094  15.539  0.1648  0.8101 -0.7230
 3306SOL    HW221552   4.537   4.133  15.631 -0.2054  1.1884 -2.3854
 3307SOL     OW21553   2.031   1.616   3.715  0.1493 -0.2427 -0.4216
 3307SOL    HW121554   2.098   1.611   3.646 -1.3252 -1.8141 -1.7272
 3307SOL    HW221555   1.999   1.705   3.705  0.6521 -0.1697 -1.3976
 3308SOL     OW21556   2.756   2.490   6.985 -0.5930 -0.1877 -0.2592
 3308SOL    HW121557   2.816   2.522   7.053 -1.4006  1.4267 -0.2894
 3308SOL    HW221558   2.685   2.551   7.004 -0.6525 -0.2021 -0.4446
 3309SOL     OW21559   3.398   4.166   9.635  0.7767  0.0795 -0.4859
 3309SOL    HW121560   3.434   4.116   9.708 -0.9333 -0.0238  0.2863
 3309SOL    HW221561   3.331   4.106   9.602  1.6828 -1.0112 -0.3432
 3310SOL     OW21562   2.134   1.482   1.823  0.0986 -0.0064 -0.1349
 3310SOL    HW121563   2.197   1.492   1.894  0.2016 -1.9834  0.0344
 3310SOL    HW221564   2.123   1.388   1.811  2.5553 -0.5052  1.5238
 3311SOL     OW21565   0.672   1.937  13.514 -0.1389  0.3979 -0.2724
 3311SOL    HW121566   0.639   1.885  13.587 -1.1098  0.8091 -0.4003
 3311SOL    HW221567   0.586   1.971  13.486 -0.7862 -0.5107  0.5945
 3312SOL     OW21568   1.167   3.591   4.871 -0.5732  0.4807 -0.6237
 3312SOL    HW121569   1.253   3.579   4.830  0.1455  1.1766  0.6750
 3312SOL    HW221570   1.188   3.602   4.964 -1.2565  3.4001 -0.8227
 3313SOL     OW21571   0.882   1.671   2.414 -0.3844 -0.0366  0.2030
 3313SOL    HW121572   0.879   1.578   2.394 -2.3395  0.1466 -0.3144
 3313SOL    HW221573   0.807   1.683   2.472  1.3577  1.5320  2.1178
 3314SOL     OW21574   1.501   1.107  11.845 -0.3875 -0.8333  0.4833
 3314SOL    HW121575   1.593   1.102  11.818 -0.6939  0.3479 -0.7656
 3314SOL    HW221576   1.481   1.199  11.826 -1.5557 -1.3083 -0.6349
 3315SOL     OW21577   3.292   3.100   2.882 -0.1754 -0.4270  0.0583
 3315SOL    HW121578   3.304   3.173   2.943  1.2620  0.8282 -1.7222
 3315SOL    HW221579   3.205   3.132   2.857 -0.8611 -0.7266  2.0658
 3316SOL     OW21580   4.396   1.488   0.832  0.6637  0.3780 -0.9171
 3316SOL    HW121581   4.454   1.555   0.797 -0.6417  0.0529 -3.7304
 3316SOL    HW221582   4.421   1.414   0.777 -1.0996 -0.3407 -0.7467
 3317SOL     OW21583   3.779   0.056   6.082 -0.1621  0.5895  0.0122
 3317SOL    HW121584   3.786   0.074   6.176  1.0474 -3.0267  0.6469
 3317SOL    HW221585   3.726   4.714   6.090  1.6680 -0.6104  0.3560
 3318SOL     OW21586   0.111   1.589  15.310 -0.5157  0.1705 -0.4456
 3318SOL    HW121587   0.192   1.565  15.354  0.0822  0.9501 -1.1325
 3318SOL    HW221588   0.154   1.594  15.225  1.0692  0.2929  0.3603
 3319SOL     OW21589   4.435   3.509   9.586 -0.3125  0.0125 -0.3926
 3319SOL    HW121590   4.415   3.576   9.521  0.6141  1.5048  0.8746
 3319SOL    HW221591   4.523   3.482   9.560 -0.2263  0.4199 -0.5303
 3320SOL     OW21592   2.929   2.212   4.462  0.9771 -0.2603 -0.6088
 3320SOL    HW121593   2.922   2.289   4.406  3.0601 -0.7722 -1.5533
 3320SOL    HW221594   3.003   2.240   4.516 -1.6425  1.8479  1.9232
 3321SOL     OW21595   2.929   0.808   3.023 -0.1638  0.2912  0.8536
 3321SOL    HW121596   2.958   0.805   3.114 -0.0207  0.7159  0.8221
 3321SOL    HW221597   2.991   0.878   3.002 -0.5961 -0.0328 -1.4294
 3322SOL     OW21598   3.636   0.899   7.178 -0.2277 -0.1308  0.3580
 3322SOL    HW121599   3.695   0.972   7.200  0.2661 -0.8241  1.3438
 3322SOL    HW221600   3.562   0.931   7.229  1.1238 -0.2205  2.3687
 3323SOL     OW21601   3.754   1.371   8.052 -0.0989 -0.1703 -0.1615
 3323SOL    HW121602   3.708   1.438   8.104  1.4049  1.7079 -1.2716
 3323SOL    HW221603   3.840   1.382   8.092 -0.7836  0.9797  0.9979
 3324SOL     OW21604   2.632   3.549   4.753 -0.5813 -0.0680 -0.2535
 3324SOL    HW121605   2.672   3.570   4.669 -1.9462  0.5456 -0.7460
 3324SOL    HW221606   2.548   3.587   4.727  0.0258  2.4203  1.4765
 3325SOL     OW21607   0.866   3.102   6.866  0.3275  0.0498  0.2642
 3325SOL    HW121608   0.785   3.132   6.825 -0.8890 -2.0227  1.1004
 3325SOL    HW221609   0.928   3.084   6.796  0.3404  1.6150 -0.1172
 3326SOL     OW21610   0.004   2.871   6.954  0.1993 -0.2994  0.2071
 3326SOL    HW121611   0.020   2.911   6.869 -2.3589 -0.2029 -0.2250
 3326SOL    HW221612   4.646   2.878   6.955  0.0985 -1.4760 -0.7815
 3327SOL     OW21613   2.903   4.299   9.434 -0.3253  0.5666 -0.6666
 3327SOL    HW121614   2.936   4.389   9.426 -1.0360  0.8674 -0.1573
 3327SOL    HW221615   2.955   4.251   9.370 -0.4157  3.9491 -3.3165
 3328SOL     OW21616   0.478   1.755   8.503  0.0958 -0.2673  0.0259
 3328SOL    HW121617   0.392   1.797   8.509 -0.9012 -2.3468  0.6583
 3328SOL    HW221618   0.538   1.829   8.512 -1.4299  0.9076  0.5196
 3329SOL     OW21619   3.186   2.606   3.138  0.1443 -0.1828  0.4164
 3329SOL    HW121620   3.101   2.562   3.136  0.0989 -0.1901  2.2853
 3329SOL    HW221621   3.173   2.680   3.079  2.0340 -0.3626 -0.2509
 3330SOL     OW21622   3.673   0.870   6.233  0.4169  0.4116 -0.1258
 3330SOL    HW121623   3.642   0.781   6.251  1.3692  0.1675  0.2673
 3330SOL    HW221624   3.766   0.854   6.243  0.1760  0.0618  1.4388
 3331SOL     OW21625   0.620   3.522   2.878  0.5242 -0.2801 -0.3392
 3331SOL    HW121626   0.594   3.604   2.836  0.7746 -0.3313 -0.5948
 3331SOL    HW221627   0.705   3.540   2.919 -0.3235 -0.9304  1.7282
 3332SOL     OW21628   0.784   2.226   7.191 -0.6595 -0.2957  0.3373
 3332SOL    HW121629   0.767   2.248   7.282  0.7364  1.8014  0.0960
 3332SOL    HW221630   0.753   2.306   7.148 -0.1940 -0.2943  0.0055
 3333SOL     OW21631   4.438   2.712   4.661  0.3277 -0.0315  0.4196
 3333SOL    HW121632   4.359   2.718   4.715 -0.1573 -1.1256 -0.1653
 3333SOL    HW221633   4.502   2.759   4.715  1.9820 -0.4522 -1.1840
 3334SOL     OW21634   1.831   4.735   3.475  0.0098 -0.4087  0.1841
 3334SOL    HW121635   1.739   0.025   3.484  0.9152  2.3336  1.2186
 3334SOL    HW221636   1.820   4.640   3.480 -0.5599 -0.3649 -0.1705
 3335SOL     OW21637   4.078   2.022   6.644 -0.7861 -0.2882  0.1051
 3335SOL    HW121638   3.997   1.977   6.666  0.6011 -3.0549 -0.5011
 3335SOL    HW221639   4.074   1.987   6.555 -0.5941  0.9822 -0.4074
 3336SOL     OW21640   3.129   2.642   9.052 -0.4251 -0.2418  0.4144
 3336SOL    HW121641   3.180   2.658   9.131  0.6149 -1.9770  0.1031
 3336SOL    HW221642   3.048   2.686   9.074 -0.2958  0.5147 -0.6097
 3337SOL     OW21643   0.974   1.820   5.088 -0.1500 -0.1055 -0.2398
 3337SOL    HW121644   0.921   1.744   5.063 -1.1181  0.8219 -1.0420
 3337SOL    HW221645   1.001   1.853   5.002 -0.9961 -1.2560 -0.9631
 3338SOL     OW21646   4.715   0.603   7.222  0.0236 -0.3629  0.7086
 3338SOL    HW121647   0.052   0.618   7.281  0.4474  2.3128 -0.5028
 3338SOL    HW221648   4.662   0.681   7.235  2.3663  1.5398 -1.2255
 3339SOL     OW21649   0.917   2.776   8.843  0.0112 -0.6492  0.9790
 3339SOL    HW121650   0.923   2.681   8.834  1.3886 -0.6014  1.4034
 3339SOL    HW221651   0.908   2.794   8.749  1.8754 -0.8317  0.7539
 3340SOL     OW21652   3.587   1.873   6.775 -0.0857 -0.3138  0.2254
 3340SOL    HW121653   3.627   1.789   6.750 -0.1513  0.1618 -1.4474
 3340SOL    HW221654   3.664   1.927   6.756 -0.0868  0.2870  1.9528
 3341SOL     OW21655   2.605   3.348   8.952  0.2310  0.7568  0.0343
 3341SOL    HW121656   2.570   3.319   9.037 -2.2013  1.3063 -0.7846
 3341SOL    HW221657   2.539   3.328   8.886  1.1672 -1.2621 -0.3026
 3342SOL     OW21658   2.619   0.527   7.304 -0.4040  0.2281  1.0202
 3342SOL    HW121659   2.604   0.479   7.385 -0.5592 -1.7302 -0.1851
 3342SOL    HW221660   2.648   0.614   7.334  1.8293 -0.4613  0.8313
 3343SOL     OW21661   2.653   1.038   5.788  0.4891 -0.0697  0.8828
 3343SOL    HW121662   2.736   1.077   5.814 -0.2146  2.1320 -0.1832
 3343SOL    HW221663   2.694   0.964   5.743  0.9540 -0.2396  1.5774
 3344SOL     OW21664   4.627   3.226   4.550 -0.0109  0.2928  0.1421
 3344SOL    HW121665   4.570   3.292   4.589  1.4109  1.3982  0.3098
 3344SOL    HW221666   4.682   3.271   4.487 -0.3378 -2.5737 -2.1986
 3345SOL     OW21667   4.256   1.278   1.906 -0.3508 -0.1071 -0.3900
 3345SOL    HW121668   4.183   1.230   1.867 -0.7308 -1.1097  1.5395
 3345SOL    HW221669   4.209   1.307   1.984  1.1544 -1.8113  1.1576
 3346SOL     OW21670   3.069   0.284  12.340 -0.0587  0.1176  0.0275
 3346SOL    HW121671   3.042   0.200  12.302  0.9395 -0.1157 -0.1810
 3346SOL    HW221672   3.036   0.344  12.273 -0.4142 -1.4604 -1.2206
 3347SOL     OW21673   3.845   1.761   6.725 -0.1139  0.2451  0.1697
 3347SOL    HW121674   3.871   1.669   6.727  0.0969  0.3765  2.6440
 3347SOL    HW221675   3.834   1.774   6.630 -1.2763  0.3241  0.3189
 3348SOL     OW21676   2.742   3.529   1.627 -0.4758 -0.1728 -0.0061
 3348SOL    HW121677   2.808   3.505   1.562 -0.6314 -0.2656 -0.1314
 3348SOL    HW221678   2.663   3.554   1.579 -1.7456 -1.1331  1.5827
 3349SOL     OW21679   0.437   2.740  12.119 -0.3739  0.4122 -0.4708
 3349SOL    HW121680   0.446   2.664  12.177 -1.4519 -0.3210 -1.2731
 3349SOL    HW221681   0.424   2.687  12.041 -0.3679  0.2982 -0.3956
 3350SOL     OW21682   3.079   1.093   3.942  0.0826 -0.1656  0.1561
 3350SOL    HW121683   3.172   1.076   3.955  0.0783  0.3526  0.8340
 3350SOL    HW221684   3.051   1.115   4.031 -2.0736  0.0715 -0.5676
 3351SOL     OW21685   1.620   1.222   8.539 -0.0049 -0.4399  0.3007
 3351SOL    HW121686   1.531   1.258   8.536 -0.5527 -1.7352  0.9753
 3351SOL    HW221687   1.645   1.245   8.449 -1.3518 -1.4773 -0.3439
 3352SOL     OW21688   1.457   2.441   4.862 -0.6519 -0.7562  0.0102
 3352SOL    HW121689   1.406   2.382   4.918 -2.0133  0.9993  0.6111
 3352SOL    HW221690   1.534   2.383   4.863  0.6363  0.9776  1.3375
 3353SOL     OW21691   1.908   2.509   5.344  0.7532 -0.3528 -0.4367
 3353SOL    HW121692   1.988   2.463   5.369  0.6888  0.0378  0.4985
 3353SOL    HW221693   1.891   2.564   5.421  1.3383 -0.3608 -0.3066
 3354SOL     OW21694   0.660   1.034  13.989  0.1114 -0.4413  0.5795
 3354SOL    HW121695   0.692   1.075  13.909 -0.0030 -0.1952  0.6586
 3354SOL    HW221696   0.704   0.950  13.982  0.9982  0.0431  0.3547
 3355SOL     OW21697   1.712   2.646   0.163 -0.8008  0.0566  0.6674
 3355SOL    HW121698   1.753   2.707   0.225  0.2051 -0.3211  0.3614
 3355SOL    HW221699   1.636   2.696   0.131 -2.7156 -0.8482  3.8180
 3356SOL     OW21700   0.030   2.990  10.270  0.7558 -0.3179  0.0295
 3356SOL    HW121701   4.673   2.975  10.254  0.2461  0.5117  2.2832
 3356SOL    HW221702   0.042   2.970  10.362  0.8493 -0.1534  0.0534
 3357SOL     OW21703   1.525   3.775   5.466 -0.9223 -0.0083  0.4790
 3357SOL    HW121704   1.582   3.706   5.499 -0.8614  0.3098  1.0530
 3357SOL    HW221705   1.560   3.857   5.502 -0.9542  0.8565 -1.4746
 3358SOL     OW21706   1.931   0.137   2.433  0.1338  0.4208  0.4059
 3358SOL    HW121707   1.856   0.080   2.417  0.7117  0.0662 -1.0570
 3358SOL    HW221708   1.897   0.224   2.410 -1.8453 -0.0250  1.7242
 3359SOL     OW21709   0.173   1.939   2.425  0.1417 -0.2711  0.4426
 3359SOL    HW121710   0.170   1.904   2.514  0.2520  0.8999  0.9036
 3359SOL    HW221711   0.176   2.034   2.434  0.4705 -0.3199  0.8376
 3360SOL     OW21712   0.025   0.670   6.765 -0.1733 -0.0837  0.4141
 3360SOL    HW121713   4.728   0.725   6.836 -0.1404  0.8592 -0.2978
 3360SOL    HW221714   4.679   0.652   6.722  0.2064  0.6753 -0.6272
 3361SOL     OW21715   3.422   1.760   6.489 -0.5306 -0.2748 -0.3585
 3361SOL    HW121716   3.420   1.740   6.582 -1.3039  0.3887 -0.2295
 3361SOL    HW221717   3.338   1.723   6.462 -2.5553  1.6066  3.3634
 3362SOL     OW21718   1.628   1.720   5.864  0.1038  0.5570  0.5247
 3362SOL    HW121719   1.559   1.733   5.929 -2.1433 -0.8397 -1.5988
 3362SOL    HW221720   1.688   1.681   5.927  0.2473 -0.5841 -0.3146
 3363SOL     OW21721   1.813   1.760   7.224  0.2303  0.1197  0.0626
 3363SOL    HW121722   1.906   1.782   7.217  0.7442 -1.1965  2.7813
 3363SOL    HW221723   1.820   1.689   7.288 -1.0403 -1.2183 -1.2437
 3364SOL     OW21724   2.821   3.272  15.693  0.0216  0.0573  0.4826
 3364SOL    HW121725   2.857   3.337  15.632 -2.2538  1.8928  1.0913
 3364SOL    HW221726   2.728   3.271  15.669  0.2003  0.5520 -0.2576
 3365SOL     OW21727   2.467   3.485  15.203  0.3006  0.3809  0.3333
 3365SOL    HW121728   2.397   3.540  15.239  0.8008  0.7597  0.7331
 3365SOL    HW221729   2.411   3.418  15.163 -1.1680  2.5961 -1.3119
 3366SOL     OW21730   3.003   1.353   1.375 -0.2238  0.3895  0.6939
 3366SOL    HW121731   3.062   1.386   1.308 -0.6832  2.1884  1.1957
 3366SOL    HW221732   2.924   1.407   1.373  0.2754  1.0550 -0.3847
 3367SOL     OW21733   4.343   1.675   8.662 -0.0743  0.3314  0.6546
 3367SOL    HW121734   4.317   1.749   8.607 -1.4521  0.1704  1.0823
 3367SOL    HW221735   4.262   1.666   8.713  1.3160 -0.0388  2.7660
 3368SOL     OW21736   0.067   2.124   8.451 -0.2239  0.5045 -0.2437
 3368SOL    HW121737   0.010   2.082   8.387  0.8290 -1.6170  0.1934
 3368SOL    HW221738   0.075   2.213   8.417 -1.4179  0.6440 -0.1441
 3369SOL     OW21739   2.998   0.808   8.921  0.4390  0.0901 -0.2350
 3369SOL    HW121740   2.962   0.797   9.009 -1.2279 -0.0161 -0.9408
 3369SOL    HW221741   2.930   0.762   8.873  0.3336  0.2657 -0.2505
 3370SOL     OW21742   4.678   1.602   0.143 -0.2174  0.3184 -0.7009
 3370SOL    HW121743   4.591   1.615   0.104 -0.7033  0.0030  0.2715
 3370SOL    HW221744   4.712   1.687   0.116 -1.4368  0.9199 -0.3749
 3371SOL     OW21745   1.279   0.257   7.337  0.2621 -0.1673 -0.2496
 3371SOL    HW121746   1.317   0.288   7.419  0.4495  0.0954 -0.4377
 3371SOL    HW221747   1.306   0.165   7.342 -0.5485 -0.5230 -2.3986
 3372SOL     OW21748   0.666   1.656   1.069  0.0235  0.7996  0.3554
 3372SOL    HW121749   0.656   1.688   0.980 -2.4798 -0.0879  0.2931
 3372SOL    HW221750   0.634   1.730   1.120  1.4341  2.1550 -0.7597
 3373SOL     OW21751   2.463   1.996   0.495  0.1952  0.0539  0.6172
 3373SOL    HW121752   2.499   2.032   0.414 -2.1993 -3.2763 -1.9538
 3373SOL    HW221753   2.544   1.962   0.532  1.3526  0.5382 -1.4700
 3374SOL     OW21754   1.608   0.298   8.146 -0.5594  0.0242  0.7791
 3374SOL    HW121755   1.587   0.391   8.155  0.8790  0.3080  1.2375
 3374SOL    HW221756   1.601   0.269   8.237  0.2402  0.9444  1.1415
 3375SOL     OW21757   2.975   1.935   8.291 -0.6739  0.3361 -0.3133
 3375SOL    HW121758   2.965   1.999   8.221  0.4896  0.4981 -0.3429
 3375SOL    HW221759   3.054   1.969   8.334  0.3930 -2.0918 -0.3847
 3376SOL     OW21760   1.425   2.844   6.660  0.3055 -0.3915  0.2490
 3376SOL    HW121761   1.520   2.834   6.661  0.6007  2.3747  1.1910
 3376SOL    HW221762   1.395   2.765   6.704 -0.1143  0.2436  1.1065
 3377SOL     OW21763   2.084   2.336   8.481  0.1367 -0.3169 -0.1908
 3377SOL    HW121764   2.037   2.257   8.453  0.3990 -0.4042 -0.3894
 3377SOL    HW221765   2.028   2.348   8.558 -0.0135 -2.4487  0.0519
 3378SOL     OW21766   3.922   2.992   3.559  0.1138 -0.3363  0.6951
 3378SOL    HW121767   3.961   2.911   3.593  1.8760  0.2109 -0.0169
 3378SOL    HW221768   3.979   3.054   3.603 -0.6423 -0.6557  2.1296
 3379SOL     OW21769   3.299   1.497  17.037 -0.2188 -0.1184 -0.1204
 3379SOL    HW121770   3.307   1.464  17.126 -0.8575  2.2122  0.7812
 3379SOL    HW221771   3.204   1.504  17.033 -0.0862  1.9140  0.5861
 3380SOL     OW21772   1.655   1.128   3.003  0.6695  0.4797 -0.0453
 3380SOL    HW121773   1.723   1.061   3.011 -1.2168 -1.4207  0.2262
 3380SOL    HW221774   1.621   1.111   2.915 -1.2822 -0.1315  0.8250
 3381SOL     OW21775   2.197   3.121  12.226  0.1341 -0.1241 -0.1642
 3381SOL    HW121776   2.278   3.144  12.182  0.9922  0.7956  1.8977
 3381SOL    HW221777   2.223   3.036  12.260  0.7213 -0.3590 -1.2124
 3382SOL     OW21778   2.324   0.282  11.763  0.4396 -0.2177  0.2832
 3382SOL    HW121779   2.357   0.264  11.675 -1.5735  1.6246 -0.8469
 3382SOL    HW221780   2.380   0.218  11.807  3.1502  1.3943 -0.8301
 3383SOL     OW21781   1.884   1.518  11.143 -0.1469  0.2787 -0.1117
 3383SOL    HW121782   1.973   1.554  11.144 -0.0691  0.0576  0.8220
 3383SOL    HW221783   1.855   1.543  11.055  0.6184 -3.7598 -1.4898
 3384SOL     OW21784   1.272   3.185  13.189  0.1757  0.4526 -0.3609
 3384SOL    HW121785   1.336   3.249  13.160 -0.1201  1.0018  0.1949
 3384SOL    HW221786   1.236   3.155  13.106 -2.8859  0.5716  0.9288
 3385SOL     OW21787   3.524   4.211   1.267 -0.1760 -0.0066  0.4836
 3385SOL    HW121788   3.596   4.244   1.320 -0.0882 -0.6411  0.7619
 3385SOL    HW221789   3.452   4.220   1.329 -0.9054  1.2294 -0.5425
 3386SOL     OW21790   1.329   0.780   6.115  0.2048 -0.8223  0.1548
 3386SOL    HW121791   1.305   0.690   6.136  1.1542 -0.8564  1.0585
 3386SOL    HW221792   1.425   0.777   6.113  0.1505 -1.2150 -1.8540
 3387SOL     OW21793   2.739   0.965   3.643  0.3516 -0.5537  0.1651
 3387SOL    HW121794   2.829   0.951   3.675  0.9933  0.2415 -1.2949
 3387SOL    HW221795   2.705   1.014   3.718  1.6865  2.3177 -1.1149
 3388SOL     OW21796   3.875   2.867   3.312 -0.6736 -0.4116  0.4439
 3388SOL    HW121797   3.891   2.921   3.389 -2.4445  0.1140  0.4418
 3388SOL    HW221798   3.933   2.793   3.328 -1.0120 -0.8895 -0.5160
 3389SOL     OW21799   2.833   0.032   1.140 -0.8437  0.6750 -0.4917
 3389SOL    HW121800   2.925   0.025   1.115 -1.1104  0.6293 -1.4881
 3389SOL    HW221801   2.798   0.080   1.065  2.7420  1.5297 -1.5842
 3390SOL     OW21802   2.962   1.476   2.751  0.9453  0.4275 -0.0914
 3390SOL    HW121803   2.999   1.481   2.663  2.7420 -1.7021  0.5553
 3390SOL    HW221804   3.028   1.535   2.787  3.0769 -2.6180  0.9327
 3391SOL     OW21805   0.512   0.028   3.063  0.3845  0.2345  0.0926
 3391SOL    HW121806   0.420   0.012   3.043  0.9172 -1.8331 -0.6694
 3391SOL    HW221807   0.548   4.695   3.008 -1.9111 -1.7565  1.1684
 3392SOL     OW21808   3.214   4.142   4.004  0.1438 -0.9811  0.1733
 3392SOL    HW121809   3.232   4.086   4.080 -1.1532  0.5509  1.5771
 3392SOL    HW221810   3.119   4.147   4.005  0.1772 -0.5765  0.8695
 3393SOL     OW21811   0.870   1.009   6.755  0.1787  0.1083  0.2547
 3393SOL    HW121812   0.780   1.040   6.753  0.6058  1.3911  1.0492
 3393SOL    HW221813   0.876   0.956   6.676 -0.1753  0.4051  0.0292
 3394SOL     OW21814   1.024   3.786   5.152 -0.2721  0.8833 -0.1716
 3394SOL    HW121815   0.968   3.846   5.200 -1.0923 -1.8716  2.3246
 3394SOL    HW221816   0.989   3.794   5.063  0.1055 -0.9886 -0.5067
 3395SOL     OW21817   3.188   3.236   4.520  0.2830 -0.0065 -0.1003
 3395SOL    HW121818   3.244   3.284   4.458 -0.2834  1.2401  0.3696
 3395SOL    HW221819   3.174   3.148   4.484 -0.4695  0.3265 -0.6080
 3396SOL     OW21820   3.156   2.993   6.988 -0.1560  0.1111 -0.4228
 3396SOL    HW121821   3.249   3.009   7.002 -0.6040  0.1377  2.5335
 3396SOL    HW221822   3.126   2.988   7.078  1.6407  0.5091  0.1870
 3397SOL     OW21823   3.156   3.922   3.181 -0.1629 -0.1297  0.4209
 3397SOL    HW121824   3.139   3.864   3.107  2.8179 -1.4031  0.7408
 3397SOL    HW221825   3.088   3.987   3.166 -0.7857 -0.8491  0.1338
 3398SOL     OW21826   0.839   3.509   0.379 -0.7286  0.0570 -0.5370
 3398SOL    HW121827   0.821   3.452   0.453  1.1891 -0.4943 -0.5064
 3398SOL    HW221828   0.868   3.584   0.431  1.1905 -0.0500 -1.4522
 3399SOL     OW21829   2.194   1.267  15.130 -0.2307 -0.5639  0.3153
 3399SOL    HW121830   2.274   1.255  15.079 -0.6105 -0.7539 -0.2366
 3399SOL    HW221831   2.215   1.350  15.173 -0.6957 -1.6473  2.6105
 3400SOL     OW21832   4.389   1.113   0.116 -0.5903  0.7676 -0.0161
 3400SOL    HW121833   4.440   1.181   0.071 -1.4699 -0.0434 -2.2158
 3400SOL    HW221834   4.431   1.091   0.199 -0.1150 -0.8876 -0.7082
 3401SOL     OW21835   3.820   1.279   6.568 -0.0171  0.2942  0.0616
 3401SOL    HW121836   3.846   1.317   6.485  1.0485  0.4737  0.4796
 3401SOL    HW221837   3.740   1.228   6.556  0.0563 -0.0346  0.9252
 3402SOL     OW21838   3.652   1.702   7.076 -0.7241  0.5130  0.1302
 3402SOL    HW121839   3.659   1.613   7.041  0.7239  1.5911 -2.3276
 3402SOL    HW221840   3.739   1.729   7.045 -0.0106  1.4369  2.9607
 3403SOL     OW21841   2.834   3.926   9.225  0.0162  0.2822 -0.4791
 3403SOL    HW121842   2.798   3.908   9.312  2.9024 -1.1788  0.4273
 3403SOL    HW221843   2.838   3.843   9.176  2.4065  0.6447 -0.8789
 3404SOL     OW21844   4.371   3.241   3.997  0.3091  0.0225 -0.0632
 3404SOL    HW121845   4.341   3.199   4.078 -0.7869 -0.0274 -0.4939
 3404SOL    HW221846   4.281   3.253   3.967  0.5455  0.2097 -0.6919
 3405SOL     OW21847   2.669   2.096   3.134 -0.0138 -0.3910  0.2249
 3405SOL    HW121848   2.671   2.056   3.047 -1.2652  0.7658 -0.3347
 3405SOL    HW221849   2.752   2.055   3.157  1.0514  0.0342 -2.7433
 3406SOL     OW21850   3.837   0.716   8.090 -0.2972  0.3844 -0.0720
 3406SOL    HW121851   3.749   0.689   8.116 -0.0571  1.1527  1.5112
 3406SOL    HW221852   3.810   0.792   8.039  1.7609  2.0231  1.2985
 3407SOL     OW21853   2.550   3.400   8.307  0.0725 -0.6990  0.4749
 3407SOL    HW121854   2.494   3.326   8.284 -1.8508  1.1654 -0.9157
 3407SOL    HW221855   2.614   3.397   8.236 -0.2760  0.2907  0.1155
 3408SOL     OW21856   4.597   2.711   2.432  0.2304 -0.2696 -0.4929
 3408SOL    HW121857   4.510   2.732   2.467  0.9766  2.5710 -0.3813
 3408SOL    HW221858   4.638   2.796   2.445  2.7578 -1.7216  1.0503
 3409SOL     OW21859   2.778   1.173   6.482  0.2158 -0.0825  0.1910
 3409SOL    HW121860   2.747   1.111   6.548 -0.5665  0.6505  0.5080
 3409SOL    HW221861   2.780   1.109   6.411  0.6619  0.8810 -0.6691
 3410SOL     OW21862   3.414   4.567   3.754  0.7186 -0.0206  0.5470
 3410SOL    HW121863   3.400   4.480   3.716  0.0539 -0.4796  1.8239
 3410SOL    HW221864   3.468   4.546   3.830 -1.3751  1.7494  2.5331
 3411SOL     OW21865   2.070   0.171   0.203  0.1617  0.2270  0.5315
 3411SOL    HW121866   2.039   0.137   0.287  1.8591  1.7525  1.7701
 3411SOL    HW221867   2.073   0.264   0.225  0.1760 -0.4403  3.4235
 3412SOL     OW21868   4.267   2.802   9.219 -0.1570  0.5889  0.1569
 3412SOL    HW121869   4.250   2.783   9.127  1.4687 -0.9093  0.1567
 3412SOL    HW221870   4.293   2.894   9.224  2.1684 -0.1900  2.4511
 3413SOL     OW21871   1.593   1.029   0.901 -0.0335 -0.1517 -0.1244
 3413SOL    HW121872   1.572   1.101   0.960  1.8783  1.4246 -1.3758
 3413SOL    HW221873   1.545   1.064   0.826 -2.3590  1.4514  2.1207
 3414SOL     OW21874   1.158   1.590   3.922 -0.1909 -0.0236  0.2574
 3414SOL    HW121875   1.120   1.621   3.839  1.1224 -0.6935 -0.5805
 3414SOL    HW221876   1.116   1.505   3.932  0.3614 -0.3075  0.1295
 3415SOL     OW21877   1.297   3.773   2.249 -0.0976 -0.2727 -0.0367
 3415SOL    HW121878   1.251   3.832   2.308 -1.1776  0.5316 -1.6713
 3415SOL    HW221879   1.244   3.766   2.169  1.6641  1.2390 -1.3287
 3416SOL     OW21880   4.195   1.773   4.971  0.8803 -0.5222  0.1288
 3416SOL    HW121881   4.124   1.731   5.018  0.9769 -2.9018 -1.8131
 3416SOL    HW221882   4.211   1.846   5.031 -3.0693 -1.3395  2.1472
 3417SOL     OW21883   2.026   1.335   1.345 -0.1565 -0.0544 -0.1681
 3417SOL    HW121884   1.987   1.421   1.332  0.7762  0.3948  0.0439
 3417SOL    HW221885   2.111   1.373   1.365  0.1995 -1.5955  1.2986
 3418SOL     OW21886   4.419   4.581   5.336  0.5805 -0.1197  0.2642
 3418SOL    HW121887   4.513   4.566   5.348  1.0372  3.1162  0.5887
 3418SOL    HW221888   4.400   4.640   5.408 -1.4754 -0.3314 -0.1171
 3419SOL     OW21889   3.702   0.149   3.750 -0.5710  0.5908  0.2362
 3419SOL    HW121890   3.772   0.211   3.731  0.8011 -0.6909  1.0817
 3419SOL    HW221891   3.746   0.073   3.789 -1.4665  1.0273  2.0441
 3420SOL     OW21892   1.868   1.107   4.510  0.0977 -0.8404  0.1707
 3420SOL    HW121893   1.802   1.063   4.455 -0.7030 -0.0742  0.5227
 3420SOL    HW221894   1.901   1.027   4.551 -0.7330 -1.5831 -0.6077
 3421SOL     OW21895   4.253   1.160  11.974  0.0967  0.1639  0.1872
 3421SOL    HW121896   4.329   1.215  11.991  0.2285 -0.6645  2.2757
 3421SOL    HW221897   4.280   1.113  11.895  1.4710  0.2887  0.5801
 3422SOL     OW21898   3.410   0.613   2.991 -0.3053  0.4318  0.5947
 3422SOL    HW121899   3.469   0.587   3.061  1.6746  2.0279 -0.4874
 3422SOL    HW221900   3.359   0.680   3.037  1.3455  2.6515 -0.8377
 3423SOL     OW21901   0.091   2.414   8.015  0.1118  0.3071 -0.1977
 3423SOL    HW121902   0.011   2.408   7.962 -0.1277 -2.8941  0.5084
 3423SOL    HW221903   0.138   2.461   7.946  0.2349 -0.2976 -0.5268
 3424SOL     OW21904   0.095   1.401   0.208 -0.4126  0.3610  0.3032
 3424SOL    HW121905   0.025   1.463   0.184  0.1815  0.5261 -1.0382
 3424SOL    HW221906   0.031   1.346   0.253 -0.5970  1.7926  1.7983
 3425SOL     OW21907   0.308   0.045   3.993 -0.1839 -0.2504  0.3881
 3425SOL    HW121908   0.252   0.004   3.927  1.7421 -2.6930  0.2640
 3425SOL    HW221909   0.300   4.714   4.060  3.8682 -0.8877  0.2300
 3426SOL     OW21910   0.419   4.415   1.215 -0.0468  0.0849 -0.5414
 3426SOL    HW121911   0.417   4.328   1.254 -1.9003  0.9065  1.1831
 3426SOL    HW221912   0.511   4.442   1.206 -0.2125  0.9802  0.4096
 3427SOL     OW21913   3.244   2.408   8.945 -0.1501  0.7955  0.3182
 3427SOL    HW121914   3.201   2.328   8.974  0.0983  1.0577  1.4362
 3427SOL    HW221915   3.233   2.456   9.027 -2.0103  0.5299  0.2411
 3428SOL     OW21916   1.489   3.266   9.507 -0.0898  0.9785 -0.4943
 3428SOL    HW121917   1.400   3.255   9.475  0.4238 -0.6210 -1.3910
 3428SOL    HW221918   1.521   3.176   9.507  0.2373  1.0934 -0.6776
 3429SOL     OW21919   2.907   3.216  12.639 -0.4492 -0.1628 -0.6842
 3429SOL    HW121920   2.913   3.263  12.556 -1.5125  1.0466 -0.0914
 3429SOL    HW221921   2.852   3.273  12.693  0.6402  0.5438 -0.3133
 3430SOL     OW21922   3.733   4.184   8.079  0.1371 -0.3713  0.5154
 3430SOL    HW121923   3.671   4.198   8.151  0.4671 -1.3996  1.0131
 3430SOL    HW221924   3.811   4.222   8.117 -0.6838  2.1888 -0.4005
 3431SOL     OW21925   0.644   2.998   5.878 -0.0359 -0.5670  0.4820
 3431SOL    HW121926   0.726   2.951   5.895  1.5856  0.7276 -3.8320
 3431SOL    HW221927   0.620   2.950   5.798 -0.3420 -1.2169  0.9702
 3432SOL     OW21928   0.390   1.014  15.416 -0.2269 -0.3391  0.4595
 3432SOL    HW121929   0.323   1.082  15.401 -0.3239 -0.7164 -0.8391
 3432SOL    HW221930   0.406   1.030  15.509 -1.0030 -0.1760  0.5663
 3433SOL     OW21931   2.561   0.837   6.640 -0.1166 -0.1188 -0.1563
 3433SOL    HW121932   2.595   0.922   6.669  0.5264 -0.7684  1.0147
 3433SOL    HW221933   2.641   0.786   6.629  1.2636  1.5418  2.0778
 3434SOL     OW21934   4.103   4.486   6.455 -0.1248  0.4262  0.3279
 3434SOL    HW121935   4.185   4.523   6.421  0.0970  0.9646  1.4597
 3434SOL    HW221936   4.071   4.559   6.508  1.3048  1.7888 -0.6444
 3435SOL     OW21937   0.479   0.877   1.717  0.2887 -0.0487 -0.1309
 3435SOL    HW121938   0.478   0.826   1.636  0.7411 -0.4044  0.0834
 3435SOL    HW221939   0.557   0.930   1.702  0.9519 -1.1507 -0.6352
 3436SOL     OW21940   4.684   3.894  15.018 -0.0351 -0.4770 -0.6790
 3436SOL    HW121941   4.707   3.855  14.934  0.4836  0.8685 -1.1622
 3436SOL    HW221942   4.631   3.969  14.992 -1.9174 -1.8780 -0.8939
 3437SOL     OW21943   2.641   4.421   1.574 -0.0703  0.2530  0.4783
 3437SOL    HW121944   2.587   4.346   1.549  1.0363  0.8168 -3.6400
 3437SOL    HW221945   2.664   4.464   1.491  1.8310 -0.3159  0.7176
 3438SOL     OW21946   0.650   4.102  16.137  0.4359 -0.2131  0.7038
 3438SOL    HW121947   0.611   4.114  16.224 -2.3571  0.4838 -0.6500
 3438SOL    HW221948   0.684   4.013  16.150  0.1333 -0.3720  0.3706
 3439SOL     OW21949   0.285   4.733  17.178  0.2072  0.1196 -0.5580
 3439SOL    HW121950   0.195   0.004  17.211 -0.0894  1.7096 -1.7177
 3439SOL    HW221951   0.272   4.701  17.088  2.6589  0.6018 -1.0812
 3440SOL     OW21952   1.277   3.043   4.175 -0.2909 -0.1592 -0.3630
 3440SOL    HW121953   1.227   3.075   4.100 -0.2702 -0.8161 -0.6600
 3440SOL    HW221954   1.366   3.073   4.158  0.0378 -0.5448  0.6681
 3441SOL     OW21955   1.461   2.475   0.935 -1.0205  0.6110 -0.2612
 3441SOL    HW121956   1.469   2.401   0.875  2.3256 -1.1340  2.3278
 3441SOL    HW221957   1.374   2.475   0.976 -2.0097  1.0012 -2.3870
 3442SOL     OW21958   4.662   1.499   2.549 -0.1398  0.2314 -0.3796
 3442SOL    HW121959   4.641   1.437   2.620 -2.3731  1.0055 -0.3415
 3442SOL    HW221960   4.575   1.538   2.538 -0.2156  0.1071 -0.2352
 3443SOL     OW21961   3.001   4.421  14.725  0.4909 -0.1130  0.0427
 3443SOL    HW121962   2.932   4.487  14.726  1.1288  0.5630 -0.2308
 3443SOL    HW221963   3.072   4.483  14.745 -1.3909  1.2597  2.5319
 3444SOL     OW21964   1.754   3.217   3.854  0.3529  0.9016 -0.0152
 3444SOL    HW121965   1.792   3.293   3.810  0.9820 -0.8191 -2.4296
 3444SOL    HW221966   1.777   3.228   3.946 -2.8797 -0.0994  0.8972
 3445SOL     OW21967   4.465   1.061   7.333  0.4132  0.7153 -0.2050
 3445SOL    HW121968   4.404   1.118   7.286  0.8051 -0.0957 -1.6641
 3445SOL    HW221969   4.508   1.129   7.385 -0.0517 -1.2500  2.7683
 3446SOL     OW21970   2.320   3.070  12.541 -0.3571  0.0180 -0.2095
 3446SOL    HW121971   2.234   3.108  12.560 -0.6770 -0.1070 -1.4094
 3446SOL    HW221972   2.289   2.979  12.533 -1.4907  0.4290 -0.4646
 3447SOL     OW21973   0.777   0.080   2.789  0.3695 -0.0035  1.2978
 3447SOL    HW121974   0.686   0.074   2.761  0.7835 -0.6708  0.0907
 3447SOL    HW221975   0.805   0.141   2.721  1.5796  0.8161  2.5081
 3448SOL     OW21976   4.634   3.264  16.870 -0.0841 -0.2504  0.3805
 3448SOL    HW121977   4.666   3.314  16.945  0.7021 -2.0588  1.2410
 3448SOL    HW221978   4.544   3.249  16.896  0.0063  2.3965  2.1868
 3449SOL     OW21979   2.126   3.673   7.396  0.0486 -0.6080  0.2935
 3449SOL    HW121980   2.197   3.722   7.439 -0.6103 -0.7769  1.5488
 3449SOL    HW221981   2.151   3.584   7.422  0.5762 -0.6594 -0.3660
 3450SOL     OW21982   3.924   4.675   3.725  0.4550  0.0739 -0.4432
 3450SOL    HW121983   3.996   4.728   3.692  0.6423 -1.1356 -1.9978
 3450SOL    HW221984   3.879   4.639   3.649  0.5874 -0.0119 -0.4808
 3451SOL     OW21985   0.835   0.700   6.902  0.5049 -0.7763 -0.2264
 3451SOL    HW121986   0.915   0.746   6.879 -0.1536  0.3589 -0.2914
 3451SOL    HW221987   0.872   0.615   6.925  2.5514 -0.5806 -2.7619
 3452SOL     OW21988   3.891   4.171   7.091 -0.0925  0.4098 -0.6013
 3452SOL    HW121989   3.874   4.256   7.131  0.4346  0.8002 -1.2037
 3452SOL    HW221990   3.808   4.130   7.116  0.1768  2.1253  3.0383
 3453SOL     OW21991   2.767   3.413   9.578 -0.7176 -0.1154  0.2865
 3453SOL    HW121992   2.831   3.476   9.546  0.1990 -1.1367  0.1489
 3453SOL    HW221993   2.779   3.406   9.673 -1.1675  0.9556  0.4301
 3454SOL     OW21994   4.180   1.868   0.404 -0.2188 -0.2117  0.2432
 3454SOL    HW121995   4.131   1.937   0.449 -1.0040 -1.8402  1.9327
 3454SOL    HW221996   4.124   1.866   0.326 -1.2148  1.3381  0.9159
 3455SOL     OW21997   1.212   0.873   8.250  0.0683  0.0792  0.7237
 3455SOL    HW121998   1.204   0.923   8.169  0.0201  0.7809  1.1704
 3455SOL    HW221999   1.121   0.881   8.278 -0.3959 -0.6308 -0.5668
 3456SOL     OW22000   2.806   4.045   6.711  0.8383 -0.1287 -0.2224
 3456SOL    HW122001   2.725   4.065   6.664 -0.0312 -1.0854  0.8705
 3456SOL    HW222002   2.828   3.959   6.673 -1.6497 -0.7009 -0.3758
 3457SOL     OW22003   3.726   3.857   5.123 -0.0157  0.1690 -0.1506
 3457SOL    HW122004   3.719   3.913   5.046 -1.6336 -1.8452 -1.4529
 3457SOL    HW222005   3.653   3.896   5.172  0.7937 -0.9160  1.9353
 3458SOL     OW22006   4.472   4.100   2.443  0.2057  0.2856  0.1443
 3458SOL    HW122007   4.460   4.135   2.355  1.9546  0.5679  0.0289
 3458SOL    HW222008   4.513   4.019   2.412 -1.3506  0.9362 -3.5449
 3459SOL     OW22009   1.116   4.198   3.165  0.2470  0.2775 -0.1559
 3459SOL    HW122010   1.096   4.255   3.091 -1.5767  0.1983  0.2836
 3459SOL    HW222011   1.158   4.266   3.217 -0.3835  0.1308  0.5447
 3460SOL     OW22012   2.891   3.349  15.428 -0.3640  0.2839 -0.4621
 3460SOL    HW122013   2.979   3.318  15.407 -1.1383 -1.9553 -0.4569
 3460SOL    HW222014   2.902   3.440  15.454  2.3250 -0.3392  0.5025
 3461SOL     OW22015   2.122   4.488  10.137 -0.3809 -0.8173  0.4156
 3461SOL    HW122016   2.137   4.568  10.186 -0.4756  1.2427 -2.9065
 3461SOL    HW222017   2.027   4.480  10.130 -0.2891  1.7619 -3.6630
 3462SOL     OW22018   0.421   1.806   2.317  0.6379  0.0595  0.5288
 3462SOL    HW122019   0.362   1.731   2.321 -3.0269  2.9416  0.8665
 3462SOL    HW222020   0.403   1.830   2.226  0.1269  0.7623  0.8093
 3463SOL     OW22021   1.540   0.244   0.488  0.3014 -0.5013  0.4290
 3463SOL    HW122022   1.612   0.305   0.510 -0.0069 -0.2918  0.8555
 3463SOL    HW222023   1.518   0.218   0.577 -1.2183  1.4973  0.6405
 3464SOL     OW22024   3.987   1.539   3.565  0.2284  0.0634 -0.8332
 3464SOL    HW122025   4.000   1.612   3.624  1.2978 -1.6443  1.0585
 3464SOL    HW222026   3.894   1.521   3.579  0.3882  0.2884  0.5080
 3465SOL     OW22027   1.251   1.434   8.216  0.5972  0.2546 -0.8877
 3465SOL    HW122028   1.280   1.524   8.230 -1.0931  0.2546  2.7021
 3465SOL    HW222029   1.217   1.447   8.128  1.1809  2.2610 -0.8133
 3466SOL     OW22030   2.823   0.657  10.113  0.2448  0.4407  0.3821
 3466SOL    HW122031   2.858   0.740  10.080 -2.0004  1.3705  0.3126
 3466SOL    HW222032   2.732   0.686  10.121 -0.1692 -0.2768 -1.5235
 3467SOL     OW22033   0.150   1.608   3.885 -0.0156  0.4858 -0.3262
 3467SOL    HW122034   0.146   1.518   3.852  1.1287  0.0944  0.6187
 3467SOL    HW222035   0.143   1.590   3.978 -0.0932  1.6184 -0.1134
 3468SOL     OW22036   3.188   1.310   6.728  0.6065 -0.2025 -0.7206
 3468SOL    HW122037   3.099   1.283   6.705 -0.0731  1.1899  0.2927
 3468SOL    HW222038   3.164   1.332   6.818 -1.0555  0.3489 -1.2867
 3469SOL     OW22039   0.559   3.733   9.635  0.5945  0.1797 -0.4228
 3469SOL    HW122040   0.565   3.804   9.572  1.8582 -0.1193 -0.6313
 3469SOL    HW222041   0.601   3.773   9.711  0.2715  0.7722 -0.5580
 3470SOL     OW22042   2.672   3.457   1.876  0.6480  0.1487 -0.3345
 3470SOL    HW122043   2.686   3.469   1.782 -0.1819  1.4477 -0.2941
 3470SOL    HW222044   2.697   3.366   1.890 -1.4575 -0.6476 -1.8657
 3471SOL     OW22045   0.612   1.254   2.559  0.5282  0.3319 -0.5893
 3471SOL    HW122046   0.609   1.220   2.470 -2.7452  0.2685 -0.4604
 3471SOL    HW222047   0.682   1.198   2.593 -0.0461 -0.8491 -1.3313
 3472SOL     OW22048   1.860   1.647   4.540  0.3043  0.6058  0.4192
 3472SOL    HW122049   1.840   1.681   4.453 -0.4637 -1.0136 -0.0450
 3472SOL    HW222050   1.841   1.553   4.536 -2.1956  1.0526  1.7757
 3473SOL     OW22051   0.630   3.002   5.330 -0.1220 -0.1006 -0.3150
 3473SOL    HW122052   0.541   3.034   5.320 -0.7657 -1.4480  1.0381
 3473SOL    HW222053   0.611   2.917   5.369 -0.4863 -0.7109 -1.8036
 3474SOL     OW22054   3.908   4.532   6.211  0.2773 -0.0685  0.4742
 3474SOL    HW122055   3.940   4.473   6.279 -0.2760  0.1794  0.9470
 3474SOL    HW222056   3.980   4.547   6.150 -0.8461 -1.4175 -1.1919
 3475SOL     OW22057   4.317   2.657  17.223 -0.4012 -0.6805 -0.0861
 3475SOL    HW122058   4.369   2.719  17.274 -1.7148  1.3586 -1.2225
 3475SOL    HW222059   4.375   2.640  17.149 -0.7068 -0.2791 -0.4176
 3476SOL     OW22060   2.062   1.224   8.029  0.1749 -0.3924  0.4955
 3476SOL    HW122061   2.034   1.177   8.107  2.6782 -0.4747  1.3411
 3476SOL    HW222062   2.152   1.192   8.022  0.9070  1.8626 -0.3657
 3477SOL     OW22063   1.244   1.334   7.406 -0.1498  0.4778 -0.0828
 3477SOL    HW122064   1.205   1.343   7.319 -0.0779 -2.6612 -0.4489
 3477SOL    HW222065   1.174   1.288   7.452  0.8053 -1.2878 -0.4146
 3478SOL     OW22066   0.865   1.936   9.716 -0.1807  0.2417 -0.3242
 3478SOL    HW122067   0.945   1.937   9.664 -1.4185  1.2949 -2.2012
 3478SOL    HW222068   0.896   1.917   9.805  1.1549  3.2985 -0.1166
 3479SOL     OW22069   2.858   4.069   1.602  1.1168  0.0226  0.0116
 3479SOL    HW122070   2.774   4.065   1.648  0.2295  0.4963 -1.5781
 3479SOL    HW222071   2.888   3.983   1.574 -0.6159 -0.2395 -1.0728
 3480SOL     OW22072   4.725   1.677   7.345  0.3723 -0.5599  0.2643
 3480SOL    HW122073   0.024   1.708   7.261  0.2375 -0.9232  0.0706
 3480SOL    HW222074   0.050   1.723   7.401  1.7678 -0.4929 -1.3058
 3481SOL     OW22075   0.402   3.963   5.542 -0.2351  0.1322 -0.2889
 3481SOL    HW122076   0.343   4.037   5.554  0.9200  0.6942  1.8194
 3481SOL    HW222077   0.484   4.008   5.522 -1.5112  3.9991  3.2735
 3482SOL     OW22078   1.042   1.987   7.281 -0.1887 -0.0934  0.2852
 3482SOL    HW122079   1.094   1.978   7.361  0.1883 -1.0501 -0.0634
 3482SOL    HW222080   1.013   2.078   7.282  1.1120  0.3306 -0.6282
 3483SOL     OW22081   0.766   2.175   7.945 -0.4021 -0.4066  0.0627
 3483SOL    HW122082   0.711   2.245   7.911 -1.3563  0.3632  3.2721
 3483SOL    HW222083   0.693   2.130   7.987  0.5881 -2.8705 -0.8763
 3484SOL     OW22084   3.613   2.697   5.441 -0.0022 -0.2680 -0.1009
 3484SOL    HW122085   3.694   2.734   5.405 -0.0680 -1.8046 -1.8694
 3484SOL    HW222086   3.607   2.753   5.518  1.3158 -0.2270 -0.0159
 3485SOL     OW22087   1.271   1.466   4.408 -0.6088 -0.1620  0.3107
 3485SOL    HW122088   1.246   1.389   4.357 -1.9701 -1.8369  3.5530
 3485SOL    HW222089   1.363   1.475   4.383 -0.9983  0.1608 -1.0051
 3486SOL     OW22090   3.899   1.241   3.906  0.4565 -0.4870 -0.0753
 3486SOL    HW122091   3.811   1.267   3.878  0.6928  0.4483  0.0331
 3486SOL    HW222092   3.915   1.303   3.978  0.3761  1.0580 -1.3845
 3487SOL     OW22093   1.589   4.068   7.116 -0.0471 -0.0736 -0.1783
 3487SOL    HW122094   1.523   4.137   7.121  0.9125  0.6553  2.4274
 3487SOL    HW222095   1.584   4.030   7.028  2.2362 -1.4481  0.2683
 3488SOL     OW22096   3.005   4.386  14.223 -0.7420 -0.0688  0.5740
 3488SOL    HW122097   2.924   4.415  14.263 -1.6838  0.0125 -1.3765
 3488SOL    HW222098   3.047   4.344  14.298 -0.9923  0.4760  1.0137
 3489SOL     OW22099   1.711   1.662   4.263 -0.0229 -0.1647 -0.0082
 3489SOL    HW122100   1.789   1.609   4.246 -0.4058 -0.2528 -1.4874
 3489SOL    HW222101   1.741   1.751   4.247  1.6347 -0.8384 -0.6187
 3490SOL     OW22102   0.128   3.774   4.003 -0.5744 -0.1093 -0.6073
 3490SOL    HW122103   0.072   3.702   3.973  0.3519 -0.9879 -0.2515
 3490SOL    HW222104   0.067   3.839   4.037 -0.5553  0.8610 -2.4067
 3491SOL     OW22105   2.145   1.272   0.028 -0.3444 -0.3374 -0.1006
 3491SOL    HW122106   2.058   1.233   0.017  0.2981 -1.1775 -2.2414
 3491SOL    HW222107   2.154   1.340  17.708  2.5553 -1.5148 -0.9231
 3492SOL     OW22108   3.014   0.840   8.507  0.3216 -0.0891 -0.1145
 3492SOL    HW122109   3.032   0.825   8.415 -1.8029 -2.2002 -0.1911
 3492SOL    HW222110   3.051   0.770   8.561  0.6304 -1.5789 -2.3008
 3493SOL     OW22111   0.996   3.607   2.266 -0.0474 -0.2261  0.3929
 3493SOL    HW122112   0.904   3.636   2.264 -0.4208 -1.5720 -2.6180
 3493SOL    HW222113   1.020   3.614   2.173 -0.9322  0.1042  0.1868
 3494SOL     OW22114   0.577   1.102   9.374 -0.3688 -0.5789  0.7449
 3494SOL    HW122115   0.530   1.181   9.400 -3.6276 -2.4911  0.7318
 3494SOL    HW222116   0.669   1.128   9.374 -0.1548 -1.3213 -0.4407
 3495SOL     OW22117   4.496   4.686   3.622  0.1970 -0.1978 -0.7958
 3495SOL    HW122118   4.545   4.714   3.544  1.7068 -0.9159 -0.1097
 3495SOL    HW222119   4.465   4.600   3.593 -0.3596  0.2483 -1.5400
 3496SOL     OW22120   3.688   3.996  14.094 -0.2620 -0.2680  0.5881
 3496SOL    HW122121   3.743   4.073  14.108 -1.5587  0.7774 -0.1353
 3496SOL    HW222122   3.748   3.937  14.048  1.8342  1.5437  0.9708
 3497SOL     OW22123   0.244   0.416   7.090 -0.4207 -0.6302 -0.5286
 3497SOL    HW122124   0.197   0.384   7.013  1.3779  1.0855 -2.3642
 3497SOL    HW222125   0.266   0.505   7.062  0.3741 -0.2662  1.2476
 3498SOL     OW22126   4.445   0.679   3.708  0.4088 -0.1245 -0.2735
 3498SOL    HW122127   4.510   0.683   3.778 -1.1951 -0.3674  1.2358
 3498SOL    HW222128   4.376   0.632   3.756  1.4531 -2.0642 -0.6634
 3499SOL     OW22129   2.779   4.618   1.978 -0.1081  0.2585 -0.5306
 3499SOL    HW122130   2.836   4.604   2.053 -0.8692 -2.3800 -0.4354
 3499SOL    HW222131   2.733   4.700   1.997 -1.0347 -0.2915 -0.3941
 3500SOL     OW22132   2.149   3.238  13.346 -0.4989  0.3895  0.4339
 3500SOL    HW122133   2.230   3.209  13.305  0.5364  1.5199  1.6844
 3500SOL    HW222134   2.163   3.207  13.436  1.6573  2.4197  0.7924
 3501SOL     OW22135   2.361   3.216   7.149  0.5564 -0.2183  0.2070
 3501SOL    HW122136   2.273   3.178   7.156  0.8586 -0.9442  0.0892
 3501SOL    HW222137   2.352   3.305   7.184 -2.0163  0.1160 -1.2570
 3502SOL     OW22138   0.861   1.170   6.972  0.8908 -0.3325  0.4128
 3502SOL    HW122139   0.865   1.112   6.896 -0.7983 -1.5536  1.2669
 3502SOL    HW222140   0.938   1.226   6.968  0.2666  0.4683 -0.5990
 3503SOL     OW22141   2.329   0.987  16.682 -0.0272 -0.2917 -0.1470
 3503SOL    HW122142   2.288   1.063  16.641  2.0160 -0.2053 -1.9888
 3503SOL    HW222143   2.388   0.948  16.618  2.2551  1.8803  0.6519
 3504SOL     OW22144   4.177   4.497   9.196 -0.4983 -0.4757  0.5155
 3504SOL    HW122145   4.113   4.548   9.144 -1.9152 -2.9714 -0.2052
 3504SOL    HW222146   4.137   4.522   9.279 -0.0468 -0.6820  0.7925
 3505SOL     OW22147   0.073   1.545   5.245 -0.3074 -0.2101 -0.2296
 3505SOL    HW122148   0.026   1.472   5.286 -0.1799  0.3981  0.9984
 3505SOL    HW222149   0.115   1.499   5.172  0.6556  0.8204 -0.3216
 3506SOL     OW22150   4.500   0.317   4.190 -0.6254  0.6553 -0.5259
 3506SOL    HW122151   4.448   0.314   4.110  1.4139 -0.9961 -1.7970
 3506SOL    HW222152   4.464   0.396   4.229  2.2620  0.9239  1.6250
 3507SOL     OW22153   4.358   0.841  16.136 -0.3829 -0.8103 -0.1198
 3507SOL    HW122154   4.433   0.893  16.165 -0.2274 -1.5762  0.8495
 3507SOL    HW222155   4.380   0.820  16.046 -0.3674  0.9283 -0.5221
 3508SOL     OW22156   2.989   0.354   7.956  0.3874  0.4752  0.2178
 3508SOL    HW122157   2.914   0.337   7.899 -0.0964  2.0981  0.3438
 3508SOL    HW222158   2.944   0.359   8.041  1.3680 -0.1831  0.7716
 3509SOL     OW22159   2.207   1.522  12.068  0.6394  0.3478  0.1884
 3509SOL    HW122160   2.188   1.614  12.052  1.6056  0.3613 -0.9183
 3509SOL    HW222161   2.301   1.532  12.082  1.0695  0.6485 -2.9672
 3510SOL     OW22162   2.377   3.272  16.511  0.7626  0.2858 -0.0957
 3510SOL    HW122163   2.387   3.307  16.422 -2.7071  1.1647 -0.1419
 3510SOL    HW222164   2.447   3.325  16.549  0.1859  0.1148  1.2202
 3511SOL     OW22165   2.713   3.779   2.264  0.3990  0.1542 -0.6664
 3511SOL    HW122166   2.787   3.723   2.288  0.9405  0.1528 -2.3464
 3511SOL    HW222167   2.736   3.809   2.176 -0.4187  2.0529 -0.2309
 3512SOL     OW22168   2.831   0.393   8.231  0.7203 -0.3262 -0.0275
 3512SOL    HW122169   2.832   0.414   8.324  0.2852  1.6245 -0.4596
 3512SOL    HW222170   2.780   0.465   8.194 -0.2905 -1.2372 -0.4042
 3513SOL     OW22171   4.342   1.989   4.826 -0.3424  0.1525  0.0175
 3513SOL    HW122172   4.422   2.023   4.786 -1.4875  1.4920 -1.1227
 3513SOL    HW222173   4.383   1.970   4.911 -2.6178 -4.7981  0.0475
 3514SOL     OW22174   2.296   3.000   6.139  0.1730 -0.1018  0.2015
 3514SOL    HW122175   2.219   2.984   6.085 -0.2893  1.3339  0.4461
 3514SOL    HW222176   2.359   2.933   6.114  0.6562  0.3924  0.0780
 3515SOL     OW22177   1.911   4.628   9.871 -0.0795  0.1443 -0.3639
 3515SOL    HW122178   1.827   4.645   9.915 -0.3203 -1.9186 -0.0277
 3515SOL    HW222179   1.934   4.535   9.864 -0.5679 -0.1330  1.6750
 3516SOL     OW22180   1.090   1.773   3.394  0.1773 -0.9028  0.5068
 3516SOL    HW122181   1.010   1.730   3.365 -0.0307 -1.8563  2.4948
 3516SOL    HW222182   1.159   1.726   3.345  1.2305 -0.7546  1.8530
 3517SOL     OW22183   0.384   1.597   8.741 -0.5266  0.2466 -0.4198
 3517SOL    HW122184   0.465   1.547   8.739 -0.9443 -0.4267 -0.7850
 3517SOL    HW222185   0.411   1.671   8.686 -0.6834  0.6239  0.0073
 3518SOL     OW22186   4.033   0.290   3.647  0.0998  0.0086  0.4039
 3518SOL    HW122187   4.101   0.271   3.582  0.2635 -0.5203  0.7261
 3518SOL    HW222188   3.958   0.281   3.589 -0.1848 -0.6018  0.8668
 3519SOL     OW22189   4.482   4.553   6.794 -0.0729 -0.0535  0.8194
 3519SOL    HW122190   4.545   4.578   6.727  0.3510 -0.4104  1.0826
 3519SOL    HW222191   4.529   4.515   6.868 -0.2909 -2.6865 -0.3848
 3520SOL     OW22192   2.199   3.800   2.464 -0.2594 -0.3374 -0.0549
 3520SOL    HW122193   2.259   3.874   2.478 -0.0146 -0.7187  0.8968
 3520SOL    HW222194   2.230   3.743   2.534  0.3765  2.8622  2.3073
 3521SOL     OW22195   3.400   2.497  10.692  0.7083 -0.2247 -0.2730
 3521SOL    HW122196   3.440   2.530  10.773  0.6126  3.0373 -1.5523
 3521SOL    HW222197   3.391   2.404  10.713  0.7294 -0.1234  0.1815
 3522SOL     OW22198   3.324   3.384   1.356  0.4152  0.2829 -0.0563
 3522SOL    HW122199   3.253   3.326   1.382 -0.5318  0.8100 -1.4652
 3522SOL    HW222200   3.300   3.471   1.390 -0.5175  0.3056 -0.7769
 3523SOL     OW22201   3.283   2.452  17.588 -0.3800  0.2214 -0.9430
 3523SOL    HW122202   3.325   2.467  17.673  0.1054 -0.2889 -1.0927
 3523SOL    HW222203   3.347   2.397  17.543 -1.4794 -2.4642  0.7275
 3524SOL     OW22204   2.347   3.142  14.621  0.0767 -0.1713 -0.3199
 3524SOL    HW122205   2.333   3.221  14.673  0.3098  0.2538 -0.9015
 3524SOL    HW222206   2.293   3.169  14.546  1.3470 -1.1789 -1.6022
 3525SOL     OW22207   2.555   3.155   6.974 -0.2150  0.2751 -0.4151
 3525SOL    HW122208   2.606   3.107   7.039  0.0104  0.7875 -0.2140
 3525SOL    HW222209   2.479   3.157   7.033 -0.2035 -0.5989 -0.3716
 3526SOL     OW22210   3.517   4.552  15.246 -0.0712  0.1627 -0.3563
 3526SOL    HW122211   3.494   4.637  15.282 -1.3519 -0.7046  0.8340
 3526SOL    HW222212   3.509   4.487  15.315  2.1181  2.0091  1.6125
 3527SOL     OW22213   3.772   0.936   3.616  0.0068 -0.3668  0.1792
 3527SOL    HW122214   3.747   1.020   3.578 -0.1207 -0.4029  0.1832
 3527SOL    HW222215   3.867   0.928   3.603  0.0719  0.1976  0.3144
 3528SOL     OW22216   1.200   1.118   0.918  0.6133  0.2031  0.6464
 3528SOL    HW122217   1.115   1.117   0.963  0.0631 -1.4806 -0.4417
 3528SOL    HW222218   1.182   1.105   0.824 -0.1810  3.6140  0.3336
 3529SOL     OW22219   4.591   0.205   8.962 -0.0380  0.4942  0.3347
 3529SOL    HW122220   4.571   0.277   8.901  1.0311  0.5316  0.0294
 3529SOL    HW222221   4.504   0.166   8.959  0.4340 -0.7066  2.4338
 3530SOL     OW22222   0.779   1.729  16.035  0.3465 -0.3353 -0.3118
 3530SOL    HW122223   0.859   1.750  15.986  2.4087 -0.6274  2.8947
 3530SOL    HW222224   0.708   1.747  15.974  1.4326 -0.5707 -1.6534
 3531SOL     OW22225   2.191   2.349  12.450 -0.2972 -0.3533 -0.7241
 3531SOL    HW122226   2.126   2.369  12.383  1.5591  1.4571 -2.0082
 3531SOL    HW222227   2.153   2.263  12.467  0.8491 -0.6377  0.4043
 3532SOL     OW22228   1.311   4.730   7.387 -0.7139  0.0896  0.5854
 3532SOL    HW122229   1.399   4.702   7.410 -0.8945  0.2954  1.4968
 3532SOL    HW222230   1.266   4.646   7.373  0.2239 -0.0710 -1.4812
 3533SOL     OW22231   3.260   3.452   3.856 -0.4218 -0.2673  0.1463
 3533SOL    HW122232   3.169   3.452   3.885 -0.3469 -1.9241  0.4051
 3533SOL    HW222233   3.280   3.543   3.877 -2.4759  0.6261 -1.7550
 3534SOL     OW22234   2.071   3.961   8.067  0.0877 -0.1349 -0.0425
 3534SOL    HW122235   2.159   3.999   8.073  0.3502 -0.7298 -0.0966
 3534SOL    HW222236   2.042   4.014   7.993  0.5155 -0.2930 -0.3204
 3535SOL     OW22237   1.408   0.667   8.915  0.8787  0.2153 -0.2760
 3535SOL    HW122238   1.496   0.650   8.880 -0.5124 -0.6455 -3.4354
 3535SOL    HW222239   1.414   0.646   9.008 -0.3365 -0.7459 -0.4179
 3536SOL     OW22240   2.333   0.830   4.783  0.4313  0.1665  0.3194
 3536SOL    HW122241   2.386   0.909   4.784 -0.9266  1.1043 -1.8708
 3536SOL    HW222242   2.336   0.801   4.874 -1.5610 -0.2226  0.2785
 3537SOL     OW22243   3.597   4.202  16.388  0.4826  0.3110 -0.7915
 3537SOL    HW122244   3.630   4.119  16.354  1.0935  0.6488 -1.0275
 3537SOL    HW222245   3.557   4.177  16.472  0.6484 -0.3172 -0.9053
 3538SOL     OW22246   4.235   2.824   4.852 -0.0958  0.1269  0.3130
 3538SOL    HW122247   4.182   2.895   4.888  1.2283  1.0494  0.4482
 3538SOL    HW222248   4.325   2.849   4.871  0.5166 -0.1820 -2.1406
 3539SOL     OW22249   2.496   1.258  13.157  0.0283  0.1131 -0.5065
 3539SOL    HW122250   2.429   1.190  13.150 -0.2540  0.2923  0.5435
 3539SOL    HW222251   2.538   1.232  13.239 -4.2988  0.2963  1.7688
 3540SOL     OW22252   3.584   4.147  10.041  0.8118  0.5984  0.3677
 3540SOL    HW122253   3.648   4.123   9.973  1.4145  2.1056  0.3994
 3540SOL    HW222254   3.641   4.173  10.113  2.2749 -0.2343 -0.4684
 3541SOL     OW22255   4.325   0.721  14.419 -0.0656  0.2143 -0.2163
 3541SOL    HW122256   4.329   0.813  14.394 -2.3357  0.1670 -0.7892
 3541SOL    HW222257   4.388   0.684  14.357 -2.3598  0.1765 -2.5392
 3542SOL     OW22258   1.637   2.521  11.349 -0.2600 -0.4022  0.2386
 3542SOL    HW122259   1.666   2.608  11.377  1.6174 -1.5601  1.8656
 3542SOL    HW222260   1.626   2.469  11.428 -0.4969 -0.6458  0.0490
 3543SOL     OW22261   1.434   2.447   4.000  0.1123  0.8319 -0.5353
 3543SOL    HW122262   1.443   2.409   4.087  1.0959 -2.2427 -1.9529
 3543SOL    HW222263   1.511   2.429   3.946 -0.7020  1.1665 -1.8081
 3544SOL     OW22264   3.934   0.328  13.361  0.3232  0.0050 -0.4781
 3544SOL    HW122265   3.880   0.401  13.331  0.3219  0.4226  0.5441
 3544SOL    HW222266   3.961   0.361  13.446 -0.3543  1.1020 -0.6990
 3545SOL     OW22267   1.521   4.459  10.875  0.5260  0.1563 -0.0324
 3545SOL    HW122268   1.606   4.491  10.904 -0.5679  2.5137  0.5731
 3545SOL    HW222269   1.495   4.519  10.804  1.3599  0.2843 -0.2262
 3546SOL     OW22270   3.675   4.376   8.479 -0.4620 -0.3944 -0.1978
 3546SOL    HW122271   3.768   4.377   8.499 -0.6528  0.0827  0.6694
 3546SOL    HW222272   3.669   4.292   8.434  3.1053  1.2975 -3.7257
 3547SOL     OW22273   3.206   4.026   9.508 -0.4079 -0.0564  0.2738
 3547SOL    HW122274   3.154   4.069   9.441  1.5765  1.5819 -0.2243
 3547SOL    HW222275   3.229   3.944   9.464  0.8150 -0.6213  1.9322
 3548SOL     OW22276   4.316   1.310   5.803 -0.3496 -0.1941  0.2350
 3548SOL    HW122277   4.266   1.231   5.825 -0.1996 -0.7630 -1.4313
 3548SOL    HW222278   4.399   1.269   5.777 -0.5622  0.0456 -0.8323
 3549SOL     OW22279   3.982   4.429   7.882  0.5264  0.0773 -0.4051
 3549SOL    HW122280   3.907   4.487   7.872  0.7331  0.7332  1.8286
 3549SOL    HW222281   3.986   4.396   7.972 -0.8132  1.8123  0.2712
 3550SOL     OW22282   4.539   1.776   8.391  0.0355  0.2675  0.4601
 3550SOL    HW122283   4.579   1.710   8.447  0.9684  1.8563  1.6459
 3550SOL    HW222284   4.498   1.835   8.453 -0.7698 -2.4568  2.5501
 3551SOL     OW22285   3.430   4.693   4.148 -0.3737 -0.0036 -0.2342
 3551SOL    HW122286   3.353   4.637   4.154 -0.3005 -0.1716 -0.8944
 3551SOL    HW222287   3.423   0.004   4.066 -0.8830 -0.0669 -0.2233
 3552SOL     OW22288   0.925   0.963  16.273 -0.5456  0.2134 -0.1339
 3552SOL    HW122289   0.929   0.872  16.242 -0.6110  0.0146  0.4421
 3552SOL    HW222290   0.831   0.973  16.282 -0.4303  0.3413  0.8685
 3553SOL     OW22291   0.363   1.739   1.150  0.2065  0.0550 -0.1224
 3553SOL    HW122292   0.361   1.681   1.226 -0.4769 -2.0710 -1.7727
 3553SOL    HW222293   0.348   1.682   1.075 -1.8886  2.8375 -1.8260
 3554SOL     OW22294   1.511   0.785   4.027 -0.6040 -0.4032  0.3169
 3554SOL    HW122295   1.527   0.697   4.063 -0.5525 -0.5871 -0.1571
 3554SOL    HW222296   1.430   0.753   3.988  0.6534 -1.0827 -1.7629
 3555SOL     OW22297   1.792   0.720  12.748  0.3871  0.2135  0.3830
 3555SOL    HW122298   1.732   0.776  12.698 -0.1862 -0.6605  0.1004
 3555SOL    HW222299   1.779   0.637  12.703  1.2771  0.2937 -0.0222
 3556SOL     OW22300   0.123   0.921   6.291  0.3832  0.2384  0.0598
 3556SOL    HW122301   0.125   1.012   6.262 -0.3881  0.1787 -0.1787
 3556SOL    HW222302   0.057   0.886   6.231  0.7630 -0.5594  0.1108
 3557SOL     OW22303   2.523   2.256   3.281 -0.2029 -0.1886 -0.4028
 3557SOL    HW122304   2.580   2.265   3.358  0.6563 -0.0689 -1.0596
 3557SOL    HW222305   2.573   2.197   3.225  0.3475  2.7030 -2.8942
 3558SOL     OW22306   2.081   1.430   6.163  0.1605 -0.2625  0.6593
 3558SOL    HW122307   2.085   1.335   6.175  0.0612 -0.5572 -1.5575
 3558SOL    HW222308   2.165   1.444   6.120 -0.4956  0.9761 -0.2238
 3559SOL     OW22309   3.975   2.910  13.751  0.0809  0.7709 -0.6003
 3559SOL    HW122310   4.007   2.894  13.662 -0.2134 -0.8765 -0.4167
 3559SOL    HW222311   3.959   2.819  13.776  2.6408 -0.0094 -1.8031
 3560SOL     OW22312   3.098   3.051   6.052 -0.1724 -0.2279 -0.1610
 3560SOL    HW122313   3.086   2.977   6.112  1.2469 -1.1120 -0.9623
 3560SOL    HW222314   3.046   3.020   5.978 -0.5964 -0.4061  0.2158
 3561SOL     OW22315   4.205   0.991   7.242  0.0374 -0.1199 -0.0690
 3561SOL    HW122316   4.127   0.936   7.245 -0.4010  0.6142  2.1558
 3561SOL    HW222317   4.277   0.929   7.246  0.1999  0.2186  2.2807
 3562SOL     OW22318   3.855   3.525   8.177  0.0027  0.0891 -0.4351
 3562SOL    HW122319   3.804   3.599   8.209  0.8840  0.2349  0.6178
 3562SOL    HW222320   3.787   3.474   8.131 -1.7811  2.0726 -0.0078
 3563SOL     OW22321   1.533   4.453  11.615  0.3150  0.0200 -0.7154
 3563SOL    HW122322   1.517   4.360  11.631  2.2419 -0.2022 -0.0008
 3563SOL    HW222323   1.584   4.455  11.534 -0.4822 -0.1326 -1.2176
 3564SOL     OW22324   2.417   2.883   4.868 -0.6104  0.8240  0.2969
 3564SOL    HW122325   2.439   2.965   4.824  0.4960  0.1255 -0.4523
 3564SOL    HW222326   2.321   2.886   4.871 -0.6681 -2.2575  1.7912
 3565SOL     OW22327   4.716   2.513   3.838  0.7373 -0.3518  0.2340
 3565SOL    HW122328   4.662   2.582   3.877 -0.3902 -0.9558 -0.2634
 3565SOL    HW222329   0.064   2.555   3.827 -1.1092  2.8517 -1.7445
 3566SOL     OW22330   3.105   3.433  11.094 -0.4265  0.5212  0.3808
 3566SOL    HW122331   3.101   3.437  10.999  2.7177 -0.9616  0.1911
 3566SOL    HW222332   3.082   3.521  11.124 -1.7504 -0.4921  2.3182
 3567SOL     OW22333   4.610   2.006   8.265  0.6554 -0.4192  0.0232
 3567SOL    HW122334   4.549   2.066   8.308 -0.0149 -0.1160 -1.3672
 3567SOL    HW222335   4.591   1.920   8.300 -2.4476  0.2121 -0.0929
 3568SOL     OW22336   0.272   3.022   4.114  0.0805 -0.3662  0.0780
 3568SOL    HW122337   0.275   3.054   4.204 -1.9489 -1.7843  0.6640
 3568SOL    HW222338   0.322   3.091   4.070 -0.9168 -0.2027 -0.7778
 3569SOL     OW22339   1.606   0.937   3.344  0.4003  0.6910  0.1487
 3569SOL    HW122340   1.690   0.895   3.357  0.5669  0.3499 -2.0695
 3569SOL    HW222341   1.541   0.868   3.355  0.6511  0.4619  0.1823
 3570SOL     OW22342   4.233   0.542   6.506  0.4047 -0.5480 -0.2580
 3570SOL    HW122343   4.250   0.498   6.589 -1.0125 -2.3736 -0.9247
 3570SOL    HW222344   4.226   0.475   6.438  0.7474 -1.8670  1.0182
 3571SOL     OW22345   0.673   3.600   3.803  0.6852 -0.1535 -0.2161
 3571SOL    HW122346   0.624   3.557   3.873  1.2588 -0.5513 -0.0534
 3571SOL    HW222347   0.623   3.573   3.726 -0.0720 -0.7036  0.4691
 3572SOL     OW22348   4.358   4.618   4.587  0.1634  0.2379  0.4781
 3572SOL    HW122349   4.363   4.669   4.668 -1.3283 -0.7516  1.1972
 3572SOL    HW222350   4.309   4.676   4.529 -0.2193 -1.1960 -0.6320
 3573SOL     OW22351   2.599   4.421   1.991 -0.5469  0.2824 -0.3817
 3573SOL    HW122352   2.518   4.457   1.954 -1.1094  0.7468  1.3401
 3573SOL    HW222353   2.659   4.496   1.992 -2.7220  2.0129  0.7312
 3574SOL     OW22354   2.122   1.653  11.104  0.6978 -0.1649 -0.8858
 3574SOL    HW122355   2.149   1.745  11.102  1.9142 -0.5164 -0.4233
 3574SOL    HW222356   2.184   1.626  11.037 -1.4632 -1.8854 -2.2082
 3575SOL     OW22357   1.291   3.405  16.303 -0.3037 -1.0239 -0.1730
 3575SOL    HW122358   1.233   3.365  16.238 -3.4584  0.6036  1.6429
 3575SOL    HW222359   1.289   3.336  16.369 -0.4720 -0.8129  0.0411
 3576SOL     OW22360   4.732   4.255   5.008  0.4947  0.2031  0.4529
 3576SOL    HW122361   0.055   4.326   4.987  1.6673 -0.0927  2.6856
 3576SOL    HW222362   4.648   4.300   5.002  1.4465  1.6362 -2.0471
 3577SOL     OW22363   2.718   2.123   1.753  0.4228  0.1229 -0.3554
 3577SOL    HW122364   2.782   2.160   1.813 -1.5013  1.1080  1.0786
 3577SOL    HW222365   2.778   2.112   1.678  2.6435 -1.1859  1.6128
 3578SOL     OW22366   3.240   0.411   2.893  0.3658 -0.3051 -0.0156
 3578SOL    HW122367   3.260   0.355   2.968  2.3239 -2.3918 -2.0842
 3578SOL    HW222368   3.284   0.487   2.931  0.0637 -0.8413  1.3985
 3579SOL     OW22369   2.842   1.806   1.807  0.4292 -1.0208  0.4079
 3579SOL    HW122370   2.908   1.748   1.845  1.1419 -0.3642  0.1739
 3579SOL    HW222371   2.903   1.864   1.761 -1.4243 -0.0754 -0.8102
 3580SOL     OW22372   3.327   0.882   7.295 -0.2787  0.3340 -0.7921
 3580SOL    HW122373   3.304   0.953   7.235 -1.2480  1.8234  1.3411
 3580SOL    HW222374   3.336   0.930   7.377 -1.0628  0.0718 -0.5532
 3581SOL     OW22375   1.188   3.977   2.945  0.4056  0.1836  1.0463
 3581SOL    HW122376   1.272   3.935   2.959 -0.3933 -2.0095 -0.7074
 3581SOL    HW222377   1.182   4.048   3.008  1.3888 -1.2580  2.7380
 3582SOL     OW22378   1.771   2.508   2.575  0.0371 -0.2044  0.5052
 3582SOL    HW122379   1.773   2.448   2.649  0.9916  0.8074  1.3144
 3582SOL    HW222380   1.836   2.461   2.524 -0.4060  2.1877 -2.2644
 3583SOL     OW22381   4.583   2.532   7.020  0.2433  0.0389  0.9576
 3583SOL    HW122382   4.554   2.476   7.092  1.2967  0.9354  2.0707
 3583SOL    HW222383   4.597   2.612   7.071  1.1131 -0.3115  1.2675
 3584SOL     OW22384   0.958   2.672   6.224  0.8009 -0.2428  0.4877
 3584SOL    HW122385   0.874   2.713   6.247  0.9025  0.4787 -0.4103
 3584SOL    HW222386   0.976   2.604   6.288 -1.0049 -0.4285  0.8142
 3585SOL     OW22387   2.851   1.519  17.381  0.0489  0.2458  0.5245
 3585SOL    HW122388   2.811   1.568  17.309 -0.1343  0.3838  0.7162
 3585SOL    HW222389   2.943   1.545  17.375 -0.2128  1.1038  0.3060
 3586SOL     OW22390   2.042   2.817   0.579 -0.1267  0.1807  0.6872
 3586SOL    HW122391   1.996   2.849   0.657 -0.5925  2.1185 -0.3747
 3586SOL    HW222392   2.127   2.861   0.586  0.1124 -0.2449  0.4271
 3587SOL     OW22393   3.737   3.091   6.803 -0.4401  0.0474 -0.4994
 3587SOL    HW122394   3.742   2.996   6.813 -1.6373  0.0371  0.0444
 3587SOL    HW222395   3.781   3.098   6.719  0.0618 -0.8675 -0.3124
 3588SOL     OW22396   0.806   1.832   4.628  0.6372  0.0898 -0.0334
 3588SOL    HW122397   0.772   1.811   4.541 -1.0266 -0.2723  0.6899
 3588SOL    HW222398   0.829   1.745   4.661  0.2089  0.6270  1.6810
 3589SOL     OW22399   2.867   3.780  15.413  0.6538 -0.1683 -0.0036
 3589SOL    HW122400   2.910   3.727  15.480  1.5772  3.1298  2.0027
 3589SOL    HW222401   2.808   3.710  15.386  0.1526  0.0673  0.4737
 3590SOL     OW22402   2.692   3.618  15.284  0.0506 -0.0087 -0.0780
 3590SOL    HW122403   2.619   3.678  15.300  0.5195  0.0100  2.0747
 3590SOL    HW222404   2.659   3.550  15.225  1.2057  0.1294 -0.8647
 3591SOL     OW22405   3.818   4.005   4.421 -0.3734  0.5818  0.4362
 3591SOL    HW122406   3.775   3.987   4.505  0.8202  0.3305  0.9971
 3591SOL    HW222407   3.879   3.931   4.421 -0.8788  0.1531 -3.0405
 3592SOL     OW22408   2.556   1.714   3.995  0.2736 -0.3591  0.4591
 3592SOL    HW122409   2.617   1.777   3.958 -0.4363  1.5092  2.4884
 3592SOL    HW222410   2.484   1.772   4.021  1.5614  1.6585 -0.5760
 3593SOL     OW22411   4.286   3.120  10.148  0.6723 -0.0750 -0.0125
 3593SOL    HW122412   4.277   3.149  10.057  0.0972 -0.1876  0.0081
 3593SOL    HW222413   4.338   3.190  10.188  0.2838  0.6252 -0.7326
 3594SOL     OW22414   2.932   0.004   5.441  0.2739  0.1838  0.3837
 3594SOL    HW122415   2.888   0.066   5.383  0.9703  0.3653  0.0440
 3594SOL    HW222416   3.010   4.713   5.392  1.0718  0.1563  1.6737
 3595SOL     OW22417   3.500   2.537  10.386  0.3895  0.0338 -0.0746
 3595SOL    HW122418   3.503   2.474  10.314  2.1464  0.4226 -0.3386
 3595SOL    HW222419   3.428   2.500  10.437  0.8440  0.2797  0.7454
 3596SOL     OW22420   4.090   4.215   9.527 -0.0224 -0.0169  0.0337
 3596SOL    HW122421   4.020   4.197   9.590  0.6325 -1.7526  0.2626
 3596SOL    HW222422   4.056   4.168   9.450 -2.7518  0.4198  0.9567
 3597SOL     OW22423   3.824   3.525   6.749  0.4584 -0.1999 -0.4535
 3597SOL    HW122424   3.766   3.530   6.672 -0.9582  1.9782  0.7412
 3597SOL    HW222425   3.887   3.592   6.722  1.0221 -0.8703 -0.8024
 3598SOL     OW22426   0.883   1.758   7.265 -0.2184  0.0246 -0.1628
 3598SOL    HW122427   0.929   1.836   7.296  1.4649 -0.4266 -1.5274
 3598SOL    HW222428   0.860   1.704   7.341  0.1423 -0.5015 -0.4302
 3599SOL     OW22429   1.001   0.469   8.572  0.1340  0.1747  0.1180
 3599SOL    HW122430   1.006   0.451   8.478  0.0593  1.4817 -0.1381
 3599SOL    HW222431   0.943   0.398   8.601  0.1996 -0.1338 -0.4915
 3600SOL     OW22432   1.358   0.918   9.580  0.1459  0.5614 -0.1213
 3600SOL    HW122433   1.395   0.866   9.652  1.6001  0.3592 -1.0178
 3600SOL    HW222434   1.274   0.878   9.559  0.9464 -1.5758  0.7059
 3601SOL     OW22435   1.693   2.322   4.864 -0.0095 -0.0335  0.2735
 3601SOL    HW122436   1.719   2.268   4.938  1.9616 -0.2309 -0.5332
 3601SOL    HW222437   1.775   2.369   4.846 -0.9567  1.7544  0.6233
 3602SOL     OW22438   0.343   0.885   4.202 -0.1665 -0.0433 -0.1022
 3602SOL    HW122439   0.273   0.819   4.206  0.8879 -1.1068  0.7675
 3602SOL    HW222440   0.414   0.840   4.247 -1.0653 -2.3532 -0.9813
 3603SOL     OW22441   1.428   3.488  13.304 -0.5056  0.3533  0.3194
 3603SOL    HW122442   1.500   3.550  13.291 -1.7105  1.4727 -0.9129
 3603SOL    HW222443   1.425   3.442  13.220  0.0808 -1.3142  1.2145
 3604SOL     OW22444   2.282   2.811   5.479  0.3449 -0.2923  0.5112
 3604SOL    HW122445   2.197   2.854   5.466  0.9772  1.0458  0.7420
 3604SOL    HW222446   2.276   2.784   5.571 -1.7535 -1.1154  0.1157
 3605SOL     OW22447   4.660   4.445  14.104  0.1445 -0.0107  0.2502
 3605SOL    HW122448   4.727   4.473  14.167  1.2852 -0.6581 -0.6757
 3605SOL    HW222449   4.635   4.365  14.150  0.9407 -0.3220  0.1481
 3606SOL     OW22450   2.488   0.175   8.271  0.4618  0.0071 -0.3007
 3606SOL    HW122451   2.555   0.159   8.338 -0.2638 -1.0997  0.1582
 3606SOL    HW222452   2.478   0.093   8.222 -3.4831  1.5151 -2.0411
 3607SOL     OW22453   0.262   2.773   8.626  0.4378 -0.2463  0.4657
 3607SOL    HW122454   0.245   2.688   8.667  0.3467 -0.2385  0.4439
 3607SOL    HW222455   0.179   2.821   8.632  0.8389  0.3835  0.9716
 3608SOL     OW22456   1.931   1.683  12.767  0.4451 -0.4448  0.3475
 3608SOL    HW122457   1.914   1.729  12.685 -3.5561  0.5875  1.7415
 3608SOL    HW222458   1.904   1.594  12.746 -0.3671 -0.3937  1.1714
 3609SOL     OW22459   2.647   4.696   8.013 -0.0531 -0.2038 -0.2320
 3609SOL    HW122460   2.729   4.734   8.043 -1.3895  0.9399  2.0010
 3609SOL    HW222461   2.643   4.734   7.925  1.1737 -0.1365 -0.2547
 3610SOL     OW22462   2.032   3.441   3.245  0.0204 -0.6058 -0.1955
 3610SOL    HW122463   2.103   3.393   3.287  0.9644  0.4198 -0.6215
 3610SOL    HW222464   2.050   3.418   3.154 -1.8293  1.2703 -1.0259
 3611SOL     OW22465   2.344   0.259   1.812 -0.6519 -0.1438 -0.4768
 3611SOL    HW122466   2.355   0.169   1.842 -0.8706  0.4629  1.4294
 3611SOL    HW222467   2.420   0.282   1.758  0.4799  1.4478  1.8098
 3612SOL     OW22468   3.261   4.504   1.317 -0.2750  0.2835 -0.9480
 3612SOL    HW122469   3.218   4.491   1.401 -0.3876  0.0879 -1.0340
 3612SOL    HW222470   3.354   4.506   1.340 -0.0635 -3.6539 -1.4509
 3613SOL     OW22471   2.498   4.108   4.613 -0.5131 -0.8034  0.2057
 3613SOL    HW122472   2.566   4.094   4.679  0.0508 -1.7356 -0.5912
 3613SOL    HW222473   2.516   4.068   4.528  0.8756 -3.0251  1.5657
 3614SOL     OW22474   3.689   0.244   3.230 -0.1964 -0.4837 -0.3174
 3614SOL    HW122475   3.771   0.200   3.249  0.7143  0.2926 -2.3966
 3614SOL    HW222476   3.653   0.177   3.172 -0.8676 -2.0548  1.9300
 3615SOL     OW22477   3.077   4.150   6.519  0.2409 -0.8306 -0.3089
 3615SOL    HW122478   3.068   4.239   6.552  0.8984 -1.3526  1.2716
 3615SOL    HW222479   3.091   4.094   6.595  0.6692  1.2015  1.1220
 3616SOL     OW22480   1.156   3.202   8.412  0.5695  0.6235 -0.2712
 3616SOL    HW122481   1.204   3.195   8.495  1.9502 -0.3037 -1.1631
 3616SOL    HW222482   1.094   3.270   8.440  1.5334  1.1323  0.6195
 3617SOL     OW22483   1.096   0.835   9.515  0.0046  0.3165  0.7975
 3617SOL    HW122484   1.042   0.767   9.475 -0.1211  0.0729  1.3722
 3617SOL    HW222485   1.039   0.913   9.514  0.7927  0.9269  3.6058
 3618SOL     OW22486   2.560   2.853   4.309 -0.2105  0.3370 -0.2764
 3618SOL    HW122487   2.500   2.826   4.378 -0.9549  0.7450 -0.7663
 3618SOL    HW222488   2.574   2.947   4.317  1.0353  0.3331 -2.5205
 3619SOL     OW22489   1.142   0.271   2.758 -0.6806  0.1311 -0.2070
 3619SOL    HW122490   1.098   0.240   2.837 -1.0427 -0.2561 -0.5607
 3619SOL    HW222491   1.200   0.202   2.726  1.3710  1.1344  1.3178
 3620SOL     OW22492   0.157   1.969   6.918 -0.2657  0.1989 -0.2655
 3620SOL    HW122493   0.238   1.920   6.908 -0.6780 -0.4081 -0.6724
 3620SOL    HW222494   0.107   1.925   6.849  0.0579 -1.0115  0.2743
 3621SOL     OW22495   3.780   1.566   9.387 -0.0956  0.4467 -0.0068
 3621SOL    HW122496   3.765   1.579   9.293  1.3826  0.5761 -0.2202
 3621SOL    HW222497   3.730   1.637   9.428 -1.1717 -0.4272  0.2063
 3622SOL     OW22498   1.554   4.678  12.251  0.5486 -0.1836 -0.2624
 3622SOL    HW122499   1.583   4.692  12.161  3.1518  1.6238  0.8642
 3622SOL    HW222500   1.521   4.588  12.248  4.0018 -1.4774 -0.0038
 3623SOL     OW22501   3.000   0.414   5.665 -0.1726  0.1768 -0.2005
 3623SOL    HW122502   2.935   0.427   5.734 -0.3562  1.4127 -0.6212
 3623SOL    HW222503   3.019   0.320   5.675  1.1341  0.5657  1.1202
 3624SOL     OW22504   3.245   0.113  14.952 -0.1976  0.3012  0.0329
 3624SOL    HW122505   3.216   0.157  15.032  0.5325  0.9882 -0.0793
 3624SOL    HW222506   3.176   0.125  14.887 -0.8779  1.8951  1.0476
 3625SOL     OW22507   4.017   1.479  14.827  0.5421  0.5631 -0.1883
 3625SOL    HW122508   4.101   1.520  14.845  1.6299 -2.5539  1.8088
 3625SOL    HW222509   4.002   1.427  14.906 -2.0553  2.4557  0.5816
 3626SOL     OW22510   1.221   4.422   5.257  0.1663 -0.3050  0.2691
 3626SOL    HW122511   1.218   4.454   5.347  0.4654  0.2372  0.0868
 3626SOL    HW222512   1.176   4.493   5.212  1.1439  0.8923  1.1841
 3627SOL     OW22513   1.902   0.792   4.562  0.3549 -0.2003  0.0505
 3627SOL    HW122514   1.992   0.820   4.581 -0.6071  3.0514 -0.3303
 3627SOL    HW222515   1.903   0.755   4.473  1.2181 -0.8319  0.3200
 3628SOL     OW22516   0.497   3.704   6.093 -0.2166  0.6626 -0.1256
 3628SOL    HW122517   0.585   3.743   6.096  0.8329 -1.7420  0.6005
 3628SOL    HW222518   0.511   3.613   6.119 -1.8110 -0.3436 -2.8416
 3629SOL     OW22519   3.598   1.512  15.558  0.0740 -0.2879 -0.3669
 3629SOL    HW122520   3.629   1.513  15.468  2.8316  3.8110  0.6446
 3629SOL    HW222521   3.532   1.580  15.564  0.7707  0.5181 -2.1227
 3630SOL     OW22522   3.034   0.647   5.256  0.2450 -0.2800  0.0267
 3630SOL    HW122523   2.978   0.634   5.332 -0.8969 -1.5717 -1.0550
 3630SOL    HW222524   3.121   0.634   5.295  0.2686 -0.2466 -0.0132
 3631SOL     OW22525   3.768   1.572  15.770 -0.4908 -0.7772 -0.1881
 3631SOL    HW122526   3.845   1.515  15.763  0.5039  0.2852  2.0529
 3631SOL    HW222527   3.718   1.545  15.693  0.4928 -2.3447 -0.2905
 3632SOL     OW22528   2.503   1.294   3.476  0.1552 -0.2198  0.1468
 3632SOL    HW122529   2.436   1.291   3.543 -0.7764 -0.6990 -0.7982
 3632SOL    HW222530   2.552   1.373   3.499 -1.1384  0.5371  0.2912
 3633SOL     OW22531   3.800   0.314   5.573 -0.1536  0.2775 -0.3933
 3633SOL    HW122532   3.889   0.315   5.535 -0.7453  0.7502 -1.7877
 3633SOL    HW222533   3.811   0.390   5.630 -0.9437  0.5834 -0.6505
 3634SOL     OW22534   2.352   3.245   2.045  0.3562 -0.4177  0.2770
 3634SOL    HW122535   2.348   3.276   1.955  1.0222  0.7296  0.6409
 3634SOL    HW222536   2.291   3.303   2.091 -0.1040  1.0356 -2.1630
 3635SOL     OW22537   1.078   2.997   6.369  0.4772  0.7065  0.7210
 3635SOL    HW122538   1.133   3.062   6.325  0.4104  0.3644  0.1353
 3635SOL    HW222539   1.141   2.926   6.383 -0.4037 -0.7456 -2.5664
 3636SOL     OW22540   0.240   2.006   3.939 -0.0495 -0.0005  0.1412
 3636SOL    HW122541   0.228   1.912   3.947 -0.1977  0.2420  2.5309
 3636SOL    HW222542   0.161   2.024   3.887 -0.7596  1.1446  1.6175
 3637SOL     OW22543   4.462   4.031   5.139  0.0045 -0.2236 -0.2980
 3637SOL    HW122544   4.456   3.999   5.229  1.0177 -2.0176 -0.8686
 3637SOL    HW222545   4.516   3.965   5.097 -1.1128 -2.1421  1.2804
 3638SOL     OW22546   2.497   1.108  17.667  0.2057  0.6014 -0.2654
 3638SOL    HW122547   2.542   1.175  17.614 -1.1090  0.9845 -0.8822
 3638SOL    HW222548   2.561   1.040  17.646  1.3449  1.5590  0.1003
 3639SOL     OW22549   4.353   4.107   7.574  0.3668 -0.0366 -0.7922
 3639SOL    HW122550   4.308   4.170   7.517 -3.6439  0.2150  2.6738
 3639SOL    HW222551   4.293   4.105   7.649  1.8776  2.0422  0.4683
 3640SOL     OW22552   0.999   1.680   6.546 -0.2467  0.1239 -0.2892
 3640SOL    HW122553   1.038   1.602   6.507  0.0130 -0.6482  1.5135
 3640SOL    HW222554   0.910   1.654   6.569 -0.4477  1.4341  0.4277
 3641SOL     OW22555   3.528   2.819  13.346  0.1331 -0.4073  0.0145
 3641SOL    HW122556   3.611   2.811  13.299 -0.2880  1.3439 -1.0211
 3641SOL    HW222557   3.531   2.911  13.374  1.8101 -0.3792 -0.2734
 3642SOL     OW22558   4.661   1.756   3.952 -0.0514  0.0076  0.4465
 3642SOL    HW122559   4.580   1.735   3.905  0.6869 -0.3129 -0.6802
 3642SOL    HW222560   4.729   1.707   3.906 -1.0658  0.4837 -1.5695
 3643SOL     OW22561   1.782   0.136   8.034  0.3829 -0.2799 -0.4081
 3643SOL    HW122562   1.706   0.192   8.052  0.2337 -0.1818 -1.3372
 3643SOL    HW222563   1.810   0.106   8.120 -0.4939  0.7085  0.2193
 3644SOL     OW22564   1.482   4.134   4.402 -0.1657  0.0417 -0.2393
 3644SOL    HW122565   1.548   4.151   4.470 -0.7843  0.1610  0.3330
 3644SOL    HW222566   1.516   4.053   4.364  0.7665 -0.6604  2.0816
 3645SOL     OW22567   1.033   4.084   4.390  0.2709 -0.6989  0.5242
 3645SOL    HW122568   0.997   4.020   4.451 -0.1335  0.2969  1.3429
 3645SOL    HW222569   1.031   4.024   4.315  0.7105  0.7042 -0.6109
 3646SOL     OW22570   1.283   4.655  17.662  0.0303  0.2164  0.0021
 3646SOL    HW122571   1.287   4.726  17.598 -0.9154  0.2561 -0.0150
 3646SOL    HW222572   1.196   4.617  17.651  0.8496 -1.2343 -1.5806
 3647SOL     OW22573   1.258   1.946  13.761  0.3113 -0.6943 -0.3858
 3647SOL    HW122574   1.183   1.978  13.811  0.0481 -0.8359 -0.6879
 3647SOL    HW222575   1.328   1.984  13.814  2.4307 -0.1004 -3.5731
 3648SOL     OW22576   1.585   2.691  16.851 -0.5627  0.5009  0.3804
 3648SOL    HW122577   1.672   2.727  16.868  0.3301 -1.0823 -0.8026
 3648SOL    HW222578   1.558   2.697  16.942 -0.3951  1.6414  0.3622
 3649SOL     OW22579   3.697   0.081  10.527 -0.7062 -0.0871  0.5131
 3649SOL    HW122580   3.632   0.043  10.585  0.2109 -1.9065  0.3703
 3649SOL    HW222581   3.762   0.011  10.520 -1.5292 -0.7156 -0.7708
 3650SOL     OW22582   3.564   3.939   5.620 -0.0125  0.4284  0.7328
 3650SOL    HW122583   3.522   3.874   5.563 -0.8643  0.6971  1.0611
 3650SOL    HW222584   3.558   3.899   5.706  1.7643  0.8059  1.0329
 3651SOL     OW22585   2.687   1.816   8.548  0.1254  0.5253 -0.1706
 3651SOL    HW122586   2.702   1.834   8.641 -1.1730 -1.0318  0.3351
 3651SOL    HW222587   2.741   1.737   8.536 -1.1705 -0.5826  1.4195
 3652SOL     OW22588   2.217   2.773   5.780  0.0328 -0.6565  0.1052
 3652SOL    HW122589   2.176   2.748   5.863 -0.1322  0.7832  0.4592
 3652SOL    HW222590   2.179   2.858   5.755  2.0473 -0.3120 -1.7570
 3653SOL     OW22591   4.141   0.019   4.493  0.6432  0.1960  0.2752
 3653SOL    HW122592   4.207   0.041   4.427  1.6667 -4.0098 -0.0718
 3653SOL    HW222593   4.061   0.037   4.444  0.0145  0.0793  1.2518
 3654SOL     OW22594   1.167   0.095   5.467 -0.4836  0.0918 -0.3136
 3654SOL    HW122595   1.183   0.012   5.511  2.4497  0.4841 -0.6347
 3654SOL    HW222596   1.193   0.166   5.526 -0.8061  1.4360 -1.7816
 3655SOL     OW22597   0.382   0.054   9.096 -0.1941 -0.1839 -0.4022
 3655SOL    HW122598   0.413   0.141   9.071 -2.6416  0.8715  0.1834
 3655SOL    HW222599   0.340   0.027   9.015  1.4487 -2.3528 -0.5083
 3656SOL     OW22600   2.167   1.794   1.780 -0.9211 -0.2829  0.1089
 3656SOL    HW122601   2.188   1.706   1.749  1.7938  0.0630  0.9763
 3656SOL    HW222602   2.232   1.803   1.849  0.0714 -0.7211 -0.7654
 3657SOL     OW22603   2.002   3.371   3.737 -0.3117 -0.1039  0.5398
 3657SOL    HW122604   2.042   3.339   3.656 -1.8014 -0.0741 -0.1969
 3657SOL    HW222605   2.014   3.464   3.718 -0.5384  0.3788  2.7774
 3658SOL     OW22606   0.617   2.347  13.148 -0.5212  0.0389  0.3827
 3658SOL    HW122607   0.604   2.402  13.225 -2.6224 -1.7108  1.2751
 3658SOL    HW222608   0.692   2.390  13.107 -0.6425  1.1163  1.3182
 3659SOL     OW22609   3.119   1.146   6.992  0.2467 -0.2375 -0.5832
 3659SOL    HW122610   3.097   1.220   6.936  0.7848 -0.6803 -1.3775
 3659SOL    HW222611   3.060   1.151   7.067  1.2421  0.6165  0.1362
 3660SOL     OW22612   3.134   2.182   4.033 -0.1445 -0.6272  0.0189
 3660SOL    HW122613   3.135   2.224   3.946  0.9725 -0.6665  0.0140
 3660SOL    HW222614   3.062   2.119   4.023  0.2747 -1.2973  1.3850
 3661SOL     OW22615   2.464   2.518   6.340  0.2320 -0.2385  0.4495
 3661SOL    HW122616   2.398   2.469   6.388  0.8492 -1.2218  0.3002
 3661SOL    HW222617   2.420   2.569   6.272  1.4521  1.8024  1.2020
 3662SOL     OW22618   1.178   2.797   8.251 -0.5627  0.2011 -0.5533
 3662SOL    HW122619   1.196   2.704   8.237 -0.8675  0.5710 -3.5870
 3662SOL    HW222620   1.244   2.818   8.316 -1.2626 -2.9427  1.1610
 3663SOL     OW22621   1.431   0.999  15.348 -0.5809 -0.3056  0.1760
 3663SOL    HW122622   1.338   0.980  15.334 -0.7226  0.2472  0.4017
 3663SOL    HW222623   1.472   0.948  15.278 -1.6235 -1.2580  0.2471
 3664SOL     OW22624   3.969   2.506   3.120 -0.8825  0.2473 -0.2629
 3664SOL    HW122625   4.010   2.429   3.159 -0.1218  1.2179  0.8489
 3664SOL    HW222626   3.986   2.564   3.194 -3.3205  0.5660  0.0480
 3665SOL     OW22627   0.808   3.154   6.171  0.6152 -0.1921  0.0895
 3665SOL    HW122628   0.799   3.242   6.135 -0.7600 -0.2182  0.3727
 3665SOL    HW222629   0.884   3.120   6.123  0.4043  0.5141 -0.7463
 3666SOL     OW22630   1.707   0.790   7.856 -0.5591 -0.2408  0.3813
 3666SOL    HW122631   1.634   0.829   7.904  1.0831  1.2869  1.6243
 3666SOL    HW222632   1.775   0.856   7.866  2.3805 -3.1688 -0.3789
 3667SOL     OW22633   2.932   3.701  17.478  0.1991  0.2258 -0.4819
 3667SOL    HW122634   2.849   3.677  17.520  2.0237  0.0930  3.0731
 3667SOL    HW222635   2.951   3.616  17.438  0.1620  0.0610 -0.1564
 3668SOL     OW22636   3.461   0.336  15.450 -0.1845 -0.1854  0.6321
 3668SOL    HW122637   3.499   0.381  15.526 -2.6299  0.2389  1.5903
 3668SOL    HW222638   3.465   0.408  15.387 -2.4989 -1.3927 -0.8842
 3669SOL     OW22639   0.685   0.694   2.528 -0.1442 -0.0670 -0.2792
 3669SOL    HW122640   0.675   0.784   2.560  1.1179 -0.4636  1.2600
 3669SOL    HW222641   0.650   0.644   2.602  2.0449  0.9187  1.4294
 3670SOL     OW22642   3.666   1.599   3.320 -0.0699 -0.3406  0.1374
 3670SOL    HW122643   3.698   1.562   3.403  1.4368  1.7642  0.5042
 3670SOL    HW222644   3.737   1.563   3.267  0.9905 -2.0639  2.7079
 3671SOL     OW22645   3.890   2.054   0.127  0.0726 -0.9660 -0.2199
 3671SOL    HW122646   3.947   2.046   0.203 -1.2264 -1.3068  0.7181
 3671SOL    HW222647   3.841   1.972   0.124 -0.1520 -0.8629  0.6367
 3672SOL     OW22648   1.357   0.780   4.328 -0.3308 -0.0491 -0.3425
 3672SOL    HW122649   1.353   0.686   4.348 -2.4795  0.5240  1.8335
 3672SOL    HW222650   1.439   0.785   4.279  0.8064 -5.1733  1.0116
 3673SOL     OW22651   1.020   1.203   7.522 -0.5656  0.3634  0.0209
 3673SOL    HW122652   0.936   1.249   7.522  0.0402  1.4736 -0.3606
 3673SOL    HW222653   0.994   1.116   7.490  0.5600  0.3090 -0.7631
 3674SOL     OW22654   2.707   3.182   1.971 -0.5093  0.1580 -0.1508
 3674SOL    HW122655   2.796   3.199   1.940 -1.2336  0.4565 -2.0555
 3674SOL    HW222656   2.733   3.144   2.055  1.4999  0.2835 -0.7105
 3675SOL     OW22657   3.766   3.313   8.756  0.5476 -0.0808 -0.0490
 3675SOL    HW122658   3.835   3.261   8.714  0.3774  0.6410 -1.2181
 3675SOL    HW222659   3.812   3.392   8.786  0.0572  0.3386 -0.4151
 3676SOL     OW22660   0.994   0.735   2.623  0.5258 -0.3928  0.4023
 3676SOL    HW122661   0.915   0.714   2.673  0.3239 -2.5331 -0.8038
 3676SOL    HW222662   1.032   0.648   2.614  2.5677  0.4644  0.6538
 3677SOL     OW22663   1.834   0.128  12.203 -0.0221  0.1551 -0.2440
 3677SOL    HW122664   1.740   0.146  12.197 -0.4424 -2.3371 -1.1580
 3677SOL    HW222665   1.850   0.100  12.113  0.3136  1.0135 -0.4509
 3678SOL     OW22666   3.200   4.574   4.033 -0.2548 -0.6622  0.2837
 3678SOL    HW122667   3.186   4.519   3.956  0.8658  1.5527 -1.5072
 3678SOL    HW222668   3.173   4.517   4.106 -0.2085  3.0918  3.2439
 3679SOL     OW22669   0.731   1.352   6.581 -0.3435 -0.4283  0.5703
 3679SOL    HW122670   0.759   1.269   6.542 -1.8529 -1.0099  0.7393
 3679SOL    HW222671   0.668   1.379   6.516 -1.8480  0.6270  2.4636
 3680SOL     OW22672   2.478   0.433   5.919  0.5662 -0.2982 -0.1958
 3680SOL    HW122673   2.553   0.390   5.959 -0.5527  0.0898  2.3331
 3680SOL    HW222674   2.508   0.453   5.830 -0.8104  1.3763 -0.3098
 3681SOL     OW22675   1.274   1.246   8.470  0.6682  0.2912  0.3948
 3681SOL    HW122676   1.304   1.323   8.518 -1.1582 -0.8727  3.3978
 3681SOL    HW222677   1.208   1.279   8.409  0.9043 -1.2756 -0.7122
 3682SOL     OW22678   4.022   1.038   8.883 -0.5877 -0.7374 -0.4595
 3682SOL    HW122679   4.066   1.049   8.799  0.3792  0.3610  0.1890
 3682SOL    HW222680   4.083   0.996   8.943  1.0651  1.2781 -0.7310
 3683SOL     OW22681   3.922   4.533   3.471  0.0625  0.3617 -0.4274
 3683SOL    HW122682   3.831   4.512   3.454  1.0131 -2.1033 -2.3666
 3683SOL    HW222683   3.964   4.447   3.467  1.0076  0.8891 -2.0017
 3684SOL     OW22684   4.687   2.749   7.192 -0.2765 -0.7735  0.0667
 3684SOL    HW122685   0.035   2.758   7.234 -0.3352  1.4482 -0.2892
 3684SOL    HW222686   4.701   2.803   7.114 -0.7138 -1.1441 -0.2678
 3685SOL     OW22687   0.947   2.148   4.091  0.0779 -0.3065  0.4692
 3685SOL    HW122688   1.022   2.205   4.110  1.7299 -2.3550  0.1090
 3685SOL    HW222689   0.902   2.166   4.174 -1.4657 -1.2657 -0.1685
 3686SOL     OW22690   2.580   4.678  17.250 -0.4115  0.0478  0.2822
 3686SOL    HW122691   2.667   4.713  17.231 -0.4791 -0.1774 -0.4453
 3686SOL    HW222692   2.583   4.633  17.335  2.5272 -0.2700  0.0146
 3687SOL     OW22693   3.480   0.051  15.393 -0.0583 -0.5420 -0.5609
 3687SOL    HW122694   3.465   0.043  15.487 -1.7660  0.8523 -0.6970
 3687SOL    HW222695   3.453   0.142  15.377 -0.0542  0.2731  4.0888
 3688SOL     OW22696   3.054   0.056   1.897 -0.2340 -0.1579 -0.4931
 3688SOL    HW122697   3.043   4.735   1.821  0.0061 -1.6170  0.5804
 3688SOL    HW222698   2.975   0.031   1.945  1.2233 -1.3717  1.2522
 3689SOL     OW22699   2.813   3.213   2.585  0.2467 -0.3329  0.1292
 3689SOL    HW122700   2.852   3.294   2.616 -1.0134 -0.7097  2.6602
 3689SOL    HW222701   2.791   3.250   2.499  1.4054  0.7693  0.3259
 3690SOL     OW22702   3.944   0.807   4.266 -0.3132 -0.5756 -0.3732
 3690SOL    HW122703   3.867   0.755   4.244 -0.2417  0.5286 -3.2140
 3690SOL    HW222704   3.936   0.778   4.357  1.3748  1.5046  0.4570
 3691SOL     OW22705   0.494   4.142   0.438 -0.2457  0.3067 -0.8885
 3691SOL    HW122706   0.420   4.201   0.454  0.1387  0.3021  0.9482
 3691SOL    HW222707   0.461   4.086   0.368  0.0544  0.4500 -1.1435
 3692SOL     OW22708   3.270   4.132   5.277 -0.4432 -0.7894  0.2832
 3692SOL    HW122709   3.219   4.145   5.357 -0.9086 -1.1073  0.0380
 3692SOL    HW222710   3.220   4.177   5.209  1.4250  1.1445  0.1686
 3693SOL     OW22711   1.498   0.227   5.777  0.4193 -0.0587  0.3698
 3693SOL    HW122712   1.550   0.262   5.705 -2.2016  3.0438 -0.0081
 3693SOL    HW222713   1.542   0.151   5.814 -0.5905 -1.4877 -1.3347
 3694SOL     OW22714   2.321   0.270   3.495  0.3669  0.2046 -0.9354
 3694SOL    HW122715   2.380   0.306   3.561 -0.8633 -0.0364  0.2863
 3694SOL    HW222716   2.292   0.196   3.548 -0.7620  0.6094 -0.9962
 3695SOL     OW22717   4.295   3.168   6.038  0.2201 -0.5283  0.1708
 3695SOL    HW122718   4.317   3.256   6.009 -0.4207  0.2896  2.1407
 3695SOL    HW222719   4.359   3.160   6.108  1.6541  1.2254 -0.9579
 3696SOL     OW22720   0.944   2.185  17.744  0.2389 -0.0556 -0.1007
 3696SOL    HW122721   0.915   2.276   0.002 -0.9375 -0.4002 -0.6945
 3696SOL    HW222722   0.868   2.143  17.705  1.0236 -0.2467 -1.3980
 3697SOL     OW22723   0.734   0.389   4.746 -0.5695  0.5219 -0.4961
 3697SOL    HW122724   0.707   0.310   4.699 -0.7570  0.6304 -0.5705
 3697SOL    HW222725   0.687   0.384   4.829  1.4424 -1.2506  0.5276
 3698SOL     OW22726   3.227   3.190   5.828 -0.1525 -0.1264  0.2815
 3698SOL    HW122727   3.174   3.148   5.896 -0.9003  0.8385  0.2805
 3698SOL    HW222728   3.228   3.116   5.767  2.5160  1.7874 -1.9824
 3699SOL     OW22729   0.053   0.759   2.649 -0.5859 -0.1765 -0.3583
 3699SOL    HW122730   0.049   0.741   2.555 -3.3149  2.7766 -0.7949
 3699SOL    HW222731   4.710   0.716   2.680 -1.1920  0.4556 -1.0506
 3700SOL     OW22732   1.132   2.762   9.082  0.2738  0.2281  0.5377
 3700SOL    HW122733   1.090   2.825   9.025 -2.4915 -3.1039 -1.1109
 3700SOL    HW222734   1.064   2.713   9.128  1.2018 -3.9387 -2.5903
 3701SOL     OW22735   0.506   4.394  16.544  0.2279 -0.2909 -0.1665
 3701SOL    HW122736   0.432   4.455  16.535 -0.4402 -1.1567 -0.5747
 3701SOL    HW222737   0.579   4.435  16.498 -0.1300 -0.4855 -0.9039
 3702SOL     OW22738   4.202   2.168   1.811  0.1914 -0.0217 -0.5368
 3702SOL    HW122739   4.284   2.187   1.765  0.3229 -1.1979 -0.7764
 3702SOL    HW222740   4.229   2.095   1.867  1.8619 -0.0558 -1.3593
 3703SOL     OW22741   0.175   3.823   2.642 -0.0843  0.2129 -0.0220
 3703SOL    HW122742   0.103   3.771   2.606  0.0111  0.0212  0.0686
 3703SOL    HW222743   0.222   3.840   2.560  1.1224  0.2189  0.6638
 3704SOL     OW22744   3.563   0.057   8.767  0.8003 -0.3682 -0.2982
 3704SOL    HW122745   3.547   0.062   8.861  0.8796 -0.7027 -0.2693
 3704SOL    HW222746   3.496   0.121   8.742  1.1645 -0.3308 -1.1913
 3705SOL     OW22747   3.214   2.475   6.116  0.0840 -0.3390 -0.0064
 3705SOL    HW122748   3.282   2.541   6.130  0.5550 -0.7211 -0.5118
 3705SOL    HW222749   3.160   2.522   6.052  1.3643  1.6172  0.3659
 3706SOL     OW22750   1.923   3.378   4.622 -0.5630  0.1342  1.0119
 3706SOL    HW122751   1.958   3.321   4.553  1.0258  2.5034 -0.1424
 3706SOL    HW222752   1.834   3.394   4.589 -0.0087  1.0152 -0.0697
 3707SOL     OW22753   1.510   0.789   5.693 -0.1017  0.6245  0.7445
 3707SOL    HW122754   1.542   0.710   5.738  1.9798  0.2096 -1.4459
 3707SOL    HW222755   1.581   0.851   5.708 -0.0719  0.5836  0.7740
 3708SOL     OW22756   3.633   1.432   7.057  0.3388  0.5216  0.6941
 3708SOL    HW122757   3.584   1.417   7.137 -0.4349  1.9006  0.4797
 3708SOL    HW222758   3.719   1.412   7.094  0.4245 -0.8584 -0.2295
 3709SOL     OW22759   4.154   3.244   8.842  0.0759  0.2673  0.3867
 3709SOL    HW122760   4.090   3.264   8.775  0.1236  1.0087  0.5634
 3709SOL    HW222761   4.213   3.177   8.807 -0.9350  1.1141 -2.8781
 3710SOL     OW22762   3.263   1.834   6.074  0.3860 -0.4325 -0.1668
 3710SOL    HW122763   3.281   1.877   5.991  2.8854 -2.8351 -0.8411
 3710SOL    HW222764   3.276   1.899   6.144 -0.0340  0.0805 -0.5666
 3711SOL     OW22765   4.278   4.627  16.426 -0.4933 -0.4206 -0.3042
 3711SOL    HW122766   4.335   4.617  16.349  1.3646 -0.1189  1.0240
 3711SOL    HW222767   4.304   4.562  16.492 -0.1161 -0.9114 -0.9379
 3712SOL     OW22768   0.211   2.534   4.146 -0.4187  0.3089 -0.2020
 3712SOL    HW122769   0.295   2.489   4.144 -0.2846  0.6400 -1.9224
 3712SOL    HW222770   0.238   2.626   4.137  0.4180  0.2229  1.5083
 3713SOL     OW22771   3.190   2.414  15.068 -0.4328 -0.1435  0.0603
 3713SOL    HW122772   3.236   2.372  14.995 -1.0998  1.5666 -1.3108
 3713SOL    HW222773   3.209   2.503  15.042  0.6095 -0.1232  0.8534
 3714SOL     OW22774   0.233   0.506   3.970  0.5803 -0.1752  0.4412
 3714SOL    HW122775   0.192   0.430   4.012  1.5416 -1.0607 -0.2047
 3714SOL    HW222776   0.208   0.567   4.040  1.3934 -0.1962  0.7558
 3715SOL     OW22777   0.007   2.845   3.024 -0.1422  0.1786  0.0515
 3715SOL    HW122778   4.673   2.855   2.962 -0.0348 -0.8027 -0.2321
 3715SOL    HW222779   0.022   2.751   3.020 -0.6912  0.0877  0.1563
 3716SOL     OW22780   1.264   0.227   6.682  0.1948  0.3099  0.1276
 3716SOL    HW122781   1.234   0.312   6.714  0.5381  1.1831 -1.8456
 3716SOL    HW222782   1.268   0.255   6.590  3.4929 -0.6969 -0.0266
 3717SOL     OW22783   1.208   2.194   3.468 -0.2268 -0.2519  0.4722
 3717SOL    HW122784   1.199   2.161   3.378  0.7159 -0.1642  0.3496
 3717SOL    HW222785   1.177   2.122   3.523 -0.9387 -0.9285 -0.8132
 3718SOL     OW22786   1.660   1.045   4.025 -0.2874 -0.6929  0.2593
 3718SOL    HW122787   1.585   0.986   4.030 -0.9493  0.2428  1.1925
 3718SOL    HW222788   1.723   0.994   3.973 -2.3000 -0.8988 -2.0121
 3719SOL     OW22789   1.909   2.030   6.372  0.2703  0.5838  0.4725
 3719SOL    HW122790   1.959   2.100   6.329  1.7932 -1.8287 -1.6559
 3719SOL    HW222791   1.968   1.956   6.372 -2.4569 -1.5926  1.3328
 3720SOL     OW22792   4.260   0.250   7.091  0.6240  0.3728  0.7217
 3720SOL    HW122793   4.278   0.157   7.103 -1.8009 -0.3388 -0.9394
 3720SOL    HW222794   4.307   0.274   7.011  0.0585 -1.0148 -0.0185
 3721SOL     OW22795   3.862   2.785   1.933 -0.4936 -0.0993  0.2125
 3721SOL    HW122796   3.866   2.806   1.840  0.7061 -0.2847  0.2109
 3721SOL    HW222797   3.850   2.690   1.933 -0.0934 -0.1504  1.5240
 3722SOL     OW22798   1.924   3.317  17.101  0.0087 -0.1799  0.5921
 3722SOL    HW122799   1.844   3.345  17.146  0.6542  2.1014  0.3201
 3722SOL    HW222800   1.986   3.274  17.161 -0.0923 -0.9571  0.1356
 3723SOL     OW22801   1.114   3.591   2.508 -0.2956  0.0717 -0.5219
 3723SOL    HW122802   1.062   3.607   2.429 -1.1776 -0.5030 -0.0604
 3723SOL    HW222803   1.041   3.587   2.570 -0.7760  1.7705 -0.9724
 3724SOL     OW22804   4.445   4.586  16.230 -0.5678 -0.7534 -0.0080
 3724SOL    HW122805   4.515   4.651  16.224  0.8636 -2.1848  1.0367
 3724SOL    HW222806   4.459   4.540  16.147  0.1356  0.2774 -0.4605
 3725SOL     OW22807   3.624   1.411   1.767 -0.5855 -0.1687  0.2003
 3725SOL    HW122808   3.649   1.319   1.769  0.1156 -0.0096 -0.9672
 3725SOL    HW222809   3.675   1.445   1.693  0.5096 -2.1265  0.0520
 3726SOL     OW22810   4.608   0.838   4.903 -0.2499  0.5072  0.0365
 3726SOL    HW122811   4.551   0.789   4.843 -2.3945  0.4794  2.1001
 3726SOL    HW222812   4.535   0.883   4.945 -0.4577 -0.3876  0.6563
 3727SOL     OW22813   3.202   0.036   8.122  0.3434 -0.1266 -0.1128
 3727SOL    HW122814   3.239   4.720   8.052 -0.8061  0.5998 -1.2779
 3727SOL    HW222815   3.276   0.085   8.158  0.2906 -1.1534  1.3955
 3728SOL     OW22816   2.251   3.050   4.541 -0.4310  0.2720  0.5414
 3728SOL    HW122817   2.270   3.056   4.634 -0.2012  0.6573  0.4717
 3728SOL    HW222818   2.156   3.057   4.547 -0.5202  0.2188 -0.7092
 3729SOL     OW22819   0.669   4.129   5.552  0.4964  0.2355  0.8682
 3729SOL    HW122820   0.654   4.174   5.469 -0.8385 -1.2514  0.3190
 3729SOL    HW222821   0.763   4.108   5.549  0.4210  0.2146 -1.4744
 3730SOL     OW22822   1.784   2.487   8.715  0.0037  0.1099 -0.3178
 3730SOL    HW122823   1.756   2.458   8.627 -0.3643  1.4855 -0.6524
 3730SOL    HW222824   1.722   2.556   8.737 -0.7236 -1.3759  2.2592
 3731SOL     OW22825   0.595   2.739  14.248  0.3353 -0.2412  0.0799
 3731SOL    HW122826   0.570   2.744  14.156 -0.4825  2.3069  0.4300
 3731SOL    HW222827   0.683   2.777  14.242  0.6016 -0.7462  0.8153
 3732SOL     OW22828   2.827   4.398   1.786 -0.2740 -0.0367  0.0195
 3732SOL    HW122829   2.754   4.394   1.724  0.7046  2.2379 -1.2881
 3732SOL    HW222830   2.822   4.482   1.833  2.8953  0.2996 -0.1989
 3733SOL     OW22831   3.330   2.620   5.858 -0.3766 -0.9006  0.4995
 3733SOL    HW122832   3.342   2.650   5.948  1.0195  1.3893 -0.4202
 3733SOL    HW222833   3.240   2.641   5.834  0.0366 -0.9360 -1.0747
 3734SOL     OW22834   3.663   3.910  13.271  0.2114  0.2040 -0.1785
 3734SOL    HW122835   3.680   3.898  13.364 -1.7028  0.1236  0.1708
 3734SOL    HW222836   3.716   3.842  13.231 -1.6419 -1.4183  0.1196
 3735SOL     OW22837   4.303   4.537   0.491  0.1783  0.2706 -0.1866
 3735SOL    HW122838   4.258   4.595   0.430  0.4478 -0.8494 -1.4353
 3735SOL    HW222839   4.393   4.570   0.490  0.6297 -0.8487  1.5893
 3736SOL     OW22840   2.516   1.399  11.128 -0.5609 -0.1528  0.0065
 3736SOL    HW122841   2.525   1.311  11.090  0.0028 -0.2767  0.4360
 3736SOL    HW222842   2.529   1.382  11.221 -1.0505 -3.7956 -0.5900
 3737SOL     OW22843   2.703   0.707  11.165 -0.1137  0.9568 -0.1964
 3737SOL    HW122844   2.774   0.663  11.211  1.2709  1.2266 -2.0578
 3737SOL    HW222845   2.693   0.783  11.222  2.4047  2.9744 -2.4747
 3738SOL     OW22846   2.195   4.113  14.079 -0.2056 -0.1700 -0.0611
 3738SOL    HW122847   2.280   4.132  14.040 -1.0066  1.1778 -1.1837
 3738SOL    HW222848   2.166   4.200  14.106 -2.7314  0.0096 -3.2581
 3739SOL     OW22849   1.301   0.336   4.545 -0.2244 -0.1445  0.4391
 3739SOL    HW122850   1.384   0.307   4.584 -0.9659 -0.6031  1.6653
 3739SOL    HW222851   1.279   0.407   4.605 -2.1774 -0.8906  0.5951
 3740SOL     OW22852   0.009   1.059   4.945 -0.0221 -0.6325  0.6478
 3740SOL    HW122853   4.710   0.972   4.964 -0.1512 -1.2904 -2.5768
 3740SOL    HW222854   0.060   1.035   4.868  1.1459  1.6064  0.7276
 3741SOL     OW22855   0.856   4.540   9.341 -0.2702 -0.6994  0.1786
 3741SOL    HW122856   0.777   4.578   9.301  1.4077  1.2667 -1.2420
 3741SOL    HW222857   0.859   4.460   9.289 -0.9119 -0.8083  0.3019
 3742SOL     OW22858   0.318   0.640   2.143  0.0472 -0.1062  0.0575
 3742SOL    HW122859   0.262   0.717   2.151  0.6762  0.3915 -0.3020
 3742SOL    HW222860   0.377   0.640   2.218  2.8899  0.2310 -2.1651
 3743SOL     OW22861   1.502   3.247   8.406  0.1064 -0.4659  0.0688
 3743SOL    HW122862   1.545   3.320   8.451 -1.7006  1.6101 -1.5552
 3743SOL    HW222863   1.568   3.178   8.412  0.9859  0.4867  1.3506
 3744SOL     OW22864   0.069   3.254   3.499  0.1184 -0.2144 -0.2378
 3744SOL    HW122865   0.151   3.204   3.498  0.2215 -0.1578  3.2649
 3744SOL    HW222866   0.038   3.232   3.412  0.6398  2.1636 -1.0116
 3745SOL     OW22867   1.121   3.299   2.400 -0.3420 -0.0742  0.3049
 3745SOL    HW122868   1.093   3.369   2.459  1.3807  2.8534 -2.3255
 3745SOL    HW222869   1.211   3.278   2.425 -0.9069 -1.6681  0.9614
 3746SOL     OW22870   0.967   0.003   7.556 -0.1299 -0.0215  0.0605
 3746SOL    HW122871   1.034   0.014   7.624 -0.4871 -1.1187  0.5891
 3746SOL    HW222872   0.924   4.665   7.597 -2.5817 -0.4387 -3.3441
 3747SOL     OW22873   3.231   1.420   3.651 -0.1181  0.2376 -0.4056
 3747SOL    HW122874   3.172   1.346   3.660 -1.2972  1.3441  0.8759
 3747SOL    HW222875   3.225   1.466   3.735 -0.1887  0.5238 -0.5671
 3748SOL     OW22876   1.530   3.815   8.383  0.3707 -0.1615  0.2823
 3748SOL    HW122877   1.518   3.873   8.307  0.3027  0.1474  0.5288
 3748SOL    HW222878   1.451   3.841   8.429 -0.4651 -1.2557 -0.5253
 3749SOL     OW22879   0.095   4.258  10.050 -0.4473  0.5611 -0.4924
 3749SOL    HW122880   0.144   4.215   9.980  0.7042  1.0906 -0.0052
 3749SOL    HW222881   0.134   4.345  10.059 -0.2262  0.4101 -0.0075
 3750SOL     OW22882   4.515   3.251   3.530  0.0761 -0.1790 -0.7191
 3750SOL    HW122883   4.566   3.249   3.450  1.0951 -1.2258 -0.0497
 3750SOL    HW222884   4.574   3.200   3.586 -1.3733 -1.1487 -0.0617
 3751SOL     OW22885   2.740   1.708   0.123  0.2494 -0.2563  0.3003
 3751SOL    HW122886   2.651   1.742   0.130  0.2069 -0.6391  1.5317
 3751SOL    HW222887   2.739   1.673   0.033 -0.0123  0.2543  0.1070
 3752SOL     OW22888   0.350   4.032   7.407 -0.5876  0.4218  0.0062
 3752SOL    HW122889   0.309   4.043   7.321 -0.6314  1.3657  0.1408
 3752SOL    HW222890   0.354   4.126   7.428  3.1624  0.2164  0.1925
 3753SOL     OW22891   2.565   1.936   5.197 -0.1664  0.5122  0.2452
 3753SOL    HW122892   2.625   1.872   5.234  0.7280  1.8325  1.0996
 3753SOL    HW222893   2.544   1.907   5.108  1.5619  2.1377 -0.7043
 3754SOL     OW22894   4.394   0.138  10.445  0.3506 -0.4045  0.2391
 3754SOL    HW122895   4.327   0.134  10.376 -0.7037 -0.6783  1.2921
 3754SOL    HW222896   4.455   0.067  10.425 -0.2831 -0.6987 -0.6134
 3755SOL     OW22897   0.406   2.607  12.944  0.4390  0.2684  0.1569
 3755SOL    HW122898   0.413   2.640  12.854 -3.0550  0.3460 -0.0788
 3755SOL    HW222899   0.430   2.515  12.931 -2.4996 -0.5050  0.2077
 3756SOL     OW22900   3.407   2.658   2.919  0.2516 -0.0005  0.1026
 3756SOL    HW122901   3.390   2.741   2.964  0.1976  0.6560 -1.1328
 3756SOL    HW222902   3.472   2.620   2.978 -0.7777 -1.1872  0.4758
 3757SOL     OW22903   1.803   3.582   3.326 -0.0513 -0.1254  0.3750
 3757SOL    HW122904   1.746   3.505   3.326  0.1637 -0.2843 -0.0187
 3757SOL    HW222905   1.880   3.537   3.293  0.6633  1.4663 -0.1560
 3758SOL     OW22906   2.513   3.462   4.373 -0.7972  0.0598  0.4324
 3758SOL    HW122907   2.580   3.441   4.437 -0.2181  1.7252  0.3806
 3758SOL    HW222908   2.462   3.386   4.344 -1.2278  0.5871 -0.2095
 3759SOL     OW22909   2.014   3.140   8.650  0.0564 -0.1679  0.2947
 3759SOL    HW122910   2.051   3.113   8.566  1.5257  2.1285  0.1986
 3759SOL    HW222911   1.986   3.229   8.630 -1.8996 -1.2374 -1.6878
 3760SOL     OW22912   2.197   0.929  14.438 -0.0394  0.0266 -0.1575
 3760SOL    HW122913   2.252   0.868  14.488  2.4754  2.0899 -0.3418
 3760SOL    HW222914   2.245   1.011  14.452 -2.0478  1.1463  0.1370
 3761SOL     OW22915   1.369   3.175   2.429 -0.1570 -0.1009  0.5275
 3761SOL    HW122916   1.324   3.113   2.485 -2.2596  1.8762  1.0211
 3761SOL    HW222917   1.452   3.127   2.433 -1.3563 -2.1329  0.7617
 3762SOL     OW22918   1.845   4.358   3.044 -0.4754 -0.4532  0.3584
 3762SOL    HW122919   1.810   4.369   3.133  1.0529  2.3679  0.6439
 3762SOL    HW222920   1.776   4.370   2.980  0.3130  0.3459 -0.3462
 3763SOL     OW22921   4.644   3.603   5.371  0.3427  0.3861 -0.9864
 3763SOL    HW122922   4.720   3.603   5.313  1.3487  0.5573  0.3451
 3763SOL    HW222923   4.667   3.530   5.429 -2.2964  0.7647  0.5110
 3764SOL     OW22924   1.710   0.312   3.319  0.4424  0.3262  0.1371
 3764SOL    HW122925   1.772   0.357   3.376  0.8272  0.7811 -0.6489
 3764SOL    HW222926   1.642   0.379   3.317 -0.7487 -0.8596  0.7776
 3765SOL     OW22927   3.969   3.387   3.036 -0.6528 -0.5292 -0.4750
 3765SOL    HW122928   3.926   3.446   3.099  0.8929  0.5063 -0.3859
 3765SOL    HW222929   4.058   3.394   3.073 -1.0188 -2.1500  0.6977
 3766SOL     OW22930   2.019   0.443  17.565  0.2719  0.2794 -0.1193
 3766SOL    HW122931   2.031   0.370  17.626  1.4898  1.8838  1.5442
 3766SOL    HW222932   1.926   0.460  17.582 -0.2484 -0.6305 -2.1232
 3767SOL     OW22933   3.566   0.622   6.247  0.0018  0.2568 -0.4213
 3767SOL    HW122934   3.496   0.632   6.184  0.5008 -1.7941 -1.3223
 3767SOL    HW222935   3.632   0.584   6.190 -0.1414  0.7097 -0.8820
 3768SOL     OW22936   2.983   2.627  12.893  0.2509  0.1227  0.2511
 3768SOL    HW122937   2.943   2.714  12.900 -0.3410 -0.0957 -0.3255
 3768SOL    HW222938   2.988   2.595  12.982  1.0132  1.2171  0.5990
 3769SOL     OW22939   4.623   0.671  11.575  0.4167  0.0038 -0.2275
 3769SOL    HW122940   4.659   0.583  11.587  0.0284 -0.2895 -1.2503
 3769SOL    HW222941   4.532   0.641  11.565  0.4138 -0.2892  0.6689
 3770SOL     OW22942   2.320   4.668   1.702 -0.4080 -0.0864  0.1735
 3770SOL    HW122943   2.240   4.703   1.663  0.3464  0.8452 -0.5393
 3770SOL    HW222944   2.390   4.682   1.638  0.8492 -0.4508  1.4555
 3771SOL     OW22945   2.174   2.332  13.701 -0.3886  0.7798  0.4872
 3771SOL    HW122946   2.159   2.289  13.617  0.1322 -1.5703  1.6025
 3771SOL    HW222947   2.121   2.280  13.760 -2.0603  1.8290 -0.0790
 3772SOL     OW22948   1.162   1.874   1.788  0.6540 -0.1476 -0.1244
 3772SOL    HW122949   1.145   1.965   1.811 -0.6700 -0.6610  0.9004
 3772SOL    HW222950   1.225   1.859   1.859 -0.8938 -1.2763  1.0223
 3773SOL     OW22951   2.732   2.454  13.374 -0.6474  0.2646 -0.0436
 3773SOL    HW122952   2.712   2.454  13.280 -2.2017 -0.7317  0.2907
 3773SOL    HW222953   2.804   2.392  13.365 -1.8410 -0.9880 -0.9097
 3774SOL     OW22954   2.178   4.212  11.708 -0.3722  0.5955  0.1304
 3774SOL    HW122955   2.259   4.196  11.659 -0.6809  0.1206 -0.2200
 3774SOL    HW222956   2.178   4.148  11.779 -1.7110 -1.2345 -1.5321
 3775SOL     OW22957   4.270   1.376   4.365 -0.3205 -0.6002 -0.3114
 3775SOL    HW122958   4.223   1.292   4.362  2.1922 -1.9918 -0.3343
 3775SOL    HW222959   4.281   1.389   4.271  3.5482 -1.3997  0.0630
 3776SOL     OW22960   1.217   0.008  12.419 -0.2971  0.6286 -0.2258
 3776SOL    HW122961   1.158   4.731  12.493 -2.4604  1.9101 -1.6831
 3776SOL    HW222962   1.208   0.103  12.414 -0.2519  0.6171 -0.5179
 3777SOL     OW22963   4.193   3.420   7.251 -0.3038 -0.7088  0.8494
 3777SOL    HW122964   4.224   3.495   7.301  0.2656 -0.7692  0.5807
 3777SOL    HW222965   4.276   3.373   7.258 -0.4543 -1.1370 -0.3260
 3778SOL     OW22966   3.330   1.852   9.087 -0.4428  0.2534  0.1739
 3778SOL    HW122967   3.347   1.762   9.059 -4.6621 -0.5035  0.0850
 3778SOL    HW222968   3.249   1.842   9.137  0.6116  0.5424  1.9241
 3779SOL     OW22969   1.685   1.329   6.569 -0.4787  0.2965  0.0400
 3779SOL    HW122970   1.747   1.307   6.638 -0.1682 -2.0618 -1.0007
 3779SOL    HW222971   1.612   1.347   6.628 -1.9923 -2.6991 -0.9006
 3780SOL     OW22972   2.446   2.281   4.028  0.1611 -0.3477  0.7403
 3780SOL    HW122973   2.539   2.305   4.023  0.1855 -0.8070 -1.2288
 3780SOL    HW222974   2.434   2.289   4.122 -2.6658 -1.5124  0.4912
 3781SOL     OW22975   3.105   1.126   7.501  0.0838  0.0703 -0.1578
 3781SOL    HW122976   3.092   1.219   7.520  0.6747  0.3990 -1.3719
 3781SOL    HW222977   3.199   1.117   7.484  0.2286  2.2126 -0.5898
 3782SOL     OW22978   3.450   1.747  14.517  0.8585 -0.4773  0.1970
 3782SOL    HW122979   3.421   1.706  14.599  1.8744  0.3600  0.9797
 3782SOL    HW222980   3.540   1.719  14.534  0.8613 -1.1930 -1.0478
 3783SOL     OW22981   0.904   4.175   9.538  0.0904  0.5622 -0.1044
 3783SOL    HW122982   0.940   4.086   9.539 -1.6404 -0.1399 -0.7872
 3783SOL    HW222983   0.824   4.166   9.590  1.6280 -0.2425  2.1440
 3784SOL     OW22984   2.490   0.589   8.772  0.0443  0.9260  0.0647
 3784SOL    HW122985   2.461   0.597   8.681  1.7280 -1.0218 -0.6285
 3784SOL    HW222986   2.584   0.577   8.761 -0.4990 -2.9690 -0.3182
 3785SOL     OW22987   3.409   4.422   5.172 -0.1958  0.4792  0.1375
 3785SOL    HW122988   3.368   4.499   5.133 -0.0160  0.7488  0.4775
 3785SOL    HW222989   3.334   4.363   5.177 -0.0113  0.2282 -0.0541
 3786SOL     OW22990   0.001   3.532  12.632 -0.0480  0.5042 -0.0824
 3786SOL    HW122991   4.679   3.539  12.558 -2.2827 -1.5175  1.5430
 3786SOL    HW222992   0.009   3.438  12.643  0.4660  0.4592 -0.8000
 3787SOL     OW22993   4.649   4.730  16.483 -0.5110 -0.0557 -0.2605
 3787SOL    HW122994   4.558   0.009  16.509 -0.6547 -1.8391  0.3117
 3787SOL    HW222995   4.653   0.046  16.404 -2.9581  0.0557 -0.3203
 3788SOL     OW22996   4.445   3.362   8.675  0.8208 -0.6371  0.6548
 3788SOL    HW122997   4.390   3.284   8.666  1.8633 -1.6688  3.0026
 3788SOL    HW222998   4.471   3.380   8.585 -0.8408 -0.5477  0.1919
 3789SOL     OW22999   3.596   0.327   5.182  0.0815  0.3975 -0.1151
 3789SOL    HW123000   3.578   0.297   5.271 -1.2904  1.0161 -0.1785
 3789SOL    HW223001   3.606   0.422   5.189 -0.0509  0.3237  1.1657
 3790SOL     OW23002   3.100   2.788  15.388 -0.3419  0.1366 -0.1620
 3790SOL    HW123003   3.068   2.702  15.362 -0.0809  0.0248 -0.1092
 3790SOL    HW223004   3.190   2.781  15.356 -0.0232  1.9635  0.3046
 3791SOL     OW23005   0.979   2.372  13.879 -0.1498 -0.5328  0.1167
 3791SOL    HW123006   1.021   2.412  13.955 -0.2583  1.1611 -0.7217
 3791SOL    HW223007   0.909   2.316  13.911 -1.3657  0.1273 -1.3858
 3792SOL     OW23008   1.370   2.433  11.012 -0.8094 -0.4430 -0.0579
 3792SOL    HW123009   1.292   2.415  10.960  0.6536 -2.4029 -1.6082
 3792SOL    HW223010   1.427   2.356  11.005  1.6848  1.1400  2.8136
 3793SOL     OW23011   4.548   1.371   4.331  0.0965 -0.1964  0.0555
 3793SOL    HW123012   4.534   1.447   4.274 -1.0854 -1.9015 -1.9595
 3793SOL    HW223013   4.465   1.330   4.355  0.7667 -1.9705 -0.6116
 3794SOL     OW23014   4.277   2.885   4.492 -0.5811 -0.1212  0.1815
 3794SOL    HW123015   4.332   2.825   4.541  1.4726  0.5909 -1.2286
 3794SOL    HW223016   4.237   2.825   4.429  0.1039  2.0298 -2.3529
 3795SOL     OW23017   0.241   0.615   5.016  0.3485 -0.0558 -0.2744
 3795SOL    HW123018   0.175   0.673   5.053  0.6316  0.4650 -0.5924
 3795SOL    HW223019   0.315   0.676   5.011 -0.6924  1.2446  0.4235
 3796SOL     OW23020   1.334   2.992  10.276 -0.4045 -0.0796  0.7701
 3796SOL    HW123021   1.364   3.069  10.324  0.8912 -1.4903  2.2232
 3796SOL    HW223022   1.357   2.917  10.331 -2.7162 -1.2534  0.1346
 3797SOL     OW23023   0.895   0.147   9.608  0.3777  0.5155  0.4495
 3797SOL    HW123024   0.946   0.227   9.617 -0.4154  1.1413 -0.6948
 3797SOL    HW223025   0.909   0.131   9.514 -0.0712 -1.3255  0.6831
 3798SOL     OW23026   1.221   1.089   7.060 -0.3709 -0.2791  0.9531
 3798SOL    HW123027   1.315   1.095   7.042 -0.5147 -0.8283  0.0217
 3798SOL    HW223028   1.210   1.175   7.100 -1.0382  1.6478 -3.3882
 3799SOL     OW23029   1.168   3.512   3.102 -0.0109  0.5757  0.4322
 3799SOL    HW123030   1.093   3.571   3.099  0.5891  1.3055 -0.1939
 3799SOL    HW223031   1.226   3.532   3.028 -2.5125 -0.3633 -1.7896
 3800SOL     OW23032   0.837   2.186  11.804 -0.5580 -0.0137 -0.0201
 3800SOL    HW123033   0.823   2.092  11.800 -2.7108  0.2703  1.0121
 3800SOL    HW223034   0.823   2.192  11.898 -2.1216  0.7763 -0.2953
 3801SOL     OW23035   1.209   2.186  11.001 -0.6149 -0.3023  0.4310
 3801SOL    HW123036   1.266   2.151  10.932 -0.8715  2.0263 -0.9598
 3801SOL    HW223037   1.177   2.270  10.967  1.2774  0.5981  0.8735
 3802SOL     OW23038   4.076   0.242  16.053 -0.3766 -0.5443  0.6814
 3802SOL    HW123039   4.142   0.285  15.997 -0.7826 -0.5884  0.1751
 3802SOL    HW223040   4.034   0.321  16.087 -0.3492 -0.0628 -0.3904
 3803SOL     OW23041   3.305   3.529   6.533 -0.1444  0.4789  0.3727
 3803SOL    HW123042   3.249   3.454   6.553  0.7248 -0.2891 -0.0854
 3803SOL    HW223043   3.263   3.586   6.598 -1.1922 -0.8757  0.8878
 3804SOL     OW23044   2.581   4.199   5.278  0.6677 -0.2565  0.1470
 3804SOL    HW123045   2.525   4.166   5.208 -0.2050  1.0810  0.2281
 3804SOL    HW223046   2.538   4.273   5.321 -2.1729 -0.6979 -1.9426
 3805SOL     OW23047   3.991   3.169   2.535  0.2342  0.0689  0.2978
 3805SOL    HW123048   4.021   3.149   2.624  1.3370 -1.3948 -0.3940
 3805SOL    HW223049   4.004   3.082   2.497 -0.7799 -0.3511  0.9088
 3806SOL     OW23050   2.798   2.043   2.537  0.0491  1.0076 -1.2856
 3806SOL    HW123051   2.854   1.987   2.485 -0.4731  0.2837 -1.0669
 3806SOL    HW223052   2.806   2.130   2.498  1.9585  0.2835 -2.4776
 3807SOL     OW23053   3.763   2.792   8.801  0.0541 -0.8661  0.4394
 3807SOL    HW123054   3.796   2.780   8.890  0.1540  3.1582  0.9438
 3807SOL    HW223055   3.801   2.718   8.754 -1.3232 -1.9665  1.0310
 3808SOL     OW23056   1.242   0.340  12.134 -0.1399  0.4820 -0.1882
 3808SOL    HW123057   1.173   0.388  12.087  1.3787  2.0136 -0.8626
 3808SOL    HW223058   1.317   0.381  12.091 -0.7942  1.2447 -0.6059
 3809SOL     OW23059   2.217   0.831  16.031  0.5344 -0.0364  0.2265
 3809SOL    HW123060   2.180   0.754  16.073 -2.6527  0.0540 -2.3928
 3809SOL    HW223061   2.262   0.874  16.103  1.0782  1.7211 -1.1671
 3810SOL     OW23062   2.198   1.295   3.561 -0.3527 -0.3680  0.2234
 3810SOL    HW123063   2.147   1.231   3.511  2.7596 -2.8063  0.2068
 3810SOL    HW223064   2.212   1.245   3.641 -1.8001 -0.2572  0.5588
 3811SOL     OW23065   3.153   2.882  16.140  0.3307 -0.1670 -0.1803
 3811SOL    HW123066   3.158   2.868  16.046 -0.1920  1.1237 -0.4021
 3811SOL    HW223067   3.080   2.945  16.140  0.4813  0.0095  0.5164
 3812SOL     OW23068   1.066   0.185   7.040  0.8979  0.0936  0.2063
 3812SOL    HW123069   1.051   0.164   7.132  1.6887 -0.1328  0.2784
 3812SOL    HW223070   0.981   0.173   6.996  1.4372 -1.7155 -0.3440
 3813SOL     OW23071   4.463   1.457  17.685 -0.8208 -0.6591 -0.0713
 3813SOL    HW123072   4.543   1.415  17.716  0.0537  0.7509 -0.4268
 3813SOL    HW223073   4.478   1.474  17.592 -2.2431 -2.2385 -0.5929
 3814SOL     OW23074   1.029   1.338  16.055 -0.1731 -0.2261  0.1554
 3814SOL    HW123075   1.018   1.418  16.004  2.5200 -0.5261 -0.8585
 3814SOL    HW223076   1.120   1.346  16.083 -1.1822  1.0374  2.9999
 3815SOL     OW23077   1.063   3.406   2.781 -0.2339  0.7463  0.2679
 3815SOL    HW123078   0.997   3.392   2.713 -1.2130  0.4553  1.2736
 3815SOL    HW223079   1.043   3.328   2.833 -1.1150  0.2674 -0.7741
 3816SOL     OW23080   1.778   3.467   6.944 -0.4426 -0.2799 -0.1026
 3816SOL    HW123081   1.762   3.561   6.942 -0.5585 -0.2998 -0.1389
 3816SOL    HW223082   1.824   3.470   6.860 -0.8020  2.9358 -0.1887
 3817SOL     OW23083   4.128   0.147   1.948  0.5087  0.1881 -0.4728
 3817SOL    HW123084   4.106   0.217   2.009 -2.8309 -2.0460  0.9026
 3817SOL    HW223085   4.105   0.188   1.865 -2.0598 -0.4668 -0.0703
 3818SOL     OW23086   0.245   0.902   2.819 -0.2391  0.3168 -0.3133
 3818SOL    HW123087   0.192   0.864   2.750  1.2974 -3.1232  0.3922
 3818SOL    HW223088   0.277   0.985   2.783 -0.0568  1.5616  2.7074
 3819SOL     OW23089   4.244   4.282   4.229  0.0096 -0.0239 -0.3552
 3819SOL    HW123090   4.216   4.205   4.179  0.6191 -2.8734  3.6670
 3819SOL    HW223091   4.197   4.263   4.310 -1.8366 -2.1594 -1.9330
 3820SOL     OW23092   3.799   0.071   6.811 -0.3235  0.3542  0.5312
 3820SOL    HW123093   3.828   0.128   6.882  0.7884 -0.3667  0.6502
 3820SOL    HW223094   3.823   4.719   6.835  0.9580  0.8886  1.2326
 3821SOL     OW23095   0.195   3.541   7.500  0.4291 -0.3774  0.0036
 3821SOL    HW123096   0.140   3.566   7.425  0.5877  0.1776  0.0716
 3821SOL    HW223097   0.231   3.628   7.516 -1.6651  0.2064  1.5308
 3822SOL     OW23098   1.711   0.575   8.034 -0.3091  0.1691  0.1821
 3822SOL    HW123099   1.743   0.655   7.992 -1.2373  0.9103  0.8777
 3822SOL    HW223100   1.755   0.580   8.119  0.1313  0.1392 -0.0442
 3823SOL     OW23101   0.446   3.480  10.247  0.8742 -0.8963 -0.8208
 3823SOL    HW123102   0.434   3.390  10.278 -0.9629 -0.2403  0.4048
 3823SOL    HW223103   0.399   3.523  10.318  1.3145 -0.3334 -0.8750
 3824SOL     OW23104   2.351   3.438   8.542  0.5765 -0.3426 -0.3563
 3824SOL    HW123105   2.368   3.344   8.534  0.0203 -0.6061  1.5849
 3824SOL    HW223106   2.376   3.457   8.452 -0.4157 -0.7031 -0.7151
 3825SOL     OW23107   2.320   0.748  17.651 -0.2909  0.4704  0.5878
 3825SOL    HW123108   2.266   0.712  17.581  0.1053  1.2545 -0.1083
 3825SOL    HW223109   2.346   0.833  17.617 -1.6450  0.2175 -1.0972
 3826SOL     OW23110   4.149   2.612   2.385 -0.0526 -0.0675  0.1473
 3826SOL    HW123111   4.172   2.523   2.360  2.0191  0.7609 -0.8478
 3826SOL    HW223112   4.057   2.614   2.358 -0.5202 -1.2169  1.6362
 3827SOL     OW23113   1.422   4.294   8.201 -0.0135  0.5485  0.2996
 3827SOL    HW123114   1.400   4.352   8.274 -2.9145 -0.3199  0.1086
 3827SOL    HW223115   1.478   4.352   8.148  1.3192 -2.3091 -1.4290
 3828SOL     OW23116   2.583   1.075   7.534  0.0217  0.2287  0.2433
 3828SOL    HW123117   2.525   1.141   7.572 -0.2915 -0.0731  0.2769
 3828SOL    HW223118   2.588   1.100   7.441  0.3706  0.0096  0.2028
 3829SOL     OW23119   4.493   2.801  17.585  0.2390 -0.0985 -0.1910
 3829SOL    HW123120   4.433   2.838  17.650  2.1881  1.8722  0.4692
 3829SOL    HW223121   4.510   2.711  17.615  0.8474  0.1774  0.2811
 3830SOL     OW23122   2.046   2.308   0.456 -0.2383 -0.5271 -0.8306
 3830SOL    HW123123   2.018   2.360   0.381 -0.6016  0.9355  0.3349
 3830SOL    HW223124   2.087   2.369   0.517 -1.2331 -0.1067 -0.5954
 3831SOL     OW23125   2.355   1.352  16.741  0.1544 -0.0098  0.7324
 3831SOL    HW123126   2.306   1.429  16.772 -1.3852 -0.7407  0.1187
 3831SOL    HW223127   2.345   1.298  16.819 -0.3438 -1.4661 -0.3329
 3832SOL     OW23128   4.296   0.286   4.862  0.4646  0.2740  0.4116
 3832SOL    HW123129   4.220   0.296   4.804  1.4327 -0.9077 -1.0482
 3832SOL    HW223130   4.313   0.192   4.860  0.5711  0.3311 -1.0543
 3833SOL     OW23131   4.340   4.527  11.556  0.1855 -0.1993  0.0099
 3833SOL    HW123132   4.394   4.597  11.520  1.8632 -0.6073  1.8049
 3833SOL    HW223133   4.343   4.537  11.651 -2.7603  0.7110  0.0143
 3834SOL     OW23134   4.167   3.783   9.078 -0.6230 -0.6386 -0.2803
 3834SOL    HW123135   4.192   3.775   9.170  1.9935 -1.5404 -1.0676
 3834SOL    HW223136   4.255   3.810   9.054 -2.4633  2.6878 -3.2607
 3835SOL     OW23137   4.421   4.088   6.388 -0.0866 -0.5567 -0.2128
 3835SOL    HW123138   4.371   4.109   6.309 -0.5358  3.1323  1.0103
 3835SOL    HW223139   4.364   4.125   6.455  2.1749  3.2047 -0.3446
 3836SOL     OW23140   3.918   1.668  14.659  0.4576  0.1179 -0.4845
 3836SOL    HW123141   3.942   1.592  14.712 -0.1823 -0.6050 -1.2473
 3836SOL    HW223142   4.003   1.684  14.618  0.9246  1.5513  1.0369
 3837SOL     OW23143   0.584   1.446   5.955 -0.1041  0.6253  0.3444
 3837SOL    HW123144   0.561   1.374   6.014  0.3008  0.6900  0.5843
 3837SOL    HW223145   0.675   1.419   5.949 -0.7496 -1.3514 -0.5606
 3838SOL     OW23146   2.088   1.814   7.231 -0.0870  0.5544 -0.4472
 3838SOL    HW123147   2.152   1.743   7.240 -0.9672 -0.1825 -0.0138
 3838SOL    HW223148   2.086   1.828   7.137 -1.3889 -0.3314 -0.5551
 3839SOL     OW23149   1.858   3.325   7.428  0.3954  0.3506 -0.1505
 3839SOL    HW123150   1.795   3.254   7.415  1.2805 -0.7293  1.5265
 3839SOL    HW223151   1.878   3.346   7.337 -0.4400 -1.4842 -0.7534
 3840SOL     OW23152   1.599   2.257   3.181 -0.1282 -0.4927  0.6005
 3840SOL    HW123153   1.571   2.185   3.238  1.3435 -0.1982  1.6783
 3840SOL    HW223154   1.682   2.214   3.162 -0.1434 -0.7282  1.0701
 3841SOL     OW23155   2.891   3.418   6.024  0.4301  0.1058  0.3403
 3841SOL    HW123156   2.955   3.489   6.026  2.0631 -1.3317 -0.4617
 3841SOL    HW223157   2.875   3.426   6.117  0.5561  1.0499  0.2825
 3842SOL     OW23158   3.000   3.713   4.750 -0.2050 -1.2337 -0.6627
 3842SOL    HW123159   2.963   3.624   4.742  0.0755 -1.6435  2.4795
 3842SOL    HW223160   3.091   3.703   4.724  0.6301 -0.6129  2.0194
 3843SOL     OW23161   3.289   4.709   6.327  0.2690  0.0838 -0.4621
 3843SOL    HW123162   3.379   4.681   6.310 -0.1917 -0.3687 -2.1111
 3843SOL    HW223163   3.264   0.028   6.253  1.1215 -0.3766 -1.1093
 3844SOL     OW23164   3.647   3.929  16.366  0.3470 -0.1796 -0.3628
 3844SOL    HW123165   3.708   3.857  16.384  0.1646  0.1888  1.7653
 3844SOL    HW223166   3.621   3.902  16.278 -3.0162 -0.3680  0.6808
 3845SOL     OW23167   4.372   2.496   9.115  0.1697  0.5397  0.0447
 3845SOL    HW123168   4.320   2.480   9.194  0.7064 -0.9753  0.1104
 3845SOL    HW223169   4.316   2.560   9.073 -0.7337 -1.0295 -1.1553
 3846SOL     OW23170   2.544   3.012   6.689  0.2396 -0.2795  0.3735
 3846SOL    HW123171   2.537   3.064   6.770 -1.1524 -0.5986  0.4591
 3846SOL    HW223172   2.460   2.967   6.694  0.8791 -1.5511 -0.3428
 3847SOL     OW23173   3.832   0.382   8.356 -0.0825  0.2486 -0.8645
 3847SOL    HW123174   3.896   0.318   8.386 -0.1707  0.0867 -1.0219
 3847SOL    HW223175   3.891   0.429   8.297 -0.6070  0.7053 -1.0239
 3848SOL     OW23176   2.911   0.548   2.873  0.5279  0.3337 -0.7362
 3848SOL    HW123177   2.926   0.636   2.907  1.5222  0.3453 -1.2059
 3848SOL    HW223178   2.967   0.552   2.796 -0.3050 -2.4852 -1.4721
 3849SOL     OW23179   2.975   1.221   2.808  0.2545 -0.0403  0.7412
 3849SOL    HW123180   2.896   1.178   2.776 -0.0373  1.0959 -0.0764
 3849SOL    HW223181   2.960   1.314   2.789  1.2968  0.3038  1.5713
 3850SOL     OW23182   2.883   3.040   3.556  0.7567  0.0077 -0.7575
 3850SOL    HW123183   2.926   3.089   3.627 -0.0651 -0.5420  0.1168
 3850SOL    HW223184   2.910   3.107   3.493  0.7069 -0.7034 -1.5325
 3851SOL     OW23185   4.075   1.255   6.173  0.1657  0.3727  0.4360
 3851SOL    HW123186   4.130   1.326   6.140 -0.7444  1.8269  2.0552
 3851SOL    HW223187   4.112   1.236   6.259  0.7918  0.3037  0.1494
 3852SOL     OW23188   3.631   1.100  11.746  0.0660 -0.4879 -0.0808
 3852SOL    HW123189   3.703   1.102  11.809  0.0817 -0.5472 -0.0973
 3852SOL    HW223190   3.582   1.178  11.774 -2.1462 -0.6911 -3.3605
 3853SOL     OW23191   2.547   1.670   7.106 -0.5123 -0.2589 -0.7442
 3853SOL    HW123192   2.495   1.719   7.042  1.7656 -0.4717 -2.7488
 3853SOL    HW223193   2.632   1.687   7.067 -0.5427 -0.8118 -1.0565
 3854SOL     OW23194   3.078   1.741   2.675  0.0785  0.2338  0.0888
 3854SOL    HW123195   3.042   1.822   2.640  0.0111  0.0260 -0.3205
 3854SOL    HW223196   3.018   1.672   2.646 -0.3121  0.2738  0.8159
 3855SOL     OW23197   4.407   2.698   5.128  0.3383 -0.0920 -0.3760
 3855SOL    HW123198   4.481   2.740   5.171 -0.3109  1.3129 -0.6521
 3855SOL    HW223199   4.335   2.762   5.131 -1.1461 -1.8077  1.1197
 3856SOL     OW23200   1.065   0.424   1.323  0.3318  0.5186  0.7825
 3856SOL    HW123201   1.031   0.364   1.389  0.1739 -0.5582 -0.2973
 3856SOL    HW223202   1.087   0.366   1.251 -0.1041 -1.0953  1.9314
 3857SOL     OW23203   3.791   3.797   2.900 -0.2079 -0.6898  0.0743
 3857SOL    HW123204   3.842   3.754   2.831  0.4015 -1.8736  1.2642
 3857SOL    HW223205   3.848   3.869   2.926 -0.9540  0.2255 -0.8257
 3858SOL     OW23206   1.539   3.134   9.097 -0.3354 -0.1338 -0.3399
 3858SOL    HW123207   1.510   3.084   9.021  2.6514 -1.1793 -0.7704
 3858SOL    HW223208   1.629   3.108   9.081 -1.1356 -1.7641 -2.1686
 3859SOL     OW23209   0.304   2.549  13.199  0.3364 -0.5948  0.5836
 3859SOL    HW123210   0.384   2.568  13.247 -0.5092  0.2112  1.6576
 3859SOL    HW223211   0.335   2.567  13.110  1.0028 -2.8830  0.3626
 3860SOL     OW23212   2.415   1.292   3.201  0.6133  0.7629 -0.0302
 3860SOL    HW123213   2.442   1.306   3.291  0.2701  0.7482  0.0752
 3860SOL    HW223214   2.402   1.385   3.182 -0.8370  0.7038  0.6826
 3861SOL     OW23215   0.102   1.433   7.388  0.0217 -0.0933 -0.0248
 3861SOL    HW123216   0.186   1.476   7.397 -0.4624  0.8821 -0.1969
 3861SOL    HW223217   0.039   1.503   7.371  1.5725  1.3659  0.3372
 3862SOL     OW23218   1.383   2.707   4.537 -0.0116 -0.3041 -0.2969
 3862SOL    HW123219   1.310   2.703   4.475 -0.4435  0.9136  0.1327
 3862SOL    HW223220   1.348   2.769   4.601  1.4237 -0.0690  0.2583
 3863SOL     OW23221   0.825   0.024   0.532 -0.2019  0.3487  0.5945
 3863SOL    HW123222   0.778   4.678   0.518 -2.6735  1.6914  0.8637
 3863SOL    HW223223   0.914   4.731   0.514 -0.8748 -0.2837 -1.6998
 3864SOL     OW23224   0.926   3.207  17.262 -0.3625  1.2375 -0.6087
 3864SOL    HW123225   1.019   3.186  17.250 -0.5282 -0.8474  1.5949
 3864SOL    HW223226   0.927   3.302  17.263  2.2893  1.2202 -1.5820
 3865SOL     OW23227   3.809   4.678   7.891  0.3718 -0.5433  0.4676
 3865SOL    HW123228   3.802   4.689   7.985  0.7689 -0.2522  0.4653
 3865SOL    HW223229   3.864   0.017   7.867  1.1922 -0.4051  2.7584
 3866SOL     OW23230   3.547   1.259  12.482  0.9992  0.1162 -0.2156
 3866SOL    HW123231   3.639   1.282  12.470  0.9641  0.7780  0.7842
 3866SOL    HW223232   3.555   1.164  12.474 -0.1249 -0.1408  1.6426
 3867SOL     OW23233   1.637   1.449   8.381  0.0391  0.1194 -0.3471
 3867SOL    HW123234   1.723   1.483   8.406 -0.1614 -1.0711  1.9095
 3867SOL    HW223235   1.600   1.536   8.371 -3.0549 -1.1303  0.3328
 3868SOL     OW23236   1.352   2.028  13.229  0.2519 -0.3568  0.2961
 3868SOL    HW123237   1.322   2.014  13.319  0.6757  1.8515  0.8029
 3868SOL    HW223238   1.278   2.082  13.199  0.1996  0.8734  2.6167
 3869SOL     OW23239   4.410   0.174   6.853 -0.1059  0.3262  0.1718
 3869SOL    HW123240   4.505   0.166   6.853  0.0319  1.9701  0.5541
 3869SOL    HW223241   4.396   0.083   6.879  1.3392 -0.2277 -0.9727
 3870SOL     OW23242   3.870   3.949   8.016  0.2113 -0.9256  0.3072
 3870SOL    HW123243   3.933   3.934   8.086 -0.9411 -0.7779  1.3629
 3870SOL    HW223244   3.828   4.031   8.041  1.0564  0.3339 -2.3221
 3871SOL     OW23245   3.253   0.947   2.644 -0.5066 -0.4748 -0.4362
 3871SOL    HW123246   3.343   0.915   2.644 -0.2932  0.1652 -1.5289
 3871SOL    HW223247   3.217   0.877   2.590 -0.2769 -0.5685 -0.4683
 3872SOL     OW23248   4.079   2.325   6.476 -0.1826  0.4165 -0.1220
 3872SOL    HW123249   4.147   2.387   6.503 -1.1626 -0.1479  3.7496
 3872SOL    HW223250   4.064   2.294   6.566 -1.4193  1.1468 -0.0737
 3873SOL     OW23251   3.395   2.583  15.730  0.2139 -0.0825  0.5726
 3873SOL    HW123252   3.458   2.632  15.783  2.3509  0.8023 -2.7594
 3873SOL    HW223253   3.324   2.646  15.726  0.6120  0.2997 -0.5814
 3874SOL     OW23254   3.699   2.964   0.302  0.1547  0.4090 -0.2121
 3874SOL    HW123255   3.739   2.976   0.388 -0.1435  1.5824 -0.2434
 3874SOL    HW223256   3.775   2.949   0.246 -1.3432 -1.1536 -1.8319
 3875SOL     OW23257   1.904   2.483   4.833 -0.0944  0.1478 -0.5484
 3875SOL    HW123258   1.937   2.571   4.814  0.5833  0.1761  0.8284
 3875SOL    HW223259   1.987   2.437   4.827 -0.0924 -0.0029  0.7678
 3876SOL     OW23260   1.292   3.817   4.281 -0.4981 -0.2196  0.2252
 3876SOL    HW123261   1.366   3.761   4.304  2.0138  2.4159 -1.3934
 3876SOL    HW223262   1.297   3.808   4.186  3.0460  0.9287  0.2825
 3877SOL     OW23263   3.486   2.830   5.115 -0.3316  0.5865  0.1719
 3877SOL    HW123264   3.440   2.823   5.200 -0.5955 -0.3206 -0.0392
 3877SOL    HW223265   3.486   2.925   5.105 -1.7812  0.1826 -3.3849
 3878SOL     OW23266   4.730   3.904   5.334 -0.6331  0.4668  0.1759
 3878SOL    HW123267   4.656   3.845   5.319 -0.4326  0.5548 -1.0883
 3878SOL    HW223268   4.697   3.940   5.417 -0.4980 -2.0657  1.3308
 3879SOL     OW23269   4.143   4.504   7.334 -0.0055 -0.3442 -0.2178
 3879SOL    HW123270   4.065   4.478   7.285 -0.2202  0.5262 -0.3356
 3879SOL    HW223271   4.105   4.513   7.421  0.3136 -0.0819 -0.1024
 3880SOL     OW23272   4.591   3.841  10.118 -0.8108  0.0213 -0.2327
 3880SOL    HW123273   4.640   3.790  10.183 -1.0808  2.3946  1.8460
 3880SOL    HW223274   4.638   3.824  10.037 -3.1655 -2.1625 -1.1549
 3881SOL     OW23275   1.716   3.961   7.571 -0.6329  0.3627 -0.3111
 3881SOL    HW123276   1.763   4.039   7.543 -1.0454  1.0838  0.9938
 3881SOL    HW223277   1.696   3.927   7.484 -1.4737  1.4693 -0.5482
 3882SOL     OW23278   2.005   1.731  14.450 -0.4512 -0.2270 -0.2498
 3882SOL    HW123279   2.052   1.651  14.476  0.2146 -0.4111 -2.0177
 3882SOL    HW223280   1.929   1.722  14.507 -0.4681  0.2782 -0.1927
 3883SOL     OW23281   3.209   1.373   8.858  0.4634  0.3164  0.4727
 3883SOL    HW123282   3.280   1.400   8.799  0.8123 -1.7564 -0.0563
 3883SOL    HW223283   3.259   1.347   8.935 -1.4149 -0.2430  1.4869
 3884SOL     OW23284   3.811   0.238  15.189 -0.8769 -0.6392 -0.3418
 3884SOL    HW123285   3.882   0.282  15.142 -1.4034  2.8083  2.0974
 3884SOL    HW223286   3.766   0.204  15.112 -1.9168 -1.2857  0.5547
 3885SOL     OW23287   1.997   4.046   2.159 -0.6543  0.6226 -0.7988
 3885SOL    HW123288   1.991   3.953   2.183  0.4152  0.6851 -0.2885
 3885SOL    HW223289   1.957   4.095   2.232  0.8139 -1.4169  1.3886
 3886SOL     OW23290   3.461   1.223   6.743  0.0461 -0.0169  0.3229
 3886SOL    HW123291   3.456   1.315   6.770 -1.4043  0.7642 -2.6810
 3886SOL    HW223292   3.368   1.204   6.734  0.1306  0.1977 -0.9481
 3887SOL     OW23293   0.705   2.140   4.984 -0.5095  0.0064  0.7162
 3887SOL    HW123294   0.696   2.199   5.059 -2.1812  0.6635 -0.0055
 3887SOL    HW223295   0.739   2.196   4.915  1.2898 -1.2123  0.6195
 3888SOL     OW23296   4.149   1.862   2.841 -0.3037  0.1979 -0.2076
 3888SOL    HW123297   4.222   1.915   2.808  0.7243 -0.6918  0.6259
 3888SOL    HW223298   4.108   1.828   2.762 -0.3981  2.2291 -1.0295
 3889SOL     OW23299   0.930   0.861   8.250  0.1160 -0.0756  0.1967
 3889SOL    HW123300   0.873   0.837   8.323 -0.5667  2.5883  0.5346
 3889SOL    HW223301   0.943   0.771   8.219 -1.3289 -0.3753  0.4490
 3890SOL     OW23302   0.898   0.255   8.694  0.7335 -0.1666  0.5764
 3890SOL    HW123303   0.942   0.274   8.777 -0.6498  0.1723  1.2166
 3890SOL    HW223304   0.916   0.163   8.675  0.7398 -0.7197  3.2230
 3891SOL     OW23305   1.421   3.545   4.800  0.3070  0.1414 -0.0331
 3891SOL    HW123306   1.500   3.503   4.836  0.6622 -1.1750 -2.3391
 3891SOL    HW223307   1.431   3.636   4.826  1.1661  0.2383 -0.6973
 3892SOL     OW23308   2.322   2.483   8.647  0.0008 -0.4475  0.0670
 3892SOL    HW123309   2.260   2.550   8.674 -0.4694 -0.8479 -0.0251
 3892SOL    HW223310   2.396   2.538   8.621  1.6311 -2.5385  0.2508
 3893SOL     OW23311   2.252   0.971  17.135  0.1471  0.1667 -0.2183
 3893SOL    HW123312   2.267   1.043  17.196  1.0416 -0.5238  0.3713
 3893SOL    HW223313   2.200   1.019  17.070  1.8265  0.9261 -1.0028
 3894SOL     OW23314   2.382   0.073  12.782  0.2197  0.2665  0.4961
 3894SOL    HW123315   2.424   0.036  12.860 -2.3095 -1.4892  0.9796
 3894SOL    HW223316   2.362   4.733  12.729 -0.3581 -0.7850  2.2591
 3895SOL     OW23317   0.603   3.107  10.109  0.5823 -0.3841 -0.2775
 3895SOL    HW123318   0.637   3.196  10.114 -1.7616  0.4951  0.3338
 3895SOL    HW223319   0.676   3.045  10.104  2.8665  2.3200 -0.3416
 3896SOL     OW23320   4.175   3.741   3.243  0.1778  0.1804 -0.1599
 3896SOL    HW123321   4.177   3.758   3.149 -2.0433  0.3000 -0.1931
 3896SOL    HW223322   4.182   3.646   3.235  0.5715  0.1655  0.3542
 3897SOL     OW23323   4.240   2.442   6.669 -0.6377 -0.3963 -0.3941
 3897SOL    HW123324   4.260   2.349   6.678 -1.2079 -0.6647 -1.8357
 3897SOL    HW223325   4.330   2.474   6.663 -0.4447 -0.6832  1.1482
 3898SOL     OW23326   0.704   2.441   3.699  0.0545 -0.4498 -0.3206
 3898SOL    HW123327   0.773   2.388   3.739  1.5771  0.0395 -2.3009
 3898SOL    HW223328   0.622   2.399   3.725  1.9553 -2.3786  2.6760
 3899SOL     OW23329   1.676   0.163   7.428 -0.1331  0.6253 -0.1203
 3899SOL    HW123330   1.678   0.222   7.353 -1.8842 -0.2598 -0.8685
 3899SOL    HW223331   1.615   0.097   7.397  1.9262 -0.0850 -2.5792
 3900SOL     OW23332   3.531   1.130   3.785 -0.1121 -0.0501  0.4123
 3900SOL    HW123333   3.531   1.061   3.719  0.4072  1.8151 -1.5349
 3900SOL    HW223334   3.586   1.084   3.848 -0.3609 -0.9988 -0.0651
 3901SOL     OW23335   2.580   2.009   3.541  0.1795  0.0924 -0.3505
 3901SOL    HW123336   2.603   2.095   3.508 -1.7087  1.3489  1.6197
 3901SOL    HW223337   2.645   1.957   3.494 -0.7565  0.6572 -2.2494
 3902SOL     OW23338   1.626   3.720   6.618  0.0605 -0.3816  0.2424
 3902SOL    HW123339   1.605   3.634   6.582  0.5999 -0.6478  0.5628
 3902SOL    HW223340   1.607   3.767   6.537 -0.3554  0.6857  0.9533
 3903SOL     OW23341   1.982   2.611  15.157  0.1370  0.5383  0.8780
 3903SOL    HW123342   1.960   2.645  15.243  0.1513 -1.0277  1.4993
 3903SOL    HW223343   1.955   2.519  15.156  0.2161  0.5185  0.5953
 3904SOL     OW23344   2.541   1.053   6.113  0.6043  0.0934  0.1470
 3904SOL    HW123345   2.581   1.033   6.028 -1.0963  0.1212 -0.6472
 3904SOL    HW223346   2.508   1.142   6.100 -0.4567 -0.7324 -2.9259
 3905SOL     OW23347   4.231   0.901  12.765 -0.1154  0.0707 -0.3091
 3905SOL    HW123348   4.283   0.973  12.803  0.8069 -0.8592  0.1853
 3905SOL    HW223349   4.298   0.833  12.774 -2.0239 -1.6935  0.4842
 3906SOL     OW23350   1.218   1.235  11.831  0.4293 -0.3180 -0.2436
 3906SOL    HW123351   1.183   1.258  11.745  0.8485  0.1798 -0.2768
 3906SOL    HW223352   1.303   1.277  11.832 -0.2341  1.0299 -0.0841
 3907SOL     OW23353   3.939   3.466   4.240 -0.6586 -0.4051 -0.1878
 3907SOL    HW123354   3.896   3.407   4.179  1.6957  0.1835 -2.3758
 3907SOL    HW223355   3.931   3.414   4.320  1.9019  0.8504  0.8637
 3908SOL     OW23356   1.754   4.029   2.745  0.3839  0.5815  0.0379
 3908SOL    HW123357   1.681   3.966   2.746 -0.2505  1.3192  0.3302
 3908SOL    HW223358   1.803   3.996   2.670  0.5302 -0.8248  0.7357
 3909SOL     OW23359   2.480   2.599   7.077 -0.2803  0.4475 -0.3082
 3909SOL    HW123360   2.414   2.539   7.111  0.7428 -0.1102  0.6818
 3909SOL    HW223361   2.468   2.590   6.982  0.3191  1.1019 -0.4515
 3910SOL     OW23362   3.299   2.859  12.007  0.4279  0.3867 -0.1836
 3910SOL    HW123363   3.327   2.842  12.097 -0.6267 -1.0683 -0.1302
 3910SOL    HW223364   3.366   2.921  11.980  0.4794  1.5208  2.5209
 3911SOL     OW23365   4.170   2.991  17.610  0.1276  0.0410  0.8729
 3911SOL    HW123366   4.138   2.914  17.562  2.2060 -0.5240  0.3624
 3911SOL    HW223367   4.229   2.951  17.673 -1.5964  0.7841  2.9311
 3912SOL     OW23368   1.700   3.721  13.795 -0.1852  0.2330 -0.3579
 3912SOL    HW123369   1.678   3.641  13.748 -0.3065 -1.2643  2.2511
 3912SOL    HW223370   1.795   3.715  13.789 -0.0757 -0.4869  2.1775
 3913SOL     OW23371   3.560   2.990  12.571  0.6051  0.3455 -0.5013
 3913SOL    HW123372   3.501   2.958  12.639  1.0396 -0.9780 -0.7569
 3913SOL    HW223373   3.607   3.052  12.626 -1.6540 -0.2987  2.1188
 3914SOL     OW23374   3.824   3.504   4.813  0.0978 -0.2611  0.1458
 3914SOL    HW123375   3.844   3.598   4.819 -0.0475 -0.0703 -2.5107
 3914SOL    HW223376   3.762   3.492   4.885  0.8603  2.7374  1.3430
 3915SOL     OW23377   2.621   0.541  13.786  0.0382  0.0818  0.0587
 3915SOL    HW123378   2.545   0.551  13.844 -0.4478  1.3052 -0.7904
 3915SOL    HW223379   2.596   0.600  13.714 -0.8740 -0.3213  0.0381
 3916SOL     OW23380   0.131   0.151   2.968 -0.6640 -0.5895 -0.1961
 3916SOL    HW123381   0.149   0.209   3.042  0.5797  0.1006 -1.0357
 3916SOL    HW223382   0.051   0.196   2.941 -0.6064  0.1631  0.8687
 3917SOL     OW23383   0.897   0.468   5.664 -0.2791 -0.6348 -0.1448
 3917SOL    HW123384   0.981   0.485   5.622 -0.4525 -2.6744 -1.3553
 3917SOL    HW223385   0.896   0.373   5.647 -2.9360 -0.5640 -0.4406
 3918SOL     OW23386   1.008   3.753   4.421 -0.3102  0.5347  0.4298
 3918SOL    HW123387   1.102   3.770   4.431 -0.0783  0.2007 -1.2499
 3918SOL    HW223388   0.985   3.803   4.343  0.0591 -0.7816 -0.5115
 3919SOL     OW23389   2.529   3.541   7.257  0.3117  0.7137  0.5596
 3919SOL    HW123390   2.536   3.507   7.346  0.4393  1.0206  0.6643
 3919SOL    HW223391   2.611   3.585   7.234 -1.1525  1.8863 -2.3767
 3920SOL     OW23392   1.188   3.894   6.948 -0.6912 -0.2803 -0.1875
 3920SOL    HW123393   1.157   3.963   6.889 -2.4905  0.4370  1.5853
 3920SOL    HW223394   1.158   3.815   6.902 -3.0757  0.4603  0.1108
 3921SOL     OW23395   2.009   0.523   2.862 -0.1500 -0.0969 -0.1174
 3921SOL    HW123396   1.978   0.503   2.951  0.9706  0.6099  0.4234
 3921SOL    HW223397   1.958   0.458   2.813 -0.5725  0.6081 -0.6069
 3922SOL     OW23398   4.593   3.016  17.125  0.5408 -0.3428  0.5998
 3922SOL    HW123399   4.582   2.941  17.184  0.5195 -1.1715 -0.4636
 3922SOL    HW223400   4.500   3.033  17.114  0.7096 -0.2731 -0.6893
 3923SOL     OW23401   1.244   0.132  13.501  0.2607 -0.3389 -0.2454
 3923SOL    HW123402   1.221   0.133  13.594  0.0421 -2.8102 -0.2782
 3923SOL    HW223403   1.170   0.170  13.454  0.1888 -1.3639 -0.9389
 3924SOL     OW23404   0.303   4.438   8.423  0.1146  0.8935  0.4411
 3924SOL    HW123405   0.280   4.457   8.515 -0.9627 -0.6798  0.5059
 3924SOL    HW223406   0.386   4.484   8.415  0.4350  0.3114  0.4663
 3925SOL     OW23407   3.666   1.958  10.512  0.0142  0.0861 -0.5545
 3925SOL    HW123408   3.619   2.038  10.489 -0.8264 -0.1881  0.1828
 3925SOL    HW223409   3.600   1.889  10.516  0.2342 -0.0517  0.8918
 3926SOL     OW23410   2.357   3.237   8.826 -0.1433 -0.2092 -0.0313
 3926SOL    HW123411   2.293   3.236   8.897 -2.2662 -1.2698 -1.9767
 3926SOL    HW223412   2.303   3.235   8.747  0.9403  1.7274 -0.8004
 3927SOL     OW23413   1.838   2.837  16.690 -0.3370 -0.1218  0.3079
 3927SOL    HW123414   1.813   2.793  16.608 -0.2746 -1.0138  0.7648
 3927SOL    HW223415   1.805   2.926  16.675 -1.8650 -0.3324  2.5615
 3928SOL     OW23416   0.779   1.407  17.314  0.0960  0.7760 -0.7004
 3928SOL    HW123417   0.770   1.460  17.235 -1.6005 -0.0287 -1.0595
 3928SOL    HW223418   0.722   1.332  17.296 -0.1513  0.8369 -0.1620
 3929SOL     OW23419   3.276   0.139   5.558 -0.5435 -0.0803 -0.2736
 3929SOL    HW123420   3.367   0.111   5.567  0.1445  1.9772 -0.9908
 3929SOL    HW223421   3.256   0.088   5.480  1.0566 -0.2143 -0.6039
 3930SOL     OW23422   2.185   3.786   9.480  0.4002 -0.2965 -0.0870
 3930SOL    HW123423   2.262   3.827   9.519  1.5439 -3.8995  1.4431
 3930SOL    HW223424   2.127   3.770   9.555  1.3397 -0.9459  0.4977
 3931SOL     OW23425   4.130   2.037   5.068  0.5718 -0.2060  0.4679
 3931SOL    HW123426   4.210   2.083   5.094 -1.3233  2.5098  1.4667
 3931SOL    HW223427   4.067   2.061   5.136  0.7869  0.2714  0.4928
 3932SOL     OW23428   2.160   0.404   7.100 -0.2804  0.0216  0.3449
 3932SOL    HW123429   2.141   0.381   7.191  0.5921 -2.1349 -0.0163
 3932SOL    HW223430   2.251   0.376   7.102 -0.0060  0.9563  0.9675
 3933SOL     OW23431   0.234   2.873   8.039 -0.4369 -0.1120  0.4391
 3933SOL    HW123432   0.307   2.919   8.080 -1.7831  1.5967  0.9076
 3933SOL    HW223433   0.164   2.882   8.104 -1.9664 -0.5873 -1.1327
 3934SOL     OW23434   1.410   4.197  12.142 -0.0994  0.1576  0.5599
 3934SOL    HW123435   1.440   4.274  12.190  1.0441  0.3926 -0.5371
 3934SOL    HW223436   1.493   4.153  12.123 -1.3339 -2.0710  0.3089
 3935SOL     OW23437   1.854   2.121   4.656 -0.1384 -0.0371 -0.0320
 3935SOL    HW123438   1.781   2.182   4.670 -1.3414 -0.6637 -3.5964
 3935SOL    HW223439   1.841   2.055   4.724  0.6956 -0.5535 -0.3746
 3936SOL     OW23440   2.504   2.326   8.226  0.0173 -0.5964  0.3256
 3936SOL    HW123441   2.456   2.369   8.297 -0.3836 -1.1635  0.3934
 3936SOL    HW223442   2.558   2.260   8.270 -1.3200 -0.3130  2.3635
 3937SOL     OW23443   0.835   1.877   3.593  0.2366  0.0739 -0.1439
 3937SOL    HW123444   0.825   1.784   3.615 -2.0469  0.3559  0.0045
 3937SOL    HW223445   0.771   1.925   3.646  0.5665  0.7138 -0.3317
 3938SOL     OW23446   2.400   1.203  14.952  0.8501 -0.1441 -0.7102
 3938SOL    HW123447   2.392   1.136  14.884  3.1354 -1.3775  0.2449
 3938SOL    HW223448   2.453   1.158  15.018  2.5798  2.1323 -0.5283
 3939SOL     OW23449   3.325   1.825   2.545  0.7640  0.0863  0.2551
 3939SOL    HW123450   3.283   1.770   2.478  0.6703 -0.5684  0.8493
 3939SOL    HW223451   3.269   1.803   2.620  1.1779 -2.1385 -0.0869
 3940SOL     OW23452   3.063   4.464  15.435 -0.0919 -0.4639 -0.1708
 3940SOL    HW123453   3.013   4.435  15.358 -1.5307  0.5656  0.3699
 3940SOL    HW223454   3.122   4.533  15.407  2.1701 -1.5516  1.9322
 3941SOL     OW23455   0.623   0.488   5.649 -0.0947  0.5820  0.1750
 3941SOL    HW123456   0.602   0.506   5.741 -0.6040  1.8312 -0.1787
 3941SOL    HW223457   0.716   0.467   5.655 -0.9679 -3.2039  0.5233
 3942SOL     OW23458   2.831   2.669  10.183  0.4635 -0.2425  0.2653
 3942SOL    HW123459   2.896   2.691  10.249  0.3073  1.4325 -0.1516
 3942SOL    HW223460   2.885   2.641  10.109 -0.8031 -1.7288 -0.1211
 3943SOL     OW23461   0.253   3.515   4.173  0.2636  0.2487 -0.2495
 3943SOL    HW123462   0.286   3.585   4.117 -0.4218  1.4179  0.8110
 3943SOL    HW223463   0.177   3.486   4.123 -0.6537 -2.4716  2.7438
 3944SOL     OW23464   2.115   1.098   7.260  0.1625  0.2887  0.0194
 3944SOL    HW123465   2.050   1.163   7.232  0.8873  0.4582 -1.2599
 3944SOL    HW223466   2.057   1.023   7.270  0.1687  0.1629 -0.9470
 3945SOL     OW23467   3.370   2.680   1.151 -0.3949  0.1251 -0.4517
 3945SOL    HW123468   3.340   2.770   1.134 -1.1212  0.1111  0.7295
 3945SOL    HW223469   3.284   2.648   1.121 -1.0149  1.9282 -0.6233
 3946SOL     OW23470   0.433   3.508  12.831 -0.0760 -0.2595 -0.2652
 3946SOL    HW123471   0.348   3.542  12.802  0.8884  2.4015  0.0341
 3946SOL    HW223472   0.442   3.423  12.788  0.3073  0.1581 -1.0164
 3947SOL     OW23473   0.936   1.782  17.664  0.2253 -0.6584 -0.1264
 3947SOL    HW123474   1.031   1.791  17.674  0.2021  0.4291 -0.8627
 3947SOL    HW223475   0.943   1.696  17.624  2.7684  0.3722 -1.8988
 3948SOL     OW23476   2.221   3.545   4.374  0.3124  0.4934 -0.1340
 3948SOL    HW123477   2.208   3.515   4.464 -1.1990 -0.2046 -0.5829
 3948SOL    HW223478   2.311   3.515   4.365 -0.3965 -2.6585  3.2074
 3949SOL     OW23479   0.649   3.777   8.952 -0.5908  0.0863  0.1978
 3949SOL    HW123480   0.605   3.692   8.949  0.9504 -0.6311 -2.6661
 3949SOL    HW223481   0.569   3.828   8.946 -0.4327  0.2137 -0.9226
 3950SOL     OW23482   1.848   4.031   4.162 -0.0379 -0.3499 -0.6976
 3950SOL    HW123483   1.772   3.983   4.194  0.1311 -0.4666 -0.4692
 3950SOL    HW223484   1.806   4.098   4.108  0.2956 -0.2455 -0.8291
 3951SOL     OW23485   0.263   0.439   3.358 -0.1617  0.7999  0.1581
 3951SOL    HW123486   0.182   0.471   3.398 -0.5288  1.4876 -1.1333
 3951SOL    HW223487   0.329   0.438   3.428 -0.6631  1.3087  0.6400
 3952SOL     OW23488   0.099   0.048   9.229  0.4871  0.4452  0.1038
 3952SOL    HW123489   0.051   0.129   9.210 -0.4748 -0.3756 -1.0217
 3952SOL    HW223490   0.190   0.071   9.209  0.3288  0.4607 -0.6200
 3953SOL     OW23491   0.805   2.409  12.336  0.0099  0.1192  0.1012
 3953SOL    HW123492   0.721   2.375  12.307 -0.3121 -0.3415  1.5760
 3953SOL    HW223493   0.837   2.332  12.382 -0.2356  0.9778  1.7120
 3954SOL     OW23494   3.065   1.546   9.070 -0.0280 -1.1595 -0.5364
 3954SOL    HW123495   3.008   1.469   9.061  0.6131 -1.7841  0.7487
 3954SOL    HW223496   3.148   1.505   9.046 -1.2338 -3.2035 -1.1969
 3955SOL     OW23497   0.154   3.244   4.775 -0.7726 -0.0349  0.2749
 3955SOL    HW123498   0.225   3.300   4.806  0.3077 -0.6113 -1.1606
 3955SOL    HW223499   0.129   3.192   4.852  3.6763 -2.2947  0.1996
 3956SOL     OW23500   3.591   3.818   6.274  0.1168 -0.2324 -0.3433
 3956SOL    HW123501   3.497   3.804   6.287  0.2888 -0.9882  0.0898
 3956SOL    HW223502   3.624   3.808   6.363 -0.7303 -2.9581 -0.3355
 3957SOL     OW23503   2.435   3.153   6.310  0.1977 -0.0650 -0.6517
 3957SOL    HW123504   2.382   3.106   6.245  1.2969 -0.0577 -1.5609
 3957SOL    HW223505   2.470   3.077   6.357  0.7283  0.9103  0.5235
 3958SOL     OW23506   4.296   4.189   4.830  0.0423  0.3149  0.1057
 3958SOL    HW123507   4.237   4.179   4.755 -0.2273 -0.6365  0.4477
 3958SOL    HW223508   4.250   4.123   4.881 -1.0635  0.9059 -0.1350
 3959SOL     OW23509   0.239   2.983   2.908 -0.0065  0.5874  0.0637
 3959SOL    HW123510   0.292   2.911   2.873  0.4443 -0.2603  2.4857
 3959SOL    HW223511   0.161   2.937   2.939  0.2270  0.6134  0.6790
 3960SOL     OW23512   2.843   2.773   2.179 -0.3971 -0.6091 -0.7379
 3960SOL    HW123513   2.750   2.761   2.157  0.5216 -3.5620 -2.9857
 3960SOL    HW223514   2.853   2.722   2.259  2.8510 -1.2928 -1.6079
 3961SOL     OW23515   4.395   1.994  16.809 -0.3868  0.0775  0.2002
 3961SOL    HW123516   4.388   1.907  16.771  0.6621 -0.1526  0.5379
 3961SOL    HW223517   4.308   2.033  16.798 -0.7861  0.0901  3.4747
 3962SOL     OW23518   0.882   2.088   6.982 -0.0582  0.3310 -0.1760
 3962SOL    HW123519   0.837   2.122   7.060 -0.0903  0.8545 -0.4248
 3962SOL    HW223520   0.966   2.129   7.005  0.9346 -2.2910  0.9200
 3963SOL     OW23521   3.253   1.613   2.372  0.3717 -0.2610  0.1398
 3963SOL    HW123522   3.201   1.542   2.411 -0.9655  0.4499 -0.3708
 3963SOL    HW223523   3.343   1.581   2.383 -0.8342 -3.9521 -0.6688
 3964SOL     OW23524   2.641   2.368   1.197  0.1132  0.3525  0.2007
 3964SOL    HW123525   2.593   2.288   1.221 -1.6763  1.8906  1.7308
 3964SOL    HW223526   2.639   2.372   1.102 -1.4283  2.3598  0.3059
 3965SOL     OW23527   4.401   1.756   7.496  0.6435  0.2412 -0.2760
 3965SOL    HW123528   4.341   1.830   7.492  0.6827  0.3159  0.4468
 3965SOL    HW223529   4.484   1.803   7.483  1.3835 -0.8926  0.3507
 3966SOL     OW23530   1.757   2.308   4.239  0.0472  0.2641  0.2886
 3966SOL    HW123531   1.760   2.229   4.294  2.8989 -0.3808 -0.8038
 3966SOL    HW223532   1.809   2.281   4.163 -0.0468  1.2362 -0.1216
 3967SOL     OW23533   0.338   3.412  11.329  0.3931  0.2581  0.5299
 3967SOL    HW123534   0.342   3.480  11.261  0.0702 -2.0393 -1.7701
 3967SOL    HW223535   0.360   3.332  11.282 -1.3262  0.1531 -0.0888
 3968SOL     OW23536   0.413   1.270   6.082 -0.3062 -0.0332 -0.4857
 3968SOL    HW123537   0.365   1.211   6.024  0.0424 -2.1909  1.4155
 3968SOL    HW223538   0.344   1.297   6.143  0.4191  1.9874 -0.5689
 3969SOL     OW23539   1.628   2.046  15.983  0.6340 -0.2682  0.3509
 3969SOL    HW123540   1.595   2.132  15.961  2.4373  0.2718 -0.2705
 3969SOL    HW223541   1.570   2.021  16.054 -0.1299 -0.2531 -0.2719
 3970SOL     OW23542   2.972   2.351  12.331  0.2911  0.2245  0.5435
 3970SOL    HW123543   2.973   2.428  12.275 -1.6817 -0.9065 -1.0718
 3970SOL    HW223544   2.889   2.353  12.379  1.0342 -0.4630  1.8770
 3971SOL     OW23545   0.802   0.776   4.356  0.0115  0.0423  0.2134
 3971SOL    HW123546   0.867   0.733   4.300  1.2857  0.9734  0.9825
 3971SOL    HW223547   0.816   0.863   4.317  0.8650 -1.2021 -2.2866
 3972SOL     OW23548   4.062   2.544  16.717  0.0408  0.4803 -0.1773
 3972SOL    HW123549   4.079   2.562  16.809  0.1248 -1.9012  0.2810
 3972SOL    HW223550   4.084   2.624  16.669  0.7984  1.1361  1.2735
 3973SOL     OW23551   3.594   2.351  14.929 -0.0846  0.3635 -0.0884
 3973SOL    HW123552   3.506   2.360  14.894 -0.1212 -0.4505 -0.2222
 3973SOL    HW223553   3.617   2.260  14.907  0.3922  0.3023  0.6894
 3974SOL     OW23554   0.657   0.477   4.495 -0.5098 -0.1700  0.1869
 3974SOL    HW123555   0.667   0.547   4.430 -0.4250  2.1905  2.7481
 3974SOL    HW223556   0.711   0.515   4.564 -0.9469 -0.3212  0.6185
 3975SOL     OW23557   1.328   2.989   5.995 -0.5248  0.0243 -0.1955
 3975SOL    HW123558   1.254   2.966   5.938  0.0019 -0.5174 -0.6637
 3975SOL    HW223559   1.395   3.014   5.930 -1.7247 -0.4933 -1.6445
 3976SOL     OW23560   0.335   3.082   3.175 -0.3619  0.3305 -0.2738
 3976SOL    HW123561   0.314   3.060   3.085 -2.7460 -1.3768  0.6932
 3976SOL    HW223562   0.298   3.170   3.177 -2.4369 -0.5625  0.0039
 3977SOL     OW23563   0.193   3.168   6.743 -0.2159 -0.7199 -0.2452
 3977SOL    HW123564   0.114   3.115   6.753 -1.3566  0.8744 -0.7585
 3977SOL    HW223565   0.232   3.116   6.674  0.9117  0.3340 -0.3969
 3978SOL     OW23566   0.681   3.169  15.082  0.0135  0.0461 -0.0363
 3978SOL    HW123567   0.765   3.183  15.125  1.0438  0.4606 -2.1978
 3978SOL    HW223568   0.689   3.234  15.012 -0.0691  0.2541  0.1461
 3979SOL     OW23569   1.022   1.141  14.436 -0.0627 -0.3669 -0.3779
 3979SOL    HW123570   1.051   1.227  14.405 -0.1970  1.0690  3.5145
 3979SOL    HW223571   1.078   1.144  14.513  0.8413 -1.6107 -0.9935
 3980SOL     OW23572   1.584   3.440   1.742 -0.6175 -0.0379  0.5441
 3980SOL    HW123573   1.548   3.356   1.715  0.7529 -0.2428 -0.6536
 3980SOL    HW223574   1.571   3.452   1.836 -1.1916  0.5944  0.3853
 3981SOL     OW23575   3.561   1.923   5.952 -0.0681  0.1743 -0.0689
 3981SOL    HW123576   3.478   1.939   5.907 -0.6259  0.7425  1.1575
 3981SOL    HW223577   3.620   1.956   5.885 -0.2358  2.6681  1.0076
 3982SOL     OW23578   1.974   0.891   1.746 -0.2617  0.4202  0.5517
 3982SOL    HW123579   2.069   0.883   1.741 -0.0442  2.5059  1.3993
 3982SOL    HW223580   1.946   0.874   1.656 -0.7294  2.5990  0.2915
 3983SOL     OW23581   0.838   4.536   8.038 -0.2384  0.2755  0.4967
 3983SOL    HW123582   0.768   4.516   8.100  0.8218  1.1007  1.9797
 3983SOL    HW223583   0.908   4.485   8.079 -1.9797 -0.3297  2.7056
 3984SOL     OW23584   1.065   0.373   4.285 -0.0765 -0.1373  0.1255
 3984SOL    HW123585   1.102   0.290   4.255 -1.7318 -0.6494 -0.5071
 3984SOL    HW223586   0.981   0.360   4.240 -0.1742  1.3690 -0.1514
 3985SOL     OW23587   4.214   4.157  17.668  0.2143  0.2189  0.9196
 3985SOL    HW123588   4.205   4.172  17.574  1.3948 -0.6269  0.6699
 3985SOL    HW223589   4.249   4.244  17.688 -0.6941  0.6914  0.4420
 3986SOL     OW23590   4.226   2.209   8.200 -0.3185  0.2147 -0.0337
 3986SOL    HW123591   4.167   2.279   8.171 -0.7067  0.0115  0.2543
 3986SOL    HW223592   4.164   2.136   8.188  1.1794 -1.0308 -0.1990
 3987SOL     OW23593   0.872   4.601   6.109  0.1396 -0.1636  0.2962
 3987SOL    HW123594   0.827   4.520   6.084 -1.2931  0.5480  0.6263
 3987SOL    HW223595   0.826   4.668   6.059 -0.7280 -1.3258 -0.4647
 3988SOL     OW23596   0.013   3.534   3.205 -0.2147  0.3926 -0.5967
 3988SOL    HW123597   4.708   3.517   3.289 -1.7346 -0.3335 -1.5217
 3988SOL    HW223598   4.676   3.537   3.145  0.3975 -0.5232 -1.3879
 3989SOL     OW23599   1.433   3.571  10.022 -0.4094 -0.3955 -0.0730
 3989SOL    HW123600   1.471   3.565   9.934 -0.9282  1.2765 -0.4205
 3989SOL    HW223601   1.491   3.517  10.076 -1.5010 -1.2648  0.2274
 3990SOL     OW23602   4.464   1.736  10.876 -0.0132 -0.0923 -0.4347
 3990SOL    HW123603   4.376   1.699  10.873 -0.1311  0.0684  1.1846
 3990SOL    HW223604   4.454   1.806  10.940 -1.9619 -0.7186 -0.0618
 3991SOL     OW23605   2.571   3.606   8.843 -0.3660  0.3115  0.2036
 3991SOL    HW123606   2.596   3.520   8.877 -1.4661  0.3704  1.1856
 3991SOL    HW223607   2.648   3.662   8.840 -0.5669  0.5344 -0.8204
 3992SOL     OW23608   2.870   3.703   5.672  0.9149 -0.0972 -0.2806
 3992SOL    HW123609   2.929   3.697   5.748 -1.1963  3.2778  1.6082
 3992SOL    HW223610   2.902   3.783   5.631 -1.5978  1.1355  0.2025
 3993SOL     OW23611   2.522   0.759   2.386 -0.0636  0.2042 -0.2665
 3993SOL    HW123612   2.598   0.743   2.443 -2.1827 -1.5893  2.0423
 3993SOL    HW223613   2.492   0.843   2.419  0.7497  1.1288 -1.8762
 3994SOL     OW23614   1.258   3.630   5.138 -0.0433 -0.2207  0.5099
 3994SOL    HW123615   1.200   3.705   5.149  1.0953  0.7069  0.0872
 3994SOL    HW223616   1.330   3.663   5.192  0.2799 -0.6361  0.3331
 3995SOL     OW23617   3.245   4.554   1.836  0.4702 -0.7254 -0.3926
 3995SOL    HW123618   3.181   4.580   1.769 -0.1774  1.2491  1.0061
 3995SOL    HW223619   3.201   4.582   1.915  2.3571  3.1173 -0.7137
 3996SOL     OW23620   3.974   1.097   7.849 -0.2992 -0.3913  0.2398
 3996SOL    HW123621   4.063   1.110   7.816 -0.5826 -0.3820 -0.5263
 3996SOL    HW223622   3.989   1.052   7.932 -0.5418  1.3549  1.2258
 3997SOL     OW23623   2.910   1.512   7.254  0.3878  0.0759 -0.7410
 3997SOL    HW123624   2.958   1.591   7.230 -0.8248 -0.3080 -4.4593
 3997SOL    HW223625   2.846   1.544   7.317  0.3463  0.9033 -1.1974
 3998SOL     OW23626   0.848   4.603   2.940  0.0680  0.2129 -0.6982
 3998SOL    HW123627   0.831   4.634   3.029  3.9099 -0.6911  0.3450
 3998SOL    HW223628   0.842   4.686   2.893 -1.9801  1.0159  0.9761
 3999SOL     OW23629   0.364   4.476  14.380  0.1358 -0.8028  0.1195
 3999SOL    HW123630   0.372   4.563  14.419 -3.2187 -0.1441 -0.7028
 3999SOL    HW223631   0.344   4.437  14.465 -0.8641  0.6828  0.5660
 4000SOL     OW23632   2.233   4.656   6.795 -0.4463  0.1147 -0.0036
 4000SOL    HW123633   2.296   4.630   6.863  0.7915  0.4863 -1.0003
 4000SOL    HW223634   2.177   4.719   6.841 -0.9689 -0.8011  0.6135
 4001SOL     OW23635   2.584   1.281  17.059 -0.2815 -0.0625  0.1105
 4001SOL    HW123636   2.507   1.290  17.116  0.1077  1.0295  0.4608
 4001SOL    HW223637   2.542   1.228  16.992 -0.8594 -0.6709  0.9473
 4002SOL     OW23638   2.852   4.139   1.959 -0.1351  0.8913 -0.0901
 4002SOL    HW123639   2.817   4.221   1.925  0.4697  1.2607  0.1864
 4002SOL    HW223640   2.886   4.175   2.041 -1.6507  1.3377  0.3369
 4003SOL     OW23641   2.701   0.194   0.933 -0.3910  0.8972 -0.2830
 4003SOL    HW123642   2.625   0.153   0.891  0.1950 -2.0604  1.4961
 4003SOL    HW223643   2.755   0.214   0.857 -2.1174  4.2942 -0.6118
 4004SOL     OW23644   1.395   1.310   2.498 -0.0562 -0.2489  0.1730
 4004SOL    HW123645   1.350   1.283   2.419  1.8060 -0.4856 -0.8096
 4004SOL    HW223646   1.465   1.245   2.504  0.4231  0.3309  0.9655
 4005SOL     OW23647   0.163   0.885   7.710  0.2240  0.4605  0.2571
 4005SOL    HW123648   0.254   0.869   7.683  0.8765  0.4806  2.4948
 4005SOL    HW223649   0.130   0.796   7.700  1.8783 -0.1283 -0.0160
 4006SOL     OW23650   0.703   2.767   6.528 -0.0733 -0.5920 -0.0762
 4006SOL    HW123651   0.724   2.810   6.611  1.5058  0.3025 -0.9463
 4006SOL    HW223652   0.748   2.814   6.458  0.3616  0.2331  0.7506
 4007SOL     OW23653   2.813   2.174   7.551  0.2117  0.3315  0.1715
 4007SOL    HW123654   2.823   2.091   7.505 -0.4502 -0.7666  2.0339
 4007SOL    HW223655   2.722   2.170   7.581  0.4873  0.4822  1.0303
 4008SOL     OW23656   3.309   3.219   3.124 -0.5622  0.5132  0.0449
 4008SOL    HW123657   3.247   3.158   3.165 -0.1699  0.1613  0.1101
 4008SOL    HW223658   3.367   3.238   3.197 -0.5719  0.3450  0.0973
 4009SOL     OW23659   3.567   2.760   0.545 -0.1919 -0.0622 -0.1692
 4009SOL    HW123660   3.517   2.805   0.476  3.7049  0.9535 -2.2881
 4009SOL    HW223661   3.497   2.712   0.590  0.4246 -0.8583 -0.0619
 4010SOL     OW23662   3.549   3.476   3.154 -0.0170 -0.1481  0.3924
 4010SOL    HW123663   3.565   3.382   3.158 -1.0979 -0.2275  2.5929
 4010SOL    HW223664   3.556   3.495   3.247  0.3857 -0.1415  0.3635
 4011SOL     OW23665   1.930   2.728  17.157 -0.1706  0.1766 -0.6123
 4011SOL    HW123666   1.969   2.696  17.239  0.5436  0.0775 -0.9948
 4011SOL    HW223667   1.999   2.696  17.099  1.7464 -0.0025  1.7461
 4012SOL     OW23668   2.516   2.531   4.268  0.2637  0.5457 -0.0971
 4012SOL    HW123669   2.468   2.448   4.261  1.5800 -0.1682 -0.6147
 4012SOL    HW223670   2.544   2.524   4.360  0.5858  1.5129 -0.1205
 4013SOL     OW23671   1.871   0.830  11.720 -0.5260  0.5798 -0.2750
 4013SOL    HW123672   1.919   0.757  11.682 -0.2340 -0.3926  1.9668
 4013SOL    HW223673   1.939   0.895  11.736  0.4968 -1.0666  1.9723
 4014SOL     OW23674   3.053   4.239   7.985  0.0914 -0.4233 -0.1242
 4014SOL    HW123675   3.050   4.330   7.956  1.3551 -0.0339  0.9196
 4014SOL    HW223676   2.968   4.224   8.026  0.5357 -0.6129  0.7319
 4015SOL     OW23677   0.608   1.523  16.804  0.5252  0.5901  0.2244
 4015SOL    HW123678   0.516   1.546  16.814  0.3202 -0.1027 -0.0697
 4015SOL    HW223679   0.615   1.554  16.714 -4.4431  1.8524  0.2926
 4016SOL     OW23680   0.502   1.367  10.449  0.0423  0.2917 -0.6052
 4016SOL    HW123681   0.442   1.425  10.402 -2.7585 -1.5745  0.7035
 4016SOL    HW223682   0.471   1.383  10.538 -0.3936 -2.0138 -0.3517
 4017SOL     OW23683   1.178   0.939  12.852  0.4306 -0.3342  0.2742
 4017SOL    HW123684   1.273   0.933  12.837  0.5126 -0.2018  0.7374
 4017SOL    HW223685   1.176   0.995  12.930 -2.0094 -0.8571  0.5857
 4018SOL     OW23686   3.641   3.189   7.370  0.4848  0.1303 -0.4997
 4018SOL    HW123687   3.576   3.221   7.307  0.8718 -0.4154 -1.1726
 4018SOL    HW223688   3.629   3.267   7.425 -2.3911 -0.0123 -0.9243
 4019SOL     OW23689   2.207   1.042   7.726  0.2849  0.4893 -0.5559
 4019SOL    HW123690   2.272   1.112   7.721 -2.1626  2.6854 -1.6463
 4019SOL    HW223691   2.158   1.071   7.649 -0.6546  2.0389  0.6245
 4020SOL     OW23692   2.477   3.823   8.066  0.1407 -0.0929 -0.0659
 4020SOL    HW123693   2.409   3.888   8.085 -1.0367 -0.7255 -2.1293
 4020SOL    HW223694   2.477   3.775   8.149 -0.7786 -1.2393 -0.7195
 4021SOL     OW23695   1.649   3.046   9.589 -0.6535  0.0768  0.2527
 4021SOL    HW123696   1.589   3.058   9.662 -0.2659  0.5176  0.4944
 4021SOL    HW223697   1.726   3.008   9.633 -0.2914 -0.1538 -0.5711
 4022SOL     OW23698   1.840   3.292  15.431 -0.3779 -0.1651 -0.9752
 4022SOL    HW123699   1.832   3.285  15.526 -1.1191  0.4515 -0.9913
 4022SOL    HW223700   1.772   3.357  15.414  2.1386  2.1806 -2.1020
 4023SOL     OW23701   2.384   2.589   5.689  0.1554 -0.3885 -0.4597
 4023SOL    HW123702   2.335   2.661   5.729  0.7162 -1.2288  1.7389
 4023SOL    HW223703   2.306   2.534   5.686  0.5241 -1.0572  2.0929
 4024SOL     OW23704   3.526   1.800  14.227  0.3651  0.1046 -0.0368
 4024SOL    HW123705   3.462   1.799  14.298 -0.3131  1.2306 -0.6332
 4024SOL    HW223706   3.604   1.767  14.273  0.9383  1.5440  0.0417
 4025SOL     OW23707   3.057   0.915   3.247 -0.7902 -0.2186 -0.8050
 4025SOL    HW123708   3.012   0.843   3.292 -0.0635  0.1073  0.4330
 4025SOL    HW223709   3.051   0.986   3.310 -1.2904  0.3703 -1.5289
 4026SOL     OW23710   0.633   2.619  15.977 -0.7153 -0.1681 -0.2240
 4026SOL    HW123711   0.618   2.650  16.066 -0.0215 -1.0290  0.2056
 4026SOL    HW223712   0.671   2.698  15.937  1.4270 -1.3730 -0.6149
 4027SOL     OW23713   3.789   1.000  11.236 -0.1330  0.3055  0.2858
 4027SOL    HW123714   3.880   1.019  11.258  0.4071 -1.7145 -0.1995
 4027SOL    HW223715   3.753   1.088  11.228  0.4839  0.3697 -1.7030
 4028SOL     OW23716   2.712   1.792  11.028  0.2710  0.6330 -0.2729
 4028SOL    HW123717   2.621   1.802  11.056  0.3668  1.0646 -0.1197
 4028SOL    HW223718   2.714   1.703  11.065  2.3630  0.2178 -1.4094
 4029SOL     OW23719   4.577   1.051  14.623  0.2658  0.2375  0.2761
 4029SOL    HW123720   4.532   1.064  14.540  3.9301  2.2857 -1.4016
 4029SOL    HW223721   4.603   1.140  14.648  0.8116  0.5500 -1.4454
 4030SOL     OW23722   0.999   1.342   3.910  0.7938  0.7484  0.2188
 4030SOL    HW123723   0.947   1.323   3.832  2.7292 -0.1995 -0.8370
 4030SOL    HW223724   1.075   1.284   3.914  0.5119  0.3240 -0.5755
 4031SOL     OW23725   1.933   1.614   1.072 -0.1244 -0.1507  0.2541
 4031SOL    HW123726   1.936   1.549   1.002 -1.3697  1.6537 -1.4737
 4031SOL    HW223727   2.022   1.650   1.064 -0.6107  0.5652 -1.8467
 4032SOL     OW23728   3.394   1.493  13.282 -0.3845  0.0409 -0.5597
 4032SOL    HW123729   3.418   1.521  13.370 -1.1151  1.5965 -0.8605
 4032SOL    HW223730   3.433   1.406  13.273  0.7222  0.3983  0.8406
 4033SOL     OW23731   1.969   3.093   4.150 -0.1645 -0.3000 -0.6249
 4033SOL    HW123732   2.036   3.114   4.085  0.3434  1.5075  0.4711
 4033SOL    HW223733   1.935   3.012   4.114  0.3487 -1.2070  0.9218
 4034SOL     OW23734   2.447   1.416   5.324 -0.6072 -0.2245 -0.4087
 4034SOL    HW123735   2.396   1.361   5.383 -0.3906 -0.4916 -0.4722
 4034SOL    HW223736   2.449   1.368   5.241 -0.6846  0.0705 -0.5794
 4035SOL     OW23737   4.689   4.480  17.138 -0.3754  0.4886 -0.5713
 4035SOL    HW123738   4.660   4.411  17.198  1.6684  0.9160  0.8979
 4035SOL    HW223739   0.003   4.537  17.196  1.0624  0.9974 -2.3164
 4036SOL     OW23740   2.594   1.165   8.169  0.1148  0.1235 -0.1863
 4036SOL    HW123741   2.658   1.216   8.217 -0.0341 -0.0894  0.2410
 4036SOL    HW223742   2.591   1.083   8.218 -4.1070 -0.7515 -1.8288
 4037SOL     OW23743   3.543   4.008  10.352  0.0119  0.0086 -0.1590
 4037SOL    HW123744   3.464   3.982  10.400 -1.3106  0.8287 -1.8703
 4037SOL    HW223745   3.596   3.999  10.432 -2.4018  2.5416  1.7563
 4038SOL     OW23746   0.320   3.335  14.975 -0.2051  0.1278 -0.5590
 4038SOL    HW123747   0.357   3.409  14.927  1.6623 -0.4914 -0.0883
 4038SOL    HW223748   0.373   3.328  15.054 -0.9265  1.6768  0.0543
 4039SOL     OW23749   1.661   2.968   3.757  0.7222 -0.1877  0.3451
 4039SOL    HW123750   1.593   2.953   3.822  1.7841  1.5302  1.8589
 4039SOL    HW223751   1.685   3.056   3.787  0.9792 -0.0524 -0.2471
 4040SOL     OW23752   4.687   1.590   8.538 -0.8062  0.8339  0.3436
 4040SOL    HW123753   0.045   1.580   8.537 -0.8965  0.1426 -0.9291
 4040SOL    HW223754   4.660   1.577   8.629  0.2966  0.8616  0.6824
 4041SOL     OW23755   2.342   1.189  16.269  0.5533 -0.1839 -0.0212
 4041SOL    HW123756   2.313   1.103  16.299  1.1987 -0.1707  0.6469
 4041SOL    HW223757   2.407   1.209  16.336 -0.7835  0.1315  1.1780
 4042SOL     OW23758   4.701   3.985   2.694 -0.3253 -0.4101 -0.4298
 4042SOL    HW123759   4.732   4.074   2.681  2.4595 -1.0491  1.8138
 4042SOL    HW223760   0.046   3.938   2.709 -0.2682 -0.7624 -1.8410
 4043SOL     OW23761   1.300   1.845   7.343 -0.1785 -0.2466  0.1327
 4043SOL    HW123762   1.389   1.873   7.365  0.0941 -2.0126  1.2838
 4043SOL    HW223763   1.319   1.752   7.352  2.9500  0.5136  1.5513
 4044SOL     OW23764   3.002   2.593   1.159  0.2437 -0.0941  0.5710
 4044SOL    HW123765   3.062   2.660   1.126  2.1339 -2.8371 -1.5263
 4044SOL    HW223766   3.058   2.554   1.225  0.2922 -0.4470  0.3217
 4045SOL     OW23767   2.496   1.777  15.607  0.3255  0.3004  0.5408
 4045SOL    HW123768   2.466   1.686  15.609 -0.8020  0.6138 -1.1440
 4045SOL    HW223769   2.584   1.771  15.570  0.6191  0.1400  1.2874
 4046SOL     OW23770   0.765   4.396   8.583  0.2613  0.2936 -0.1830
 4046SOL    HW123771   0.729   4.321   8.630 -0.1300 -0.1859 -1.2339
 4046SOL    HW223772   0.748   4.371   8.492 -1.1719 -0.9670  0.4170
 4047SOL     OW23773   3.984   4.141   3.518 -0.0356  1.0165  0.1463
 4047SOL    HW123774   4.001   4.075   3.450 -0.4997  0.3087  0.7209
 4047SOL    HW223775   3.891   4.158   3.503  0.3075  1.7865 -1.1771
 4048SOL     OW23776   4.571   3.589   5.741  0.5415 -0.7350  0.0318
 4048SOL    HW123777   4.620   3.609   5.821  2.1717 -0.6846 -0.9976
 4048SOL    HW223778   4.636   3.584   5.672  0.2203  0.5692 -0.3722
 4049SOL     OW23779   2.774   3.431   6.305  0.5044 -0.0410 -0.1727
 4049SOL    HW123780   2.707   3.418   6.371  3.2437  0.1022  2.6098
 4049SOL    HW223781   2.718   3.463   6.234 -1.2210  1.3670  1.8578
 4050SOL     OW23782   1.651   1.732   6.247 -0.0805 -0.0440  0.1848
 4050SOL    HW123783   1.686   1.676   6.178  0.9359 -1.0458  1.5144
 4050SOL    HW223784   1.661   1.660   6.310 -2.0419  0.0250  0.5827
 4051SOL     OW23785   0.176   0.986  10.723  0.1793  0.3928 -0.0373
 4051SOL    HW123786   0.128   1.068  10.724 -2.3034 -1.1038  1.2551
 4051SOL    HW223787   0.254   1.004  10.671  0.9299 -0.4411  0.7884
 4052SOL     OW23788   4.228   1.979   7.451 -0.5510  0.2244  0.5929
 4052SOL    HW123789   4.154   1.940   7.498  0.2942  0.0349  1.7909
 4052SOL    HW223790   4.196   1.979   7.361  0.7530 -0.1253  0.1395
 4053SOL     OW23791   2.786   4.189   8.710 -0.1801  0.6836  0.0220
 4053SOL    HW123792   2.734   4.215   8.635  0.2372  0.1240 -0.4588
 4053SOL    HW223793   2.737   4.120   8.755  0.9973  1.1839  2.0859
 4054SOL     OW23794   4.250   1.817  12.352  0.5007  0.2545 -0.0556
 4054SOL    HW123795   4.250   1.725  12.379  2.4938  0.4239  0.5400
 4054SOL    HW223796   4.272   1.859  12.436  1.4998  0.9175 -0.6447
 4055SOL     OW23797   0.260   0.905  11.088 -0.1840  0.2970 -0.0428
 4055SOL    HW123798   0.189   0.965  11.111  1.6549  2.8191 -0.9647
 4055SOL    HW223799   0.331   0.969  11.080  0.5926 -0.5981 -0.2630
 4056SOL     OW23800   0.885   1.557   6.069  0.2934 -0.1012 -0.1836
 4056SOL    HW123801   0.804   1.549   6.120  0.7325 -0.4909  0.4643
 4056SOL    HW223802   0.858   1.627   6.010  1.3848 -0.4759 -1.1214
 4057SOL     OW23803   0.176   0.380  14.089 -0.3435 -0.1249 -0.2874
 4057SOL    HW123804   0.090   0.406  14.056 -0.9156  2.5752  3.3814
 4057SOL    HW223805   0.183   0.288  14.062  0.8018  0.1155 -0.8014
 4058SOL     OW23806   4.599   4.296   9.185  0.3021  0.5756 -0.2669
 4058SOL    HW123807   4.539   4.341   9.244  1.8292  4.0628 -1.3419
 4058SOL    HW223808   4.678   4.283   9.238 -0.0547 -0.0591  0.1134
 4059SOL     OW23809   3.191   2.995   3.811  0.2455  0.1229 -0.2858
 4059SOL    HW123810   3.172   2.930   3.743  0.8230 -1.9302  1.5264
 4059SOL    HW223811   3.111   3.048   3.810 -1.7128 -2.8019  0.4612
 4060SOL     OW23812   1.745   0.929   5.678 -0.0831  0.0209 -0.0525
 4060SOL    HW123813   1.831   0.929   5.637  0.2268 -1.0017  0.6004
 4060SOL    HW223814   1.756   1.013   5.723  1.0108  0.7860 -1.7336
 4061SOL     OW23815   3.312   2.307   3.854  0.2650 -0.0237  0.0982
 4061SOL    HW123816   3.351   2.297   3.940  1.4120  1.7628 -0.2156
 4061SOL    HW223817   3.305   2.222   3.810  2.2570  0.2127 -0.6634
 4062SOL     OW23818   1.816   4.477   8.867  0.0059  0.0536  0.4628
 4062SOL    HW123819   1.827   4.382   8.865  0.7330  0.1349  0.4319
 4062SOL    HW223820   1.882   4.509   8.928  0.4124  1.8788 -0.9265
 4063SOL     OW23821   2.835   0.609   4.530  0.0366 -0.4405  0.2369
 4063SOL    HW123822   2.849   0.638   4.440 -0.7156 -1.7791 -0.3218
 4063SOL    HW223823   2.917   0.564   4.550  0.3209  0.4178  0.9631
 4064SOL     OW23824   2.041   2.368   6.320 -0.7950  0.4310 -0.7379
 4064SOL    HW123825   1.972   2.402   6.376  0.3625  0.6709  0.5307
 4064SOL    HW223826   1.990   2.337   6.245  1.3630 -2.7588 -0.9091
 4065SOL     OW23827   3.603   3.438   9.386  0.0305  0.4064 -0.5545
 4065SOL    HW123828   3.525   3.455   9.334  0.7724  2.2241 -1.0885
 4065SOL    HW223829   3.612   3.345   9.366  0.0088  0.2649  0.0824
 4066SOL     OW23830   0.744   2.335  16.867 -0.3266 -0.0293 -0.1611
 4066SOL    HW123831   0.829   2.358  16.829 -1.5774  2.7530 -1.3109
 4066SOL    HW223832   0.695   2.417  16.867 -1.1547 -0.5218 -3.1149
 4067SOL     OW23833   2.623   2.114  13.398 -0.5505 -0.6928 -0.1976
 4067SOL    HW123834   2.552   2.158  13.352  0.6201 -0.3165 -1.6463
 4067SOL    HW223835   2.688   2.181  13.377  1.2229 -1.9292  1.2511
 4068SOL     OW23836   0.883   2.346   9.229  0.1067  0.0145 -0.8336
 4068SOL    HW123837   0.898   2.284   9.300  1.1219  1.6721  0.4108
 4068SOL    HW223838   0.797   2.375   9.259  0.4806  1.6144 -1.2990
 4069SOL     OW23839   0.946   3.493   6.173 -0.5217  0.1697 -0.5144
 4069SOL    HW123840   0.970   3.531   6.257  0.0318  0.0072 -0.5982
 4069SOL    HW223841   0.998   3.412   6.172 -0.7787  0.0239 -2.1255
 4070SOL     OW23842   3.855   3.534   7.378  0.3436  0.5192  0.0930
 4070SOL    HW123843   3.837   3.627   7.361  1.6871  0.5558 -1.1030
 4070SOL    HW223844   3.860   3.495   7.291  1.5383  0.2132  0.2987
 4071SOL     OW23845   3.186   3.016   2.231 -0.3957 -0.4042  0.3480
 4071SOL    HW123846   3.167   3.094   2.282 -0.1586  0.1500 -0.4078
 4071SOL    HW223847   3.268   2.988   2.272  1.6319  2.3108 -1.9227
 4072SOL     OW23848   1.886   3.859  15.417 -0.4462  0.6136 -0.4685
 4072SOL    HW123849   1.926   3.946  15.411 -0.4366  0.4779 -2.2390
 4072SOL    HW223850   1.797   3.884  15.392 -0.4484  2.0121  0.9011
 4073SOL     OW23851   4.473   0.108  12.904 -0.2885  0.0709 -0.3175
 4073SOL    HW123852   4.454   0.184  12.958 -2.5235 -1.4923  1.0553
 4073SOL    HW223853   4.517   0.059  12.974 -1.9836 -0.8021  0.1239
 4074SOL     OW23854   3.145   0.784  10.387  0.5114 -0.4345 -0.1542
 4074SOL    HW123855   3.103   0.727  10.323 -0.2268  0.1079 -0.1631
 4074SOL    HW223856   3.201   0.728  10.440 -1.1052  0.7144  2.7715
 4075SOL     OW23857   4.594   4.576   6.254 -0.2608 -0.0693  0.3076
 4075SOL    HW123858   4.547   4.574   6.171  1.9854  1.8503 -1.0040
 4075SOL    HW223859   4.548   4.509   6.306 -1.4478  0.2079 -0.3863
 4076SOL     OW23860   1.141   1.883  12.731  0.1731  0.3913 -0.1763
 4076SOL    HW123861   1.120   1.793  12.706  4.2509 -0.4238 -0.5987
 4076SOL    HW223862   1.138   1.883  12.826 -0.8273 -1.4000 -0.2034
 4077SOL     OW23863   2.436   1.163  11.005 -0.0587 -0.2216  0.1049
 4077SOL    HW123864   2.361   1.142  11.061  1.2768 -5.3640 -0.0252
 4077SOL    HW223865   2.393   1.170  10.919 -0.0486  0.8014  0.1832
 4078SOL     OW23866   3.714   1.220   5.174  0.1177  0.2304  0.2049
 4078SOL    HW123867   3.687   1.311   5.159  1.0309  0.8260  2.2587
 4078SOL    HW223868   3.799   1.230   5.218  0.1628  0.5703  0.0403
 4079SOL     OW23869   0.341   3.402   9.549  0.2732  0.6152  0.4782
 4079SOL    HW123870   0.346   3.434   9.459 -0.6339 -0.0440  0.1927
 4079SOL    HW223871   0.311   3.481   9.594  1.8731  1.5701 -0.1372
 4080SOL     OW23872   0.459   0.660   7.379 -0.1151 -0.1909  0.6643
 4080SOL    HW123873   0.459   0.741   7.328 -0.9637 -0.2970  0.4984
 4080SOL    HW223874   0.551   0.645   7.401  0.7486 -0.3790 -3.0538
 4081SOL     OW23875   3.934   0.740   7.682  0.0741  0.3652 -0.3438
 4081SOL    HW123876   3.849   0.709   7.652 -0.2229  1.5431 -0.7160
 4081SOL    HW223877   3.984   0.662   7.703  1.9860  2.1238  1.6737
 4082SOL     OW23878   3.255   2.768   4.677  0.4159  0.2321  0.3032
 4082SOL    HW123879   3.235   2.778   4.770 -3.6739 -0.9528 -0.4449
 4082SOL    HW223880   3.205   2.693   4.645 -1.5148  1.1755  1.0931
 4083SOL     OW23881   3.339   3.319   1.650  0.0373 -0.4203  0.1949
 4083SOL    HW123882   3.331   3.345   1.742  0.2262 -1.7057  0.5845
 4083SOL    HW223883   3.249   3.287   1.643  0.0916 -0.4987 -0.1138
 4084SOL     OW23884   2.388   2.508   1.283  0.6219 -0.8879 -0.2189
 4084SOL    HW123885   2.401   2.506   1.378 -1.2551 -2.1559  0.0027
 4084SOL    HW223886   2.476   2.476   1.262  0.3066 -1.6623 -0.3523
 4085SOL     OW23887   2.094   0.909  15.790  0.5750  0.3883  0.1999
 4085SOL    HW123888   2.146   0.892  15.869  1.5021  0.0071 -0.4829
 4085SOL    HW223889   2.117   0.836  15.731 -1.8684  0.4214 -0.8004
 4086SOL     OW23890   0.850   1.282  14.972  0.0135 -0.2726 -0.2564
 4086SOL    HW123891   0.820   1.343  14.905 -2.9538  0.1673  1.4611
 4086SOL    HW223892   0.934   1.322  14.992  0.4867 -1.1096 -0.5386
 4087SOL     OW23893   3.467   3.312   2.364  0.4404 -0.0120 -0.0747
 4087SOL    HW123894   3.532   3.355   2.419  0.3472  1.2528 -0.9662
 4087SOL    HW223895   3.493   3.221   2.380  1.0974  0.1889  0.0140
 4088SOL     OW23896   2.017   2.221   5.117  0.2169 -0.4739 -0.1183
 4088SOL    HW123897   1.927   2.253   5.124 -0.6757 -2.3582 -3.0102
 4088SOL    HW223898   1.997   2.143   5.065  2.4572 -1.9698  1.2391
 4089SOL     OW23899   4.477   3.914   6.677  0.0677  0.1427  0.1414
 4089SOL    HW123900   4.389   3.929   6.711 -0.4459 -1.2149 -0.6062
 4089SOL    HW223901   4.526   3.984   6.721 -0.7422  0.7582  0.0581
 4090SOL     OW23902   3.999   0.807   3.152  0.2451 -0.1284 -0.4900
 4090SOL    HW123903   3.965   0.856   3.077 -0.5067  0.3154  0.1465
 4090SOL    HW223904   4.031   0.880   3.205  0.8466 -1.0030  0.3537
 4091SOL     OW23905   3.115   1.345  15.521  0.1685  0.1521  0.6279
 4091SOL    HW123906   3.173   1.304  15.457 -1.2807  2.3541 -2.1071
 4091SOL    HW223907   3.029   1.340  15.479  0.3776 -0.5696  0.2868
 4092SOL     OW23908   3.584   2.127  12.914  0.1695  0.4085  0.0373
 4092SOL    HW123909   3.606   2.199  12.973  1.9776 -1.5196  1.7114
 4092SOL    HW223910   3.636   2.054  12.947 -1.8582 -0.2772  1.7374
 4093SOL     OW23911   3.573   4.054  13.004 -0.4033 -0.1143  0.2469
 4093SOL    HW123912   3.645   4.026  12.947 -0.7165 -1.3551  0.4624
 4093SOL    HW223913   3.605   4.139  13.034  2.6479 -1.7486  1.5328
 4094SOL     OW23914   4.052   1.583  11.461 -0.0618 -0.6375  0.9143
 4094SOL    HW123915   4.059   1.654  11.525  0.4542  1.8062 -1.8706
 4094SOL    HW223916   3.960   1.558  11.455 -0.0219 -0.3638 -0.9936
 4095SOL     OW23917   0.820   4.377   9.123  0.2652 -0.1816  0.6177
 4095SOL    HW123918   0.752   4.351   9.060  0.3572  0.7332  0.1368
 4095SOL    HW223919   0.893   4.377   9.061 -1.1532  2.3450 -1.0731
 4096SOL     OW23920   0.334   4.205   6.981  0.7762 -0.4273  0.2424
 4096SOL    HW123921   0.301   4.159   6.904 -1.4286  1.7837 -0.1241
 4096SOL    HW223922   0.262   4.192   7.042  0.5875 -0.2272  0.0595
 4097SOL     OW23923   0.815   4.273   1.335 -1.0388  0.5702  0.3721
 4097SOL    HW123924   0.823   4.260   1.429 -2.6773 -0.5389  0.3680
 4097SOL    HW223925   0.900   4.301   1.302 -0.0824 -2.9483 -0.1615
 4098SOL     OW23926   3.486   0.571   6.520  0.1446 -0.7066 -0.1070
 4098SOL    HW123927   3.520   0.501   6.576 -2.1927 -2.7076 -1.2238
 4098SOL    HW223928   3.517   0.553   6.431  3.6970  1.2606  0.7084
 4099SOL     OW23929   0.102   4.657   2.509 -0.0247 -0.1484 -0.4062
 4099SOL    HW123930   0.013   4.643   2.541 -1.5177  0.6543 -4.1103
 4099SOL    HW223931   0.094   4.625   2.419 -3.6279  1.1315 -0.5486
 4100SOL     OW23932   2.929   1.650   4.471  0.7786 -0.3714  0.0437
 4100SOL    HW123933   3.000   1.641   4.407 -0.0083  0.0043 -0.8739
 4100SOL    HW223934   2.987   1.685   4.540 -0.8403 -0.9385  1.6855
 4101SOL     OW23935   3.449   0.227   2.788 -0.5073 -0.1018 -0.5644
 4101SOL    HW123936   3.492   0.312   2.774 -0.4039 -0.0436  0.1150
 4101SOL    HW223937   3.368   0.251   2.833  0.2706 -1.2287  1.4404
 4102SOL     OW23938   0.603   1.011  10.088  0.5975  0.0059  0.4711
 4102SOL    HW123939   0.551   1.051  10.158 -0.1679  0.3141 -0.2717
 4102SOL    HW223940   0.600   1.074  10.016 -1.1400 -0.8023 -0.1659
 4103SOL     OW23941   2.861   1.578   8.482  0.0191  0.0934 -0.0605
 4103SOL    HW123942   2.956   1.566   8.485  0.1970  1.5715  0.4498
 4103SOL    HW223943   2.837   1.538   8.565 -1.2742 -2.0761 -1.4852
 4104SOL     OW23944   1.183   0.573   5.957  0.4131 -0.0381 -0.2214
 4104SOL    HW123945   1.231   0.571   5.874 -0.0598  1.5763 -0.5307
 4104SOL    HW223946   1.227   0.506   6.011  0.2438 -0.7124 -0.9207
 4105SOL     OW23947   1.194   4.102   6.067 -0.1949  0.3506 -0.4618
 4105SOL    HW123948   1.275   4.052   6.075 -1.1143 -0.9402  0.8558
 4105SOL    HW223949   1.220   4.165   6.000  2.9339 -0.9159 -0.3961
 4106SOL     OW23950   0.493   1.057  11.209 -0.1104 -0.3371  0.4652
 4106SOL    HW123951   0.575   1.097  11.239  1.1914 -1.2115 -1.9891
 4106SOL    HW223952   0.445   1.134  11.179  0.4922  0.3502  1.2406
 4107SOL     OW23953   2.752   2.796   7.093  0.3487 -0.0952 -0.1558
 4107SOL    HW123954   2.788   2.767   7.009 -0.3156  3.3431 -1.6299
 4107SOL    HW223955   2.802   2.745   7.156 -0.2993 -0.1823  0.2918
 4108SOL     OW23956   2.540   0.119   3.600  0.0189 -0.3377  0.2704
 4108SOL    HW123957   2.555   0.030   3.568  1.2611 -0.3205  0.8183
 4108SOL    HW223958   2.447   0.125   3.621 -0.2943 -3.3820 -0.2481
 4109SOL     OW23959   4.232   2.764   9.959  0.4115  0.3872 -0.4240
 4109SOL    HW123960   4.299   2.805   9.903 -0.2801  1.1630 -0.6793
 4109SOL    HW223961   4.288   2.726  10.027  0.9434  0.4057 -0.8480
 4110SOL     OW23962   2.636   0.897  17.576 -0.1474 -0.5180  0.2467
 4110SOL    HW123963   2.657   0.874  17.485  2.1319  1.0361  0.3729
 4110SOL    HW223964   2.607   0.809  17.600  0.9573 -0.9104  0.1775
 4111SOL     OW23965   0.168   2.761   2.648  0.7459 -0.1511  0.2683
 4111SOL    HW123966   0.112   2.827   2.608 -0.2824 -1.6192 -0.6821
 4111SOL    HW223967   0.108   2.689   2.635  0.1151  0.2197  1.1725
 4112SOL     OW23968   0.492   3.156  11.424 -0.2530  0.5290 -0.2129
 4112SOL    HW123969   0.547   3.081  11.402 -1.2308 -0.3005  0.1927
 4112SOL    HW223970   0.400   3.128  11.418  0.1871 -1.0974  0.5584
 4113SOL     OW23971   0.981   0.971   1.217  0.0417 -0.3029  0.7080
 4113SOL    HW123972   0.991   1.055   1.171 -1.1307  0.4132  1.7932
 4113SOL    HW223973   1.031   0.988   1.297  0.5814  0.1850  0.2725
 4114SOL     OW23974   2.394   4.660   8.102 -0.5846  0.2625  0.7577
 4114SOL    HW123975   2.487   4.670   8.078 -0.7120  1.9013  0.9588
 4114SOL    HW223976   2.345   4.650   8.021 -0.4487  0.5537  0.6394
 4115SOL     OW23977   0.323   1.868  16.677 -0.6236  0.4317 -0.3530
 4115SOL    HW123978   0.341   1.855  16.584  2.4229  2.6475 -0.0477
 4115SOL    HW223979   0.372   1.950  16.679  2.1698 -1.2211 -0.2584
 4116SOL     OW23980   2.796   2.088   6.456  0.0082 -0.1928  0.1580
 4116SOL    HW123981   2.784   2.161   6.395 -1.4748 -0.6816 -0.1549
 4116SOL    HW223982   2.836   2.120   6.536  1.6951 -0.2224 -0.6827
 4117SOL     OW23983   0.886   3.540   2.955 -0.6017  0.1476  0.1389
 4117SOL    HW123984   0.955   3.495   2.907  0.3722  0.2595  1.4328
 4117SOL    HW223985   0.912   3.632   2.957 -0.0463  0.0072 -0.6100
 4118SOL     OW23986   1.613   0.041  10.737 -0.0289  0.1282 -0.4455
 4118SOL    HW123987   1.692   0.011  10.781 -0.2935 -1.7730 -1.2606
 4118SOL    HW223988   1.627   0.135  10.726  0.0070  0.2336  0.4997
 4119SOL     OW23989   4.689   3.824  14.269  0.0382 -0.4156 -0.4200
 4119SOL    HW123990   4.594   3.836  14.275  0.0028 -0.8048 -0.2289
 4119SOL    HW223991   4.722   3.914  14.264 -0.5371 -0.2154 -0.6727
 4120SOL     OW23992   3.747   4.136   5.560 -0.3983  0.4517  0.0583
 4120SOL    HW123993   3.676   4.072   5.554  1.0696 -1.2868  1.0000
 4120SOL    HW223994   3.779   4.121   5.471 -0.4705  0.1882  0.0761
 4121SOL     OW23995   2.520   4.027  11.389  0.0114 -0.5319  0.3988
 4121SOL    HW123996   2.513   3.934  11.367  0.2074 -0.0527 -1.6895
 4121SOL    HW223997   2.586   4.049  11.324  1.6789  2.4840  3.1171
 4122SOL     OW23998   1.195   0.226   5.212 -0.1317  0.0996 -0.5359
 4122SOL    HW123999   1.203   0.186   5.298 -0.5446  2.4938  0.6349
 4122SOL    HW224000   1.109   0.202   5.178 -0.0835 -2.3190  1.1061
 4123SOL     OW24001   2.496   1.818  10.434 -0.2550  0.0929 -0.1648
 4123SOL    HW124002   2.443   1.897  10.425  0.3043  0.6774  1.7231
 4123SOL    HW224003   2.581   1.860  10.430 -0.3163  0.3104  0.7064
 4124SOL     OW24004   2.477   2.049  16.855 -0.1699 -0.3548 -0.2526
 4124SOL    HW124005   2.556   2.097  16.832  0.4515 -1.0114  0.4902
 4124SOL    HW224006   2.442   2.021  16.771 -0.4510  2.5699 -1.0866
 4125SOL     OW24007   1.896   1.127   0.347 -0.3851 -0.6102 -0.0461
 4125SOL    HW124008   1.822   1.098   0.295 -1.7745  2.5660  0.1912
 4125SOL    HW224009   1.954   1.179   0.291  0.7068  0.0201  1.6561
 4126SOL     OW24010   1.982   3.478   6.146 -0.1385  0.3672 -0.0003
 4126SOL    HW124011   1.998   3.571   6.159 -0.4896  0.5315 -0.7485
 4126SOL    HW224012   2.027   3.440   6.222  0.8615  0.4837 -0.5484
 4127SOL     OW24013   2.497   2.749  17.035 -0.2259 -0.0484 -0.5637
 4127SOL    HW124014   2.505   2.654  17.024 -1.3642 -0.5874  3.3345
 4127SOL    HW224015   2.447   2.769  16.955  0.1959 -0.8641 -1.0298
 4128SOL     OW24016   2.871   2.429  16.759 -0.6568  0.8922 -0.6107
 4128SOL    HW124017   2.821   2.503  16.724  0.2341  2.1574  0.7790
 4128SOL    HW224018   2.875   2.383  16.675 -0.3456 -0.2949  0.0509
 4129SOL     OW24019   2.532   4.140   7.794 -0.2080 -0.0639 -0.5716
 4129SOL    HW124020   2.537   4.158   7.887  1.9880  1.8038 -1.0638
 4129SOL    HW224021   2.529   4.230   7.762  1.9586  0.2097  0.0068
 4130SOL     OW24022   1.003   2.750   5.625 -0.5928 -0.2976  0.0113
 4130SOL    HW124023   1.022   2.675   5.681  0.1961  0.4633  0.7825
 4130SOL    HW224024   1.056   2.739   5.546 -0.3550 -2.9623  0.5510
 4131SOL     OW24025   2.468   4.505  14.862  0.4902 -0.4329  0.0337
 4131SOL    HW124026   2.385   4.549  14.882 -0.5441 -2.7171  0.7797
 4131SOL    HW224027   2.440   4.416  14.880  2.3950 -0.8249  1.0598
 4132SOL     OW24028   1.667   3.682   9.278 -0.1371  0.0207 -0.0755
 4132SOL    HW124029   1.591   3.723   9.319 -2.6522 -2.7759 -1.9436
 4132SOL    HW224030   1.668   3.598   9.323 -3.9091 -0.1924 -0.3830
 4133SOL     OW24031   1.503   1.929   7.846 -0.9900 -0.1558 -0.1807
 4133SOL    HW124032   1.487   1.899   7.756 -1.8374 -2.9047  0.9290
 4133SOL    HW224033   1.598   1.918   7.853 -0.8826 -0.6258 -2.3538
 4134SOL     OW24034   4.283   0.711  14.080  0.3928 -0.0684 -0.8383
 4134SOL    HW124035   4.301   0.803  14.098  0.3684 -0.7681  2.7155
 4134SOL    HW224036   4.360   0.673  14.038  0.0464  0.7555 -2.2096
 4135SOL     OW24037   2.518   0.560   7.035  0.3392 -0.5969 -0.2178
 4135SOL    HW124038   2.492   0.651   7.019  1.0978 -0.2985  0.2587
 4135SOL    HW224039   2.550   0.561   7.125  1.4122  2.4191 -0.6465
 4136SOL     OW24040   0.555   0.278   3.204  0.3636  0.3916  0.5546
 4136SOL    HW124041   0.552   0.189   3.167 -1.2747  0.3297  0.8091
 4136SOL    HW224042   0.558   0.326   3.121  2.6698 -0.0117  0.4162
 4137SOL     OW24043   4.229   2.269   7.750  0.0584 -0.2952  1.0781
 4137SOL    HW124044   4.191   2.356   7.758 -0.9401 -0.5737 -0.6985
 4137SOL    HW224045   4.166   2.215   7.798 -1.6701  0.1943 -0.6501
 4138SOL     OW24046   4.432   1.775   4.708 -0.6570 -0.1961  0.1850
 4138SOL    HW124047   4.391   1.698   4.669 -0.3367 -0.5708  0.5902
 4138SOL    HW224048   4.360   1.811   4.759 -0.3385  3.6771 -2.1390
 4139SOL     OW24049   2.814   4.556  17.399  0.2997  0.4813 -0.7639
 4139SOL    HW124050   2.799   4.498  17.473  0.5120  0.3675 -0.8093
 4139SOL    HW224051   2.812   4.639  17.447 -0.8154  0.8132 -1.3842
 4140SOL     OW24052   4.004   4.234   6.008  0.2251 -0.1045  0.3298
 4140SOL    HW124053   3.908   4.236   6.009  0.1688 -2.3438 -0.8838
 4140SOL    HW224054   4.013   4.274   6.094  0.9029 -0.6615  0.5163
 4141SOL     OW24055   0.182   0.274   0.506  1.1931  0.8944 -0.5199
 4141SOL    HW124056   0.259   0.237   0.551  1.1452  0.3844 -0.8518
 4141SOL    HW224057   0.170   0.210   0.436  0.4372  0.5877 -0.1093
 4142SOL     OW24058   4.586   2.520  14.246 -0.0114 -0.5610 -0.5603
 4142SOL    HW124059   4.545   2.511  14.161 -1.3833 -1.0493  0.1530
 4142SOL    HW224060   4.666   2.468  14.236  0.8037  0.8109 -1.1490
 4143SOL     OW24061   4.232   4.128  17.293 -0.4377 -0.1952 -0.2575
 4143SOL    HW124062   4.194   4.205  17.335  1.8731  0.2789  1.0062
 4143SOL    HW224063   4.259   4.077  17.370  0.0670 -0.1345 -0.3959
 4144SOL     OW24064   1.282   3.950   1.257 -0.2585  0.0447 -0.2792
 4144SOL    HW124065   1.300   4.040   1.228 -1.1489  0.4674  0.4568
 4144SOL    HW224066   1.329   3.953   1.340 -1.2289 -0.9803  0.3095
 4145SOL     OW24067   3.456   3.144  15.485  0.3317  0.2349 -0.3761
 4145SOL    HW124068   3.506   3.086  15.542 -0.8886  0.1147  0.5837
 4145SOL    HW224069   3.508   3.161  15.407 -0.0646 -0.6802 -0.8418
 4146SOL     OW24070   2.886   1.761   0.346  0.0803 -0.0297  0.0489
 4146SOL    HW124071   2.817   1.738   0.284  0.8338 -1.7402 -0.1701
 4146SOL    HW224072   2.955   1.799   0.292 -0.1273 -0.1271 -0.2854
 4147SOL     OW24073   3.515   1.744  17.283 -0.4670 -0.0638  0.5491
 4147SOL    HW124074   3.425   1.759  17.253 -0.8464 -4.2973 -0.5573
 4147SOL    HW224075   3.489   1.741  17.376 -1.5637  1.1905  0.2718
 4148SOL     OW24076   0.789   1.588   7.725  0.6661  0.0331 -0.7427
 4148SOL    HW124077   0.832   1.518   7.776 -0.5478 -1.2247 -1.4427
 4148SOL    HW224078   0.867   1.644   7.726  0.5714  0.1602  1.3381
 4149SOL     OW24079   1.209   0.032   9.535 -0.1141  0.1816  0.0274
 4149SOL    HW124080   1.130   0.053   9.486 -0.7261  0.1160  0.9856
 4149SOL    HW224081   1.269   0.014   9.463 -1.5515 -0.9608 -0.8808
 4150SOL     OW24082   4.624   3.170   3.911 -0.0535 -0.2488  0.6506
 4150SOL    HW124083   4.676   3.184   3.991  1.9817 -0.8082 -0.5661
 4150SOL    HW224084   4.540   3.203   3.942 -0.3008 -0.2731 -0.0170
 4151SOL     OW24085   2.567   3.563  16.095  0.2124  0.4113  0.2192
 4151SOL    HW124086   2.596   3.631  16.157 -2.5311  0.5810  1.3371
 4151SOL    HW224087   2.643   3.544  16.041 -0.7437 -0.1830 -0.9078
 4152SOL     OW24088   1.739   0.983   8.373 -0.1462 -0.2525  0.0412
 4152SOL    HW124089   1.777   1.014   8.456  0.7182 -0.2597 -0.3447
 4152SOL    HW224090   1.750   1.059   8.316  1.2628 -0.0264  0.6143
 4153SOL     OW24091   4.515   4.676   4.190 -0.3669 -0.0693  0.4928
 4153SOL    HW124092   4.520   4.670   4.094  1.8819  1.5933  0.4966
 4153SOL    HW224093   4.481   4.589   4.209 -0.2694 -0.5448 -1.5234
 4154SOL     OW24094   4.734   4.396  10.330 -0.0508  0.7305  0.6152
 4154SOL    HW124095   0.070   4.434  10.282 -0.1753 -0.2114 -0.3240
 4154SOL    HW224096   4.722   4.307  10.297 -3.3058  1.3441  0.1154
 4155SOL     OW24097   1.531   1.523  15.500  0.3030  0.5788 -0.5024
 4155SOL    HW124098   1.612   1.512  15.450 -0.3723 -4.0343 -0.6195
 4155SOL    HW224099   1.572   1.528  15.586 -1.6076 -0.5937  0.4891
 4156SOL     OW24100   1.962   3.853   5.662 -0.2666 -0.0048  0.0528
 4156SOL    HW124101   1.950   3.933   5.714  0.8236 -1.7689  3.0151
 4156SOL    HW224102   2.007   3.889   5.586  0.3830  1.0174  0.9304
 4157SOL     OW24103   3.652   4.289   4.609  0.4869 -0.0059  0.4296
 4157SOL    HW124104   3.659   4.308   4.702  2.4848  2.9755 -0.2987
 4157SOL    HW224105   3.562   4.315   4.588  0.2131 -2.2852 -1.1885
 4158SOL     OW24106   4.417   4.588   9.044  0.1368  0.9522 -0.3081
 4158SOL    HW124107   4.381   4.572   9.132 -0.2683  0.5211 -0.5549
 4158SOL    HW224108   4.502   4.545   9.045  0.3936  1.4643 -0.4968
 4159SOL     OW24109   3.703   2.207  15.376 -0.2001 -0.0892 -0.3395
 4159SOL    HW124110   3.631   2.269  15.369  0.9177  1.0432 -1.5906
 4159SOL    HW224111   3.711   2.200  15.471  2.2999 -0.1704 -0.5596
 4160SOL     OW24112   2.876   4.310   5.292  0.7357  0.6787 -0.2767
 4160SOL    HW124113   2.782   4.303   5.279  0.9137  0.0277 -1.1828
 4160SOL    HW224114   2.890   4.322   5.386  1.4688  2.3438 -0.5897
 4161SOL     OW24115   2.210   1.166   2.063  0.2783 -0.0182 -0.6075
 4161SOL    HW124116   2.126   1.205   2.088  0.8749  0.1460  1.1233
 4161SOL    HW224117   2.183   1.127   1.980 -1.1231 -1.1391  0.3903
 4162SOL     OW24118   4.189   2.333  10.350 -0.0156 -0.0225  0.1996
 4162SOL    HW124119   4.266   2.292  10.390  1.7018 -0.2123 -3.3155
 4162SOL    HW224120   4.141   2.252  10.334  0.3118 -0.1890  0.0621
 4163SOL     OW24121   3.183   2.817   8.027 -0.0588 -0.7873  0.5234
 4163SOL    HW124122   3.271   2.852   8.035  0.0613 -0.8494 -0.5173
 4163SOL    HW224123   3.141   2.869   8.096 -0.1271  2.3696 -1.9497
 4164SOL     OW24124   1.940   1.180  17.133 -0.5532 -0.6682  0.6179
 4164SOL    HW124125   1.924   1.180  17.227 -0.0485  1.6326  0.7047
 4164SOL    HW224126   1.888   1.257  17.110 -0.8894 -1.1655 -0.3117
 4165SOL     OW24127   4.232   4.664   6.696 -0.5305  0.4719 -0.0177
 4165SOL    HW124128   4.184   4.698   6.771 -0.1974  0.3709  0.2403
 4165SOL    HW224129   4.304   4.609   6.725  0.8771  1.9249 -0.7781
 4166SOL     OW24130   0.943   0.439   4.544  0.6498  0.1798 -0.4769
 4166SOL    HW124131   0.982   0.446   4.457  1.7067  3.3829  0.2730
 4166SOL    HW224132   0.898   0.355   4.556 -1.4932  1.2258 -1.1854
 4167SOL     OW24133   1.100   0.575   2.321 -0.2151 -0.5462  0.5647
 4167SOL    HW124134   1.128   0.558   2.410  0.8291 -0.4216  0.2608
 4167SOL    HW224135   1.004   0.568   2.327 -0.2681  1.2577  1.7578
 4168SOL     OW24136   2.436   1.704   0.740  0.4097  0.0507  0.4973
 4168SOL    HW124137   2.406   1.673   0.825  0.6568 -0.0592  0.5437
 4168SOL    HW224138   2.370   1.772   0.722  2.3756  1.5544 -1.1597
 4169SOL     OW24139   4.007   3.478   7.607 -1.1134  0.4604  0.0616
 4169SOL    HW124140   3.965   3.500   7.524 -1.9263 -1.8776 -0.1594
 4169SOL    HW224141   3.951   3.531   7.664 -0.1009  0.0487  1.4248
 4170SOL     OW24142   2.979   0.343  16.841  0.4635 -0.1783 -0.2128
 4170SOL    HW124143   2.922   0.394  16.898  0.9510 -0.4545  0.5251
 4170SOL    HW224144   3.016   0.410  16.784  1.3161 -0.8218 -0.4220
 4171SOL     OW24145   2.307   1.411   1.383  0.1075  0.2336 -0.3685
 4171SOL    HW124146   2.400   1.397   1.399 -0.0012 -0.4632 -0.3594
 4171SOL    HW224147   2.306   1.414   1.288 -0.4378  1.8509 -0.3183
 4172SOL     OW24148   0.280   4.131  16.636 -0.0743 -0.1188 -0.3846
 4172SOL    HW124149   0.227   4.059  16.604 -0.4195 -0.0090 -0.0602
 4172SOL    HW224150   0.218   4.204  16.636 -0.2077 -0.2315  0.6063
 4173SOL     OW24151   1.225   1.048   0.037 -0.2124  0.1778  0.4166
 4173SOL    HW124152   1.148   1.080   0.085  0.2872  1.7509  0.1771
 4173SOL    HW224153   1.269   1.131   0.020  0.9596 -1.0588 -2.6137
 4174SOL     OW24154   2.473   4.414  10.332 -0.0638 -0.0074  0.2485
 4174SOL    HW124155   2.441   4.325  10.348  1.6021 -0.5728  0.3997
 4174SOL    HW224156   2.568   4.414  10.340 -0.0725 -2.2094  0.3792
 4175SOL     OW24157   4.059   2.601  15.411  0.5337  0.1960 -0.4089
 4175SOL    HW124158   4.030   2.634  15.496 -0.8904 -2.0000 -0.0421
 4175SOL    HW224159   4.000   2.527  15.398 -1.2860  1.5086  0.2589
 4176SOL     OW24160   4.353   2.043  17.091 -0.4945 -0.0506  0.7440
 4176SOL    HW124161   4.380   2.134  17.086  0.8901 -0.3956  2.0026
 4176SOL    HW224162   4.389   2.005  17.010  1.2899  0.1965  1.4157
 4177SOL     OW24163   3.543   3.095   2.155 -0.2859 -1.0388 -0.3349
 4177SOL    HW124164   3.626   3.114   2.200 -1.3177  0.3497  0.9974
 4177SOL    HW224165   3.577   3.055   2.075  1.4736  0.5608 -0.3964
 4178SOL     OW24166   3.508   4.628   5.919 -0.1905  0.5231 -0.0359
 4178SOL    HW124167   3.494   4.536   5.897 -1.5810  0.2788  1.9100
 4178SOL    HW224168   3.570   4.606   5.989 -1.2668 -1.1151  0.4063
 4179SOL     OW24169   3.517   2.027   4.697  0.1292  0.1290  0.0566
 4179SOL    HW124170   3.536   1.986   4.782 -1.3532 -0.8325 -0.0659
 4179SOL    HW224171   3.477   1.953   4.651 -0.9429 -0.4547  1.9140
 4180SOL     OW24172   0.962   3.990   3.225  0.8605 -0.7568  0.0212
 4180SOL    HW124173   1.033   4.049   3.247 -0.2253  0.1295  1.1575
 4180SOL    HW224174   0.932   4.036   3.146  0.6244 -2.9996 -1.2140
 4181SOL     OW24175   0.589   4.632   0.132 -0.8331  0.1893 -0.6140
 4181SOL    HW124176   0.619   4.711   0.087  1.4056  0.6731  1.7407
 4181SOL    HW224177   0.523   4.598   0.071  0.6276 -1.4997 -1.2111
 4182SOL     OW24178   3.100   2.180  16.042  0.1868  0.0414  0.2547
 4182SOL    HW124179   3.184   2.226  16.040 -0.0918  0.5251 -0.3345
 4182SOL    HW224180   3.130   2.089  16.047  0.1105 -0.1137 -2.0951
 4183SOL     OW24181   3.162   3.906   2.680  0.6561  0.0025 -0.4931
 4183SOL    HW124182   3.250   3.910   2.642  0.0986  0.6556 -1.6971
 4183SOL    HW224183   3.121   3.833   2.634  3.3794 -1.5703 -0.4346
 4184SOL     OW24184   1.238   3.944   3.595  0.2925 -0.3845  0.1467
 4184SOL    HW124185   1.159   3.991   3.569  0.3871 -1.2122 -1.5891
 4184SOL    HW224186   1.259   3.892   3.518 -1.2533  0.2108 -0.6599
 4185SOL     OW24187   1.593   4.065   5.147  0.0270  0.7981 -0.5150
 4185SOL    HW124188   1.530   4.080   5.077  1.8248 -0.7005 -2.4220
 4185SOL    HW224189   1.588   4.154   5.184 -0.8835  0.5422 -0.0115
 4186SOL     OW24190   2.030   0.607  15.304 -0.0556  0.1559 -0.7463
 4186SOL    HW124191   1.978   0.606  15.385 -0.6135  1.0866 -1.0900
 4186SOL    HW224192   2.050   0.514  15.291 -0.7961 -0.1226  0.0496
 4187SOL     OW24193   3.719   4.120  11.737  0.4287 -0.8582  0.2094
 4187SOL    HW124194   3.769   4.044  11.708  2.6110 -0.0883  1.8998
 4187SOL    HW224195   3.632   4.087  11.715  1.4105 -2.2133 -1.6777
 4188SOL     OW24196   3.591   3.903   4.598 -0.1260  0.6359  0.4737
 4188SOL    HW124197   3.508   3.891   4.645  0.1207  1.0589  1.0100
 4188SOL    HW224198   3.615   3.810   4.598 -0.5648  0.5141 -0.5020
 4189SOL     OW24199   1.766   2.354  17.348 -0.0462 -0.3555  0.8621
 4189SOL    HW124200   1.809   2.395  17.273 -1.5555 -0.9786 -0.3359
 4189SOL    HW224201   1.678   2.340  17.312 -0.4205 -0.3790  1.7876
 4190SOL     OW24202   1.285   2.775   4.124  0.6086  0.3521 -0.1254
 4190SOL    HW124203   1.286   2.862   4.166 -0.6539  0.1162  0.3900
 4190SOL    HW224204   1.217   2.722   4.164  1.8479  0.8485  2.6754
 4191SOL     OW24205   2.882   3.993   7.606 -0.1134  0.1736 -0.3109
 4191SOL    HW124206   2.871   4.057   7.535  1.5519  1.0937  0.2453
 4191SOL    HW224207   2.972   4.006   7.635  0.2265 -1.4490 -0.6694
 4192SOL     OW24208   2.825   3.047   4.041 -0.4252  0.0625 -0.9213
 4192SOL    HW124209   2.880   3.056   4.119 -0.2062 -0.1086 -1.0583
 4192SOL    HW224210   2.818   2.952   4.033  0.2638  0.0082 -0.8879
 4193SOL     OW24211   0.108   1.554   6.381 -0.3506  0.3681 -0.2396
 4193SOL    HW124212   0.113   1.649   6.372 -0.3796  0.2679 -1.2390
 4193SOL    HW224213   0.191   1.539   6.427  0.4074  2.0579 -1.0681
 4194SOL     OW24214   1.983   0.276  17.322 -0.0460 -0.5919  0.0946
 4194SOL    HW124215   2.074   0.258  17.300  0.6087  0.6334  1.8423
 4194SOL    HW224216   1.980   0.317  17.408  0.1765 -1.1358  0.3597
 4195SOL     OW24217   3.924   1.183   4.297  0.0730 -0.6131  0.7351
 4195SOL    HW124218   4.012   1.159   4.327  1.0949  0.7657 -1.1216
 4195SOL    HW224219   3.897   1.114   4.237 -0.7300  0.9925 -0.7355
 4196SOL     OW24220   0.553   2.871   5.640 -0.0055  1.0246  0.8944
 4196SOL    HW124221   0.635   2.855   5.592  0.4917 -1.0149  2.4088
 4196SOL    HW224222   0.506   2.922   5.574 -2.1524 -0.2386  1.4652
 4197SOL     OW24223   3.855   0.253   5.925 -0.6908  0.0562  0.5104
 4197SOL    HW124224   3.818   0.187   5.984  2.2613  0.0959  2.3852
 4197SOL    HW224225   3.816   0.233   5.840  1.1800 -1.3975  0.0086
 4198SOL     OW24226   2.335   1.617   6.760 -0.0871 -0.1019 -0.4485
 4198SOL    HW124227   2.275   1.573   6.820  1.3231 -1.3969 -0.0035
 4198SOL    HW224228   2.287   1.592   6.681 -0.3301 -1.8298  0.2471
 4199SOL     OW24229   1.727   1.886  17.476 -0.7875 -0.1676  0.2411
 4199SOL    HW124230   1.766   1.973  17.466  1.8652 -1.3660  0.1454
 4199SOL    HW224231   1.720   1.855  17.386  2.1751  0.3391 -0.1701
 4200SOL     OW24232   3.915   4.374   8.364 -0.9800 -0.2918 -0.1350
 4200SOL    HW124233   4.004   4.375   8.399 -1.0075  1.4866 -0.0909
 4200SOL    HW224234   3.929   4.316   8.290 -1.8550 -1.8066  0.8954
 4201SOL     OW24235   1.401   4.676   3.701 -0.3549  0.0046 -0.2755
 4201SOL    HW124236   1.341   4.692   3.774  1.1444  0.3007  0.8835
 4201SOL    HW224237   1.378   0.007   3.638  0.2646  0.4155 -0.0550
 4202SOL     OW24238   3.414   3.794   9.947 -0.2566 -0.1315 -0.2500
 4202SOL    HW124239   3.349   3.755  10.005 -0.4470  1.7209  0.7941
 4202SOL    HW224240   3.485   3.802  10.011 -0.0153 -2.6246 -0.2242
 4203SOL     OW24241   0.485   4.370   6.810  0.4145 -0.1566 -0.4821
 4203SOL    HW124242   0.455   4.427   6.739 -2.2436  0.2836  1.0051
 4203SOL    HW224243   0.412   4.354   6.869  0.2978 -0.2157 -0.6437
 4204SOL     OW24244   2.185   4.452  14.879 -0.3610  0.3850  0.1851
 4204SOL    HW124245   2.173   4.374  14.825 -1.0848 -0.3933  1.4666
 4204SOL    HW224246   2.153   4.417  14.962  3.9233 -2.0685  0.7583
 4205SOL     OW24247   0.358   0.683   7.003 -0.5136  0.2714 -0.0695
 4205SOL    HW124248   0.287   0.733   7.043 -0.4698 -1.6535  2.4645
 4205SOL    HW224249   0.380   0.731   6.924  0.3521 -0.1112 -0.0592
 4206SOL     OW24250   2.326   1.974   5.688 -0.2304  0.2116  0.3678
 4206SOL    HW124251   2.297   1.983   5.597  1.6978 -1.5373 -0.4262
 4206SOL    HW224252   2.397   2.038   5.683  0.4092 -0.5346 -0.0391
 4207SOL     OW24253   4.146   2.886   9.577  0.2888  0.2533 -0.4955
 4207SOL    HW124254   4.087   2.888   9.652  0.7666  1.6722 -0.1483
 4207SOL    HW224255   4.213   2.948   9.608 -0.1441  0.6366 -0.3241
 4208SOL     OW24256   2.277   1.022   9.067  0.7344  0.1134  0.4111
 4208SOL    HW124257   2.348   1.035   9.005  1.1088 -4.1554 -0.0809
 4208SOL    HW224258   2.328   0.991   9.142  1.5538  0.1754 -0.1265
 4209SOL     OW24259   3.856   2.800   5.440  0.0007  0.1248 -0.9286
 4209SOL    HW124260   3.923   2.799   5.508 -1.3079  0.4022  0.3514
 4209SOL    HW224261   3.902   2.746   5.376  1.7117  1.1047 -0.5347
 4210SOL     OW24262   2.423   2.876   8.525 -0.1885 -0.1163 -0.5878
 4210SOL    HW124263   2.482   2.802   8.520 -1.4794 -1.2427  0.7850
 4210SOL    HW224264   2.337   2.837   8.510 -1.9050  3.0415  0.9017
 4211SOL     OW24265   1.811   0.637  12.060  0.1564 -0.0025 -0.1452
 4211SOL    HW124266   1.851   0.646  12.146 -0.0451  0.0663 -0.0607
 4211SOL    HW224267   1.845   0.551  12.036 -0.9110 -0.0559 -1.4416
 4212SOL     OW24268   4.386   3.806   8.534 -0.0172  0.1498 -0.1916
 4212SOL    HW124269   4.356   3.776   8.448  0.2625  2.3574 -1.0467
 4212SOL    HW224270   4.309   3.792   8.589  0.4497 -6.0085 -1.1087
 4213SOL     OW24271   1.636   1.774   1.208 -0.1776 -0.5707  0.2747
 4213SOL    HW124272   1.640   1.832   1.283  0.1483  0.5310 -0.5903
 4213SOL    HW224273   1.580   1.822   1.147  2.9727  1.9430 -0.5997
 4214SOL     OW24274   2.009   0.464   5.779 -0.0328 -0.0484 -0.1304
 4214SOL    HW124275   1.939   0.454   5.715 -1.1803  0.4381  1.0729
 4214SOL    HW224276   2.053   0.540   5.740  0.4182 -1.0350 -1.5689
 4215SOL     OW24277   3.538   4.373   6.318  0.1763  0.2565 -0.4524
 4215SOL    HW124278   3.503   4.301   6.370  1.5687 -0.3999 -0.4061
 4215SOL    HW224279   3.482   4.440   6.356  1.5926  0.8255  0.6053
 4216SOL     OW24280   2.319   1.940   3.940 -0.4648  0.0180 -0.1525
 4216SOL    HW124281   2.380   1.921   3.868  1.0099  0.2534  1.0367
 4216SOL    HW224282   2.306   1.853   3.977  3.5179 -1.3810 -1.9625
 4217SOL     OW24283   0.679   2.178   9.491  0.0873  0.1402 -0.4125
 4217SOL    HW124284   0.775   2.182   9.492  0.0594  0.7564  0.3903
 4217SOL    HW224285   0.666   2.139   9.578 -0.6352  1.2949 -0.0037
 4218SOL     OW24286   3.324   1.952   4.045  0.4797  0.1298 -0.2651
 4218SOL    HW124287   3.276   2.035   4.056 -0.0738 -0.0568 -1.2588
 4218SOL    HW224288   3.247   1.896   4.036  0.5654  0.1943 -1.3965
 4219SOL     OW24289   1.531   3.083   2.815  0.6908 -0.1571  0.2208
 4219SOL    HW124290   1.518   3.003   2.866 -1.5359  0.3939  0.5063
 4219SOL    HW224291   1.463   3.072   2.747 -0.3177  0.5154  1.1245
 4220SOL     OW24292   1.447   2.763  10.381  0.0752 -0.7302  0.7110
 4220SOL    HW124293   1.507   2.689  10.376  2.1293  0.8690  1.4925
 4220SOL    HW224294   1.486   2.800  10.460 -1.7532 -0.8649  1.6833
 4221SOL     OW24295   2.509   0.768   0.872 -0.2740 -0.4375  0.2322
 4221SOL    HW124296   2.572   0.717   0.924  0.4452  0.7061  0.4898
 4221SOL    HW224297   2.500   0.836   0.939 -1.4469  1.7972 -2.2237
 4222SOL     OW24298   0.129   0.203   2.647 -0.0811 -0.2671 -0.1720
 4222SOL    HW124299   0.056   0.153   2.611 -0.1296  1.4235 -2.4102
 4222SOL    HW224300   0.095   0.232   2.732 -0.6234  0.9398 -0.7848
 4223SOL     OW24301   3.461   4.165   7.129  0.6975 -0.0743 -0.1514
 4223SOL    HW124302   3.446   4.209   7.045  0.2664 -2.0284 -1.1072
 4223SOL    HW224303   3.382   4.197   7.173  1.4915  2.1918 -0.3612
 4224SOL     OW24304   3.334   3.777   1.113  0.1144  0.0135 -0.3472
 4224SOL    HW124305   3.417   3.771   1.065  1.2916 -1.2770  1.8172
 4224SOL    HW224306   3.364   3.831   1.187 -0.9946 -1.8173  1.4487
 4225SOL     OW24307   3.652   3.553   5.721  0.7414  0.2914 -0.0975
 4225SOL    HW124308   3.682   3.524   5.635 -0.2751 -0.3853 -0.2238
 4225SOL    HW224309   3.628   3.473   5.767  1.5643 -1.8474 -3.3741
 4226SOL     OW24310   1.696   0.397   0.189 -0.3544  0.3753 -0.3927
 4226SOL    HW124311   1.707   0.458   0.262  0.6455 -1.9174  1.3704
 4226SOL    HW224312   1.732   0.316   0.225  1.1805  0.8064 -0.9456
 4227SOL     OW24313   3.037   4.536   9.412  0.1373  0.2448 -0.3421
 4227SOL    HW124314   3.062   4.577   9.329  0.4938  1.0367  0.1589
 4227SOL    HW224315   3.121   4.514   9.451 -0.4283 -0.0554  0.7049
 4228SOL     OW24316   3.044   0.323  10.042  0.3934 -1.0011  0.2258
 4228SOL    HW124317   2.977   0.362   9.986  1.0896  0.7499  0.6160
 4228SOL    HW224318   3.083   0.260   9.982  1.0744 -3.0659  2.8222
 4229SOL     OW24319   2.192   4.297   7.537 -0.4212 -0.3846  0.5484
 4229SOL    HW124320   2.116   4.252   7.498  0.8795  1.8044 -4.5002
 4229SOL    HW224321   2.151   4.345   7.609 -0.6890 -1.9640  1.4452
 4230SOL     OW24322   4.099   4.171  10.422 -0.5352  0.6478 -0.4848
 4230SOL    HW124323   4.042   4.246  10.406 -3.0920 -1.2590 -0.4541
 4230SOL    HW224324   4.147   4.200  10.499  0.0874 -1.0891 -0.2023
 4231SOL     OW24325   0.980   0.562   0.940 -0.0450 -0.3338 -0.2829
 4231SOL    HW124326   1.054   0.583   0.998 -0.2383 -0.3380 -0.0392
 4231SOL    HW224327   0.945   0.648   0.918 -1.0315 -1.2237 -2.2329
 4232SOL     OW24328   2.773   4.108  17.456 -0.5166 -0.2945 -0.1336
 4232SOL    HW124329   2.694   4.061  17.431 -1.8849  1.8876  0.0376
 4232SOL    HW224330   2.827   4.114  17.377 -2.5019  0.2779 -1.4395
 4233SOL     OW24331   1.560   0.112  12.466  0.7030 -0.1763 -0.0122
 4233SOL    HW124332   1.479   0.087  12.510 -0.4024 -0.3398 -2.1250
 4233SOL    HW224333   1.556   0.063  12.384  2.2552  0.7442 -0.6361
 4234SOL     OW24334   2.481   1.689   8.739  0.1790 -0.0681  0.1866
 4234SOL    HW124335   2.416   1.647   8.795 -0.2732 -0.6359 -0.7703
 4234SOL    HW224336   2.435   1.761   8.694 -2.9554 -0.5346  2.6278
 4235SOL     OW24337   1.481   3.062   7.197 -0.3565 -0.0958  0.3148
 4235SOL    HW124338   1.474   3.117   7.275 -2.7139 -0.6898  0.5280
 4235SOL    HW224339   1.547   3.110   7.147 -1.2048  0.3821 -0.3391
 4236SOL     OW24340   0.653   3.819   7.757 -0.7303  0.2637 -0.4830
 4236SOL    HW124341   0.623   3.892   7.702 -1.4785 -0.1125 -0.5779
 4236SOL    HW224342   0.588   3.753   7.729  0.6838 -1.5588  0.5797
 4237SOL     OW24343   3.261   4.125   4.987 -0.3892 -0.1867  1.0633
 4237SOL    HW124344   3.316   4.143   4.911 -0.9283 -0.1204  0.6867
 4237SOL    HW224345   3.219   4.209   5.005  1.6220  0.7817  1.1349
 4238SOL     OW24346   2.286   0.237   7.920  0.1021  0.2620 -0.1916
 4238SOL    HW124347   2.340   0.165   7.889  1.2165  0.2384  1.8040
 4238SOL    HW224348   2.198   0.200   7.918  0.1670  0.1393 -0.6938
 4239SOL     OW24349   0.045   4.562   3.555 -0.1671 -0.2511  0.3944
 4239SOL    HW124350   4.733   4.500   3.609  0.9079 -0.1274  1.5318
 4239SOL    HW224351   0.049   4.511   3.474  0.2730  0.2091  0.1265
 4240SOL     OW24352   3.843   0.401   6.815 -0.0502  0.0544 -0.0117
 4240SOL    HW124353   3.921   0.348   6.804  0.4128  0.4750  1.2697
 4240SOL    HW224354   3.869   0.490   6.792  1.6945 -0.5869 -0.5064
 4241SOL     OW24355   0.639   4.353  16.055 -0.6012  0.1916  0.1464
 4241SOL    HW124356   0.584   4.360  15.978  1.0094  1.0823 -0.9257
 4241SOL    HW224357   0.631   4.259  16.068  1.7200 -0.2705 -1.6963
 4242SOL     OW24358   1.483   1.468   0.765  0.1584 -1.0724  0.3801
 4242SOL    HW124359   1.492   1.552   0.810 -1.1204  0.2411 -1.8250
 4242SOL    HW224360   1.465   1.503   0.678  1.5600 -0.7979  0.1962
 4243SOL     OW24361   3.812   2.535   5.038 -0.0400  0.3077  0.3803
 4243SOL    HW124362   3.828   2.625   5.068 -1.0886  0.8375 -0.6569
 4243SOL    HW224363   3.811   2.484   5.120 -3.7467  0.7244  0.6243
 4244SOL     OW24364   1.390   2.116  10.253  0.3478  0.4188 -0.0419
 4244SOL    HW124365   1.368   2.034  10.298  1.7078  0.8214  1.3674
 4244SOL    HW224366   1.399   2.173  10.330  0.5214 -1.8113  1.6111
 4245SOL     OW24367   4.674   4.310   5.606 -0.4205 -0.3779  0.0416
 4245SOL    HW124368   4.599   4.357   5.568 -1.0296 -1.2178  0.1990
 4245SOL    HW224369   4.651   4.219   5.587 -1.0664  0.3803 -2.8333
 4246SOL     OW24370   3.718   4.133   3.456 -0.0655  0.1804 -0.2259
 4246SOL    HW124371   3.720   4.065   3.389 -2.3761 -1.8097  1.7474
 4246SOL    HW224372   3.642   4.181   3.423 -0.5374  1.3951  2.6081
 4247SOL     OW24373   3.876   1.923   4.794  0.3361  0.3167  0.0719
 4247SOL    HW124374   3.836   2.010   4.798  3.4320  1.6242  2.2551
 4247SOL    HW224375   3.820   1.870   4.851 -0.8940  1.5093 -0.0039
 4248SOL     OW24376   3.045   3.258  11.498 -0.4419  0.3296  0.1129
 4248SOL    HW124377   3.009   3.295  11.579 -0.6324  0.5870 -0.0866
 4248SOL    HW224378   2.999   3.174  11.505 -1.7229  1.0208 -0.0134
 4249SOL     OW24379   4.447   0.958   3.674  1.0346  0.0253  0.1041
 4249SOL    HW124380   4.434   0.863   3.672  0.1405  0.1505 -0.0751
 4249SOL    HW224381   4.446   0.963   3.579  1.2861 -1.9282  0.0067
 4250SOL     OW24382   1.848   1.585   7.678  0.0530  0.5844 -0.0814
 4250SOL    HW124383   1.937   1.584   7.712 -0.0682 -0.0720  0.2210
 4250SOL    HW224384   1.815   1.498   7.701 -0.7081  0.8590 -0.1318
 4251SOL     OW24385   2.456   0.572   1.298 -0.4581 -0.5723  0.0978
 4251SOL    HW124386   2.408   0.549   1.377  0.2344  1.0777  1.0021
 4251SOL    HW224387   2.393   0.545   1.231  0.1145 -0.8091 -0.3476
 4252SOL     OW24388   2.908   1.259   7.161  0.7368  0.1347 -0.1836
 4252SOL    HW124389   2.819   1.292   7.175  0.5835  0.6705 -2.4776
 4252SOL    HW224390   2.950   1.343   7.180  0.1374  0.2528  0.6277
 4253SOL     OW24391   2.128   1.700   3.241 -0.3689 -0.1853 -0.3688
 4253SOL    HW124392   2.154   1.790   3.223 -2.5162  0.4501 -0.2777
 4253SOL    HW224393   2.173   1.680   3.323 -0.2729 -1.6081 -0.7602
 4254SOL     OW24394   2.323   0.278  13.871 -0.6783 -0.9534  0.1363
 4254SOL    HW124395   2.380   0.269  13.795 -0.0931  0.3019  0.4150
 4254SOL    HW224396   2.361   0.359  13.904  0.1866 -1.4486  0.3586
 4255SOL     OW24397   1.334   0.429   0.352  0.0886 -0.1164  0.5277
 4255SOL    HW124398   1.389   0.364   0.397 -0.6212 -1.6862 -0.8806
 4255SOL    HW224399   1.369   0.510   0.390 -0.5145  0.5641 -0.3723
 4256SOL     OW24400   2.074   2.210   4.519  0.1524 -0.2220  0.5291
 4256SOL    HW124401   2.110   2.230   4.606 -0.8615 -0.7455  1.0665
 4256SOL    HW224402   1.988   2.173   4.536  0.5284 -1.1582  0.3870
 4257SOL     OW24403   1.637   2.500   8.956 -0.1355 -0.3341  0.0314
 4257SOL    HW124404   1.616   2.415   8.995  1.3276 -1.4823 -1.7166
 4257SOL    HW224405   1.556   2.522   8.910 -0.6102  0.7474  1.3735
 4258SOL     OW24406   1.341   2.697   2.384 -0.1970  0.6628 -0.1837
 4258SOL    HW124407   1.344   2.712   2.478  0.9388  0.6248 -0.2187
 4258SOL    HW224408   1.425   2.652   2.386 -0.3756  0.1445 -4.1921
 4259SOL     OW24409   1.572   3.836   2.750  0.1021  0.1264  0.0662
 4259SOL    HW124410   1.523   3.842   2.832  1.0796 -1.1789  0.7469
 4259SOL    HW224411   1.560   3.745   2.723 -0.8716  0.4942 -0.7232
 4260SOL     OW24412   1.818   3.603  12.271 -0.6568  0.2026  0.3451
 4260SOL    HW124413   1.760   3.567  12.204 -0.8901  0.6863  0.2838
 4260SOL    HW224414   1.826   3.534  12.335 -0.5339  0.2928  0.4274
 4261SOL     OW24415   0.635   3.884   8.108  0.2949  0.4435  0.0968
 4261SOL    HW124416   0.656   3.811   8.167  1.2558  0.8547  0.2681
 4261SOL    HW224417   0.560   3.851   8.059  0.1382 -0.2413  0.7990
 4262SOL     OW24418   0.545   0.376   2.792  0.0418 -0.2617 -0.3167
 4262SOL    HW124419   0.455   0.396   2.819  0.8934 -0.3428  2.5513
 4262SOL    HW224420   0.539   0.285   2.762 -1.2141 -1.1902  2.7496
 4263SOL     OW24421   0.224   2.924   5.864 -0.4580  0.4406 -0.3134
 4263SOL    HW124422   0.286   2.967   5.805 -0.3410  0.6707 -0.0234
 4263SOL    HW224423   0.271   2.916   5.948  0.5281  1.8632 -0.7330
 4264SOL     OW24424   2.111   0.095   9.954 -0.0955  0.6587 -0.0366
 4264SOL    HW124425   2.031   0.050   9.928  0.4721 -0.9530  1.0234
 4264SOL    HW224426   2.125   0.055  10.040  4.0588  2.4323  0.1181
 4265SOL     OW24427   4.363   2.084   5.913  0.4751  0.0556 -0.3406
 4265SOL    HW124428   4.382   2.039   5.995  0.8485 -1.3003 -1.1851
 4265SOL    HW224429   4.367   2.176   5.940  0.5143  0.5783 -2.1282
 4266SOL     OW24430   1.674   0.765  10.373  0.3681 -0.2424 -0.1073
 4266SOL    HW124431   1.671   0.855  10.404 -0.0721 -0.0799 -0.6284
 4266SOL    HW224432   1.584   0.771  10.342  1.6345  2.3282 -3.2722
 4267SOL     OW24433   2.194   2.448   4.392 -1.0046  0.2648 -0.0049
 4267SOL    HW124434   2.145   2.368   4.409  0.7425 -1.1293 -1.5368
 4267SOL    HW224435   2.257   2.434   4.463 -0.1196  2.2229 -0.4027
 4268SOL     OW24436   3.360   1.455  14.679  0.0112 -0.3715  0.2595
 4268SOL    HW124437   3.320   1.496  14.602 -2.4624 -1.1639  1.1024
 4268SOL    HW224438   3.365   1.362  14.658 -3.5808 -0.7837  1.2250
 4269SOL     OW24439   0.339   1.400   2.303  0.3791 -0.3365 -0.4245
 4269SOL    HW124440   0.300   1.342   2.368 -1.2643 -1.1299 -2.1375
 4269SOL    HW224441   0.345   1.486   2.346  1.7161 -0.5102 -0.2615
 4270SOL     OW24442   4.293   1.222  16.865 -0.2474  0.5605  0.3100
 4270SOL    HW124443   4.275   1.302  16.815 -0.3607  0.7786  0.7002
 4270SOL    HW224444   4.231   1.224  16.938 -0.4857 -5.0606  0.2236
 4271SOL     OW24445   2.609   1.866   2.536  0.0835  0.1031 -0.4455
 4271SOL    HW124446   2.672   1.937   2.548  0.7321 -0.6653  0.7038
 4271SOL    HW224447   2.643   1.791   2.584  1.2620  0.6439 -0.4399
 4272SOL     OW24448   3.259   0.814   4.063  0.3044 -0.0911 -0.4399
 4272SOL    HW124449   3.231   0.826   4.154 -2.2497 -0.1510 -1.2009
 4272SOL    HW224450   3.280   0.905   4.041  2.2466 -0.3571  0.3607
 4273SOL     OW24451   4.726   2.865   8.649  0.0791 -0.0907  0.0064
 4273SOL    HW124452   4.693   2.851   8.738  0.5231  2.7600  0.6203
 4273SOL    HW224453   4.677   2.944   8.629  1.0587  0.5242  0.0320
 4274SOL     OW24454   3.386   0.275   9.243  0.4688  0.0337 -0.0454
 4274SOL    HW124455   3.437   0.331   9.185 -1.8779  3.0385  0.7838
 4274SOL    HW224456   3.396   0.326   9.324  0.6924  2.4071 -1.5703
 4275SOL     OW24457   1.750   2.588   7.648  0.0915 -0.0681  1.0599
 4275SOL    HW124458   1.763   2.537   7.568 -3.0973 -1.0960  1.1890
 4275SOL    HW224459   1.659   2.571   7.671  0.0511 -0.9083  0.2705
 4276SOL     OW24460   1.507   0.157   2.924  0.0923  0.2850  0.2296
 4276SOL    HW124461   1.448   0.117   2.859 -0.1540  0.5257  0.3033
 4276SOL    HW224462   1.515   0.083   2.985  0.8096  2.8025  3.1498
 4277SOL     OW24463   3.258   3.575   2.200 -0.4668  0.0307 -0.3638
 4277SOL    HW124464   3.347   3.603   2.223 -0.1503 -1.3947  0.1978
 4277SOL    HW224465   3.273   3.485   2.170  0.0182 -0.0852  0.2182
 4278SOL     OW24466   0.026   1.809  17.717 -0.2918 -0.2470  0.1394
 4278SOL    HW124467   4.718   1.811  17.633 -0.7250  0.6783  0.3970
 4278SOL    HW224468   0.111   1.846  17.692  0.0677 -1.7508 -0.8540
 4279SOL     OW24469   2.920   4.245   1.407 -0.1469  0.2140  0.0304
 4279SOL    HW124470   2.948   4.183   1.339  0.4000 -1.6477  1.9365
 4279SOL    HW224471   2.922   4.186   1.483 -1.6110 -1.1439 -0.9694
 4280SOL     OW24472   4.266   4.544  12.110  0.1179 -0.0892  0.4044
 4280SOL    HW124473   4.272   4.626  12.158  2.2403  0.7277 -1.2679
 4280SOL    HW224474   4.263   4.486  12.187  0.5888  1.6495  1.7286
 4281SOL     OW24475   1.411   0.275   8.865 -0.1780 -0.2125  0.3807
 4281SOL    HW124476   1.493   0.260   8.817 -0.0473  1.9677 -0.1117
 4281SOL    HW224477   1.416   0.371   8.876  0.4731 -0.3008  0.8929
 4282SOL     OW24478   2.744   1.943  10.403 -0.3870 -0.3213  0.3298
 4282SOL    HW124479   2.817   1.965  10.461  0.4899  0.6923 -1.1438
 4282SOL    HW224480   2.770   1.854  10.379  0.9813  0.3747 -0.8247
 4283SOL     OW24481   0.280   2.377   7.517  0.0285 -0.5599  0.0923
 4283SOL    HW124482   0.196   2.412   7.486 -0.7905 -3.0776 -0.4715
 4283SOL    HW224483   0.256   2.285   7.520 -4.3478  0.5162 -1.7727
 4284SOL     OW24484   3.556   2.964   8.835  0.0786 -0.0811  0.2974
 4284SOL    HW124485   3.511   2.919   8.764 -0.1145  2.1647 -1.0241
 4284SOL    HW224486   3.634   2.910   8.843  0.2824 -0.1887 -2.4358
 4285SOL     OW24487   0.492   2.809   9.761 -0.0208 -0.3824  0.5144
 4285SOL    HW124488   0.562   2.872   9.741 -0.9257  0.3669 -0.2574
 4285SOL    HW224489   0.413   2.841   9.718 -0.1354 -1.6483 -0.2274
 4286SOL     OW24490   3.569   2.278  14.536 -0.2076 -0.0461  0.3151
 4286SOL    HW124491   3.626   2.257  14.462 -2.3079 -2.3442 -0.6274
 4286SOL    HW224492   3.512   2.202  14.547  0.0239 -0.5501 -2.0663
 4287SOL     OW24493   0.642   2.766   7.804  0.8195 -0.0700  0.1020
 4287SOL    HW124494   0.706   2.826   7.767 -2.0086  1.8880 -1.6147
 4287SOL    HW224495   0.561   2.816   7.791  0.2747 -1.3070 -1.3081
 4288SOL     OW24496   4.160   3.437   4.995  0.0672  0.3867  0.0812
 4288SOL    HW124497   4.127   3.460   5.082  0.1882  0.4280  0.1175
 4288SOL    HW224498   4.201   3.351   5.007 -1.4249 -0.2765  0.3641
 4289SOL     OW24499   4.049   1.595   2.976 -0.2122 -0.3418  0.0026
 4289SOL    HW124500   4.144   1.587   2.976 -0.1181  0.7599 -1.3814
 4289SOL    HW224501   4.031   1.683   2.941 -1.6476 -0.0626  1.4382
 4290SOL     OW24502   2.653   4.606   3.092 -0.0035  0.1736 -0.2720
 4290SOL    HW124503   2.686   4.695   3.107 -0.7595  0.2803  0.7083
 4290SOL    HW224504   2.624   4.618   3.001  0.5858  0.6523 -0.3969
 4291SOL     OW24505   1.107   3.583  15.193  0.2768  0.3449 -0.3643
 4291SOL    HW124506   1.028   3.595  15.140 -1.4349 -2.1767  1.6469
 4291SOL    HW224507   1.138   3.518  15.130  1.6911  0.5595  0.1163
 4292SOL     OW24508   3.684   3.358   8.043 -0.2323 -0.0520  0.6321
 4292SOL    HW124509   3.638   3.289   8.090  0.2035 -0.6274  0.2087
 4292SOL    HW224510   3.633   3.353   7.962  0.2068 -0.3701  0.3787
 4293SOL     OW24511   2.084   2.764   2.696 -0.6077  0.1149 -0.0166
 4293SOL    HW124512   2.169   2.740   2.732 -0.2923  0.8241 -0.3059
 4293SOL    HW224513   2.091   2.743   2.603 -2.3661 -0.8454  0.0507
 4294SOL     OW24514   4.500   0.425   8.826 -1.4208  0.5251  0.0231
 4294SOL    HW124515   4.415   0.415   8.784  0.0377  0.0815 -2.8433
 4294SOL    HW224516   4.524   0.512   8.792  2.5278 -1.5010 -2.4275
 4295SOL     OW24517   2.702   2.082   8.207  0.0419  0.3298  0.1560
 4295SOL    HW124518   2.647   2.016   8.166  0.4146  0.2461 -0.2034
 4295SOL    HW224519   2.697   2.072   8.302  2.4318 -1.6534  0.0655
 4296SOL     OW24520   4.176   0.651  15.890  0.0176 -0.2317 -0.0258
 4296SOL    HW124521   4.261   0.694  15.885 -0.2538  0.4839  1.3035
 4296SOL    HW224522   4.121   0.705  15.947 -1.0375 -0.9060 -0.4075
 4297SOL     OW24523   3.053   2.476   8.104 -0.4318  0.9596  0.3020
 4297SOL    HW124524   3.005   2.551   8.069 -0.0702  0.7971 -0.5500
 4297SOL    HW224525   3.035   2.409   8.039 -1.3132  0.4804  1.0571
 4298SOL     OW24526   3.077   4.054  10.012  0.3365  0.0469  0.0897
 4298SOL    HW124527   3.168   4.074  10.032  0.8475  0.3514 -2.5275
 4298SOL    HW224528   3.056   3.974  10.061  1.6728  0.1262  0.7910
 4299SOL     OW24529   0.369   0.680   5.766  0.4024  0.0020  0.2356
 4299SOL    HW124530   0.287   0.728   5.754  0.1692 -0.4211  0.1373
 4299SOL    HW224531   0.426   0.724   5.703  0.6655 -0.4965  0.1211
 4300SOL     OW24532   2.093   0.325   5.476  0.6564  0.0222  0.1670
 4300SOL    HW124533   2.143   0.386   5.530 -0.6604 -0.1332  1.5619
 4300SOL    HW224534   2.020   0.373   5.438  1.8679 -0.2401 -2.4801
 4301SOL     OW24535   0.386   2.465   5.043  0.0178 -0.0992 -0.4599
 4301SOL    HW124536   0.448   2.477   5.116  1.2101 -0.1222 -1.4662
 4301SOL    HW224537   0.430   2.525   4.982 -0.6036  1.8595  0.9921
 4302SOL     OW24538   3.883   1.994   3.761 -0.1615 -0.7309  0.1285
 4302SOL    HW124539   3.908   1.905   3.736  0.0425 -0.6671  0.1076
 4302SOL    HW224540   3.963   2.031   3.798 -0.9770  0.0571  1.0750
 4303SOL     OW24541   2.477   3.550   6.789 -0.1676  0.4869 -0.2550
 4303SOL    HW124542   2.499   3.642   6.782 -0.5344  0.6681  1.0772
 4303SOL    HW224543   2.443   3.557   6.878 -1.2041  0.7103 -0.6641
 4304SOL     OW24544   0.849   1.068   5.552  0.4833 -0.0777 -0.8259
 4304SOL    HW124545   0.826   1.158   5.575 -0.7032 -0.4646 -0.5139
 4304SOL    HW224546   0.853   1.042   5.644 -0.2656 -0.6480 -0.9611
 4305SOL     OW24547   3.037   0.141   5.680 -0.1899 -0.3282  0.4947
 4305SOL    HW124548   2.974   0.103   5.619  0.7393  1.3034 -1.4987
 4305SOL    HW224549   3.121   0.128   5.634 -0.1515  1.0470  0.1909
 4306SOL     OW24550   3.214   3.715  10.111  0.8479  0.2870 -0.2585
 4306SOL    HW124551   3.153   3.766  10.165 -1.7228 -2.3557 -0.6539
 4306SOL    HW224552   3.152   3.659  10.064  1.2817 -2.5344  2.5053
 4307SOL     OW24553   0.649   3.879   3.856 -0.0774 -0.6220  0.5457
 4307SOL    HW124554   0.741   3.906   3.856 -0.4501  0.6894 -0.1766
 4307SOL    HW224555   0.636   3.786   3.839 -2.2602  0.1214 -1.9205
 4308SOL     OW24556   1.585   2.539  15.536  0.5877  0.7066  0.1158
 4308SOL    HW124557   1.554   2.524  15.447 -0.8187  0.8023  0.5858
 4308SOL    HW224558   1.503   2.549  15.584 -1.4349 -0.2503 -3.1498
 4309SOL     OW24559   0.273   4.369   2.807 -0.1624 -0.5904 -0.1071
 4309SOL    HW124560   0.339   4.396   2.871  1.7468 -1.2168 -1.8163
 4309SOL    HW224561   0.299   4.281   2.779  1.9917 -0.7314  2.3917
 4310SOL     OW24562   2.261   1.564  10.038  0.3774 -0.8069  0.0354
 4310SOL    HW124563   2.251   1.647   9.991  1.8093 -0.6723 -0.0122
 4310SOL    HW224564   2.351   1.535  10.023 -0.1407 -2.6682  0.5800
 4311SOL     OW24565   2.698   0.809  17.323 -0.1066  0.0456 -0.1102
 4311SOL    HW124566   2.667   0.727  17.285 -1.2652  0.9667 -1.1531
 4311SOL    HW224567   2.648   0.873  17.272 -0.8840 -0.6324 -0.1912
 4312SOL     OW24568   4.073   0.732  12.028  0.0998  0.0229  0.3351
 4312SOL    HW124569   3.985   0.693  12.023  0.0258 -0.0235  1.9373
 4312SOL    HW224570   4.053   0.810  12.079  0.0631  1.2768 -1.6127
 4313SOL     OW24571   4.599   3.605   3.632  0.1480  0.5593  0.6034
 4313SOL    HW124572   4.621   3.515   3.656  2.1016  1.2617  1.4321
 4313SOL    HW224573   4.546   3.631   3.708 -1.8744  0.3578 -0.7620
 4314SOL     OW24574   0.216   0.517   1.239 -0.1038  0.5106  0.3254
 4314SOL    HW124575   0.259   0.527   1.155 -0.2043 -1.4771  0.0207
 4314SOL    HW224576   0.278   0.462   1.287  0.0062  2.4348  2.3778
 4315SOL     OW24577   3.106   3.269  15.325  0.3284  0.1026  0.0104
 4315SOL    HW124578   3.188   3.304  15.290  0.4509 -0.2307 -0.0307
 4315SOL    HW224579   3.093   3.189  15.275  1.2153  1.0946 -1.7966
 4316SOL     OW24580   3.961   1.644   7.018  0.2918 -0.1115  0.3011
 4316SOL    HW124581   3.966   1.622   7.111  1.6103  0.9663  0.4764
 4316SOL    HW224582   4.052   1.634   6.993  0.8002  1.2226  1.5608
 4317SOL     OW24583   1.185   3.366   9.960 -0.0447  0.1973 -0.2804
 4317SOL    HW124584   1.153   3.366   9.870  1.3936  0.0720 -0.7812
 4317SOL    HW224585   1.225   3.453   9.953 -1.7094  0.9406 -0.7761
 4318SOL     OW24586   1.396   0.854  17.697  0.2560  0.2706  0.0037
 4318SOL    HW124587   1.388   0.768  17.738 -1.5322 -0.2536 -1.4084
 4318SOL    HW224588   1.336   0.903   0.006  0.9864  2.5173 -1.1956
 4319SOL     OW24589   1.135   1.302  11.583 -0.5029  0.5141  0.3155
 4319SOL    HW124590   1.146   1.240  11.511 -0.7809  0.6658  0.1447
 4319SOL    HW224591   1.176   1.374  11.535  0.9691 -1.5808 -1.5485
 4320SOL     OW24592   1.904   1.066   8.596  0.3285  0.2954 -0.5250
 4320SOL    HW124593   1.997   1.081   8.585  0.4539  1.8983  2.5871
 4320SOL    HW224594   1.881   1.159   8.589  1.6795  0.5364 -1.6795
 4321SOL     OW24595   0.810   0.237   7.482 -0.3665 -0.7362 -0.0250
 4321SOL    HW124596   0.866   0.167   7.512  0.7983 -0.3707 -1.3450
 4321SOL    HW224597   0.859   0.279   7.411 -1.0633  2.9697  1.6764
 4322SOL     OW24598   3.767   0.491   1.613 -0.1513  0.1582 -0.4455
 4322SOL    HW124599   3.702   0.525   1.675 -1.2176 -1.5520 -0.6188
 4322SOL    HW224600   3.750   0.397   1.611 -0.3235  0.2047 -1.0117
 4323SOL     OW24601   3.695   2.164   4.531  0.0478 -0.6370  0.1343
 4323SOL    HW124602   3.676   2.254   4.556  1.2600 -0.3785  0.1322
 4323SOL    HW224603   3.621   2.119   4.571  0.6537 -1.9321 -0.1987
 4324SOL     OW24604   0.168   0.044  13.245  0.0870 -0.2836 -0.3206
 4324SOL    HW124605   0.126   0.121  13.206  0.8926 -0.1590 -0.9303
 4324SOL    HW224606   0.092   4.735  13.282  0.6373 -1.0183 -0.1138
 4325SOL     OW24607   0.208   0.745  17.208  0.0234  0.4735 -0.2133
 4325SOL    HW124608   0.207   0.828  17.159 -2.5931  0.0551 -0.8932
 4325SOL    HW224609   0.301   0.726  17.218 -0.3200  0.0667  2.0556
 4326SOL     OW24610   0.240   4.548   8.708 -0.3964 -0.4032  0.3947
 4326SOL    HW124611   0.272   4.629   8.668 -0.2554 -0.4514  0.4099
 4326SOL    HW224612   0.159   4.588   8.739  1.1969  1.3047  2.3657
 4327SOL     OW24613   4.320   1.433  16.690 -0.6995 -0.2860  0.0807
 4327SOL    HW124614   4.380   1.506  16.678  0.2787 -1.1244 -0.0584
 4327SOL    HW224615   4.242   1.459  16.641 -0.4703 -1.3964 -0.8622
 4328SOL     OW24616   1.452   4.672   5.625 -0.7005 -0.2842  0.0747
 4328SOL    HW124617   1.369   4.708   5.655 -0.5471 -0.0086  0.1632
 4328SOL    HW224618   1.481   4.734   5.558  1.2251  0.3151  1.4624
 4329SOL     OW24619   0.052   1.119   5.515  0.3261  0.2867 -0.2349
 4329SOL    HW124620   0.112   1.057   5.556  0.6645  0.7719  0.0001
 4329SOL    HW224621   4.713   1.061   5.503  0.9723 -1.5083  4.3120
 4330SOL     OW24622   3.741   1.940   9.683  0.0087  0.3383 -0.2183
 4330SOL    HW124623   3.748   1.955   9.777 -0.9893  1.6588 -0.3551
 4330SOL    HW224624   3.810   1.998   9.651 -2.1551  3.0605  0.0041
 4331SOL     OW24625   1.015   3.933   4.191  0.0562  0.0390 -0.0600
 4331SOL    HW124626   1.082   3.889   4.138  0.7436  0.7210  0.2366
 4331SOL    HW224627   0.945   3.914   4.129 -1.6938  0.0403  1.9077
 4332SOL     OW24628   4.380   1.868   0.813 -0.1390 -0.3291  0.0576
 4332SOL    HW124629   4.321   1.837   0.882  0.0902 -1.4620 -0.2468
 4332SOL    HW224630   4.402   1.782   0.776  0.9421 -0.5025  1.1063
 4333SOL     OW24631   0.678   1.850   5.683  0.5136 -0.2456  0.6245
 4333SOL    HW124632   0.646   1.913   5.618  1.1896  0.1191  0.6420
 4333SOL    HW224633   0.604   1.833   5.742  0.3157 -1.2406  0.0860
 4334SOL     OW24634   4.070   1.634   7.278 -0.5606 -0.0356 -0.7519
 4334SOL    HW124635   4.075   1.729   7.265 -1.5781 -0.0228 -1.0515
 4334SOL    HW224636   4.085   1.629   7.373  1.3217 -1.4190 -1.1348
 4335SOL     OW24637   2.737   1.359   6.864 -0.5579 -0.3633 -0.1555
 4335SOL    HW124638   2.817   1.366   6.915 -1.4412  1.8665  0.9337
 4335SOL    HW224639   2.709   1.449   6.845  0.2796  0.1818  1.1548
 4336SOL     OW24640   2.026   0.998   4.165  0.6848 -0.0525  0.1379
 4336SOL    HW124641   2.048   1.084   4.201  2.6946 -0.1350 -0.9340
 4336SOL    HW224642   2.081   1.008   4.087  0.7253  2.3529  0.4553
 4337SOL     OW24643   0.788   2.879   8.613  0.1828  0.0664 -0.3338
 4337SOL    HW124644   0.829   2.877   8.526  3.1303 -0.2599  1.0701
 4337SOL    HW224645   0.790   2.972   8.635 -0.8197 -0.1858  0.7779
 4338SOL     OW24646   3.888   2.537   8.469  0.4628  0.3134 -0.5503
 4338SOL    HW124647   3.926   2.583   8.543 -2.1936  0.1058  0.9439
 4338SOL    HW224648   3.925   2.585   8.395  0.1571 -2.1702 -2.3507
 4339SOL     OW24649   3.216   3.319   3.573 -0.0060 -0.5224  0.0946
 4339SOL    HW124650   3.218   3.368   3.655 -0.1414  0.1839 -0.3274
 4339SOL    HW224651   3.270   3.242   3.594  0.0746 -0.8480 -1.3177
 4340SOL     OW24652   2.798   0.659   6.661  0.7549  0.3384  0.0495
 4340SOL    HW124653   2.865   0.628   6.600 -1.5701 -2.0978 -1.2804
 4340SOL    HW224654   2.843   0.736   6.695 -2.4757  1.5941  1.4322
 4341SOL     OW24655   2.517   3.653   1.467 -0.0683  0.4066 -0.2065
 4341SOL    HW124656   2.455   3.585   1.495  0.8718 -0.1735  0.4787
 4341SOL    HW224657   2.524   3.711   1.542  0.4299 -0.4712  0.4332
 4342SOL     OW24658   1.208   2.918   7.998 -0.0932  0.1437  0.5705
 4342SOL    HW124659   1.191   2.890   8.088  0.3813 -0.4256  0.4806
 4342SOL    HW224660   1.245   3.005   8.012  2.3074 -0.5541 -1.4135
 4343SOL     OW24661   4.170   0.697   9.575 -0.0200 -0.3559 -0.2354
 4343SOL    HW124662   4.133   0.785   9.585 -0.1972 -0.5386  0.6627
 4343SOL    HW224663   4.248   0.722   9.526 -0.4012  0.5147 -0.3959
 4344SOL     OW24664   3.237   2.181   2.782 -0.0314  0.3325 -0.5247
 4344SOL    HW124665   3.287   2.156   2.705 -1.1049 -0.4686 -0.9666
 4344SOL    HW224666   3.250   2.273   2.762  0.7712  0.2963 -0.1506
 4345SOL     OW24667   3.226   4.213  11.293  0.5582  0.2094 -0.3003
 4345SOL    HW124668   3.299   4.275  11.300  2.6150 -2.5383  2.6759
 4345SOL    HW224669   3.272   4.146  11.344 -1.5192 -0.2942  0.8887
 4346SOL     OW24670   1.635   3.530   9.039  0.3928  0.2215  0.6605
 4346SOL    HW124671   1.674   3.547   9.125 -1.5116 -1.4823  1.8679
 4346SOL    HW224672   1.588   3.613   9.027 -0.7262 -0.4848  0.1761
 4347SOL     OW24673   0.139   3.430   4.581  0.1548 -0.0926 -0.1571
 4347SOL    HW124674   0.156   3.364   4.649 -1.6805  0.6319  1.0308
 4347SOL    HW224675   0.221   3.475   4.565 -1.3599  2.3910 -0.9560
 4348SOL     OW24676   2.819   0.492   0.086 -0.7699 -0.0807 -0.1238
 4348SOL    HW124677   2.775   0.412   0.114  0.4655 -1.0412 -0.8902
 4348SOL    HW224678   2.901   0.481   0.133 -1.1122 -0.3591  0.3991
 4349SOL     OW24679   3.487   1.328   7.261  0.5733 -0.4604  0.2860
 4349SOL    HW124680   3.526   1.291   7.341 -0.3869 -0.2499  0.8566
 4349SOL    HW224681   3.419   1.261   7.255 -0.4967  0.8295 -1.8540
 4350SOL     OW24682   4.336   4.335   5.866 -0.2978  0.0723 -0.3630
 4350SOL    HW124683   4.342   4.361   5.774  0.8720  1.4920  0.0999
 4350SOL    HW224684   4.269   4.267   5.866 -2.1784  1.8842  2.4926
 4351SOL     OW24685   2.760   2.080   2.826  0.3131  0.3493 -0.3202
 4351SOL    HW124686   2.781   2.070   2.733  0.5277  3.1938 -0.5904
 4351SOL    HW224687   2.769   1.988   2.851  3.2903  1.2251  1.8900
 4352SOL     OW24688   0.301   4.283   4.080 -0.9534  0.2179 -0.0869
 4352SOL    HW124689   0.353   4.206   4.103 -3.1907 -1.3275 -0.2177
 4352SOL    HW224690   0.280   4.255   3.991 -0.2386 -1.0780  0.1582
 4353SOL     OW24691   3.340   3.125  16.001  0.5127 -0.6402 -0.3756
 4353SOL    HW124692   3.319   3.032  16.000 -1.5374 -0.1620 -2.5849
 4353SOL    HW224693   3.430   3.111  16.032 -0.0515  0.5878  1.8451
 4354SOL     OW24694   1.635   1.157   6.367 -0.1753 -0.0410  0.1553
 4354SOL    HW124695   1.555   1.108   6.385  0.6207 -1.2222  0.4252
 4354SOL    HW224696   1.627   1.214   6.444  0.1500  2.6437 -1.7662
 4355SOL     OW24697   2.453   3.764   8.503 -0.2069 -0.0127  0.2188
 4355SOL    HW124698   2.419   3.854   8.510  0.6790  0.3516 -0.1346
 4355SOL    HW224699   2.491   3.748   8.589 -2.2007  0.6553  1.2391
 4356SOL     OW24700   1.482   4.328   5.153  0.0161  0.2242  0.0259
 4356SOL    HW124701   1.481   4.396   5.086  2.1250 -1.0111 -1.2698
 4356SOL    HW224702   1.400   4.344   5.199 -0.3842  0.6881 -0.8520
 4357SOL     OW24703   3.998   1.921   1.161  0.4725  0.0715  0.1118
 4357SOL    HW124704   4.016   2.007   1.200 -0.5174  0.2248  0.2378
 4357SOL    HW224705   3.914   1.946   1.124 -1.2611  0.0334  4.0112
 4358SOL     OW24706   0.497   2.920   3.342 -0.4115 -0.7349 -0.2043
 4358SOL    HW124707   0.575   2.975   3.342 -2.1117  1.6781 -2.4532
 4358SOL    HW224708   0.437   2.978   3.295 -0.0174 -0.3954 -0.2870
 4359SOL     OW24709   4.513   0.434   3.143 -0.0383  0.3673 -0.0042
 4359SOL    HW124710   4.517   0.511   3.200 -1.5008 -0.0054  0.5982
 4359SOL    HW224711   4.546   0.465   3.059  1.2839  1.5474  0.9522
 4360SOL     OW24712   1.957   3.750  14.007 -0.2892 -0.3377 -0.6910
 4360SOL    HW124713   1.869   3.750  14.046 -0.5208  0.8773 -1.2014
 4360SOL    HW224714   1.969   3.664  13.967 -0.8562 -0.2682 -1.0149
 4361SOL     OW24715   3.915   4.580   5.756  0.0557 -0.1048 -0.3461
 4361SOL    HW124716   3.884   4.521   5.824  1.0200  0.3941  0.5151
 4361SOL    HW224717   3.842   4.638   5.732 -0.4509 -0.4439  0.3855
 4362SOL     OW24718   2.577   1.951   4.690  0.3136 -0.3181  0.1542
 4362SOL    HW124719   2.558   1.859   4.704  3.4419 -0.6701  2.1718
 4362SOL    HW224720   2.672   1.951   4.678  0.6502  0.1604  2.6363
 4363SOL     OW24721   2.930   2.767  16.806  0.1444  0.1517 -0.3963
 4363SOL    HW124722   2.871   2.713  16.753  0.5586 -0.5620 -0.1302
 4363SOL    HW224723   2.980   2.697  16.847 -3.0827 -2.2265 -0.5010
 4364SOL     OW24724   2.240   4.007  16.081 -0.4285  0.4549  0.3215
 4364SOL    HW124725   2.225   3.994  15.987  1.6799 -1.3782  0.2072
 4364SOL    HW224726   2.186   3.934  16.110  2.1940 -1.8427 -0.5034
 4365SOL     OW24727   4.401   2.127   3.112 -0.2790 -0.2901 -0.2113
 4365SOL    HW124728   4.310   2.135   3.084 -0.6244  1.3658  1.3934
 4365SOL    HW224729   4.428   2.041   3.078 -0.6548 -0.5446  0.1494
 4366SOL     OW24730   3.318   3.091   4.061  0.0431 -0.5296  0.3038
 4366SOL    HW124731   3.240   3.093   4.116  0.5606 -2.1449  1.0989
 4366SOL    HW224732   3.281   3.063   3.977 -0.4641 -1.8538  0.9641
 4367SOL     OW24733   1.676   1.344  15.136 -0.0030 -0.2064  0.0233
 4367SOL    HW124734   1.762   1.316  15.105  1.1619  3.0510  0.3667
 4367SOL    HW224735   1.703   1.411  15.199  0.4659 -0.4168  0.0481
 4368SOL     OW24736   0.376   0.411   7.328  0.3450 -0.0986 -0.2981
 4368SOL    HW124737   0.326   0.425   7.247  0.0305 -0.7476 -0.2151
 4368SOL    HW224738   0.415   0.498   7.338  0.6845 -0.3923  0.8455
 4369SOL     OW24739   2.375   2.056   9.549 -0.6190  0.5882 -0.3990
 4369SOL    HW124740   2.315   1.984   9.529 -0.8361  0.9209 -0.9652
 4369SOL    HW224741   2.441   2.007   9.598  0.7173  1.5883 -1.1819
 4370SOL     OW24742   3.028   4.337  16.253  0.8918 -0.3968  0.0926
 4370SOL    HW124743   3.087   4.411  16.265 -0.3433  0.5258  0.4600
 4370SOL    HW224744   2.944   4.382  16.259  1.9163  1.4239  0.7043
 4371SOL     OW24745   2.638   1.079  13.706  0.2167 -0.3074 -0.3317
 4371SOL    HW124746   2.606   1.121  13.626  0.3525  1.0148  0.3115
 4371SOL    HW224747   2.706   1.144  13.725 -0.5743 -0.1698  2.0191
 4372SOL     OW24748   1.766   3.868   1.624 -0.0408  0.1141  0.0491
 4372SOL    HW124749   1.807   3.881   1.710  1.4335  0.7176 -0.7354
 4372SOL    HW224750   1.830   3.845   1.557 -0.7066  3.2931 -1.6845
 4373SOL     OW24751   4.344   4.192   9.470  0.4093 -0.1294  0.4358
 4373SOL    HW124752   4.374   4.250   9.540  1.1078  1.6928 -1.3574
 4373SOL    HW224753   4.251   4.189   9.493 -0.6506  1.2665 -3.6836
 4374SOL     OW24754   3.374   0.410  17.132 -0.4704  0.0984 -0.0532
 4374SOL    HW124755   3.357   0.354  17.056 -2.5784  0.9712 -0.2256
 4374SOL    HW224756   3.419   0.345  17.186  3.6102  2.4400 -0.6238
 4375SOL     OW24757   3.606   3.575   0.954  0.1182  0.0688  0.5553
 4375SOL    HW124758   3.568   3.514   1.017  2.2786 -0.2075  1.5639
 4375SOL    HW224759   3.695   3.543   0.962  0.1964 -0.4289 -2.0583
 4376SOL     OW24760   3.671   3.444   2.485 -0.2498 -0.0525 -0.1933
 4376SOL    HW124761   3.693   3.446   2.579 -1.4704  0.5278  0.0739
 4376SOL    HW224762   3.756   3.470   2.450 -1.4428  0.2492 -2.8449
 4377SOL     OW24763   1.382   2.805   7.273 -0.0490 -0.2045  0.4330
 4377SOL    HW124764   1.304   2.824   7.326  0.0200 -0.4797  0.6271
 4377SOL    HW224765   1.410   2.894   7.252  0.7037 -0.7292 -0.7983
 4378SOL     OW24766   3.530   0.856   3.243  0.4272  0.4303  0.0308
 4378SOL    HW124767   3.591   0.931   3.245  1.4221 -0.3685 -0.1792
 4378SOL    HW224768   3.442   0.893   3.252  0.2760 -0.1099  0.7739
 4379SOL     OW24769   0.517   4.648   8.433 -0.1506  0.3112 -0.1913
 4379SOL    HW124770   0.515   4.717   8.367  0.3854 -0.0126 -0.5505
 4379SOL    HW224771   0.463   4.684   8.503  0.2884 -0.7856  0.7096
 4380SOL     OW24772   1.873   4.171   7.451 -0.6785  0.3993  0.1105
 4380SOL    HW124773   1.847   4.114   7.378 -0.1907 -2.5175  2.2540
 4380SOL    HW224774   1.787   4.213   7.456 -0.6709  0.3243  0.8102
 4381SOL     OW24775   1.482   1.271   8.257  0.1895 -0.4336  0.1775
 4381SOL    HW124776   1.510   1.348   8.307  1.7053 -1.8139  1.4735
 4381SOL    HW224777   1.387   1.281   8.251  0.1090 -0.8300  0.8075
 4382SOL     OW24778   4.325   1.511   5.102 -0.6519  0.0664 -0.2815
 4382SOL    HW124779   4.409   1.547   5.134 -0.4204  0.0368 -0.8590
 4382SOL    HW224780   4.336   1.497   5.008 -0.6197 -2.3673  0.0985
 4383SOL     OW24781   2.078   2.746   7.429 -0.0781 -0.5994  0.0150
 4383SOL    HW124782   2.048   2.833   7.455  0.9004 -0.0739 -0.5923
 4383SOL    HW224783   2.173   2.755   7.418  0.3333 -1.6767  2.8594
 4384SOL     OW24784   2.694   4.064   6.130 -0.0462 -0.2200 -0.3062
 4384SOL    HW124785   2.738   4.149   6.131  1.2546 -0.9217  1.6126
 4384SOL    HW224786   2.608   4.093   6.099 -0.7744 -1.4015  0.6139
 4385SOL     OW24787   3.714   3.056   7.920  0.4091 -0.1328  0.2103
 4385SOL    HW124788   3.654   3.001   7.869  0.2342 -0.2464  0.5368
 4385SOL    HW224789   3.679   3.025   8.004 -0.0024  0.9363  0.4311
 4386SOL     OW24790   3.465   3.510   8.275 -0.3149 -1.0686 -0.2606
 4386SOL    HW124791   3.381   3.477   8.244  0.6074 -1.3374 -2.4388
 4386SOL    HW224792   3.513   3.427   8.278  1.6381  0.1737  2.5176
 4387SOL     OW24793   3.273   3.860   3.561 -0.5224  0.1373  0.2006
 4387SOL    HW124794   3.318   3.784   3.525 -0.7754  0.5372 -0.9755
 4387SOL    HW224795   3.193   3.817   3.590 -1.0222  0.5615 -0.5477
 4388SOL     OW24796   1.885   1.059   6.589  0.2385 -0.5201 -0.4144
 4388SOL    HW124797   1.868   1.130   6.651  0.5094 -2.4794  1.9117
 4388SOL    HW224798   1.814   0.996   6.604  0.4486 -0.9920 -1.3899
 4389SOL     OW24799   0.638   3.675   8.293 -0.1572 -0.0138  0.2600
 4389SOL    HW124800   0.543   3.677   8.294 -0.1165  1.4726  0.7638
 4389SOL    HW224801   0.651   3.642   8.382 -0.0714  0.3493  0.3817
 4390SOL     OW24802   1.433   1.907   6.692 -0.5721  0.2692 -0.1706
 4390SOL    HW124803   1.487   1.956   6.754  0.5905  0.4175 -1.3002
 4390SOL    HW224804   1.475   1.823   6.709 -0.3373  0.5092  0.4430
 4391SOL     OW24805   4.271   3.129   4.220  0.3242  0.1972 -0.1570
 4391SOL    HW124806   4.188   3.137   4.267  0.6172  0.2615  0.3512
 4391SOL    HW224807   4.336   3.112   4.288  0.8432 -1.6944 -1.1175
 4392SOL     OW24808   1.678   0.715  11.082 -0.1885  0.7649 -0.3254
 4392SOL    HW124809   1.597   0.752  11.118  0.1290  1.4154 -0.2871
 4392SOL    HW224810   1.686   0.635  11.134  0.0918 -0.1717 -1.8068
 4393SOL     OW24811   4.608   0.276   7.863  0.1907  0.6894 -0.1578
 4393SOL    HW124812   4.518   0.295   7.889 -0.4933 -2.4236 -0.2172
 4393SOL    HW224813   4.627   0.193   7.906 -0.7602  0.8131  0.4931
 4394SOL     OW24814   3.860   2.425   9.057  0.3767 -0.4676  0.3262
 4394SOL    HW124815   3.782   2.380   9.087  0.2060  1.1821  2.3571
 4394SOL    HW224816   3.907   2.437   9.140  4.1685 -1.0702 -1.7190
 4395SOL     OW24817   0.427   2.353   3.806  0.5748  0.3189  0.5378
 4395SOL    HW124818   0.397   2.395   3.726 -1.7998 -0.6026  0.9385
 4395SOL    HW224819   0.356   2.341   3.870 -0.7932 -0.1389 -1.0491
 4396SOL     OW24820   3.521   0.490   7.776 -0.1435 -0.1446 -0.0162
 4396SOL    HW124821   3.583   0.417   7.787  1.3853  1.0658 -0.6527
 4396SOL    HW224822   3.494   0.499   7.867  0.6434 -2.0122  0.4147
 4397SOL     OW24823   0.551   1.553   3.418  0.0364  0.4394 -0.2414
 4397SOL    HW124824   0.477   1.495   3.436  0.2213  0.2922  0.0472
 4397SOL    HW224825   0.526   1.583   3.330  2.5577 -0.8890 -1.4046
 4398SOL     OW24826   0.574   1.089   6.795  0.0168 -0.0742  0.8185
 4398SOL    HW124827   0.521   1.046   6.862 -0.8476  0.4329  0.4697
 4398SOL    HW224828   0.513   1.132   6.735  2.0540 -0.9604 -1.8857
 4399SOL     OW24829   1.312   3.003   3.656  0.1413  0.1582 -0.3445
 4399SOL    HW124830   1.237   2.973   3.604 -0.1198  1.4230 -0.6991
 4399SOL    HW224831   1.349   2.915   3.659  1.7734  0.8253 -0.7844
 4400SOL     OW24832   2.121   3.287  15.438  0.0161  0.1053  0.0979
 4400SOL    HW124833   2.028   3.266  15.447  0.0481  0.3564  0.9603
 4400SOL    HW224834   2.139   3.296  15.344 -2.0843 -2.3233 -0.5687
 4401SOL     OW24835   0.512   2.412  15.271 -0.7464  0.2285 -0.5716
 4401SOL    HW124836   0.583   2.358  15.305 -0.6012  0.4126 -0.5810
 4401SOL    HW224837   0.537   2.460  15.192 -0.4530 -1.0855 -1.2745
 4402SOL     OW24838   3.568   1.367  16.945 -0.3169  0.0473 -0.1858
 4402SOL    HW124839   3.589   1.374  17.038 -0.5204 -0.4527 -0.1019
 4402SOL    HW224840   3.584   1.274  16.928  0.3301 -0.1843  1.7547
 4403SOL     OW24841   3.311   3.742   6.314 -0.3773 -0.1792  0.2106
 4403SOL    HW124842   3.266   3.740   6.398 -2.5979  2.1731 -0.9002
 4403SOL    HW224843   3.271   3.672   6.261 -0.5468  0.3116 -0.3130
 4404SOL     OW24844   1.428   0.763  10.225  0.3814  0.1371  0.7976
 4404SOL    HW124845   1.401   0.682  10.267 -0.2606 -0.3016 -0.4651
 4404SOL    HW224846   1.402   0.757  10.133 -1.8270 -0.4343  1.4806
 4405SOL     OW24847   0.918   3.677   8.868 -0.1682  0.0342 -0.2720
 4405SOL    HW124848   0.984   3.745   8.852  0.0906 -0.4207 -1.1716
 4405SOL    HW224849   0.838   3.728   8.882  1.1355  1.5103  1.8164
 4406SOL     OW24850   3.604   2.940  15.201  0.5122  0.2018  0.1969
 4406SOL    HW124851   3.694   2.917  15.225  0.6573 -0.1616 -0.6906
 4406SOL    HW224852   3.594   2.897  15.116  1.0532 -0.7557  0.6240
 4407SOL     OW24853   0.271   4.267   9.164 -0.1929  0.1029  0.4277
 4407SOL    HW124854   0.264   4.357   9.196 -0.9895 -0.2120  1.1432
 4407SOL    HW224855   0.282   4.287   9.071 -1.5851  1.4198  0.5540
 4408SOL     OW24856   0.652   1.644   2.136 -0.1165 -0.3821  0.3518
 4408SOL    HW124857   0.656   1.737   2.112 -1.1384 -0.1027  1.2811
 4408SOL    HW224858   0.623   1.608   2.053 -1.3875 -0.1374  0.6838
 4409SOL     OW24859   0.825   1.068   5.840  0.1359  0.0767  0.1838
 4409SOL    HW124860   0.817   1.161   5.861 -0.7860 -0.0247  0.2809
 4409SOL    HW224861   0.904   1.050   5.891 -1.1699  0.6403  2.3882
 4410SOL     OW24862   2.103   3.816   8.341  0.0894  0.0542  0.6090
 4410SOL    HW124863   2.103   3.895   8.287  1.8438 -0.6553 -0.4278
 4410SOL    HW224864   2.022   3.839   8.385 -0.7284 -1.1638 -0.2309
 4411SOL     OW24865   1.284   1.919  10.445 -0.5461 -0.1119 -0.0876
 4411SOL    HW124866   1.194   1.952  10.438 -0.5717 -0.1770 -0.0590
 4411SOL    HW224867   1.289   1.904  10.539  0.3981  0.9482  0.0287
 4412SOL     OW24868   1.084   4.026   9.193 -0.4459 -0.5328 -0.3066
 4412SOL    HW124869   1.003   4.056   9.152 -0.2694  0.7390  0.2923
 4412SOL    HW224870   1.046   3.952   9.241  0.6615 -0.3155  0.8915
 4413SOL     OW24871   1.652   1.773   0.707 -0.7085  0.5858  0.0285
 4413SOL    HW124872   1.659   1.748   0.615 -0.8627  2.3825 -0.4869
 4413SOL    HW224873   1.647   1.868   0.692 -1.8059  0.6519  0.7919
 4414SOL     OW24874   0.913   1.564  11.614 -0.5017  0.0389  0.1164
 4414SOL    HW124875   0.818   1.557  11.611 -0.3559 -2.5301  2.5415
 4414SOL    HW224876   0.931   1.636  11.553 -0.3566 -0.2192 -0.1436
 4415SOL     OW24877   1.936   0.069   1.755  1.1063 -0.2512 -0.4525
 4415SOL    HW124878   1.927   0.027   1.840 -0.4443  1.4380  0.2246
 4415SOL    HW224879   1.930   4.728   1.700 -1.0978 -0.0596 -0.4696
 4416SOL     OW24880   0.813   2.922   2.152 -0.8019 -0.4687  0.1608
 4416SOL    HW124881   0.871   2.935   2.227  2.1634  3.0078 -2.7763
 4416SOL    HW224882   0.856   2.978   2.087 -1.9180  0.6987  0.4206
 4417SOL     OW24883   0.078   4.170   9.329 -0.7482 -0.0872  0.3629
 4417SOL    HW124884   0.124   4.224   9.265 -2.8560  1.0680 -0.2080
 4417SOL    HW224885   0.132   4.093   9.347  0.2782  0.7939  1.0525
 4418SOL     OW24886   0.861   3.871   5.834  0.2428 -0.2793 -0.8124
 4418SOL    HW124887   0.774   3.846   5.867  1.1305 -0.5438  1.3553
 4418SOL    HW224888   0.859   3.844   5.742 -0.8531 -0.1782 -0.8255
 4419SOL     OW24889   0.509   0.050  12.991 -0.3791  0.1673 -0.1365
 4419SOL    HW124890   0.499   0.144  12.972 -0.4306  0.3895  0.9785
 4419SOL    HW224891   0.423   0.016  12.969 -0.3604  1.2582 -1.9385
 4420SOL     OW24892   0.640   1.563   0.144  0.9008  0.0513  0.0711
 4420SOL    HW124893   0.636   1.557   0.049  0.0908  4.1194 -0.1535
 4420SOL    HW224894   0.607   1.478   0.174 -1.6791  0.6232 -1.1717
 4421SOL     OW24895   3.107   2.038   1.475  0.2653 -0.1495  0.1734
 4421SOL    HW124896   3.113   1.964   1.415  2.7455 -0.3651  0.6786
 4421SOL    HW224897   3.197   2.066   1.492  0.0097  1.4243 -1.0386
 4422SOL     OW24898   2.232   3.317   4.847 -0.1256 -0.2267 -0.1640
 4422SOL    HW124899   2.293   3.292   4.916 -0.6438  0.1064  0.4145
 4422SOL    HW224900   2.177   3.240   4.832 -0.9494  0.3732 -0.2514
 4423SOL     OW24901   2.854   1.302  11.168  0.8159  0.0675  0.1652
 4423SOL    HW124902   2.942   1.269  11.147  1.9142  2.7060  0.6564
 4423SOL    HW224903   2.795   1.228  11.149  1.3149  0.5510 -3.3143
 4424SOL     OW24904   2.197   0.478   3.821 -0.2196 -0.6293  0.3407
 4424SOL    HW124905   2.186   0.573   3.820 -0.3607 -0.6177  3.1370
 4424SOL    HW224906   2.291   0.463   3.812  0.4302  2.3506  2.0456
 4425SOL     OW24907   3.632   2.968   1.924 -0.2230 -0.5080 -0.5175
 4425SOL    HW124908   3.679   3.012   1.853 -1.5427 -2.1000 -2.4165
 4425SOL    HW224909   3.701   2.908   1.952 -1.4836 -1.5718  0.3049
 4426SOL     OW24910   4.635   1.506  14.635 -0.1054  0.2827  0.2166
 4426SOL    HW124911   4.666   1.543  14.552 -0.2479 -1.1007 -0.4564
 4426SOL    HW224912   4.680   1.421  14.641  0.9582  0.7341 -1.3612
 4427SOL     OW24913   2.156   1.843   1.358 -0.3838 -0.3589  0.4088
 4427SOL    HW124914   2.148   1.764   1.411 -0.2021  0.7973  2.1351
 4427SOL    HW224915   2.079   1.895   1.377 -1.4079 -1.6884 -0.0901
 4428SOL     OW24916   3.672   2.563  16.095  0.3608 -0.2766 -0.0151
 4428SOL    HW124917   3.652   2.607  16.013 -0.2611 -2.2617 -0.9391
 4428SOL    HW224918   3.726   2.628  16.139  0.7053 -1.5935  1.5454
 4429SOL     OW24919   1.692   2.252   7.236 -0.2043  0.4166  0.1029
 4429SOL    HW124920   1.691   2.159   7.210 -0.6942 -0.1135  2.0024
 4429SOL    HW224921   1.761   2.287   7.180  2.0132 -0.7545  2.0885
 4430SOL     OW24922   4.558   2.800   8.883  0.3915 -0.3584 -0.4209
 4430SOL    HW124923   4.581   2.754   8.964  0.2333  0.2430 -0.0329
 4430SOL    HW224924   4.483   2.743   8.866  0.1458  0.6586 -2.7104
 4431SOL     OW24925   3.808   4.731   0.922 -0.0837 -0.0440  0.2697
 4431SOL    HW124926   3.742   4.666   0.947  0.4765 -0.3579  0.9279
 4431SOL    HW224927   3.877   4.671   0.893  1.0291  0.6535  1.5292
 4432SOL     OW24928   4.242   2.535  17.556  0.3089 -0.3805 -0.8796
 4432SOL    HW124929   4.221   2.442  17.549  0.9652 -0.4116 -2.3719
 4432SOL    HW224930   4.326   2.538  17.510  1.5372 -1.5422  1.2736
 4433SOL     OW24931   1.560   0.634  12.424  0.5857 -0.2683  0.2445
 4433SOL    HW124932   1.572   0.677  12.339  1.1053  0.4475  0.6839
 4433SOL    HW224933   1.579   0.542  12.402 -1.6489 -0.8361  0.6921
 4434SOL     OW24934   0.752   4.012   6.638  0.7669  0.5211 -0.5691
 4434SOL    HW124935   0.750   4.087   6.579 -1.0221 -0.2817 -1.5369
 4434SOL    HW224936   0.657   4.017   6.654  0.7079  0.3329 -0.8693
 4435SOL     OW24937   2.186   4.508   5.160  0.1892  0.2098  0.5397
 4435SOL    HW124938   2.118   4.559   5.116  1.9437  2.6655  0.6675
 4435SOL    HW224939   2.242   4.489   5.084 -0.0211 -2.5809  1.0723
 4436SOL     OW24940   0.528   1.316   8.746  0.3218 -0.0506 -0.4422
 4436SOL    HW124941   0.566   1.368   8.674  1.9381 -0.5383  0.0566
 4436SOL    HW224942   0.578   1.235   8.738 -0.1513 -0.1410 -2.5336
 4437SOL     OW24943   0.122   0.213   9.000  0.4031  0.1309 -0.0654
 4437SOL    HW124944   0.137   0.259   9.083 -0.4517 -1.9812  1.2846
 4437SOL    HW224945   0.027   0.212   9.003  0.4531  0.1964  1.9835
 4438SOL     OW24946   2.370   1.452   7.606  0.4022  0.0603 -0.3770
 4438SOL    HW124947   2.424   1.529   7.584  0.2365  0.9147  2.2443
 4438SOL    HW224948   2.337   1.423   7.521 -0.1690  0.4579 -0.2886
 4439SOL     OW24949   1.097   1.961   3.603 -0.0339  0.3332 -0.1277
 4439SOL    HW124950   1.112   1.889   3.543  1.9259 -0.2804  1.0896
 4439SOL    HW224951   1.002   1.963   3.602  0.0297  3.3898 -1.2897
 4440SOL     OW24952   2.938   1.286   6.668  0.0338 -0.2779  0.2745
 4440SOL    HW124953   2.900   1.256   6.585  2.3967  2.5371 -1.8157
 4440SOL    HW224954   2.853   1.294   6.712 -0.2280  1.9440 -0.5908
 4441SOL     OW24955   2.587   0.203   4.443 -0.8782 -0.6117 -0.9255
 4441SOL    HW124956   2.605   0.205   4.349  1.8292  1.2005 -0.3656
 4441SOL    HW224957   2.555   0.292   4.459 -1.0196 -0.6671 -0.9042
 4442SOL     OW24958   1.926   0.911  14.527 -0.1649  0.4841  0.5443
 4442SOL    HW124959   2.014   0.921  14.491 -0.5857 -1.3455 -0.9699
 4442SOL    HW224960   1.937   0.948  14.615  1.7764 -1.0337  0.9313
 4443SOL     OW24961   1.099   1.469  16.937 -0.5122  0.1874  1.0437
 4443SOL    HW124962   1.176   1.506  16.980 -0.9607 -1.4081  3.2548
 4443SOL    HW224963   1.055   1.550  16.912  2.5970  1.5519  0.0536
 4444SOL     OW24964   4.202   1.487   6.138 -0.6298 -0.1302  0.3212
 4444SOL    HW124965   4.177   1.561   6.082 -1.3340 -0.4599  0.2045
 4444SOL    HW224966   4.294   1.489   6.110 -0.6308 -3.0243  0.1231
 4445SOL     OW24967   2.608   0.879   0.652  0.0112 -0.8870 -0.8443
 4445SOL    HW124968   2.567   0.843   0.731  0.6280 -0.7349 -0.4495
 4445SOL    HW224969   2.543   0.857   0.585 -0.1087 -0.8987 -0.7241
 4446SOL     OW24970   0.793   0.197   4.041 -0.0328  0.7421 -0.2178
 4446SOL    HW124971   0.704   0.215   4.012  0.5276  0.5088 -2.0539
 4446SOL    HW224972   0.788   0.231   4.131 -1.5256 -1.8621  0.6909
 4447SOL     OW24973   2.874   1.880   7.759  0.5357 -0.1181  0.1340
 4447SOL    HW124974   2.951   1.834   7.791 -0.2217 -1.0567  0.6198
 4447SOL    HW224975   2.913   1.962   7.730  1.7729 -0.5513  0.5944
 4448SOL     OW24976   1.393   1.542  17.713  0.5396  0.0052 -0.3453
 4448SOL    HW124977   1.478   1.581  17.690  0.7873 -0.6736 -0.5860
 4448SOL    HW224978   1.330   1.593  17.663  1.2476  0.7828 -0.4517
 4449SOL     OW24979   0.159   1.625   6.763 -0.7588 -0.1832  0.0865
 4449SOL    HW124980   0.196   1.539   6.743 -0.4223  0.1610 -0.7663
 4449SOL    HW224981   0.229   1.668   6.811 -0.2192 -0.8901 -0.0764
 4450SOL     OW24982   3.155   4.211   9.050  0.6167 -0.1872  0.4531
 4450SOL    HW124983   3.150   4.184   8.958  2.1306  1.5565 -0.1526
 4450SOL    HW224984   3.152   4.306   9.036  0.4088 -0.2102  0.3369
 4451SOL     OW24985   0.694   3.560   4.532  0.0780 -0.0529 -0.3476
 4451SOL    HW124986   0.722   3.470   4.514 -2.7282 -1.0379  0.1069
 4451SOL    HW224987   0.712   3.565   4.626 -2.4699  0.4905  0.1195
 4452SOL     OW24988   3.047   2.200   3.447  0.1680  0.0068 -0.0435
 4452SOL    HW124989   3.016   2.234   3.531  3.1716 -0.9479  1.4761
 4452SOL    HW224990   3.139   2.224   3.463  0.4443 -0.2322 -1.2788
 4453SOL     OW24991   1.150   0.893   6.694  0.2747 -0.9536  0.2742
 4453SOL    HW124992   1.103   0.931   6.767 -1.1009 -0.7000 -0.7430
 4453SOL    HW224993   1.083   0.862   6.633 -0.5859  2.4815 -0.5110
 4454SOL     OW24994   1.751   1.537  14.323 -0.1481 -0.0270  0.2437
 4454SOL    HW124995   1.831   1.492  14.298 -0.5048 -1.0972  1.0085
 4454SOL    HW224996   1.689   1.466  14.307 -2.6584  1.9516  0.9828
 4455SOL     OW24997   1.487   0.936  16.510  0.2094  0.5717 -0.4525
 4455SOL    HW124998   1.471   0.988  16.431 -0.5199  0.9459 -0.0659
 4455SOL    HW224999   1.574   0.899  16.495  0.3523  0.4224  0.7773
 4456SOL     OW25000   4.552   3.496   2.475  0.1940  0.1426 -0.6583
 4456SOL    HW125001   4.524   3.532   2.559  0.4891  0.5350 -0.7321
 4456SOL    HW225002   4.476   3.517   2.421 -1.8613 -0.3200  2.0754
 4457SOL     OW25003   3.636   4.491   5.276 -0.3221  0.3551  0.0234
 4457SOL    HW125004   3.659   4.415   5.329  1.2325  2.0096  1.7315
 4457SOL    HW225005   3.548   4.470   5.245 -0.5067 -0.2310  0.9500
 4458SOL     OW25006   3.917   2.566   2.633 -0.0508 -0.2567 -0.3402
 4458SOL    HW125007   3.928   2.640   2.574  2.7678  0.2177  0.7928
 4458SOL    HW225008   3.830   2.585   2.667 -1.0849  1.0202 -3.6466
 4459SOL     OW25009   0.207   2.055   8.879 -0.1037  0.4098 -0.1758
 4459SOL    HW125010   0.286   2.089   8.920  0.0532  0.0023 -0.1370
 4459SOL    HW225011   0.204   1.964   8.909 -1.3346  0.5238  0.0697
 4460SOL     OW25012   1.250   4.532   7.915  0.0586  0.2095  0.0301
 4460SOL    HW125013   1.265   4.461   7.977  0.4260  0.4585  0.2226
 4460SOL    HW225014   1.286   4.596   7.976  3.1384 -0.4329 -1.1109
 4461SOL     OW25015   2.929   2.766   6.886 -0.0224  0.3434  0.2067
 4461SOL    HW125016   2.980   2.691   6.856  1.2246  2.0187 -1.8330
 4461SOL    HW225017   2.988   2.841   6.885  0.2087  0.1816  1.5595
 4462SOL     OW25018   3.501   4.017   4.380 -0.3473 -0.2567  0.3786
 4462SOL    HW125019   3.544   3.977   4.455 -0.7323 -2.3940 -0.5477
 4462SOL    HW225020   3.513   3.948   4.314 -0.2374  1.6408 -1.5759
 4463SOL     OW25021   1.645   3.831   4.913 -0.0103  0.0385  0.0484
 4463SOL    HW125022   1.703   3.846   4.987  0.5228  2.6469 -0.9046
 4463SOL    HW225023   1.562   3.878   4.925  0.5387  0.9106  0.3745
 4464SOL     OW25024   0.287   0.139   5.112  0.3818  0.1424 -0.5845
 4464SOL    HW125025   0.277   0.233   5.124  0.2696 -0.2964  2.5931
 4464SOL    HW225026   0.344   0.130   5.035 -2.0017  0.8975 -2.4211
 4465SOL     OW25027   4.057   2.641   3.348  0.0262  0.2095  0.1519
 4465SOL    HW125028   4.113   2.690   3.289 -0.4851 -0.1571 -0.6335
 4465SOL    HW225029   4.117   2.575   3.381 -2.0230 -1.6249  0.2373
 4466SOL     OW25030   4.298   4.410  17.690 -0.0947  0.0274  0.1157
 4466SOL    HW125031   4.259   4.480  17.638 -0.8138 -1.8878 -1.8656
 4466SOL    HW225032   4.264   4.434   0.030  0.4696 -1.6443  0.7973
 4467SOL     OW25033   4.540   4.449  13.243  0.2505 -0.4990  0.2596
 4467SOL    HW125034   4.599   4.380  13.275  0.1902 -0.5496  0.2623
 4467SOL    HW225035   4.469   4.391  13.214  0.2518 -0.7232  0.7032
 4468SOL     OW25036   1.788   1.356  16.742 -0.7187 -0.1987 -0.3492
 4468SOL    HW125037   1.762   1.355  16.650 -1.1167 -0.4174 -0.2374
 4468SOL    HW225038   1.714   1.317  16.789 -1.3207  2.3124  0.7562
 4469SOL     OW25039   4.453   2.781  11.280  0.3715 -0.4417 -0.0859
 4469SOL    HW125040   4.394   2.840  11.233  1.2329  0.7301  0.2935
 4469SOL    HW225041   4.529   2.769  11.222  1.5840 -3.0469  2.0717
 4470SOL     OW25042   2.181   2.530   0.586  0.6019  0.1977 -0.0142
 4470SOL    HW125043   2.269   2.567   0.574  0.1848 -0.1498 -3.9965
 4470SOL    HW225044   2.130   2.609   0.598 -0.0557 -0.2140 -0.0878
 4471SOL     OW25045   1.829   3.739   6.982 -0.2595 -0.1141 -0.1243
 4471SOL    HW125046   1.917   3.728   7.019  0.0097  2.4091 -0.0138
 4471SOL    HW225047   1.846   3.821   6.936 -0.8912  0.4193  0.5835
 4472SOL     OW25048   1.779   4.385   2.187 -0.1657  0.3594 -0.4783
 4472SOL    HW125049   1.776   4.378   2.091  0.3213 -0.1629 -0.4562
 4472SOL    HW225050   1.687   4.382   2.213 -0.0056 -1.5334 -0.0785
 4473SOL     OW25051   3.427   4.495   2.845  0.5872  0.6841  0.0039
 4473SOL    HW125052   3.428   4.531   2.934  1.7351 -0.8015  0.5956
 4473SOL    HW225053   3.465   4.571   2.800  0.7263 -0.2918 -1.5242
 4474SOL     OW25054   3.106   3.929  11.387  0.3195 -0.4535 -0.2829
 4474SOL    HW125055   3.110   3.836  11.408  0.3513 -0.6760 -1.2501
 4474SOL    HW225056   3.199   3.950  11.374  0.2804 -0.6785 -0.9303
 4475SOL     OW25057   0.326   0.593   2.627 -0.1361  0.4955 -0.5392
 4475SOL    HW125058   0.320   0.568   2.720 -0.1421 -1.0369 -0.9582
 4475SOL    HW225059   0.294   0.683   2.634  1.6479  1.2732 -2.5139
 4476SOL     OW25060   3.166   0.132   3.289 -0.2667 -0.2356  0.4152
 4476SOL    HW125061   3.214   0.187   3.351  0.1077 -1.1518  0.9204
 4476SOL    HW225062   3.170   0.050   3.338  0.4417  0.5951  1.7518
 4477SOL     OW25063   0.211   1.322   6.243  0.0445  0.4513  0.2880
 4477SOL    HW125064   0.147   1.286   6.304 -0.4436 -0.1049 -0.5582
 4477SOL    HW225065   0.175   1.411   6.250  1.2299  0.6036  4.8450
 4478SOL     OW25066   1.419   0.714   0.815 -0.6567 -0.6139 -0.5938
 4478SOL    HW125067   1.483   0.746   0.878 -1.2892  0.6756 -0.6129
 4478SOL    HW225068   1.347   0.774   0.835  0.3089  0.8981 -1.7575
 4479SOL     OW25069   2.388   2.806  15.047 -0.1655  0.1321 -0.2713
 4479SOL    HW125070   2.302   2.794  15.006  0.4341 -1.7151 -1.0115
 4479SOL    HW225071   2.420   2.866  14.979  0.7192  0.8173  0.7558
 4480SOL     OW25072   1.684   2.792  15.696  0.6176 -0.4045  0.1321
 4480SOL    HW125073   1.686   2.839  15.612 -0.7532 -2.5723 -1.1116
 4480SOL    HW225074   1.633   2.713  15.682  1.5070 -0.9638  0.0224
 4481SOL     OW25075   4.107   4.372   6.908  0.7754  0.3223 -0.4518
 4481SOL    HW125076   4.051   4.422   6.849  2.9283  1.7057 -1.3489
 4481SOL    HW225077   4.061   4.381   6.991  2.6046  0.8646  0.4989
 4482SOL     OW25078   1.003   2.628   8.430  0.0862 -0.3171 -0.1668
 4482SOL    HW125079   0.951   2.690   8.481  1.2973 -0.0670  0.7538
 4482SOL    HW225080   0.971   2.654   8.344 -1.0144 -0.7338  0.1182
 4483SOL     OW25081   3.518   3.683   5.496  0.5932 -0.1788  0.0885
 4483SOL    HW125082   3.612   3.696   5.504  0.1845  1.0169  3.1362
 4483SOL    HW225083   3.501   3.609   5.554 -1.7184 -0.4949 -0.9997
 4484SOL     OW25084   2.618   3.558   6.085 -0.2052 -0.3646 -0.7167
 4484SOL    HW125085   2.535   3.596   6.113  0.8943  2.3664 -1.2376
 4484SOL    HW225086   2.650   3.631   6.033 -1.2861  0.4772 -0.2023
 4485SOL     OW25087   0.165   1.436   8.719  0.1202  0.6750  0.0191
 4485SOL    HW125088   0.192   1.398   8.635  2.1016  0.4967  0.7296
 4485SOL    HW225089   0.241   1.481   8.758  0.3617  0.0769  0.2424
 4486SOL     OW25090   4.284   4.503  16.858 -0.0095  0.0219  0.2584
 4486SOL    HW125091   4.358   4.517  16.799 -1.0616  0.2726 -1.0033
 4486SOL    HW225092   4.328   4.489  16.942  1.1963  0.7113 -0.2517
 4487SOL     OW25093   0.790   2.978   1.413  0.0464  0.5052 -0.2020
 4487SOL    HW125094   0.708   3.014   1.447  0.4021  0.0394  1.1353
 4487SOL    HW225095   0.849   2.966   1.487  2.6630  1.2839 -2.1692
 4488SOL     OW25096   0.959   4.114   5.909  0.1341 -0.4790  0.1072
 4488SOL    HW125097   0.916   4.030   5.893  1.3188 -0.9715 -0.4888
 4488SOL    HW225098   1.015   4.088   5.982  0.1882 -0.5779  0.0295
 4489SOL     OW25099   0.648   0.225  13.870 -0.0032 -0.1067 -0.0696
 4489SOL    HW125100   0.730   0.176  13.875 -1.8724 -3.2596  0.2611
 4489SOL    HW225101   0.601   0.186  13.796  0.3598 -0.2790 -0.2081
 4490SOL     OW25102   3.800   1.330   9.546  0.6937  0.3634  0.6469
 4490SOL    HW125103   3.817   1.410   9.497 -1.9927  0.3664 -0.2954
 4490SOL    HW225104   3.728   1.364   9.601 -0.9155  0.8319 -1.7636
 4491SOL     OW25105   3.630   3.253   7.041  0.1543 -0.0835  0.0038
 4491SOL    HW125106   3.548   3.204   7.046  1.0277 -1.3812  1.6000
 4491SOL    HW225107   3.680   3.197   6.981  1.8427  2.1769 -0.7185
 4492SOL     OW25108   4.572   2.599  11.435 -0.9234 -0.2404 -0.1278
 4492SOL    HW125109   4.646   2.604  11.375 -0.5378 -0.5207  0.3153
 4492SOL    HW225110   4.513   2.646  11.376  1.5749  3.3289  0.1914
 4493SOL     OW25111   1.661   4.132  16.356  0.1801  0.1023  0.6907
 4493SOL    HW125112   1.687   4.043  16.381  0.9452  0.0742 -0.2066
 4493SOL    HW225113   1.610   4.154  16.433  0.3111  2.6458  0.0489
 4494SOL     OW25114   0.617   4.356  14.534  0.3384 -0.8247  0.2578
 4494SOL    HW125115   0.590   4.270  14.501  0.7706 -0.1848 -1.7199
 4494SOL    HW225116   0.533   4.386  14.569  0.2157 -2.5431  1.4374
 4495SOL     OW25117   4.459   2.241   9.531  0.0976 -0.0870  0.1018
 4495SOL    HW125118   4.506   2.257   9.449 -2.6555  2.6457 -0.9440
 4495SOL    HW225119   4.439   2.327   9.568  1.5172  0.3834 -0.1976
 4496SOL     OW25120   0.707   0.543  15.914 -0.3003  0.3721 -0.0447
 4496SOL    HW125121   0.615   0.567  15.917 -0.4134  0.1055 -1.4433
 4496SOL    HW225122   0.706   0.471  15.978 -1.2193  0.9634  0.5940
 4497SOL     OW25123   0.064   0.277   6.283  0.1130 -0.5814 -0.2875
 4497SOL    HW125124   0.071   0.259   6.189  0.8808 -1.6632 -0.0215
 4497SOL    HW225125   0.154   0.304   6.302  0.2601 -0.9339 -0.4955
 4498SOL     OW25126   0.381   1.915   7.302  0.6243 -0.2202 -0.6746
 4498SOL    HW125127   0.289   1.937   7.287  0.4675  1.2819  2.6182
 4498SOL    HW225128   0.412   1.988   7.356 -1.6172 -0.8588  1.4620
 4499SOL     OW25129   2.403   3.788  16.788  0.8562 -0.4452  0.0527
 4499SOL    HW125130   2.434   3.796  16.698  0.5482  0.4938  0.0295
 4499SOL    HW225131   2.475   3.747  16.836  0.0380  1.2769  2.7722
 4500SOL     OW25132   2.949   2.333   3.658  0.0119  0.1141 -0.2460
 4500SOL    HW125133   2.898   2.384   3.595 -0.4060  1.1167  0.8952
 4500SOL    HW225134   2.955   2.381   3.740  1.4338  0.0391 -0.3125
 4501SOL     OW25135   0.229   1.539  17.549 -0.4279 -0.2563  0.2650
 4501SOL    HW125136   0.222   1.629  17.517  1.6004 -0.3484 -0.4487
 4501SOL    HW225137   0.323   1.521  17.549 -0.3011  0.4442  2.4308
 4502SOL     OW25138   1.792   4.001   3.232 -0.1167 -0.0448 -0.4094
 4502SOL    HW125139   1.764   4.086   3.265  1.3614  0.2074  0.2065
 4502SOL    HW225140   1.823   4.025   3.144 -1.8322 -1.3540 -1.3641
 4503SOL     OW25141   0.363   4.142   0.987 -0.3652  0.3610  0.5809
 4503SOL    HW125142   0.437   4.184   1.031 -0.1206 -0.8777  1.3450
 4503SOL    HW225143   0.299   4.213   0.988  1.0615  1.6555  0.3824
 4504SOL     OW25144   0.596   0.238   1.503 -0.2221 -0.0896 -0.7360
 4504SOL    HW125145   0.642   0.179   1.562 -1.5755 -1.3457 -0.9370
 4504SOL    HW225146   0.665   0.249   1.437 -1.2094 -0.4996 -1.8339
 4505SOL     OW25147   0.130   4.360  16.656 -0.8274  0.0457  0.0066
 4505SOL    HW125148   0.191   4.429  16.627  0.0830  0.1272  2.0737
 4505SOL    HW225149   0.072   4.359  16.581 -0.7460 -2.3517 -0.0116
 4506SOL     OW25150   3.394   1.472   4.250 -0.2202 -0.2965  0.2472
 4506SOL    HW125151   3.457   1.507   4.313  0.5361 -1.8024  0.3271
 4506SOL    HW225152   3.436   1.496   4.167 -0.2445  2.1131  0.9283
 4507SOL     OW25153   4.202   1.430   9.657  0.3287 -0.0584  0.0235
 4507SOL    HW125154   4.194   1.336   9.641  3.7810 -0.8875  3.1790
 4507SOL    HW225155   4.144   1.460   9.587  1.2824  0.9165 -0.3371
 4508SOL     OW25156   2.180   1.615   1.528  0.1233 -0.0423  0.0096
 4508SOL    HW125157   2.267   1.645   1.553  0.0306 -1.5237  2.0788
 4508SOL    HW225158   2.199   1.524   1.507 -0.9570 -0.2048 -0.2523
 4509SOL     OW25159   4.506   3.221   6.658 -0.2643  0.2565 -0.1429
 4509SOL    HW125160   4.453   3.301   6.656 -1.6668 -0.6734 -0.4397
 4509SOL    HW225161   4.490   3.192   6.568 -1.4170  2.4075 -0.6426
 4510SOL     OW25162   4.595   0.777  14.249 -0.4509 -0.1198 -0.5847
 4510SOL    HW125163   4.632   0.690  14.232  1.4585  0.6290 -0.2355
 4510SOL    HW225164   4.617   0.790  14.342  1.6696 -3.2510 -0.6324
 4511SOL     OW25165   0.878   3.823   9.606 -0.1479  0.4977  0.2558
 4511SOL    HW125166   0.928   3.895   9.644 -2.9719  2.1466  0.8312
 4511SOL    HW225167   0.789   3.857   9.614 -0.3044 -0.4164  2.3377
 4512SOL     OW25168   0.660   0.357   2.408  0.1424 -0.4845  0.1055
 4512SOL    HW125169   0.621   0.271   2.420  1.4564 -0.7383  2.5922
 4512SOL    HW225170   0.697   0.354   2.319  0.6069  1.7494  0.2373
 4513SOL     OW25171   1.868   3.532   4.142  0.3247 -0.0090  0.2233
 4513SOL    HW125172   1.867   3.607   4.082 -1.6040 -1.3673 -1.4463
 4513SOL    HW225173   1.951   3.555   4.183  0.1096 -1.1763  1.3206
 4514SOL     OW25174   4.511   3.893   6.005 -0.0589 -0.0438  0.2827
 4514SOL    HW125175   4.585   3.835   5.989 -2.0346 -2.8101  1.2433
 4514SOL    HW225176   4.500   3.899   6.100 -0.3791  0.9627  0.1804
 4515SOL     OW25177   2.378   1.942  16.620 -0.4744 -0.0786 -0.1253
 4515SOL    HW125178   2.401   1.866  16.674 -0.7722  1.1779  1.7617
 4515SOL    HW225179   2.346   1.902  16.539 -0.3491  0.0441 -0.2357
 4516SOL     OW25180   3.365   4.143   2.781  0.5861 -0.7662  0.5772
 4516SOL    HW125181   3.436   4.079   2.786  0.0214 -1.2707  2.1020
 4516SOL    HW225182   3.414   4.224   2.766  0.4731 -0.9060 -0.5240
 4517SOL     OW25183   2.728   4.210  16.160  0.2916 -0.7142  1.2550
 4517SOL    HW125184   2.774   4.273  16.105  0.2380  1.5420  3.7779
 4517SOL    HW225185   2.759   4.125  16.130  0.1418 -0.6335  0.8763
 4518SOL     OW25186   2.468   2.586   4.870 -0.0370  0.1323 -0.4153
 4518SOL    HW125187   2.553   2.592   4.913  0.3588 -3.3300 -0.7105
 4518SOL    HW225188   2.454   2.680   4.863  0.0017  0.0983 -0.9115
 4519SOL     OW25189   3.891   0.602   4.455 -0.6603  0.1425 -0.0173
 4519SOL    HW125190   3.892   0.555   4.538  1.3253 -0.0145 -0.1155
 4519SOL    HW225191   3.811   0.574   4.410  0.7925 -3.1324 -0.5916
 4520SOL     OW25192   4.059   2.762   3.612  0.6213 -0.1831 -0.7497
 4520SOL    HW125193   4.093   2.709   3.683  2.1533  2.3558  0.4130
 4520SOL    HW225194   4.015   2.694   3.561  0.0448 -0.4560  0.1221
 4521SOL     OW25195   4.712   0.603  17.176 -0.1856 -0.2584  0.2278
 4521SOL    HW125196   4.710   0.630  17.084 -1.8011 -0.2206  0.2851
 4521SOL    HW225197   0.054   0.652  17.200  0.5403 -1.1127 -0.4314
 4522SOL     OW25198   3.788   2.051   7.324 -0.2420 -0.0344 -0.1420
 4522SOL    HW125199   3.784   1.976   7.265 -0.5193 -0.2675  0.1748
 4522SOL    HW225200   3.703   2.049   7.367 -1.1376 -1.0534 -1.9547
 4523SOL     OW25201   3.707   2.280   6.914  0.2359 -0.2727 -0.4078
 4523SOL    HW125202   3.670   2.225   6.983  0.6117 -0.9886 -0.7752
 4523SOL    HW225203   3.635   2.338   6.889  1.0385  1.5250  1.5649
 4524SOL     OW25204   3.302   2.537   5.519 -0.0638 -0.7831  1.1292
 4524SOL    HW125205   3.248   2.584   5.583  0.2285 -0.1874  0.9404
 4524SOL    HW225206   3.236   2.470   5.499  0.1557 -0.4031 -0.8379
 4525SOL     OW25207   4.418   3.891   5.358 -0.0783 -0.3049 -0.0040
 4525SOL    HW125208   4.402   3.921   5.447  1.6251  0.6638 -0.0172
 4525SOL    HW225209   4.360   3.815   5.356  1.1710 -1.2423 -0.5237
 4526SOL     OW25210   4.617   0.266   2.435  0.0628  0.3013 -0.4647
 4526SOL    HW125211   4.674   0.343   2.444  0.7867 -0.2998  0.0555
 4526SOL    HW225212   4.618   0.277   2.340 -0.3466 -0.4592 -0.5583
 4527SOL     OW25213   2.020   3.319  16.064  0.2630  0.4867 -0.3430
 4527SOL    HW125214   2.088   3.282  16.009 -1.6610 -0.4229 -2.1415
 4527SOL    HW225215   2.004   3.396  16.009 -2.2048  1.4276  1.6613
 4528SOL     OW25216   1.431   1.787   3.360 -0.5543 -0.3596  0.1621
 4528SOL    HW125217   1.520   1.758   3.384  0.0249  0.9533 -0.4023
 4528SOL    HW225218   1.387   1.703   3.354  2.1538 -1.8202  0.6128
 4529SOL     OW25219   3.288   0.370   7.638  0.4120  0.5081  0.3590
 4529SOL    HW125220   3.300   0.423   7.559 -2.8545 -1.8181 -1.7382
 4529SOL    HW225221   3.354   0.405   7.698  1.5165 -0.3732 -0.3302
 4530SOL     OW25222   2.519   1.657   5.982 -0.4007 -0.2123  0.1267
 4530SOL    HW125223   2.534   1.752   5.989 -0.9690 -0.1223  0.1085
 4530SOL    HW225224   2.523   1.639   5.888  3.6334  0.4929  0.1521
 4531SOL     OW25225   3.278   0.612   5.416 -0.0199 -0.6466 -0.4093
 4531SOL    HW125226   3.369   0.637   5.400 -0.2402  0.0095 -0.6374
 4531SOL    HW225227   3.265   0.631   5.509  0.2842 -0.2035 -0.4560
 4532SOL     OW25228   1.169   1.882   8.766  0.1537  0.1776  0.2272
 4532SOL    HW125229   1.185   1.902   8.858  0.1310  0.7459  0.1076
 4532SOL    HW225230   1.074   1.898   8.771 -0.1270 -1.3328 -0.1892
 4533SOL     OW25231   0.741   3.674   6.746 -0.2169 -0.3652 -0.7312
 4533SOL    HW125232   0.654   3.643   6.773 -0.0286 -0.9974 -0.8422
 4533SOL    HW225233   0.798   3.637   6.812 -1.3852  0.6338  0.8359
 4534SOL     OW25234   1.359   3.540   2.410 -0.1271  0.6533  0.3015
 4534SOL    HW125235   1.355   3.603   2.338 -1.2358  0.2728  0.0263
 4534SOL    HW225236   1.269   3.534   2.441 -0.0230 -0.9727  0.3164
 4535SOL     OW25237   0.245   2.754   7.274 -0.3086  0.1791  0.2058
 4535SOL    HW125238   0.235   2.770   7.180  0.3925  1.3392  0.3321
 4535SOL    HW225239   0.304   2.823   7.303 -0.3218  1.6469 -3.3329
 4536SOL     OW25240   0.226   3.949   7.739 -0.5425 -0.6987  0.3818
 4536SOL    HW125241   0.301   3.999   7.771 -2.1168  1.0707  1.3136
 4536SOL    HW225242   0.164   3.959   7.812  0.4592 -1.1751  1.3019
 4537SOL     OW25243   3.050   3.617  17.064 -0.2162  0.0075 -0.1125
 4537SOL    HW125244   3.096   3.657  16.991 -1.6946 -0.7469 -1.4774
 4537SOL    HW225245   2.975   3.573  17.023  0.2592  0.3965 -1.3843
 4538SOL     OW25246   1.854   1.465  12.469  0.0257  0.5042 -0.2150
 4538SOL    HW125247   1.798   1.477  12.393 -0.5027 -0.8993 -0.0481
 4538SOL    HW225248   1.939   1.452  12.425 -0.9977 -0.8138 -1.7937
 4539SOL     OW25249   1.285   4.511  12.717  0.3828  0.3904 -0.1562
 4539SOL    HW125250   1.332   4.486  12.797  0.6055 -0.5910 -0.5970
 4539SOL    HW225251   1.199   4.490  12.753  0.8129  3.4872  2.6822
 4540SOL     OW25252   0.681   2.219  15.023 -0.0572  0.5305  0.8258
 4540SOL    HW125253   0.691   2.158  14.950  0.2591  1.7651 -0.1512
 4540SOL    HW225254   0.639   2.291  14.977 -1.1381 -1.4225 -1.2411
 4541SOL     OW25255   2.219   2.231  15.257 -0.2150 -0.1060 -0.3887
 4541SOL    HW125256   2.239   2.319  15.289  0.6600 -0.4611  0.0428
 4541SOL    HW225257   2.297   2.223  15.201 -0.0108 -1.0316  0.0268
 4542SOL     OW25258   4.426   2.893  10.504  0.1695  0.3094  0.4009
 4542SOL    HW125259   4.365   2.942  10.560 -1.0631  0.4529 -1.0556
 4542SOL    HW225260   4.384   2.808  10.518  0.9807 -0.5208 -2.3219
 4543SOL     OW25261   0.269   3.514   6.959 -0.3183  0.4348 -0.2762
 4543SOL    HW125262   0.271   3.491   7.051 -0.1412 -0.7758 -0.5914
 4543SOL    HW225263   0.204   3.585   6.964 -0.8396  0.0807 -2.0237
 4544SOL     OW25264   0.120   2.593   1.021  0.0100  0.0435  0.7795
 4544SOL    HW125265   0.196   2.545   1.055  0.7698  0.4241 -0.3992
 4544SOL    HW225266   0.127   2.558   0.932 -0.2755  2.8144 -0.3155
 4545SOL     OW25267   0.800   1.251  12.901 -0.4137 -0.3219 -0.0024
 4545SOL    HW125268   0.716   1.295  12.892  0.2996  0.7575 -1.5592
 4545SOL    HW225269   0.829   1.243  12.810 -0.0407  2.6691 -0.1484
 4546SOL     OW25270   0.016   1.268   3.398 -0.5958  0.3835 -0.4236
 4546SOL    HW125271   0.049   1.187   3.357 -1.5564  0.0047 -0.4562
 4546SOL    HW225272   4.681   1.231   3.449 -0.8180 -2.8007 -3.0396
 4547SOL     OW25273   3.068   4.613   9.146  0.1669 -0.1636 -0.0798
 4547SOL    HW125274   3.116   4.696   9.149  0.0202 -0.0958  0.4538
 4547SOL    HW225275   3.117   4.564   9.080 -1.7812 -0.5515 -1.2306
 4548SOL     OW25276   0.395   3.752   9.298  0.3387  0.2413  0.0604
 4548SOL    HW125277   0.391   3.657   9.286 -0.8353  0.3516 -0.3894
 4548SOL    HW225278   0.317   3.759   9.243  0.4237  0.8393  0.0188
 4549SOL     OW25279   4.340   1.037   5.982  0.0920  1.0559 -0.5135
 4549SOL    HW125280   4.248   1.057   5.966  0.1394  0.2901 -1.7764
 4549SOL    HW225281   4.328   0.946   6.009 -0.1238  1.3798  0.4808
 4550SOL     OW25282   0.943   0.328   3.868  0.0722  0.5732 -0.2409
 4550SOL    HW125283   0.893   0.272   3.926 -1.4777  1.8736 -0.3058
 4550SOL    HW225284   0.880   0.339   3.796  0.1512 -0.2807 -0.4403
 4551SOL     OW25285   0.653   2.412   8.265 -0.1176 -0.4114  0.7166
 4551SOL    HW125286   0.669   2.491   8.213  2.8108 -0.5120  1.4480
 4551SOL    HW225287   0.741   2.379   8.284  0.5231  1.9144  1.7526
 4552SOL     OW25288   3.967   0.266   4.367 -0.3178  0.0292 -0.3149
 4552SOL    HW125289   3.977   0.283   4.273 -1.8533  2.1754 -0.1081
 4552SOL    HW225290   3.943   0.174   4.371  1.7842 -0.6097 -2.4039
 4553SOL     OW25291   3.962   3.506  17.277 -0.9442 -0.0129 -0.1400
 4553SOL    HW125292   3.876   3.470  17.254 -0.6675 -0.0421 -1.1660
 4553SOL    HW225293   4.014   3.431  17.250  0.5371  1.5286 -1.6108
 4554SOL     OW25294   0.327   1.738   5.325 -0.3364  0.0740 -0.5140
 4554SOL    HW125295   0.419   1.717   5.343 -1.3894 -0.6697  3.9774
 4554SOL    HW225296   0.300   1.673   5.260  0.3557  0.8078 -1.5335
 4555SOL     OW25297   1.679   4.067   9.013  0.1411  0.2005  0.5271
 4555SOL    HW125298   1.628   4.132   9.061 -0.8372 -0.6863  0.6794
 4555SOL    HW225299   1.611   4.005   8.987  2.1865 -2.2396  1.0123
 4556SOL     OW25300   2.935   1.105   1.452  0.9228  0.1082  0.3604
 4556SOL    HW125301   2.936   1.074   1.362 -0.1984 -0.9676  0.7288
 4556SOL    HW225302   2.948   1.198   1.431 -2.1645  0.5990  0.6299
 4557SOL     OW25303   2.925   3.792   5.109 -0.1378 -0.0387  0.5790
 4557SOL    HW125304   3.016   3.783   5.081  0.1982 -1.0268  1.9811
 4557SOL    HW225305   2.875   3.822   5.034 -0.0657 -0.8900  0.2002
 4558SOL     OW25306   4.714   3.017   6.031 -0.0610 -0.0762  0.7033
 4558SOL    HW125307   0.016   3.098   6.063  0.2050 -0.3466  1.0714
 4558SOL    HW225308   0.054   2.960   6.033 -1.0004 -1.3051  2.5365
 4559SOL     OW25309   3.881   2.917   9.192 -0.0665  0.4789 -0.0597
 4559SOL    HW125310   3.854   2.837   9.147 -0.0911 -0.9050  2.4172
 4559SOL    HW225311   3.924   2.874   9.266 -1.3140 -0.5574  0.0820
 4560SOL     OW25312   3.443   0.597   4.981  0.4070 -0.4039  0.1110
 4560SOL    HW125313   3.387   0.649   4.924 -0.4421  0.3247  1.6128
 4560SOL    HW225314   3.382   0.553   5.039  0.0977  0.3395  0.3518
 4561SOL     OW25315   0.607   3.322  12.210  0.0622  0.2951 -0.2332
 4561SOL    HW125316   0.671   3.267  12.164  1.9498 -0.0885  2.8537
 4561SOL    HW225317   0.544   3.312  12.138  1.1112 -0.2787 -1.0681
 4562SOL     OW25318   2.399   1.532   8.038 -0.8322 -0.6864  0.2572
 4562SOL    HW125319   2.395   1.467   8.109 -1.4644  2.2646  2.9362
 4562SOL    HW225320   2.314   1.519   7.998 -1.8483  2.4606  1.3733
 4563SOL     OW25321   2.442   2.461   7.952  0.0127 -0.2649 -0.1185
 4563SOL    HW125322   2.352   2.494   7.949 -0.2151 -1.0839 -2.1809
 4563SOL    HW225323   2.471   2.470   8.043  2.7252  0.9971 -1.0980
 4564SOL     OW25324   3.499   4.568   7.575  0.1561 -0.2495  0.1017
 4564SOL    HW125325   3.461   4.600   7.656 -2.9549  2.3354 -2.3419
 4564SOL    HW225326   3.566   4.514   7.616 -0.0192 -2.8134 -2.9179
 4565SOL     OW25327   2.333   1.670  17.436 -0.3090 -0.3670 -0.1465
 4565SOL    HW125328   2.292   1.584  17.449 -0.1729 -0.2307  1.2212
 4565SOL    HW225329   2.346   1.703  17.525 -4.4944 -0.6280  0.5391
 4566SOL     OW25330   4.232   0.149  14.049  0.0736 -0.0362 -0.2702
 4566SOL    HW125331   4.326   0.158  14.032  0.2456 -0.3806  0.4679
 4566SOL    HW225332   4.192   0.224  14.005  0.1639 -0.0480 -0.3713
 4567SOL     OW25333   1.761   0.423  17.647 -0.1894  0.4029 -0.1782
 4567SOL    HW125334   1.755   0.388  17.736 -0.9737  2.4825  0.5856
 4567SOL    HW225335   1.698   0.495  17.650 -0.2859  0.2782  0.8449
 4568SOL     OW25336   4.220   1.117   8.247  0.0648  0.2177 -0.0456
 4568SOL    HW125337   4.247   1.177   8.178  1.6328 -0.7286 -0.2478
 4568SOL    HW225338   4.303   1.084   8.280  1.0124  1.6781 -0.9868
 4569SOL     OW25339   4.033   1.375   4.106  0.5561 -0.2944 -0.0346
 4569SOL    HW125340   4.120   1.338   4.091  0.9044  0.3436  0.4186
 4569SOL    HW225341   3.996   1.331   4.182  0.5684 -1.5711 -0.7797
 4570SOL     OW25342   2.202   2.164   6.202  0.1962 -0.4565  0.1440
 4570SOL    HW125343   2.190   2.219   6.279  1.2308 -4.1150  2.8747
 4570SOL    HW225344   2.237   2.083   6.239 -2.9540 -0.3046  3.3535
 4571SOL     OW25345   4.359   4.339   2.295  0.2150 -0.7138  0.5147
 4571SOL    HW125346   4.322   4.371   2.378 -0.6521 -1.0060  0.2384
 4571SOL    HW225347   4.394   4.422   2.262 -1.4209 -0.2601 -0.1150
 4572SOL     OW25348   1.826   1.666   3.985 -0.0858 -1.0936  0.8612
 4572SOL    HW125349   1.898   1.729   3.993 -0.3445 -0.6671 -0.0933
 4572SOL    HW225350   1.751   1.726   3.975  0.0886 -0.9437  0.3984
 4573SOL     OW25351   3.838   0.310  12.503  0.1234 -0.1301 -0.1796
 4573SOL    HW125352   3.866   0.258  12.578  1.3004  1.0578  0.2111
 4573SOL    HW225353   3.745   0.288  12.500  0.4750 -1.7131  0.7446
 4574SOL     OW25354   2.198   1.011   3.914  0.1244 -0.2541  0.8201
 4574SOL    HW125355   2.200   1.051   3.828  0.6115 -0.0857  0.9081
 4574SOL    HW225356   2.223   1.088   3.965  0.8069 -1.0644  1.7421
 4575SOL     OW25357   0.115   2.294   5.699  0.3564  0.1257 -0.4408
 4575SOL    HW125358   0.028   2.306   5.661  0.6372 -1.0800 -1.4426
 4575SOL    HW225359   0.168   2.284   5.620 -1.6506 -1.2750 -1.6008
 4576SOL     OW25360   0.312   4.714   6.981 -1.0266  0.5940 -0.3376
 4576SOL    HW125361   0.389   0.013   7.025  1.4552 -2.4103 -2.1981
 4576SOL    HW225362   0.236   0.035   6.992 -1.1687  0.3695 -0.1527
 4577SOL     OW25363   1.353   0.328   5.989 -0.0767 -0.0075  0.3567
 4577SOL    HW125364   1.414   0.347   6.060 -0.9587  3.1291  0.2723
 4577SOL    HW225365   1.411   0.294   5.921  0.7150 -0.4582  1.2579
 4578SOL     OW25366   3.900   0.144   7.523 -0.3305  0.3122 -0.1579
 4578SOL    HW125367   3.827   0.173   7.578 -1.4098 -1.5822 -0.5862
 4578SOL    HW225368   3.889   0.049   7.527  0.7908  0.1758 -0.3647
 4579SOL     OW25369   2.115   2.313   5.730 -0.1647 -0.2631  0.1772
 4579SOL    HW125370   2.135   2.220   5.742  1.9938  0.2632  0.5795
 4579SOL    HW225371   2.167   2.341   5.655 -1.0651 -2.5149 -1.3054
 4580SOL     OW25372   2.308   0.125  13.113  0.1870 -0.9203 -0.1022
 4580SOL    HW125373   2.219   0.137  13.080 -0.1492 -0.5735  0.9317
 4580SOL    HW225374   2.293   0.134  13.207 -0.8804 -1.1440 -0.2491
 4581SOL     OW25375   1.126   2.174   7.063  0.5991  0.0935 -0.3345
 4581SOL    HW125376   1.209   2.138   7.030  0.3044 -0.4913 -0.4408
 4581SOL    HW225377   1.110   2.103   7.126 -0.5370 -0.8604 -1.7023
 4582SOL     OW25378   0.632   4.653   3.374  0.0979  0.0478 -0.0309
 4582SOL    HW125379   0.657   4.621   3.460  1.3414 -1.7514 -1.0628
 4582SOL    HW225380   0.564   4.717   3.395  0.0600  0.3797 -1.1538
 4583SOL     OW25381   1.863   2.003  16.117 -0.0991  0.4289  0.4633
 4583SOL    HW125382   1.871   2.095  16.140 -0.4976  0.4550  0.4862
 4583SOL    HW225383   1.781   2.014  16.069 -0.3451 -0.7989  0.5848
 4584SOL     OW25384   4.378   0.730   6.358  0.6250 -0.1143 -0.3909
 4584SOL    HW125385   4.391   0.786   6.435 -1.6833 -0.0929 -0.0160
 4584SOL    HW225386   4.346   0.649   6.398 -1.8944  1.1234  0.0872
 4585SOL     OW25387   1.835   4.219   3.956  0.1694  0.1772  0.2241
 4585SOL    HW125388   1.761   4.176   3.913  0.5895 -1.0689  0.7333
 4585SOL    HW225389   1.883   4.254   3.881 -1.1865  0.8398 -0.3323
 4586SOL     OW25390   0.156   2.377   5.214 -0.3171  0.2388  0.0688
 4586SOL    HW125391   0.074   2.394   5.169  0.0459 -0.2366 -0.7813
 4586SOL    HW225392   0.218   2.413   5.150  1.1705  0.1835  1.4750
 4587SOL     OW25393   2.833   3.038   5.117  0.0446 -0.5267 -0.3809
 4587SOL    HW125394   2.876   3.124   5.118 -2.7110  0.8317 -0.3429
 4587SOL    HW225395   2.911   2.988   5.093  0.0174 -0.3877 -0.7461
 4588SOL     OW25396   3.418   2.307   4.101  0.2792 -0.0500  0.7228
 4588SOL    HW125397   3.339   2.318   4.154 -2.2427  0.9178 -3.2256
 4588SOL    HW225398   3.454   2.228   4.141 -1.5175 -1.1655  0.1405
 4589SOL     OW25399   2.089   3.195  15.146  0.7649  0.0721 -0.5528
 4589SOL    HW125400   2.059   3.152  15.066 -1.0580 -0.9680  0.6716
 4589SOL    HW225401   2.180   3.215  15.124  0.4334  2.0345 -0.1313
 4590SOL     OW25402   0.159   3.701   5.224  0.3476 -0.2800 -0.4771
 4590SOL    HW125403   0.125   3.775   5.275  1.6657 -1.0008  1.4628
 4590SOL    HW225404   0.238   3.736   5.182  1.3020 -1.2984  0.4623
 4591SOL     OW25405   1.903   1.300   8.288 -0.7708  0.1725  0.5860
 4591SOL    HW125406   1.899   1.394   8.270  0.6516 -0.0354 -0.8489
 4591SOL    HW225407   1.822   1.267   8.250  0.6494 -0.5940 -1.7923
 4592SOL     OW25408   3.298   0.736   7.067 -0.1625 -0.3696  0.0330
 4592SOL    HW125409   3.347   0.655   7.052 -1.0252 -0.4956 -2.2075
 4592SOL    HW225410   3.343   0.765   7.146  1.7275  1.1610 -1.6162
 4593SOL     OW25411   1.635   1.482   1.209  0.6404 -0.3705  0.7967
 4593SOL    HW125412   1.643   1.575   1.190  1.7572 -0.1229  2.4651
 4593SOL    HW225413   1.549   1.478   1.251  0.2484 -2.0352 -0.1397
 4594SOL     OW25414   2.241   0.464   3.341  0.2363  0.0562  0.6023
 4594SOL    HW125415   2.248   0.392   3.403 -3.5562  1.2556  2.4545
 4594SOL    HW225416   2.193   0.521   3.402  1.4548  1.4321  0.2688
 4595SOL     OW25417   2.073   4.678   0.673 -0.2083 -0.1329 -0.1117
 4595SOL    HW125418   2.121   4.674   0.590  0.5653 -2.5162  0.4747
 4595SOL    HW225419   1.997   4.625   0.650 -1.9475  2.3604 -0.0985
 4596SOL     OW25420   2.309   3.573   6.040  0.1839 -0.6811  0.8850
 4596SOL    HW125421   2.333   3.520   6.116  2.9624  0.8008  1.0215
 4596SOL    HW225422   2.359   3.524   5.975  2.0266  1.5284  0.6486
 4597SOL     OW25423   4.650   3.755   8.561 -0.4736 -0.0611 -0.0317
 4597SOL    HW125424   4.647   3.673   8.513 -0.3802  0.2906 -0.6380
 4597SOL    HW225425   4.560   3.784   8.551 -0.6099  0.1613  1.7279
 4598SOL     OW25426   3.194   0.198   5.912 -0.4380  0.7229 -0.4153
 4598SOL    HW125427   3.256   0.257   5.870  2.2504 -1.3243  0.7211
 4598SOL    HW225428   3.152   0.166   5.831  1.2599  1.9200 -1.7719
 4599SOL     OW25429   4.386   4.700  15.759 -0.3252  0.4335  0.2984
 4599SOL    HW125430   4.338   4.731  15.836 -3.0061 -1.2318 -0.7169
 4599SOL    HW225431   4.360   0.026  15.692  2.5447  1.5367  0.2644
 4600SOL     OW25432   0.894   3.517   9.155 -0.9492  0.0961  0.2069
 4600SOL    HW125433   0.894   3.507   9.060  1.6989  0.7417  0.1371
 4600SOL    HW225434   0.958   3.587   9.168  1.1787 -2.6998  5.0135
 4601SOL     OW25435   4.073   3.457   4.735 -0.1348  0.4606  0.5405
 4601SOL    HW125436   3.981   3.470   4.760 -0.9772  1.0837 -2.8750
 4601SOL    HW225437   4.099   3.441   4.826  1.0931  0.5291  0.2043
 4602SOL     OW25438   1.137   3.761   5.882  0.1159  0.8940  0.3462
 4602SOL    HW125439   1.122   3.724   5.795 -3.0119  1.9542  0.4498
 4602SOL    HW225440   1.084   3.839   5.870 -2.3096 -0.6190  1.2128
 4603SOL     OW25441   4.464   1.465   4.054 -0.3769 -0.5356 -0.0906
 4603SOL    HW125442   4.484   1.466   3.960 -0.0064  0.5563  0.0007
 4603SOL    HW225443   4.450   1.560   4.059 -1.4939 -0.6158 -1.6137
 4604SOL     OW25444   1.118   0.012   6.193  0.7664 -0.3854  0.1357
 4604SOL    HW125445   1.035   4.725   6.151  0.1222  0.2989  1.0225
 4604SOL    HW225446   1.136   0.084   6.132 -1.6007  1.4365  1.5880
 4605SOL     OW25447   0.451   0.629   2.386  0.0890 -0.0495 -0.2638
 4605SOL    HW125448   0.537   0.640   2.427 -0.5938 -1.8621  1.6147
 4605SOL    HW225449   0.411   0.583   2.459  0.8874  0.0529  0.2465
 4606SOL     OW25450   1.540   1.374  14.275  0.6700 -0.1095 -0.3497
 4606SOL    HW125451   1.451   1.340  14.279  0.4673  0.4522 -0.0232
 4606SOL    HW225452   1.599   1.300  14.264  0.4330 -0.3680  0.1637
 4607SOL     OW25453   1.653   4.543   8.501 -0.1322 -0.3825  0.4040
 4607SOL    HW125454   1.669   4.455   8.467  0.2193 -0.7926  1.6205
 4607SOL    HW225455   1.569   4.567   8.463  0.8167  0.8638 -0.8695
 4608SOL     OW25456   4.662   4.517   9.882 -0.6944  0.2681 -0.3872
 4608SOL    HW125457   4.616   4.492   9.962 -0.0435 -0.6108 -0.2776
 4608SOL    HW225458   4.714   4.441   9.855 -4.6781 -2.8889  0.8624
 4609SOL     OW25459   3.061   3.205  12.102  0.7687 -0.3643  0.6742
 4609SOL    HW125460   3.095   3.156  12.177  2.5513  0.2229  0.2678
 4609SOL    HW225461   3.137   3.247  12.060 -0.1114  0.6444  0.1011
 4610SOL     OW25462   1.828   1.950   8.736 -0.0720  0.2303 -0.8381
 4610SOL    HW125463   1.875   1.997   8.805 -1.5224 -1.9206  1.6005
 4610SOL    HW225464   1.781   2.013   8.680  1.5671  0.8928 -1.4699
 4611SOL     OW25465   4.544   0.147   5.646  0.4252  0.5625 -0.5030
 4611SOL    HW125466   4.591   0.071   5.678  1.7245  0.5775 -2.3355
 4611SOL    HW225467   4.473   0.139   5.710  2.1604  0.0879  1.3460
 4612SOL     OW25468   0.608   3.249   6.514 -0.0570  0.3164 -0.3242
 4612SOL    HW125469   0.607   3.222   6.605 -0.6225  0.1539 -0.3768
 4612SOL    HW225470   0.513   3.262   6.506 -0.3123 -0.7520  1.0887
 4613SOL     OW25471   2.866   0.767   1.141  0.0103 -0.1556 -0.4840
 4613SOL    HW125472   2.831   0.700   1.082 -3.3521  1.3345 -0.2289
 4613SOL    HW225473   2.798   0.748   1.206  1.0226 -1.3861  0.2084
 4614SOL     OW25474   2.237   4.593  17.439  0.2270  0.3118  0.3309
 4614SOL    HW125475   2.271   4.637  17.362  1.1432  0.2160  0.6793
 4614SOL    HW225476   2.311   4.571  17.495 -0.4175 -1.2597  0.5551
 4615SOL     OW25477   4.169   4.042   4.122  0.0264 -1.0036  1.4759
 4615SOL    HW125478   4.199   3.953   4.103 -2.5283 -1.2862 -1.0589
 4615SOL    HW225479   4.083   4.037   4.081  0.3391  0.0621  0.6830
 4616SOL     OW25480   1.289   4.618  15.667  0.5757 -0.5716  0.1026
 4616SOL    HW125481   1.337   4.549  15.714 -0.7266 -0.5309  1.4806
 4616SOL    HW225482   1.362   4.677  15.646  0.0939  0.5099  1.4753
 4617SOL     OW25483   1.634   2.054   5.301  0.2423  0.0896 -0.4586
 4617SOL    HW125484   1.680   2.109   5.365 -1.3564  1.5613 -0.5979
 4617SOL    HW225485   1.563   2.013   5.351 -0.3498  2.9744  1.0474
 4618SOL     OW25486   3.564   3.887   7.394 -0.4853  0.0227  0.5100
 4618SOL    HW125487   3.649   3.873   7.437 -0.1952  0.0909 -0.0433
 4618SOL    HW225488   3.518   3.915   7.473 -0.4603  0.6802  0.2941
 4619SOL     OW25489   1.217   3.556  10.999 -0.1152  0.5757 -0.3828
 4619SOL    HW125490   1.219   3.534  11.092 -0.3548  0.9827 -0.2795
 4619SOL    HW225491   1.309   3.546  10.974  0.2259 -0.4159  1.2825
 4620SOL     OW25492   1.146   4.476   6.543 -0.9170  0.0817 -0.0457
 4620SOL    HW125493   1.067   4.501   6.496 -0.5858  0.1895 -0.5485
 4620SOL    HW225494   1.162   4.558   6.590  0.0653 -0.2318  0.1792
 4621SOL     OW25495   4.516   0.924   2.877 -0.3009 -0.6915 -0.0242
 4621SOL    HW125496   4.458   0.961   2.943  0.2867 -0.1161  0.1678
 4621SOL    HW225497   4.461   0.931   2.799 -1.4709 -0.7186  0.8053
 4622SOL     OW25498   4.293   4.437   8.848  0.0354 -0.1037 -0.5637
 4622SOL    HW125499   4.283   4.499   8.920  2.0563 -0.9284  0.4309
 4622SOL    HW225500   4.383   4.418   8.874  0.2140  1.3721 -0.0978
 4623SOL     OW25501   4.647   0.896   8.836  0.1482  0.4499 -0.3733
 4623SOL    HW125502   4.560   0.933   8.852 -0.0532 -0.4521  0.5859
 4623SOL    HW225503   4.648   0.833   8.908  0.5479  2.7549  1.6446
 4624SOL     OW25504   0.912   1.763   2.136 -0.5164 -0.4015  0.7167
 4624SOL    HW125505   0.963   1.750   2.215  2.2779  1.6446 -0.7450
 4624SOL    HW225506   0.835   1.716   2.167 -0.8467  0.5306  1.3320
 4625SOL     OW25507   0.712   3.127   3.097 -0.0536  0.0494 -0.3687
 4625SOL    HW125508   0.692   3.039   3.065 -2.0720 -0.1096  1.3630
 4625SOL    HW225509   0.662   3.193   3.048  1.2979  0.8237 -0.6973
 4626SOL     OW25510   0.371   3.668   3.980  0.4963  0.6865  0.2986
 4626SOL    HW125511   0.288   3.713   3.969  0.5759  1.0401  1.1787
 4626SOL    HW225512   0.348   3.600   3.917  3.1230 -0.6254  0.7512
 4627SOL     OW25513   2.743   3.662   7.668 -0.2518  0.4760  0.2140
 4627SOL    HW125514   2.815   3.711   7.628  2.2543 -1.7990  1.9334
 4627SOL    HW225515   2.706   3.728   7.726 -0.0261  0.2383  0.6269
 4628SOL     OW25516   1.701   0.219  17.336 -0.0939  0.2739 -0.1313
 4628SOL    HW125517   1.674   0.169  17.259  2.1206  3.1564 -2.7426
 4628SOL    HW225518   1.778   0.267  17.308 -0.7058 -1.4106 -4.7380
 4629SOL     OW25519   1.983   3.240  13.927 -0.1135 -0.2512  0.1815
 4629SOL    HW125520   2.055   3.188  13.962 -0.5495 -0.8412  0.1978
 4629SOL    HW225521   1.983   3.212  13.836  1.6926  1.3387 -0.2984
 4630SOL     OW25522   2.938   1.426   4.201 -0.1765 -0.3880 -0.4106
 4630SOL    HW125523   2.994   1.479   4.258 -1.6460 -0.5765  1.2159
 4630SOL    HW225524   2.861   1.483   4.202 -0.4445 -0.7477 -0.4503
 4631SOL     OW25525   2.531   1.767   8.278 -0.0159  0.4880 -0.2945
 4631SOL    HW125526   2.603   1.726   8.230  0.1661  0.8904 -0.3653
 4631SOL    HW225527   2.574   1.770   8.364  1.5361  1.5112 -1.1106
 4632SOL     OW25528   3.158   3.228   8.569 -0.1197 -0.2379  0.3974
 4632SOL    HW125529   3.093   3.185   8.625  0.6762  0.4489  1.8487
 4632SOL    HW225530   3.200   3.285   8.633 -0.5897 -0.4311  0.8765
 4633SOL     OW25531   2.703   0.975   1.596 -0.0401 -0.5773 -0.3137
 4633SOL    HW125532   2.792   1.002   1.577  0.1458  0.0950  1.5207
 4633SOL    HW225533   2.702   0.881   1.579 -1.7319 -0.5145 -0.6280
 4634SOL     OW25534   3.419   2.343   5.889 -0.4836  0.2457 -0.5288
 4634SOL    HW125535   3.355   2.414   5.875  0.6707  1.2381 -0.7232
 4634SOL    HW225536   3.445   2.324   5.799  1.5076  0.9459 -0.0976
 4635SOL     OW25537   3.560   0.139   5.795  0.1058  0.2384  0.0074
 4635SOL    HW125538   3.560   0.094   5.710  1.1625  2.8651 -1.3995
 4635SOL    HW225539   3.559   0.061   5.850 -2.9925 -1.2036 -2.1056
 4636SOL     OW25540   3.963   1.999   8.488 -0.6660 -0.0123  0.3470
 4636SOL    HW125541   3.946   2.040   8.403  0.3521  0.7233  0.4863
 4636SOL    HW225542   3.970   2.078   8.541 -2.4638  0.8305 -0.6690
 4637SOL     OW25543   4.570   1.983   7.505 -0.1982 -0.2260 -0.2117
 4637SOL    HW125544   4.620   1.930   7.567  2.2108 -0.1260 -2.0917
 4637SOL    HW225545   4.518   2.040   7.562 -1.1596 -0.1812 -1.1186
 4638SOL     OW25546   1.129   3.712   0.389 -0.1365  0.3673  0.1044
 4638SOL    HW125547   1.044   3.729   0.429 -1.1534 -0.0119 -1.8782
 4638SOL    HW225548   1.134   3.785   0.327 -0.5447 -1.3090 -1.9131
 4639SOL     OW25549   4.579   1.824  17.516  0.1965  0.0448  0.3815
 4639SOL    HW125550   4.533   1.742  17.494 -0.8494  1.4324 -2.6741
 4639SOL    HW225551   4.530   1.878  17.453 -0.9624 -1.7148 -0.2415
 4640SOL     OW25552   2.331   2.522  15.072  0.0230 -0.1180  0.2108
 4640SOL    HW125553   2.294   2.531  15.159  0.3306 -0.5775  0.3921
 4640SOL    HW225554   2.346   2.616  15.056 -1.1876  0.0014 -0.1754
 4641SOL     OW25555   1.115   2.088   8.420 -0.4509 -0.1723 -0.6244
 4641SOL    HW125556   1.025   2.056   8.413  0.2961 -1.8707 -2.4812
 4641SOL    HW225557   1.109   2.120   8.510  0.8092  1.3962 -1.1073
 4642SOL     OW25558   0.363   0.158   4.860  0.1383  0.0082 -0.3258
 4642SOL    HW125559   0.367   0.248   4.827  0.8370 -0.9510 -2.8896
 4642SOL    HW225560   0.397   0.107   4.786  2.5064  2.1618 -0.7203
 4643SOL     OW25561   2.091   0.663   7.822  0.1805  0.3119 -0.6861
 4643SOL    HW125562   2.172   0.714   7.811 -0.7707  2.1295  0.7600
 4643SOL    HW225563   2.033   0.738   7.834  1.1049  0.9413 -0.0894
 4644SOL     OW25564   0.796   3.217   5.319  0.0375  0.1264 -0.2713
 4644SOL    HW125565   0.872   3.164   5.297  0.5986  1.2255 -0.9963
 4644SOL    HW225566   0.725   3.153   5.316 -0.4489  0.7071 -1.0566
 4645SOL     OW25567   4.231   0.591   0.672  0.3357 -0.0849  0.6036
 4645SOL    HW125568   4.247   0.682   0.647  1.0835  0.8109  4.3402
 4645SOL    HW225569   4.136   0.592   0.663  0.4510  1.5850 -0.4651
 4646SOL     OW25570   4.394   1.139   0.387  0.7901 -0.4851 -0.2550
 4646SOL    HW125571   4.300   1.128   0.373  0.4334  1.6993  0.4222
 4646SOL    HW225572   4.408   1.097   0.472  0.5523  0.0014  0.0236
 4647SOL     OW25573   1.862   2.951   0.768  0.1616  0.5871 -0.2694
 4647SOL    HW125574   1.794   3.014   0.791 -0.6169  0.1459 -1.3758
 4647SOL    HW225575   1.884   2.934   0.860  0.0471  1.1791 -0.1321
 4648SOL     OW25576   4.686   2.210   5.291  0.1263 -0.2659 -0.1052
 4648SOL    HW125577   0.017   2.276   5.278  0.9939 -1.2120 -0.3878
 4648SOL    HW225578   4.713   2.143   5.228  0.4717 -1.0895  0.9031
 4649SOL     OW25579   1.566   2.915   4.606  0.4729  0.5655  0.0430
 4649SOL    HW125580   1.588   2.926   4.513 -2.0452 -0.2074 -0.6320
 4649SOL    HW225581   1.482   2.871   4.603  0.4720  0.7669 -2.7707
 4650SOL     OW25582   2.656   1.535   5.450 -0.1193  0.1579  0.7576
 4650SOL    HW125583   2.594   1.493   5.390 -0.6475  0.8054  0.8440
 4650SOL    HW225584   2.712   1.462   5.477  0.2021  0.5213  1.0770
 4651SOL     OW25585   2.707   2.928   4.811 -0.2785 -0.5705  0.4098
 4651SOL    HW125586   2.614   2.939   4.791 -0.1369 -2.2135 -1.1787
 4651SOL    HW225587   2.712   2.834   4.824 -0.6394 -0.4183  1.6140
 4652SOL     OW25588   4.307   1.619  11.364 -0.3324  0.5067 -0.1013
 4652SOL    HW125589   4.292   1.692  11.303  0.1905 -0.1797 -1.0575
 4652SOL    HW225590   4.219   1.592  11.388 -0.5084  1.7000  0.5919
 4653SOL     OW25591   0.413   1.182   2.751 -0.0355  0.2079 -0.0386
 4653SOL    HW125592   0.461   1.235   2.687 -3.0622  1.5782 -1.2029
 4653SOL    HW225593   0.465   1.204   2.828  0.2349 -0.0918 -0.1331
 4654SOL     OW25594   2.696   1.540   1.124 -0.1623  0.6747  0.4802
 4654SOL    HW125595   2.758   1.611   1.108  1.2430 -0.8146 -0.7543
 4654SOL    HW225596   2.718   1.480   1.052 -0.8901  4.7844 -3.1679
 4655SOL     OW25597   1.866   2.735  17.673  0.0715  0.2896 -0.2932
 4655SOL    HW125598   1.912   2.813  17.704 -1.7466  0.6999  1.4254
 4655SOL    HW225599   1.844   2.684   0.005  0.5622  1.1870  0.4286
 4656SOL     OW25600   2.111   1.007   1.121  0.5677  0.3819  0.1561
 4656SOL    HW125601   2.130   0.937   1.059 -1.9419  0.5717 -0.8208
 4656SOL    HW225602   2.034   1.049   1.082  1.0047  0.2264 -0.8846
 4657SOL     OW25603   3.561   3.008   4.152  0.3420 -0.4084  0.0740
 4657SOL    HW125604   3.592   2.965   4.072  0.2864 -0.1667 -0.0748
 4657SOL    HW225605   3.485   3.052   4.116 -0.6621 -0.8159  1.7064
 4658SOL     OW25606   0.688   0.615   7.569  0.4338 -0.4432 -0.1747
 4658SOL    HW125607   0.662   0.577   7.654  1.0476 -0.2648  0.0895
 4658SOL    HW225608   0.686   0.708   7.589  1.9257 -0.1175 -1.5956
 4659SOL     OW25609   3.596   3.657  10.546 -0.4232  0.5342 -0.4044
 4659SOL    HW125610   3.644   3.653  10.463  0.8610 -1.2253  0.4308
 4659SOL    HW225611   3.571   3.750  10.545 -1.1560  0.3353 -0.6100
 4660SOL     OW25612   2.310   4.264   4.705  0.8411 -0.5710  0.4216
 4660SOL    HW125613   2.392   4.225   4.675 -0.7390 -2.0231 -2.0188
 4660SOL    HW225614   2.263   4.211   4.641 -1.5178  1.4009  0.5043
 4661SOL     OW25615   0.501   2.702  13.983  0.4568 -0.0020 -0.2446
 4661SOL    HW125616   0.528   2.783  13.941 -0.0238  0.9287  1.2802
 4661SOL    HW225617   0.420   2.678  13.937  1.3478 -1.1008 -1.2318
 4662SOL     OW25618   0.624   4.323   9.357 -0.2963 -0.1228 -0.4272
 4662SOL    HW125619   0.646   4.343   9.265  0.7605 -0.0483 -0.1650
 4662SOL    HW225620   0.707   4.298   9.397 -0.4632  1.4734  0.8891
 4663SOL     OW25621   1.963   4.706   5.016 -0.0737 -0.0157  0.1629
 4663SOL    HW125622   1.906   0.034   5.057 -4.1041 -0.8376 -4.1281
 4663SOL    HW225623   2.032   0.029   4.986 -0.3708  0.7813  1.0898
 4664SOL     OW25624   3.040   1.688   3.383 -0.1611 -0.1125 -0.8051
 4664SOL    HW125625   3.124   1.707   3.341  0.0378  1.0055  0.0777
 4664SOL    HW225626   3.028   1.760   3.446  1.1059  0.6690 -1.4483
 4665SOL     OW25627   2.631   1.520   3.530  0.0289  0.3225 -0.5983
 4665SOL    HW125628   2.595   1.574   3.600  0.4973 -0.5228  0.2878
 4665SOL    HW225629   2.720   1.521   3.564 -0.1401  0.4140 -0.1610
 4666SOL     OW25630   2.239   0.251   5.966  0.7977 -0.0115 -0.2298
 4666SOL    HW125631   2.324   0.294   5.956  1.1004 -0.3112  1.0767
 4666SOL    HW225632   2.263   0.159   5.979 -2.2593 -0.7671  0.2002
 4667SOL     OW25633   0.541   4.119   5.800 -0.2054  0.8057 -0.4101
 4667SOL    HW125634   0.572   4.032   5.825  2.5957  1.5825 -1.1975
 4667SOL    HW225635   0.593   4.133   5.721 -0.7352 -0.8814 -1.0727
 4668SOL     OW25636   1.331   0.736   9.898  0.1392 -0.5588 -0.3444
 4668SOL    HW125637   1.282   0.661   9.863  0.1868 -1.7903  2.2254
 4668SOL    HW225638   1.421   0.704   9.895  0.2930 -0.0816 -0.8667
 4669SOL     OW25639   2.820   1.419   9.021 -0.3718 -0.2087 -0.1425
 4669SOL    HW125640   2.820   1.338   9.073 -0.5179 -0.4963 -0.5880
 4669SOL    HW225641   2.731   1.451   9.030 -1.4855 -3.6848  1.3277
 4670SOL     OW25642   4.736   4.154   8.937 -0.0583  0.6667 -0.1946
 4670SOL    HW125643   0.042   4.111   8.863 -2.5758 -2.3587  0.1091
 4670SOL    HW225644   0.055   4.228   8.959  1.5512 -0.1268 -1.6707
 4671SOL     OW25645   3.078   0.842   5.933  0.4049 -0.1627 -0.4859
 4671SOL    HW125646   3.136   0.780   5.977 -0.4022  0.2776  1.1990
 4671SOL    HW225647   3.123   0.927   5.930 -0.7026  0.3392 -3.1810
 4672SOL     OW25648   4.204   3.525   8.763  0.0405  0.1803 -0.1884
 4672SOL    HW125649   4.237   3.515   8.674 -0.3396  1.5805 -0.4921
 4672SOL    HW225650   4.277   3.480   8.805  0.3807  2.3568  1.5555
 4673SOL     OW25651   3.638   0.946   9.025 -0.1674 -0.3181 -0.1542
 4673SOL    HW125652   3.586   0.993   8.960  0.0604  1.2112  0.7794
 4673SOL    HW225653   3.680   0.885   8.964  0.7240 -0.2965  0.4346
 4674SOL     OW25654   0.305   3.684   1.612  0.6231  0.1655 -0.3879
 4674SOL    HW125655   0.251   3.729   1.547  0.5179 -2.1085 -1.9123
 4674SOL    HW225656   0.347   3.617   1.558  0.3182  0.3402 -0.8469
 4675SOL     OW25657   4.310   0.396   6.740  0.0098  0.3370  0.1438
 4675SOL    HW125658   4.243   0.332   6.713 -2.6663  2.6842  1.1760
 4675SOL    HW225659   4.366   0.331   6.782 -1.6092 -1.0378  0.2291
 4676SOL     OW25660   1.667   3.459   8.483  0.8166 -0.2506  0.4086
 4676SOL    HW125661   1.638   3.527   8.543  0.4095  0.9594 -1.1880
 4676SOL    HW225662   1.677   3.500   8.398  1.1354 -2.5199 -0.6669
 4677SOL     OW25663   3.711   2.206   5.264  0.5449 -1.1623  0.1980
 4677SOL    HW125664   3.625   2.219   5.223  0.6487  0.7105  0.5769
 4677SOL    HW225665   3.757   2.282   5.231 -1.0277  0.3261  1.4247
 4678SOL     OW25666   2.482   2.232   6.486  0.0562 -0.4415  0.3253
 4678SOL    HW125667   2.393   2.266   6.490 -0.0045 -0.5762  0.0785
 4678SOL    HW225668   2.511   2.226   6.578 -2.3638 -1.8366  0.9881
 4679SOL     OW25669   2.776   3.753   8.673 -0.3936 -0.4553  0.0830
 4679SOL    HW125670   2.797   3.806   8.596  1.3623 -1.8122 -0.3866
 4679SOL    HW225671   2.763   3.823   8.737 -3.2390 -0.9270  0.0085
 4680SOL     OW25672   3.750   3.003  11.211  0.4139  0.2338  0.2103
 4680SOL    HW125673   3.730   2.918  11.250  0.7293 -0.1918 -0.5675
 4680SOL    HW225674   3.731   2.982  11.120 -0.5867  1.1615  0.2046
 4681SOL     OW25675   1.696   1.043   6.005 -0.3987  0.1586 -0.5444
 4681SOL    HW125676   1.626   1.054   5.941 -2.4842 -0.6010  1.6032
 4681SOL    HW225677   1.667   1.088   6.085  0.1331  1.0209 -0.8382
 4682SOL     OW25678   2.389   2.022  10.639  0.6766  0.1866  0.2714
 4682SOL    HW125679   2.408   1.930  10.656  2.2938  0.4350 -0.2702
 4682SOL    HW225680   2.296   2.020  10.662  0.7398 -0.7427  0.4486
 4683SOL     OW25681   4.668   0.414   6.986  0.0985  0.0059  0.5986
 4683SOL    HW125682   4.732   0.437   6.919  1.1119  0.3297  1.6691
 4683SOL    HW225683   4.678   0.485   7.050  1.1560  2.5709 -2.4400
 4684SOL     OW25684   3.162   4.359   2.670 -0.2180  0.1673  0.3658
 4684SOL    HW125685   3.140   4.410   2.592  1.7441  0.6421  0.1073
 4684SOL    HW225686   3.196   4.423   2.732 -1.6987  1.3556 -0.0577
 4685SOL     OW25687   2.133   2.886   8.163  0.0465 -0.5010 -0.4901
 4685SOL    HW125688   2.180   2.803   8.176  0.2557 -0.1408  1.0192
 4685SOL    HW225689   2.048   2.844   8.166 -0.0502 -0.0813  2.3991
 4686SOL     OW25690   2.397   1.052   2.804  0.1397 -0.1055 -0.2764
 4686SOL    HW125691   2.396   0.958   2.826 -0.4097 -0.0789 -0.1937
 4686SOL    HW225692   2.473   1.073   2.859  0.2184 -1.4179  0.1190
 4687SOL     OW25693   3.467   4.238   1.674 -0.1512  0.3204  0.5953
 4687SOL    HW125694   3.406   4.239   1.748 -0.1349  2.7973  0.6026
 4687SOL    HW225695   3.558   4.233   1.702  0.4593 -1.7385 -1.8046
 4688SOL     OW25696   1.778   0.223   1.909  0.0989  0.5917  0.3811
 4688SOL    HW125697   1.825   0.182   1.837  1.6947  0.1129  1.7057
 4688SOL    HW225698   1.799   0.315   1.893  0.5682  0.2999 -0.6573
 4689SOL     OW25699   1.683   1.147   8.166  0.1580 -0.2604  0.2611
 4689SOL    HW125700   1.638   1.093   8.101 -1.6342  0.0624  1.2413
 4689SOL    HW225701   1.611   1.206   8.189  1.3161  1.6532 -1.0000
 4690SOL     OW25702   0.326   4.315   4.707  0.1855 -0.1607 -0.2079
 4690SOL    HW125703   0.308   4.388   4.765 -1.0134 -1.5470  1.1479
 4690SOL    HW225704   0.419   4.331   4.690  0.2808  0.2721  0.7466
 4691SOL     OW25705   2.395   2.915   8.025 -0.0255  0.6051 -0.2832
 4691SOL    HW125706   2.310   2.879   8.053  0.4668 -0.2611  0.0923
 4691SOL    HW225707   2.373   2.943   7.936  1.1924  0.2798 -0.6819
 4692SOL     OW25708   1.173   4.718   6.700 -0.6629 -0.8084  0.3124
 4692SOL    HW125709   1.163   0.075   6.709 -1.3682 -0.9201  0.6685
 4692SOL    HW225710   1.265   4.721   6.673 -0.9588  0.1604 -0.5436
 4693SOL     OW25711   0.731   4.262   0.488 -0.3357  0.4273 -0.1974
 4693SOL    HW125712   0.649   4.220   0.461  0.3049 -0.7904 -0.2729
 4693SOL    HW225713   0.708   4.348   0.523 -2.4985  0.5648 -1.9783
 4694SOL     OW25714   0.208   1.176   7.960  0.3410  0.8365 -0.4209
 4694SOL    HW125715   0.187   1.255   8.009 -1.0101  0.4266 -0.3338
 4694SOL    HW225716   0.280   1.205   7.904 -0.6575  1.8408 -1.1753
 4695SOL     OW25717   2.976   3.902   6.313 -0.5747  0.1562  0.0354
 4695SOL    HW125718   2.892   3.892   6.358  0.2169  0.4913  1.5676
 4695SOL    HW225719   3.018   3.971   6.365 -0.2814 -0.5085  0.6812
 4696SOL     OW25720   0.959   3.437   3.691  0.1101  0.2962 -0.2691
 4696SOL    HW125721   1.048   3.419   3.662  0.5742  2.2557 -0.1108
 4696SOL    HW225722   0.917   3.474   3.613  0.1893  2.0308  0.5027
 4697SOL     OW25723   0.664   0.847  11.296 -0.2722 -0.1666  0.2030
 4697SOL    HW125724   0.709   0.915  11.346 -0.7783  3.0281 -3.6872
 4697SOL    HW225725   0.624   0.906  11.233  2.0060  0.5091 -0.6375
 4698SOL     OW25726   4.629   4.438  10.605  0.1837 -1.2478 -0.5187
 4698SOL    HW125727   4.679   4.446  10.524  2.2158 -0.9620  0.7649
 4698SOL    HW225728   4.615   4.528  10.635  0.7791 -1.3089 -0.0526
 4699SOL     OW25729   1.212   3.355   4.419  0.5717  0.6390  0.3392
 4699SOL    HW125730   1.148   3.342   4.348  0.4122  1.6012  0.3057
 4699SOL    HW225731   1.206   3.273   4.468 -1.2890 -0.5459 -1.8511
 4700SOL     OW25732   1.432   4.530   3.457  0.2761  0.4641 -0.5141
 4700SOL    HW125733   1.497   4.595   3.431  1.9279  0.2521  3.0041
 4700SOL    HW225734   1.428   4.545   3.551  1.2125 -0.9880 -0.2391
 4701SOL     OW25735   0.919   0.599   9.901 -0.1688  0.0884  0.2521
 4701SOL    HW125736   0.979   0.556   9.840 -0.3490  0.4764 -0.1970
 4701SOL    HW225737   0.949   0.689   9.891 -0.4331  0.0062 -1.2263
 4702SOL     OW25738   0.709   2.965  11.375  0.5444 -0.4754  0.3200
 4702SOL    HW125739   0.800   2.947  11.350 -0.2465 -1.0805 -2.0616
 4702SOL    HW225740   0.691   2.877  11.410 -2.2712 -0.2669 -0.5963
 4703SOL     OW25741   0.814   3.252   5.663 -0.2277 -0.5515 -0.6035
 4703SOL    HW125742   0.777   3.247   5.751 -0.7149  2.6945 -0.6335
 4703SOL    HW225743   0.820   3.160   5.638  0.7320 -0.2863 -1.3520
 4704SOL     OW25744   4.705   2.074   9.610  0.2224  0.7080  0.0717
 4704SOL    HW125745   0.002   2.129   9.539  3.3009  0.4763  1.3805
 4704SOL    HW225746   4.700   1.993   9.560 -1.6959  1.5654 -1.1279
 4705SOL     OW25747   3.287   0.025   9.288  0.6014 -0.3520 -0.2652
 4705SOL    HW125748   3.268   0.026   9.382  1.0287 -1.0279 -0.1658
 4705SOL    HW225749   3.349   0.097   9.290 -1.8078  1.6743  0.5105
 4706SOL     OW25750   0.051   0.728   2.389  0.0638 -0.2754  0.0289
 4706SOL    HW125751   0.086   0.774   2.313  0.1964 -0.5530 -0.0778
 4706SOL    HW225752   4.720   0.682   2.340  0.2551 -1.0141  0.4653
 4707SOL     OW25753   0.987   3.249   9.248  0.0886 -0.0364 -0.2616
 4707SOL    HW125754   0.972   3.317   9.182 -0.7889 -0.9932 -1.0502
 4707SOL    HW225755   0.967   3.164   9.209  0.8088 -1.2024  1.9149
 4708SOL     OW25756   2.361   3.649  15.907  0.3512  0.0131 -0.2831
 4708SOL    HW125757   2.431   3.632  15.969  2.0825  1.2832 -1.8956
 4708SOL    HW225758   2.400   3.680  15.825 -0.0023 -1.4901 -1.0098
 4709SOL     OW25759   1.272   4.292   9.858 -0.1083 -0.1566  0.1021
 4709SOL    HW125760   1.209   4.268   9.926 -0.4288 -3.3619 -1.3104
 4709SOL    HW225761   1.228   4.369   9.822 -1.2911 -1.1796 -0.6785
 4710SOL     OW25762   1.547   2.444  12.071  0.3528 -0.3905  0.0375
 4710SOL    HW125763   1.630   2.421  12.113  0.0188 -0.9243  0.4000
 4710SOL    HW225764   1.505   2.490  12.144  0.4355 -1.6024  0.8532
 4711SOL     OW25765   0.128   2.641  14.820  0.0206 -0.0292 -0.3126
 4711SOL    HW125766   0.109   2.590  14.898 -0.0191  1.0081  0.3568
 4711SOL    HW225767   0.222   2.623  14.826  0.0294 -0.2742 -1.1060
 4712SOL     OW25768   3.155   2.081   5.598 -0.2427 -0.4157 -1.0252
 4712SOL    HW125769   3.105   2.028   5.536 -0.1587 -0.7295 -0.8216
 4712SOL    HW225770   3.240   2.099   5.558 -0.2098 -1.3451 -1.3616
 4713SOL     OW25771   4.268   4.615   3.317  0.6252 -0.0266  0.1419
 4713SOL    HW125772   4.208   4.599   3.245  0.7310 -2.0565  0.5273
 4713SOL    HW225773   4.342   4.652   3.267  1.5459 -0.1116  1.4442
 4714SOL     OW25774   3.552   0.067   3.058 -0.0177 -0.4693  0.2351
 4714SOL    HW125775   3.562   0.050   2.964 -0.9493 -2.3898  0.4792
 4714SOL    HW225776   3.526   4.717   3.089  0.3926 -0.9012 -0.6095
 4715SOL     OW25777   0.538   0.369  14.304 -0.0572  0.6091 -0.1430
 4715SOL    HW125778   0.488   0.314  14.244  0.1831  2.1379 -1.7275
 4715SOL    HW225779   0.561   0.442  14.247 -0.4671  0.0307 -1.0609
 4716SOL     OW25780   2.625   0.651  11.475 -0.1121 -0.0495  0.2188
 4716SOL    HW125781   2.708   0.604  11.464 -0.2282 -0.8460  2.7093
 4716SOL    HW225782   2.644   0.740  11.448  1.2600  0.3796  2.6093
 4717SOL     OW25783   2.166   3.764  16.213  0.0388 -0.1699  0.0883
 4717SOL    HW125784   2.163   3.782  16.307 -0.6632 -0.0625  0.0442
 4717SOL    HW225785   2.186   3.672  16.200  0.0088 -0.0866 -0.5669
 4718SOL     OW25786   3.320   2.226   6.370 -0.0963 -0.0216  0.1217
 4718SOL    HW125787   3.373   2.246   6.293 -1.8574  2.8229 -0.3709
 4718SOL    HW225788   3.338   2.293   6.436  0.2905 -0.8381  0.8386
 4719SOL     OW25789   4.286   2.313  15.227 -0.0220  0.2029  0.0424
 4719SOL    HW125790   4.379   2.292  15.234  0.2440  1.1120 -0.7417
 4719SOL    HW225791   4.282   2.404  15.258 -0.6642  0.6534 -1.3506
 4720SOL     OW25792   1.983   0.882   3.571 -0.1615  0.0710  0.1074
 4720SOL    HW125793   1.894   0.917   3.576 -0.9588 -2.0229  0.5512
 4720SOL    HW225794   2.011   0.962   3.528  0.6980 -0.1578  0.2542
 4721SOL     OW25795   2.295   0.495   3.090  0.4712 -0.2612 -0.0608
 4721SOL    HW125796   2.267   0.406   3.067  1.2152 -0.4218 -0.3464
 4721SOL    HW225797   2.261   0.492   3.179 -0.6694  0.3219 -0.4635
 4722SOL     OW25798   4.058   0.854   4.851  0.9553  0.5105 -0.4335
 4722SOL    HW125799   3.964   0.862   4.868  1.3036 -0.1694  1.8274
 4722SOL    HW225800   4.087   0.834   4.940 -0.4528 -1.4921 -0.4237
 4723SOL     OW25801   0.535   3.537   3.583 -0.2271 -0.0163  0.1355
 4723SOL    HW125802   0.552   3.446   3.559  0.1726  0.7616 -2.6160
 4723SOL    HW225803   0.560   3.589   3.506  4.8097 -1.9459  0.4170
 4724SOL     OW25804   3.626   0.446   2.808 -0.5252 -0.2164  0.3427
 4724SOL    HW125805   3.600   0.533   2.778 -1.1074 -0.4819  0.0740
 4724SOL    HW225806   3.627   0.464   2.902 -0.3200  1.4691  0.0303
 4725SOL     OW25807   2.937   1.023   2.362 -0.1117  0.1689 -0.6521
 4725SOL    HW125808   3.000   0.951   2.352  2.9574  2.9328 -1.4144
 4725SOL    HW225809   2.862   0.990   2.312  0.0421  0.2157 -0.9142
 4726SOL     OW25810   3.381   2.842   5.367  0.3647  0.1690 -0.1066
 4726SOL    HW125811   3.444   2.790   5.416 -1.3161 -1.6311  0.1574
 4726SOL    HW225812   3.346   2.885   5.446  2.8831 -0.6242  1.4294
 4727SOL     OW25813   3.737   1.641   9.111  0.1636  0.7040 -0.2013
 4727SOL    HW125814   3.728   1.603   9.024  2.1730  1.2163 -0.6234
 4727SOL    HW225815   3.676   1.714   9.095 -0.2214  0.5581  0.6053
 4728SOL     OW25816   2.285   2.765   1.702  0.1547  0.5776 -0.0481
 4728SOL    HW125817   2.310   2.688   1.752  0.5660  0.7263 -0.0277
 4728SOL    HW225818   2.330   2.829   1.756  1.2037 -0.3318  0.1549
 4729SOL     OW25819   1.329   3.200   7.750 -0.8256 -0.0986  0.5824
 4729SOL    HW125820   1.394   3.264   7.778 -0.7531  1.0432 -2.1741
 4729SOL    HW225821   1.380   3.119   7.744 -2.0097 -0.8636  0.8338
 4730SOL     OW25822   3.102   1.962   5.091  0.5618 -0.6134  0.0831
 4730SOL    HW125823   3.071   1.905   5.020 -0.2424  0.3868 -0.3753
 4730SOL    HW225824   3.189   1.979   5.055  0.3155 -1.4178 -0.8844
 4731SOL     OW25825   0.023   2.098   4.939 -0.2209 -0.0148  0.4445
 4731SOL    HW125826   4.673   2.098   4.898 -0.0152  3.4889 -0.0507
 4731SOL    HW225827   0.068   2.150   4.872 -2.4986  0.9321 -0.3575
 4732SOL     OW25828   1.853   3.769   8.073 -0.2365  0.2058  0.0705
 4732SOL    HW125829   1.929   3.826   8.084 -0.4890  0.9833 -2.2958
 4732SOL    HW225830   1.790   3.837   8.051  1.7272  1.7859 -0.6253
 4733SOL     OW25831   1.898   3.422   7.191 -0.6186  0.6586  0.2292
 4733SOL    HW125832   1.962   3.471   7.140 -1.6549  0.1672 -1.5596
 4733SOL    HW225833   1.822   3.449   7.140 -0.3744 -0.3008 -0.6603
 4734SOL     OW25834   4.419   3.982   2.947  0.3039  0.0300  0.0936
 4734SOL    HW125835   4.418   4.006   2.854  0.4786 -2.7938 -0.6462
 4734SOL    HW225836   4.438   4.071   2.977  0.0010  0.2101 -0.2507
 4735SOL     OW25837   4.240   3.255   3.527  0.0661  0.3636 -0.3501
 4735SOL    HW125838   4.326   3.272   3.565  0.4865 -1.9583 -0.2305
 4735SOL    HW225839   4.261   3.183   3.467  1.7792  2.6475 -2.5069
 4736SOL     OW25840   1.180   0.551   9.746 -0.1181 -0.2179 -0.1993
 4736SOL    HW125841   1.218   0.465   9.729  2.9417  0.0480  5.3670
 4736SOL    HW225842   1.195   0.593   9.662 -0.2576  1.2958  0.5256
 4737SOL     OW25843   2.508   0.344  13.633  0.0413  0.3612 -0.5102
 4737SOL    HW125844   2.558   0.398  13.694 -0.9048  0.9095 -0.2163
 4737SOL    HW225845   2.450   0.417  13.612 -0.5094 -0.1249 -0.6801
 4738SOL     OW25846   1.619   2.500  12.450 -0.1762 -0.3968  0.6626
 4738SOL    HW125847   1.557   2.572  12.435 -2.2427 -2.3353 -0.1369
 4738SOL    HW225848   1.701   2.541  12.425 -1.4555  1.7118 -0.1421
 4739SOL     OW25849   3.170   4.513   8.658 -0.3605 -0.6840  0.1673
 4739SOL    HW125850   3.120   4.452   8.603 -1.7959 -0.5225  1.3067
 4739SOL    HW225851   3.254   4.514   8.611 -0.1135 -0.2684  0.6146
 4740SOL     OW25852   2.804   1.147   9.154 -0.2716  0.1493 -0.1167
 4740SOL    HW125853   2.742   1.074   9.156  1.2222 -1.0568  1.9511
 4740SOL    HW225854   2.828   1.162   9.245  2.4422  0.1764 -0.8275
 4741SOL     OW25855   3.969   0.165   8.992  0.6796  0.5427  0.3511
 4741SOL    HW125856   3.893   0.146   9.047  1.6887 -0.2513  1.4689
 4741SOL    HW225857   3.996   0.073   8.985  0.6316  0.5801 -0.3452
 4742SOL     OW25858   2.641   0.246   3.326 -0.0552  0.1309 -0.5561
 4742SOL    HW125859   2.626   0.234   3.420  2.4261 -2.7222 -0.5349
 4742SOL    HW225860   2.582   0.321   3.312 -0.3137  0.0725  0.2394
 4743SOL     OW25861   2.965   3.053  16.813 -0.1799  0.0657  0.1414
 4743SOL    HW125862   3.010   3.110  16.876 -0.6781  2.5064 -1.7385
 4743SOL    HW225863   2.964   2.968  16.857 -1.3269  0.7470  1.4333
 4744SOL     OW25864   0.152   4.436   4.242 -0.4933  0.4577  0.0858
 4744SOL    HW125865   0.170   4.388   4.323 -0.7635 -3.4058 -2.1393
 4744SOL    HW225866   0.206   4.389   4.179  0.4723 -1.1106  2.0977
 4745SOL     OW25867   1.808   0.429   6.250  0.2342 -0.2256 -0.4972
 4745SOL    HW125868   1.843   0.453   6.335  0.1138  1.8132 -1.0405
 4745SOL    HW225869   1.884   0.402   6.197  0.5678 -0.4813  0.1118
 4746SOL     OW25870   1.943   0.182   0.648  0.3357 -0.5356 -0.1234
 4746SOL    HW125871   2.024   0.226   0.624  0.7887 -1.0246  0.4991
 4746SOL    HW225872   1.977   0.094   0.634 -0.8940 -0.9386 -0.6042
 4747SOL     OW25873   3.133   2.078   3.012 -0.1255 -0.1050  0.1321
 4747SOL    HW125874   3.161   2.111   2.927  0.3626  2.4119  1.2867
 4747SOL    HW225875   3.070   2.012   2.982 -2.7011  2.4268 -0.0629
 4748SOL     OW25876   2.250   0.186  17.293  0.5921 -0.2352  0.9675
 4748SOL    HW125877   2.335   0.215  17.261  0.9586 -1.0496  1.1964
 4748SOL    HW225878   2.245   0.095  17.264 -1.3779 -0.7505  2.9032
 4749SOL     OW25879   4.212   3.852   9.594 -0.0755  0.0825 -0.0335
 4749SOL    HW125880   4.132   3.905   9.595 -0.2176 -0.1819  1.6682
 4749SOL    HW225881   4.175   3.767   9.617 -0.4679  0.7748  1.8532
 4750SOL     OW25882   3.243   2.926   0.129  0.5078 -0.0033 -0.0181
 4750SOL    HW125883   3.185   3.001   0.139  1.5103  1.1414 -2.4508
 4750SOL    HW225884   3.327   2.961   0.158  0.7351 -1.4352  1.0302
 4751SOL     OW25885   4.295   2.879   3.518 -0.2513 -0.0358  0.2946
 4751SOL    HW125886   4.219   2.832   3.550  0.9861 -0.3800  2.7594
 4751SOL    HW225887   4.367   2.822   3.545  0.8493  1.0288 -0.3993
 4752SOL     OW25888   2.568   2.654   5.902  0.0809 -0.6069 -0.3692
 4752SOL    HW125889   2.643   2.594   5.905  0.1190 -0.4024  2.4789
 4752SOL    HW225890   2.518   2.606   5.836  0.7303 -1.1259 -0.4926
 4753SOL     OW25891   1.645   0.715  11.838  0.1419 -0.3700 -0.0325
 4753SOL    HW125892   1.698   0.702  11.916 -1.0733  1.2424  1.0583
 4753SOL    HW225893   1.716   0.741  11.780  0.3460  1.8191  1.2094
 4754SOL     OW25894   1.234   1.790   7.913  0.5845  0.0548 -0.1505
 4754SOL    HW125895   1.193   1.864   7.959  3.0641  1.8445 -0.8123
 4754SOL    HW225896   1.315   1.832   7.883  0.0312 -0.0561 -1.7782
 4755SOL     OW25897   1.990   3.777   2.276 -0.9017  0.3736  0.1703
 4755SOL    HW125898   2.066   3.789   2.333 -0.4238  1.6111 -0.7296
 4755SOL    HW225899   2.025   3.714   2.213  1.0057  0.7314  0.8643
 4756SOL     OW25900   3.917   2.283  17.486 -0.4943 -0.3309  0.1050
 4756SOL    HW125901   3.826   2.255  17.478 -0.6919  1.0162 -2.3768
 4756SOL    HW225902   3.922   2.377  17.466 -3.5342  0.3939  2.7528
 4757SOL     OW25903   4.316   3.078   3.310 -0.0617  0.0570 -0.3755
 4757SOL    HW125904   4.386   3.038   3.257 -0.8632 -2.6554  0.6196
 4757SOL    HW225905   4.325   3.023   3.388 -1.8569 -1.6510 -1.3838
 4758SOL     OW25906   0.560   0.848   2.726 -0.2626  0.1928 -0.4074
 4758SOL    HW125907   0.556   0.806   2.812 -1.0189  1.3550  0.1316
 4758SOL    HW225908   0.481   0.901   2.736 -1.4785 -1.8347  0.7066
 4759SOL     OW25909   1.014   1.875   0.213  0.2676 -0.2860  0.2548
 4759SOL    HW125910   0.932   1.882   0.164  0.5861  0.3133 -0.2009
 4759SOL    HW225911   0.999   1.946   0.274 -2.4832 -0.5716 -0.0839
 4760SOL     OW25912   2.292   3.454   6.571 -0.4252  0.2151  0.2904
 4760SOL    HW125913   2.236   3.411   6.637  0.1855 -1.3111 -0.1806
 4760SOL    HW225914   2.361   3.487   6.629  0.7270  1.6080 -1.9148
 4761SOL     OW25915   2.000   2.209  17.233 -0.3328 -0.6195 -0.5329
 4761SOL    HW125916   1.912   2.229  17.264 -0.3402 -3.1306  0.9969
 4761SOL    HW225917   1.985   2.147  17.162  1.8811 -1.9015  0.1284
 4762SOL     OW25918   3.152   0.032   7.038 -0.3853  0.2141 -0.1639
 4762SOL    HW125919   3.245   0.051   7.049 -0.8014  2.0773  0.1076
 4762SOL    HW225920   3.106   0.116   7.029 -0.8204 -0.0848 -0.7110
 4763SOL     OW25921   0.084   1.154  12.871 -0.1377  0.2092 -0.1924
 4763SOL    HW125922   0.138   1.081  12.840 -0.7092 -0.4795  0.4328
 4763SOL    HW225923   0.090   1.150  12.967  0.0965 -2.0888 -0.2983
 4764SOL     OW25924   0.485   0.492   3.853 -0.2713 -0.3586 -0.4268
 4764SOL    HW125925   0.514   0.406   3.881 -0.9664  0.1333  1.8236
 4764SOL    HW225926   0.398   0.488   3.891 -0.0252 -2.3602 -0.1139
 4765SOL     OW25927   2.394   3.419   2.661  0.0300 -0.3077 -0.7822
 4765SOL    HW125928   2.396   3.400   2.567 -0.0392 -0.2720 -0.7910
 4765SOL    HW225929   2.470   3.371   2.693  1.0765  2.3297  0.6939
 4766SOL     OW25930   2.905   4.210  10.298  0.0626 -0.2185  0.0939
 4766SOL    HW125931   2.992   4.175  10.278 -0.1967 -1.2622  0.8369
 4766SOL    HW225932   2.852   4.167  10.232  0.1690  1.5380 -1.1409
 4767SOL     OW25933   4.371   0.436   4.567  0.9029 -0.0533  0.7082
 4767SOL    HW125934   4.419   0.358   4.596  3.2074  1.2072  0.3361
 4767SOL    HW225935   4.282   0.403   4.581  1.1526 -0.7721  0.5907
 4768SOL     OW25936   0.531   4.522  14.178  0.5351  0.2011 -0.4297
 4768SOL    HW125937   0.618   4.508  14.215  0.3833 -0.6121 -0.3645
 4768SOL    HW225938   0.474   4.498  14.251  1.6032  1.5889  0.8526
 4769SOL     OW25939   3.809   2.553   1.042  0.0203  0.1187  0.0192
 4769SOL    HW125940   3.720   2.523   1.058  0.3372 -1.1487 -0.6402
 4769SOL    HW225941   3.808   2.633   1.095 -0.8066  0.6158 -0.7414
 4770SOL     OW25942   4.268   0.100  13.686  0.0947 -0.0874 -0.7431
 4770SOL    HW125943   4.222   0.144  13.757  1.5953  0.0563  0.1344
 4770SOL    HW225944   4.255   0.007  13.703 -2.2355  0.5723  1.1254
 4771SOL     OW25945   1.642   3.194  13.899 -0.7413  0.3373 -0.7564
 4771SOL    HW125946   1.670   3.264  13.839  1.4046 -0.5454 -0.7763
 4771SOL    HW225947   1.592   3.144  13.834 -1.0555 -0.9102  0.4595
 4772SOL     OW25948   1.866   3.072   5.304 -0.4527 -0.3398  0.4266
 4772SOL    HW125949   1.780   3.107   5.329 -0.1601  1.0481 -0.5664
 4772SOL    HW225950   1.846   3.027   5.222  0.9411 -1.3714  0.6524
 4773SOL     OW25951   0.289   3.470   6.228  0.4256 -0.1854  0.1427
 4773SOL    HW125952   0.286   3.531   6.302  0.4511 -2.3370  1.9316
 4773SOL    HW225953   0.375   3.429   6.236  0.6297  0.0715 -0.7429
 4774SOL     OW25954   2.477   2.192   6.765  0.3018 -0.5749  0.0205
 4774SOL    HW125955   2.390   2.156   6.779 -0.4998  0.7157 -1.6812
 4774SOL    HW225956   2.504   2.222   6.852  2.2564 -0.7111 -0.5289
 4775SOL     OW25957   0.006   4.492  11.798 -0.7383 -0.0275  0.5799
 4775SOL    HW125958   0.064   4.555  11.841 -0.5412  0.5228 -0.4798
 4775SOL    HW225959   0.016   4.514  11.705  1.7509 -0.0328  0.8352
 4776SOL     OW25960   1.941   3.473   1.010  0.5696 -0.8673 -0.4709
 4776SOL    HW125961   1.939   3.494   1.103 -0.5109 -4.0050  0.1982
 4776SOL    HW225962   2.025   3.427   1.001  0.8467 -0.4285 -0.1459
 4777SOL     OW25963   4.502   2.277  13.218  0.0790 -0.0547  0.3834
 4777SOL    HW125964   4.519   2.252  13.127  1.7418  0.3745  0.5719
 4777SOL    HW225965   4.412   2.249  13.234 -0.3586  1.5098  0.5920
 4778SOL     OW25966   0.495   3.400   4.252  0.3699 -0.1822  0.0286
 4778SOL    HW125967   0.469   3.345   4.325  1.8440  0.7018  1.2214
 4778SOL    HW225968   0.410   3.439   4.232 -0.3667 -1.5084  0.5770
 4779SOL     OW25969   3.841   0.846   6.538 -0.3617  0.0122  0.6959
 4779SOL    HW125970   3.793   0.929   6.535  1.4497  1.0221 -0.6572
 4779SOL    HW225971   3.776   0.780   6.516 -0.4965  0.7312 -1.0570
 4780SOL     OW25972   3.571   3.160   9.373 -0.3799  0.3017  0.3819
 4780SOL    HW125973   3.482   3.197   9.372 -0.9344 -0.9673  1.8272
 4780SOL    HW225974   3.567   3.108   9.292 -0.5596 -0.0104  0.5899
 4781SOL     OW25975   4.277   3.278   9.539  0.2094  0.1098 -0.2982
 4781SOL    HW125976   4.326   3.360   9.546 -0.5441  0.6037 -0.7740
 4781SOL    HW225977   4.191   3.314   9.561  1.4536  2.5435  0.5993
 4782SOL     OW25978   2.520   0.051  11.544  0.4449 -0.4361  0.2571
 4782SOL    HW125979   2.465   0.081  11.472  1.1100 -0.1027 -0.1135
 4782SOL    HW225980   2.469   4.715  11.580 -0.3383 -0.1285 -0.2303
 4783SOL     OW25981   0.200   2.334   3.945  0.1130  0.4591 -0.2252
 4783SOL    HW125982   0.147   2.408   3.915 -0.1951  0.2427 -0.2181
 4783SOL    HW225983   0.213   2.364   4.035 -1.8590 -3.1441  1.2840
 4784SOL     OW25984   2.608   4.502   1.145 -0.1304  0.2600 -0.2340
 4784SOL    HW125985   2.674   4.517   1.213 -2.3544  2.5436  1.4374
 4784SOL    HW225986   2.540   4.569   1.154  0.6306  1.0084 -0.0494
 4785SOL     OW25987   0.825   1.904  11.225  0.2050  0.3000 -0.5068
 4785SOL    HW125988   0.787   1.967  11.164 -0.4102  1.4834  1.0971
 4785SOL    HW225989   0.802   1.818  11.188  1.7747 -1.2172  2.0829
 4786SOL     OW25990   3.550   2.530   0.775  0.2588  0.2999  0.4220
 4786SOL    HW125991   3.464   2.534   0.733 -0.7941 -1.7453  2.3972
 4786SOL    HW225992   3.574   2.438   0.764  2.9127  1.0341  0.1918
 4787SOL     OW25993   1.101   2.256  12.724 -0.0888  0.0487 -0.7388
 4787SOL    HW125994   1.184   2.302  12.710  1.7634 -2.9503  0.5063
 4787SOL    HW225995   1.113   2.181  12.666  1.3492 -0.4536  0.2011
 4788SOL     OW25996   4.175   1.930   3.618  0.1748  0.0638 -0.6457
 4788SOL    HW125997   4.254   1.972   3.653  0.9075 -1.1663 -0.8258
 4788SOL    HW225998   4.169   1.962   3.528  0.8395 -0.5897 -0.9281
 4789SOL     OW25999   4.226   3.892   0.047 -0.4433 -0.5922 -0.4387
 4789SOL    HW126000   4.254   3.951   0.117  0.1699  0.1666 -1.3412
 4789SOL    HW226001   4.217   3.952  17.720 -1.8021  0.4922  0.5981
 4790SOL     OW26002   3.362   2.513   1.780 -0.6515 -0.1984  0.3767
 4790SOL    HW126003   3.411   2.464   1.846  1.8840 -0.1723 -1.4784
 4790SOL    HW226004   3.289   2.455   1.757 -0.0120 -0.1758 -1.7902
 4791SOL     OW26005   0.240   1.068   8.536 -0.0258 -0.4486 -0.2642
 4791SOL    HW126006   0.227   0.997   8.599  1.6213  0.1414  0.7406
 4791SOL    HW226007   0.170   1.132   8.549  2.8226  2.8794 -1.3757
 4792SOL     OW26008   0.965   0.198   7.897  0.0088 -0.1354 -0.4271
 4792SOL    HW126009   0.956   0.124   7.956 -1.2525 -0.4838 -1.0740
 4792SOL    HW226010   1.018   0.157   7.828 -3.1101 -0.8548 -2.3717
 4793SOL     OW26011   1.758   2.913   3.231 -0.1451 -0.3325  0.2856
 4793SOL    HW126012   1.853   2.928   3.238 -0.2392  0.7297 -0.7721
 4793SOL    HW226013   1.737   2.887   3.321  3.2099  0.1001  1.2073
 4794SOL     OW26014   4.701   0.835   4.520  0.1857  0.0819  0.6713
 4794SOL    HW126015   0.034   0.775   4.542  1.4691  1.0459 -0.7806
 4794SOL    HW226016   4.730   0.920   4.552  1.3392 -0.3986  0.9100
 4795SOL     OW26017   1.397   0.692  16.350  0.3248 -0.3882  0.2653
 4795SOL    HW126018   1.467   0.756  16.363  0.3265 -0.1562 -0.8867
 4795SOL    HW226019   1.320   0.737  16.386 -1.2098 -0.2311 -3.1122
 4796SOL     OW26020   2.649   1.265   7.908 -0.0617  0.3162 -0.6126
 4796SOL    HW126021   2.634   1.198   7.975  1.1745  0.7977  0.1613
 4796SOL    HW226022   2.692   1.333   7.960  0.4100 -1.2604  1.0622
 4797SOL     OW26023   0.261   3.164   7.017  0.3470 -0.4332  0.1190
 4797SOL    HW126024   0.241   3.256   7.031  1.7431 -0.2441  0.9085
 4797SOL    HW226025   0.252   3.171   6.922  0.4421  0.7372  0.1943
 4798SOL     OW26026   1.425   0.055   7.084  0.0727  0.3066  0.1849
 4798SOL    HW126027   1.336   0.020   7.091  0.0672  0.4660  0.9195
 4798SOL    HW226028   1.448   0.044   6.992  0.0474 -0.2438  0.2425
 4799SOL     OW26029   2.203   1.968  11.404  0.2972 -0.2784  0.1532
 4799SOL    HW126030   2.263   1.947  11.476  2.4826 -0.5513 -1.7455
 4799SOL    HW226031   2.136   1.899  11.405 -0.4350  0.4406  0.5846
 4800SOL     OW26032   0.316   3.117   3.507 -0.3536 -0.7841 -0.3412
 4800SOL    HW126033   0.257   3.042   3.509 -0.6697 -0.5185  0.3458
 4800SOL    HW226034   0.358   3.121   3.593 -0.8761  0.8547 -0.1453
 4801SOL     OW26035   3.078   1.445   2.510 -0.1630 -0.0056  0.3544
 4801SOL    HW126036   3.035   1.439   2.424 -0.5026 -0.1905  0.5338
 4801SOL    HW226037   3.117   1.358   2.517 -0.7248 -0.2335  0.7306
 4802SOL     OW26038   0.904   4.386   7.501 -0.1623 -0.0004 -0.0574
 4802SOL    HW126039   0.961   4.319   7.465 -0.1378  0.4514 -0.8775
 4802SOL    HW226040   0.944   4.412   7.584 -0.3704  0.5240 -0.1175
 4803SOL     OW26041   4.334   0.228  14.341  0.0761 -0.0432 -0.0563
 4803SOL    HW126042   4.394   0.251  14.270 -0.2500 -1.2349 -0.7107
 4803SOL    HW226043   4.256   0.234  14.286  0.2768  0.6696 -0.2650
 4804SOL     OW26044   3.052   2.362   5.457 -0.5179  0.0608  0.7679
 4804SOL    HW126045   3.058   2.269   5.433  0.4902  0.4443 -0.4438
 4804SOL    HW226046   2.956   2.367   5.460 -0.7179 -0.6134 -3.8725
 4805SOL     OW26047   0.492   0.093   9.982 -0.4777  0.1661 -0.1923
 4805SOL    HW126048   0.527   0.125  10.065  0.6919 -0.5447 -0.4073
 4805SOL    HW226049   0.568   0.086   9.924 -1.5021 -0.2267 -1.4794
 4806SOL     OW26050   1.773   0.189   5.110  0.3322 -0.1173  0.3942
 4806SOL    HW126051   1.722   0.269   5.124 -1.4383 -1.3970  1.2577
 4806SOL    HW226052   1.700   0.129   5.124 -1.5089  1.6521 -1.6198
 4807SOL     OW26053   3.349   0.392  16.781  0.1369 -0.1770 -0.6082
 4807SOL    HW126054   3.429   0.445  16.787  1.9136 -3.1173  1.4193
 4807SOL    HW226055   3.384   0.318  16.732 -2.0460 -2.4555  1.2656
 4808SOL     OW26056   1.233   3.157   4.844 -0.0491 -0.2234  0.1884
 4808SOL    HW126057   1.284   3.209   4.782 -0.0483 -1.8188 -1.1322
 4808SOL    HW226058   1.154   3.209   4.861  1.2088  0.5845  3.7244
 4809SOL     OW26059   4.101   4.078   4.680  0.5456 -0.4802  0.0124
 4809SOL    HW126060   4.080   4.070   4.587  1.0666 -0.8309 -0.0731
 4809SOL    HW226061   4.022   4.055   4.728  0.0792 -1.0264 -1.0131
 4810SOL     OW26062   1.348   2.937   8.453 -0.0046 -0.0636  0.1303
 4810SOL    HW126063   1.294   2.991   8.512  1.5516  1.9410 -0.3017
 4810SOL    HW226064   1.384   2.999   8.390 -0.7621 -0.1772 -0.4194
 4811SOL     OW26065   0.883   4.608   2.616 -0.0088 -0.2177 -0.1295
 4811SOL    HW126066   0.847   4.666   2.683  1.9856 -0.8375  1.4707
 4811SOL    HW226067   0.912   4.528   2.661  0.1986  0.2045  0.4810
 4812SOL     OW26068   2.848   4.156  10.972  0.1238 -0.0238  0.2084
 4812SOL    HW126069   2.920   4.204  11.013 -1.2712  1.1769  1.2517
 4812SOL    HW226070   2.860   4.188  10.883 -0.4231  0.0606  0.1654
 4813SOL     OW26071   0.559   0.405  13.266  0.3588  0.7841  0.1515
 4813SOL    HW126072   0.646   0.366  13.259  0.9453  1.7814  1.8965
 4813SOL    HW226073   0.561   0.465  13.341  1.3724  1.9391 -0.7986
 4814SOL     OW26074   0.753   3.369  13.352 -0.5516 -0.2681  0.5735
 4814SOL    HW126075   0.693   3.310  13.305  1.7771 -2.9483  0.9259
 4814SOL    HW226076   0.688   3.393  13.418  1.4038 -1.2719  2.8690
 4815SOL     OW26077   4.080   1.097   5.947 -0.0143 -0.1310  0.1221
 4815SOL    HW126078   4.029   1.164   5.901  0.8653  2.4954  2.9768
 4815SOL    HW226079   4.074   1.135   6.035  0.2725  1.0250 -0.3631
 4816SOL     OW26080   3.866   0.537   5.727  0.2717 -0.7507 -0.3836
 4816SOL    HW126081   3.802   0.526   5.798  1.4515  1.5759  1.0367
 4816SOL    HW226082   3.853   0.628   5.701 -1.8237 -1.7780 -2.9587
 4817SOL     OW26083   1.035   4.391   3.006  0.2616  0.2943  0.6409
 4817SOL    HW126084   0.956   4.444   2.995  1.4547  1.9936  0.2537
 4817SOL    HW226085   1.083   4.398   2.923 -2.0543  1.7118 -0.6049
 4818SOL     OW26086   1.088   4.731  15.152  0.2059 -0.4708 -0.7713
 4818SOL    HW126087   1.030   4.724  15.228  1.4573  1.3941  0.3611
 4818SOL    HW226088   1.122   4.642  15.151  0.7034 -0.2786 -1.0686
 4819SOL     OW26089   1.101   2.105   6.442 -0.4573 -0.6627  0.3681
 4819SOL    HW126090   1.074   2.025   6.487 -0.0317  0.5469  2.8181
 4819SOL    HW226091   1.196   2.094   6.442 -0.5766 -1.4552 -1.9461
 4820SOL     OW26092   0.844   3.661   0.948 -0.4480 -0.1848 -0.8835
 4820SOL    HW126093   0.827   3.696   0.860 -0.1062 -0.8040 -1.1984
 4820SOL    HW226094   0.784   3.707   1.006  0.9964 -0.0896  0.5446
 4821SOL     OW26095   1.650   2.673   1.604  0.2190  0.0042 -0.1473
 4821SOL    HW126096   1.710   2.707   1.537  0.7167 -1.4718 -0.4531
 4821SOL    HW226097   1.699   2.657   1.685 -0.4778 -0.6670  0.1369
 4822SOL     OW26098   4.710   3.961   4.120  0.1006 -0.1467 -0.4485
 4822SOL    HW126099   4.636   3.905   4.143  1.4305 -1.9291 -0.4522
 4822SOL    HW226100   4.673   4.046   4.096 -3.0558 -0.8246  2.0692
 4823SOL     OW26101   1.534   0.842   2.098 -0.0251  0.4398  0.8268
 4823SOL    HW126102   1.454   0.813   2.142 -1.1807  2.5980  0.1236
 4823SOL    HW226103   1.500   0.871   2.013 -2.4624 -1.1063  1.2548
 4824SOL     OW26104   0.679   1.592   7.481 -0.1266 -0.5929  0.8300
 4824SOL    HW126105   0.648   1.683   7.481 -2.4970 -1.3885  0.8152
 4824SOL    HW226106   0.717   1.590   7.569 -1.9830  1.2683  1.7004
 4825SOL     OW26107   4.074   2.495   7.817  0.5452  0.4384 -0.4584
 4825SOL    HW126108   4.004   2.514   7.754 -1.0303 -1.7315  0.6434
 4825SOL    HW226109   4.087   2.579   7.860  0.4045 -0.2210  0.8615
 4826SOL     OW26110   2.491   0.759   2.926  0.5873 -0.1996 -0.7724
 4826SOL    HW126111   2.439   0.709   2.988  0.7898  0.9822  0.3560
 4826SOL    HW226112   2.553   0.797   2.989  1.1077 -1.3881 -0.5652
 4827SOL     OW26113   2.408   0.025  10.903 -0.0092  0.5229 -0.7034
 4827SOL    HW126114   2.362   0.003  10.985 -1.7388  0.2715 -1.7301
 4827SOL    HW226115   2.489   0.057  10.941 -0.7765  2.0225 -0.3315
 4828SOL     OW26116   2.459   3.394   2.413 -0.2044  0.3879  0.4973
 4828SOL    HW126117   2.470   3.395   2.318 -0.5420  0.3129  0.4565
 4828SOL    HW226118   2.519   3.463   2.440 -1.4737  1.1586  1.3300
 4829SOL     OW26119   1.806   2.589   3.606 -0.1124 -0.0378 -0.1566
 4829SOL    HW126120   1.786   2.500   3.578  0.9767 -0.5448  0.6699
 4829SOL    HW226121   1.814   2.583   3.702 -0.4076 -1.1913 -0.2043
 4830SOL     OW26122   1.311   1.221  14.223 -0.0267  0.4163  0.3821
 4830SOL    HW126123   1.219   1.231  14.199 -0.3352 -1.8483  0.6248
 4830SOL    HW226124   1.352   1.211  14.137  0.0277 -1.4980  0.6333
 4831SOL     OW26125   1.817   1.891   3.236  0.3299  0.4011 -0.0138
 4831SOL    HW126126   1.845   1.882   3.145  3.1399 -0.4505  0.9134
 4831SOL    HW226127   1.807   1.986   3.236 -0.6386  0.2966 -1.3960
 4832SOL     OW26128   1.431   3.322   0.413 -0.0843 -0.4980  0.0311
 4832SOL    HW126129   1.497   3.340   0.479 -1.5865 -0.0284  1.3958
 4832SOL    HW226130   1.489   3.273   0.354 -1.1871 -1.8234  0.0535
 4833SOL     OW26131   3.637   2.968   5.934 -0.4789 -0.0337  0.3031
 4833SOL    HW126132   3.727   2.962   5.967 -0.0153  1.1115 -0.7461
 4833SOL    HW226133   3.618   3.050   5.981 -0.7943 -0.4090  0.8229
 4834SOL     OW26134   0.365   2.282   8.017  0.3610 -0.2589  0.3046
 4834SOL    HW126135   0.393   2.359   8.066 -1.7807  0.3185  0.6292
 4834SOL    HW226136   0.293   2.246   8.069 -0.3724  0.5181 -0.1678
 4835SOL     OW26137   3.187   0.932   5.022 -0.2182  0.0979  0.5472
 4835SOL    HW126138   3.183   1.024   5.047  0.5639  0.4663 -0.6562
 4835SOL    HW226139   3.259   0.905   5.079 -0.0510  2.7052  1.5595
 4836SOL     OW26140   2.910   2.982  15.449  0.0604 -0.4216 -0.0043
 4836SOL    HW126141   2.984   2.934  15.414  0.8446 -0.2536  1.4149
 4836SOL    HW226142   2.907   2.943  15.537 -0.5216 -1.0432 -0.2952
 4837SOL     OW26143   0.482   0.887  16.894 -0.4097 -0.6204 -0.3374
 4837SOL    HW126144   0.414   0.954  16.884 -0.5935 -0.9744 -1.3904
 4837SOL    HW226145   0.558   0.943  16.879 -1.1666  0.3361 -0.6157
 4838SOL     OW26146   2.641   4.067   1.788  0.0930  0.1387 -0.1334
 4838SOL    HW126147   2.686   4.103   1.864  1.3440  2.7596 -2.1075
 4838SOL    HW226148   2.553   4.087   1.820  0.0162  0.5411 -0.5990
 4839SOL     OW26149   4.381   3.692   0.116  0.0456 -0.2761 -0.1538
 4839SOL    HW126150   4.354   3.650   0.034 -0.7127  0.2418 -0.1717
 4839SOL    HW226151   4.354   3.780   0.093  1.7040 -0.1109 -1.4736
 4840SOL     OW26152   2.967   3.173   8.251  0.1519  0.5314 -0.3300
 4840SOL    HW126153   2.923   3.174   8.166 -2.9961 -3.0306  1.2637
 4840SOL    HW226154   2.901   3.211   8.310  1.1051  1.1575  0.3402
 4841SOL     OW26155   1.513   1.672   8.291  0.0405  0.3751  0.3006
 4841SOL    HW126156   1.431   1.684   8.338 -0.9749 -0.9402 -1.1348
 4841SOL    HW226157   1.547   1.762   8.281 -0.5674  0.5754  0.0555
 4842SOL     OW26158   1.235   2.286   4.182  0.8672 -0.5859  0.1410
 4842SOL    HW126159   1.314   2.333   4.211  0.4871  0.0360  0.1660
 4842SOL    HW226160   1.277   2.200   4.189 -0.2495 -1.1431 -0.0186
 4843SOL     OW26161   1.827   1.447   0.098 -0.4375  0.3677 -0.1363
 4843SOL    HW126162   1.761   1.420   0.162 -0.1849 -1.6149 -0.7106
 4843SOL    HW226163   1.858   1.365   0.060  1.0654 -1.5107  5.0500
 4844SOL     OW26164   1.927   1.717  15.619 -0.4930 -0.3297 -0.1573
 4844SOL    HW126165   1.866   1.791  15.615 -1.9758 -1.4704  1.0329
 4844SOL    HW226166   2.005   1.766  15.592  0.6206 -1.4536  1.0341
 4845SOL     OW26167   2.932   0.128   2.727 -0.3476 -0.5948  0.6232
 4845SOL    HW126168   2.999   0.174   2.676 -0.7557  1.5692  2.0400
 4845SOL    HW226169   2.932   0.185   2.804  0.7679  1.1826 -0.6733
 4846SOL     OW26170   1.263   1.909  10.755  0.4934  0.2468  0.2524
 4846SOL    HW126171   1.171   1.892  10.774  0.3988  0.2338 -0.2194
 4846SOL    HW226172   1.306   1.839  10.804 -0.8605 -2.0228 -1.7844
 4847SOL     OW26173   1.983   2.638   6.761 -0.6771 -0.1795  0.5423
 4847SOL    HW126174   1.927   2.684   6.823 -0.8960 -0.1275  0.3053
 4847SOL    HW226175   1.997   2.711   6.701 -2.6703  0.1857  0.5228
 4848SOL     OW26176   2.258   0.603   0.167  0.2708  0.1046 -0.1542
 4848SOL    HW126177   2.272   0.684   0.216 -0.6164  0.6108 -0.7439
 4848SOL    HW226178   2.266   0.636   0.078  0.1760  0.1195 -0.1574
 4849SOL     OW26179   3.529   1.481  12.054  0.1096 -0.6293 -0.1156
 4849SOL    HW126180   3.458   1.460  12.114  0.4171 -1.5194 -0.0697
 4849SOL    HW226181   3.594   1.515  12.115 -0.1828 -1.0669  0.4391
 4850SOL     OW26182   2.625   4.690   4.560 -0.6433 -0.0529  0.2470
 4850SOL    HW126183   2.610   0.026   4.501 -0.7136 -1.3953 -1.4067
 4850SOL    HW226184   2.715   4.702   4.591 -0.8994  0.1580  0.9213
 4851SOL     OW26185   0.347   4.377  14.641 -0.4535 -0.8679  0.7869
 4851SOL    HW126186   0.332   4.318  14.714 -0.6900 -0.5899  0.9650
 4851SOL    HW226187   0.349   4.461  14.688  0.9915 -0.9653  0.8799
 4852SOL     OW26188   0.577   1.633   3.692 -0.1503  0.2454  0.5596
 4852SOL    HW126189   0.572   1.649   3.598 -0.1361  0.4744  0.5995
 4852SOL    HW226190   0.609   1.712   3.735  0.9354 -0.6802  1.4584
 4853SOL     OW26191   4.438   0.880   4.627 -0.1884  0.4097 -0.6077
 4853SOL    HW126192   4.521   0.852   4.587  1.5830  0.5824  2.9209
 4853SOL    HW226193   4.396   0.794   4.629  1.3358 -0.3485 -0.8287
 4854SOL     OW26194   2.949   0.107   3.690 -0.1328 -0.6966 -0.3187
 4854SOL    HW126195   2.950   0.022   3.645 -1.6373 -0.3157 -1.0764
 4854SOL    HW226196   2.992   0.091   3.774 -0.2822  0.8968  0.0448
 4855SOL     OW26197   3.008   1.841   8.647  0.5515  0.6285 -0.9335
 4855SOL    HW126198   3.046   1.924   8.620  2.8045  0.4832  1.8261
 4855SOL    HW226199   2.972   1.804   8.567 -1.1468 -1.3719  0.7583
 4856SOL     OW26200   2.367   1.332   4.341  0.5187 -0.3791  0.2195
 4856SOL    HW126201   2.457   1.337   4.310  0.5340 -2.5927 -0.0707
 4856SOL    HW226202   2.344   1.425   4.346 -0.9374 -0.7599  0.6549
 4857SOL     OW26203   1.016   3.296   2.157 -0.2832  0.3596 -0.4191
 4857SOL    HW126204   1.046   3.304   2.248  0.2757  1.0473 -0.6668
 4857SOL    HW226205   1.019   3.388   2.129 -3.2914  0.2676 -1.0560
 4858SOL     OW26206   2.902   1.697   1.378  0.5028  0.2732 -0.1995
 4858SOL    HW126207   2.996   1.708   1.370  0.3882  0.7681 -0.9633
 4858SOL    HW226208   2.875   1.700   1.286  2.2306 -2.3630 -0.7534
 4859SOL     OW26209   3.019   4.317  11.086  0.1015  0.5436 -0.0922
 4859SOL    HW126210   3.013   4.374  11.163  1.8212  1.6339 -0.7760
 4859SOL    HW226211   3.074   4.250  11.126 -1.0867 -1.3794 -1.6677
 4860SOL     OW26212   1.302   0.484  16.630 -0.4532  0.2547  0.0431
 4860SOL    HW126213   1.207   0.486  16.642 -0.3817  0.2354  0.6180
 4860SOL    HW226214   1.328   0.558  16.684 -0.2832 -2.0125  3.0721
 4861SOL     OW26215   4.094   3.281  15.472  0.7222 -0.1158 -0.1210
 4861SOL    HW126216   4.073   3.300  15.563  1.0735 -1.3413  0.2116
 4861SOL    HW226217   4.189   3.287  15.473  0.5803  2.1424 -0.7453
 4862SOL     OW26218   3.403   0.068   4.835 -0.3559 -0.2274 -0.3780
 4862SOL    HW126219   3.452   0.054   4.753 -1.5983  1.7120 -1.4417
 4862SOL    HW226220   3.409   0.161   4.855 -1.0973  0.0871 -1.6061
 4863SOL     OW26221   1.059   1.795   6.295 -0.4134 -0.0127  0.0127
 4863SOL    HW126222   1.154   1.782   6.288 -0.1824  2.3203 -1.2920
 4863SOL    HW226223   1.035   1.742   6.371  0.8441  0.4826  0.7795
 4864SOL     OW26224   2.048   2.663   4.520  0.1597 -0.2915 -0.0261
 4864SOL    HW126225   2.108   2.597   4.486  0.2135 -1.4366  2.3380
 4864SOL    HW226226   1.963   2.636   4.485  0.5887 -1.1794 -0.3839
 4865SOL     OW26227   4.203   3.446   3.348  0.5279  0.6997  0.4741
 4865SOL    HW126228   4.227   3.370   3.401  2.8708 -0.5195 -2.3306
 4865SOL    HW226229   4.217   3.405   3.262  0.1976  0.0588  0.7184
 4866SOL     OW26230   3.779   0.199   2.762 -0.0856 -0.2095 -0.1551
 4866SOL    HW126231   3.744   0.196   2.673 -0.5141  4.6754 -0.1415
 4866SOL    HW226232   3.725   0.273   2.790 -1.5516 -1.7118  0.9650
 4867SOL     OW26233   4.116   1.457   5.289 -0.5322 -0.2762  0.9675
 4867SOL    HW126234   4.166   1.511   5.350  1.5969 -0.8461 -0.2683
 4867SOL    HW226235   4.175   1.464   5.214 -1.2764  0.2264  0.4282
 4868SOL     OW26236   3.677   1.592   1.969 -0.2344  0.7501  0.5632
 4868SOL    HW126237   3.661   1.519   1.909  0.3261 -0.5776  2.0525
 4868SOL    HW226238   3.728   1.658   1.922  2.4942 -1.4406  0.4713
 4869SOL     OW26239   3.840   1.053  14.982  0.1468  0.0562 -0.0786
 4869SOL    HW126240   3.878   0.995  14.916  0.3482 -0.8280  0.8157
 4869SOL    HW226241   3.886   1.136  14.971  0.5747 -0.0164  1.0976
 4870SOL     OW26242   3.170   3.866   8.425  0.0360 -0.8190  0.0937
 4870SOL    HW126243   3.105   3.883   8.357  2.5451  2.8663 -1.4072
 4870SOL    HW226244   3.241   3.921   8.393 -0.6259 -0.2795 -0.4315
 4871SOL     OW26245   3.107   3.479  12.391  0.3460 -0.6019  0.4146
 4871SOL    HW126246   3.049   3.555  12.386  0.8295 -0.2947 -0.5906
 4871SOL    HW226247   3.184   3.498  12.337 -0.3548  0.4846 -0.1919
 4872SOL     OW26248   2.863   2.544   5.861  0.3454 -1.2286  0.0210
 4872SOL    HW126249   2.933   2.486   5.832  1.9129  0.9888 -0.5724
 4872SOL    HW226250   2.802   2.476   5.891  2.2321 -2.5119  0.9585
 4873SOL     OW26251   0.133   4.034   4.340  0.0366  0.0581 -0.3673
 4873SOL    HW126252   0.098   4.036   4.251  0.0432  0.3510 -0.3622
 4873SOL    HW226253   0.060   3.993   4.386  0.0698  2.2254  1.6023
 4874SOL     OW26254   4.247   3.478   3.094 -0.3759 -0.2214 -0.3249
 4874SOL    HW126255   4.233   3.483   3.000  2.2361  0.4587 -0.6774
 4874SOL    HW226256   4.341   3.467   3.104 -0.3549 -0.5404 -0.9116
 4875SOL     OW26257   1.883   1.567   3.250  0.9482  0.2338 -0.2945
 4875SOL    HW126258   1.962   1.622   3.250 -0.3108  2.0430  1.2810
 4875SOL    HW226259   1.866   1.573   3.156 -0.8947 -1.1944 -0.0418
 4876SOL     OW26260   3.437   1.747   7.249 -0.0355  0.2468  0.6345
 4876SOL    HW126261   3.413   1.839   7.243 -0.7641 -0.1021 -2.1154
 4876SOL    HW226262   3.456   1.735   7.156 -2.7013 -1.9351  0.3435
 4877SOL     OW26263   1.884   4.172  16.069  0.2996 -0.3217  0.2120
 4877SOL    HW126264   1.872   4.241  16.004  0.2680 -1.9927 -1.5971
 4877SOL    HW226265   1.968   4.196  16.107  0.6793 -1.2577 -0.0346
 4878SOL     OW26266   2.263   2.433   0.882 -0.0418  0.1473 -0.1806
 4878SOL    HW126267   2.258   2.461   0.791 -0.3308 -2.6837 -1.0384
 4878SOL    HW226268   2.344   2.479   0.905  0.2266  0.0843 -0.9927
 4879SOL     OW26269   0.043   1.238   8.198 -0.3805 -0.1540  0.4335
 4879SOL    HW126270   4.693   1.224   8.236  0.1513  2.3741  2.6107
 4879SOL    HW226271   0.072   1.153   8.167  1.0602  0.6707 -0.5022
 4880SOL     OW26272   1.601   2.948  17.593  0.1683 -0.6974 -0.2723
 4880SOL    HW126273   1.550   2.912  17.665 -1.3541 -0.9290 -1.4820
 4880SOL    HW226274   1.530   2.958  17.530 -0.1773 -0.0234  0.2335
 4881SOL     OW26275   3.116   2.353   4.970 -0.1601 -0.7668 -0.3487
 4881SOL    HW126276   3.134   2.371   5.062  1.7082 -2.4814 -0.3832
 4881SOL    HW226277   3.123   2.438   4.926  0.4411 -0.1835  0.8731
 4882SOL     OW26278   2.797   1.016   0.417  0.5621  0.5947 -0.0799
 4882SOL    HW126279   2.714   1.028   0.371 -0.5723  0.0271  1.8475
 4882SOL    HW226280   2.846   0.960   0.357  2.4500 -0.0745  2.0800
 4883SOL     OW26281   0.614   1.156   3.120 -0.2621  0.3223  0.1690
 4883SOL    HW126282   0.605   1.239   3.073 -1.0867  0.3672  0.4047
 4883SOL    HW226283   0.663   1.193   3.194 -1.2358 -1.4832  1.7041
 4884SOL     OW26284   3.091   1.589   5.982 -0.1434 -0.0363 -0.6456
 4884SOL    HW126285   3.179   1.625   5.972  1.7977 -4.8434 -0.7781
 4884SOL    HW226286   3.080   1.597   6.077  0.6328  0.4057 -0.5924
 4885SOL     OW26287   3.970   2.763   4.325  0.3306  0.3722 -0.1480
 4885SOL    HW126288   3.954   2.851   4.359  2.0286  1.0636 -1.1632
 4885SOL    HW226289   3.946   2.702   4.395  1.5235  0.5838  0.4358
 4886SOL     OW26290   3.014   1.411  14.790  0.1121 -0.4463  0.2869
 4886SOL    HW126291   3.032   1.505  14.784  0.8196 -0.6073 -0.1395
 4886SOL    HW226292   2.947   1.395  14.723 -0.0213  0.1405  0.2859
 4887SOL     OW26293   4.007   1.299   8.514 -0.5068 -0.3503  0.3339
 4887SOL    HW126294   4.070   1.327   8.448  2.5369  2.2168  4.3351
 4887SOL    HW226295   4.053   1.223   8.550 -0.4917 -0.6954 -0.4037
 4888SOL     OW26296   3.910   4.062  16.413 -0.2363 -1.4302 -0.3348
 4888SOL    HW126297   3.859   4.078  16.333  0.8684  0.7861 -0.6021
 4888SOL    HW226298   3.943   4.146  16.446 -0.8103 -1.8378  1.3136
 4889SOL     OW26299   3.756   4.645  14.811 -0.1828  0.5009  0.1126
 4889SOL    HW126300   3.738   4.677  14.900  0.6931 -0.4212  0.6190
 4889SOL    HW226301   3.796   4.722  14.771  0.0405  1.0124  1.3122
 4890SOL     OW26302   3.357   2.200   5.223 -0.1770 -0.1749  0.1966
 4890SOL    HW126303   3.338   2.176   5.132 -0.7836  0.6352  0.1146
 4890SOL    HW226304   3.289   2.265   5.239 -0.6088  0.1136 -2.7549
 4891SOL     OW26305   3.576   4.673   1.171  0.6176  0.8890 -0.2072
 4891SOL    HW126306   3.567   4.617   1.094 -1.5010  1.5164 -0.4010
 4891SOL    HW226307   3.565   4.622   1.251  2.9028  2.8263  1.3664
 4892SOL     OW26308   3.092   0.706   1.288 -0.2038 -0.4079  0.1062
 4892SOL    HW126309   3.119   0.615   1.272  0.6544 -0.2721  0.8207
 4892SOL    HW226310   3.014   0.711   1.233 -0.1517  0.3130  0.0993
 4893SOL     OW26311   4.462   2.290   3.351  0.7777  0.1825 -0.0582
 4893SOL    HW126312   4.446   2.241   3.270  0.0879 -0.0655  0.2309
 4893SOL    HW226313   4.524   2.236   3.399  0.8953  2.0244  1.8512
 4894SOL     OW26314   1.884   1.415  15.508  0.5166 -0.2695  0.0123
 4894SOL    HW126315   1.967   1.369  15.494  0.4177 -1.1869  2.4277
 4894SOL    HW226316   1.915   1.499  15.544 -0.3021  1.2510 -2.8311
 4895SOL     OW26317   4.690   1.275   2.353 -0.1780  0.4834  0.5649
 4895SOL    HW126318   4.704   1.304   2.263 -0.1742 -0.7640  0.1636
 4895SOL    HW226319   4.720   1.350   2.405  2.9202 -0.7359  0.5243
 4896SOL     OW26320   1.038   4.674   0.765 -0.0047  0.0094 -0.1965
 4896SOL    HW126321   1.063   0.024   0.732 -2.9887 -0.0904 -2.7157
 4896SOL    HW226322   1.012   4.641   0.680 -0.0712  1.9470 -0.9379
 4897SOL     OW26323   3.000   0.352   3.528  0.0173  0.1137 -0.0695
 4897SOL    HW126324   3.066   0.358   3.598 -0.5997  0.4859  0.4795
 4897SOL    HW226325   2.953   0.273   3.553  1.1570 -0.8740 -1.0913
 4898SOL     OW26326   0.674   4.201   0.835 -0.5435 -0.1047 -0.2178
 4898SOL    HW126327   0.660   4.171   0.925  1.1834  0.1261  0.1318
 4898SOL    HW226328   0.632   4.287   0.840 -1.9495 -0.8658  0.9111
 4899SOL     OW26329   0.327   3.751   6.343  0.2525  0.2597 -0.0405
 4899SOL    HW126330   0.252   3.777   6.290 -0.7619  0.3660  1.4455
 4899SOL    HW226331   0.397   3.754   6.278  1.1192 -0.5021  0.8604
 4900SOL     OW26332   3.915   3.269  14.233  0.0543 -0.0127 -0.4552
 4900SOL    HW126333   3.939   3.193  14.181 -1.2285 -0.6154 -0.1666
 4900SOL    HW226334   3.965   3.238  14.309 -1.0139 -1.0847 -0.1875
 4901SOL     OW26335   1.255   0.470   2.962  0.9556  0.1359  0.2292
 4901SOL    HW126336   1.210   0.390   2.990  1.8738  0.1014  1.6166
 4901SOL    HW226337   1.191   0.536   2.987  0.7032  0.5647 -1.5884
 4902SOL     OW26338   1.193   0.951  16.902  0.3667 -0.1473  0.1502
 4902SOL    HW126339   1.239   1.034  16.916  0.9695 -0.1222 -1.8642
 4902SOL    HW226340   1.182   0.962  16.807  0.3884  0.8820  0.2715
 4903SOL     OW26341   2.590   0.987   7.002  0.0528 -0.0950 -0.2916
 4903SOL    HW126342   2.652   0.919   7.026 -0.5312 -0.2957  0.6642
 4903SOL    HW226343   2.565   1.024   7.087  0.0947 -0.4286 -0.1368
 4904SOL     OW26344   3.051   3.834   1.640 -0.1571 -0.1043 -0.2330
 4904SOL    HW126345   3.128   3.779   1.626  0.2921  0.1911  1.1280
 4904SOL    HW226346   3.081   3.892   1.710 -0.7008  0.3492 -0.3676
 4905SOL     OW26347   2.447   0.285   6.272 -0.4040  0.3388  0.3371
 4905SOL    HW126348   2.497   0.354   6.316  1.6670 -1.0566  0.1543
 4905SOL    HW226349   2.364   0.333   6.267 -0.8487 -0.3764  0.8817
 4906SOL     OW26350   3.625   4.273   7.854 -0.2119 -0.5719  0.3659
 4906SOL    HW126351   3.673   4.240   7.929  0.3139 -1.2713 -0.2772
 4906SOL    HW226352   3.533   4.261   7.878 -0.6106 -0.2718 -0.9978
 4907SOL     OW26353   0.172   3.848   9.139  0.1503  0.2317 -0.5020
 4907SOL    HW126354   0.111   3.917   9.163  0.0458 -0.2876  0.7258
 4907SOL    HW226355   0.115   3.783   9.098  1.7391 -0.0673 -2.2461
 4908SOL     OW26356   3.124   0.992   2.883 -0.1806  0.0593 -0.3154
 4908SOL    HW126357   3.067   1.067   2.865 -1.1966 -0.5855  0.2084
 4908SOL    HW226358   3.175   0.986   2.803  0.1643 -0.1234 -0.0828
 4909SOL     OW26359   0.170   2.011   9.181 -0.2053 -0.0730 -0.0244
 4909SOL    HW126360   0.238   2.041   9.120 -0.2536 -1.1719 -0.6144
 4909SOL    HW226361   0.209   1.935   9.222 -0.2134 -0.4043 -0.6321
 4910SOL     OW26362   2.487   3.077   3.031 -0.1656 -0.1419  0.1123
 4910SOL    HW126363   2.422   3.008   3.033  2.5714 -2.6980  1.2966
 4910SOL    HW226364   2.525   3.062   2.945  1.1162 -2.3711  1.0652
 4911SOL     OW26365   1.316   0.531  10.328 -0.2249 -0.1075  0.5340
 4911SOL    HW126366   1.336   0.439  10.314  0.6088 -0.0391  1.2983
 4911SOL    HW226367   1.226   0.545  10.300 -0.2236  1.3750  1.2517
 4912SOL     OW26368   2.180   3.261   2.744  0.1233 -0.1553  0.4225
 4912SOL    HW126369   2.138   3.306   2.671  0.6789 -1.2658 -0.5956
 4912SOL    HW226370   2.268   3.299   2.738 -0.2500  0.6041 -0.3139
 4913SOL     OW26371   1.233   4.126  11.936  0.3339  0.8480  0.6233
 4913SOL    HW126372   1.183   4.194  11.891 -0.6143  0.6785  1.4318
 4913SOL    HW226373   1.281   4.186  11.993  0.4741  3.4308 -2.1784
 4914SOL     OW26374   1.214   4.710   5.750  0.0941 -0.0412  0.1510
 4914SOL    HW126375   1.267   4.702   5.829 -0.0808  0.7567  0.3447
 4914SOL    HW226376   1.141   4.652   5.772  0.3649  0.0199  1.2070
 4915SOL     OW26377   1.431   0.689   6.423  0.4255 -0.5463  0.2332
 4915SOL    HW126378   1.492   0.718   6.356 -2.0298 -0.3663 -1.9190
 4915SOL    HW226379   1.423   0.595   6.414  0.0685 -0.6088  1.1545
 4916SOL     OW26380   4.673   0.450   1.500 -0.8264  0.2332  0.3472
 4916SOL    HW126381   4.605   0.420   1.560 -0.8543  1.0176  0.7107
 4916SOL    HW226382   4.662   0.543   1.481  0.3322  0.1576 -0.6564
 4917SOL     OW26383   0.367   2.583   3.004  0.0693 -0.2399 -0.3907
 4917SOL    HW126384   0.375   2.650   2.936 -0.9973 -2.1373 -2.3690
 4917SOL    HW226385   0.460   2.568   3.021 -0.6346 -0.2982  3.4977
 4918SOL     OW26386   3.102   0.625   0.227  0.3652  0.4100 -0.2122
 4918SOL    HW126387   3.171   0.638   0.162  0.5546 -1.2414 -0.3429
 4918SOL    HW226388   3.100   0.531   0.245  3.0614  0.2689 -0.6164
 4919SOL     OW26389   3.792   3.219   4.764  0.5638 -0.4368 -0.2073
 4919SOL    HW126390   3.729   3.253   4.700 -0.3206  0.8552  1.3461
 4919SOL    HW226391   3.825   3.301   4.800 -1.6344  0.7270 -0.8760
 4920SOL     OW26392   4.620   3.357   9.237  0.0246  0.5167 -0.2101
 4920SOL    HW126393   4.658   3.385   9.320  2.0444 -2.2470 -0.1821
 4920SOL    HW226394   4.661   3.271   9.230 -3.0255 -0.8633 -0.9348
 4921SOL     OW26395   1.040   4.210   4.107  0.2502 -0.3959  0.3325
 4921SOL    HW126396   1.117   4.214   4.164  0.5991 -2.8743  0.0659
 4921SOL    HW226397   0.995   4.135   4.145 -0.8524  1.0789  1.9125
 4922SOL     OW26398   0.882   0.063   8.123  0.2011 -0.6984 -0.7052
 4922SOL    HW126399   0.839   4.719   8.094 -0.3525  0.0345 -1.9451
 4922SOL    HW226400   0.860   0.056   8.216 -1.2795  1.3501 -0.9072
 4923SOL     OW26401   1.267   0.787   0.205 -0.0595 -0.6409  0.0367
 4923SOL    HW126402   1.238   0.780   0.296 -3.0550  1.0828 -0.8050
 4923SOL    HW226403   1.235   0.870   0.171  2.0656  1.1226  2.2873
 4924SOL     OW26404   4.216   2.630   6.006 -0.1922 -0.6462 -0.4935
 4924SOL    HW126405   4.143   2.648   6.065  0.4451 -1.2041  0.4597
 4924SOL    HW226406   4.254   2.718   6.004  2.5269 -1.8061 -1.0219
 4925SOL     OW26407   2.940   3.562   5.308 -0.0863 -0.3191  0.3430
 4925SOL    HW126408   2.920   3.655   5.301  2.2294  0.0640 -1.0829
 4925SOL    HW226409   3.035   3.570   5.314  0.0657 -1.4770 -0.4158
 4926SOL     OW26410   2.134   1.948  16.746  0.1469  1.1886 -0.8087
 4926SOL    HW126411   2.220   1.949  16.704  1.5299  0.0150  1.9991
 4926SOL    HW226412   2.165   1.941  16.836  2.0952  0.9611 -1.4863
 4927SOL     OW26413   3.685   1.502   4.493  0.4174 -0.2647  0.4617
 4927SOL    HW126414   3.769   1.535   4.462 -0.6058  3.4828  1.6728
 4927SOL    HW226415   3.700   1.410   4.472  3.3234  0.3914 -0.2691
 4928SOL     OW26416   0.714   4.016   4.959  0.2667  0.1936 -0.2059
 4928SOL    HW126417   0.763   4.067   4.895 -0.3468 -0.0848 -0.9029
 4928SOL    HW226418   0.778   3.945   4.966  0.7936  0.7911  1.0366
 4929SOL     OW26419   2.579   3.705   0.603  0.0549  0.4630  0.5327
 4929SOL    HW126420   2.607   3.794   0.583 -1.8214  0.7531 -0.8096
 4929SOL    HW226421   2.663   3.667   0.576 -0.0857  0.3088  0.3146
 4930SOL     OW26422   3.465   4.642   1.694  0.3198 -0.3402  0.7619
 4930SOL    HW126423   3.507   4.653   1.780 -0.7653  0.5730  1.1779
 4930SOL    HW226424   3.378   4.615   1.724  0.5189 -0.4603  1.2485
 4931SOL     OW26425   3.806   3.435  14.425  0.2372  0.3249 -0.3609
 4931SOL    HW126426   3.849   3.393  14.351 -0.6044 -0.8377 -0.2017
 4931SOL    HW226427   3.882   3.479  14.462 -0.0852  0.2156  0.4159
 4932SOL     OW26428   1.252   3.042   2.083  0.1830  0.6968 -0.7071
 4932SOL    HW126429   1.227   2.966   2.029  0.6203  0.5183 -0.6620
 4932SOL    HW226430   1.315   3.008   2.147 -1.4664 -2.4394 -0.7464
 4933SOL     OW26431   3.982   3.003  11.900 -0.0161  0.5424 -0.0804
 4933SOL    HW126432   4.023   2.946  11.835 -0.3226 -1.7334  1.7108
 4933SOL    HW226433   3.915   2.945  11.935  0.8623  0.4322  1.4277
 4934SOL     OW26434   0.526   0.005   7.136 -0.5129 -0.3462  0.0420
 4934SOL    HW126435   0.550   0.048   7.218 -0.7792 -0.5245  0.2143
 4934SOL    HW226436   0.575   0.055   7.071 -0.9803  1.2669  0.9265
 4935SOL     OW26437   4.041   3.195   5.819 -0.4492 -0.1968 -0.1386
 4935SOL    HW126438   4.064   3.246   5.897 -0.7208 -2.0526  1.1407
 4935SOL    HW226439   4.113   3.230   5.766 -3.0292  2.7753 -1.6890
 4936SOL     OW26440   3.077   0.225   2.529  0.3194  0.2962  0.0186
 4936SOL    HW126441   3.016   0.214   2.456  2.5723 -0.9473 -1.6646
 4936SOL    HW226442   3.154   0.181   2.493  0.2600 -0.9199  1.3522
 4937SOL     OW26443   3.618   2.828   5.708  0.3736  0.0212 -0.4291
 4937SOL    HW126444   3.672   2.754   5.737  0.4927  0.6046  0.8371
 4937SOL    HW226445   3.617   2.874   5.791  0.9104  0.3093 -0.5803
 4938SOL     OW26446   2.397   1.118  16.911 -0.3586 -0.3365 -0.1292
 4938SOL    HW126447   2.384   1.070  16.829  1.2838  0.9501 -1.1364
 4938SOL    HW226448   2.308   1.102  16.943 -0.2426  0.6212  0.6644
 4939SOL     OW26449   1.285   4.187   1.795 -0.5860  0.1772  0.3393
 4939SOL    HW126450   1.304   4.280   1.782 -1.2022  0.2511 -0.0427
 4939SOL    HW226451   1.257   4.157   1.709 -0.6969 -0.1352  0.4848
 4940SOL     OW26452   2.026   2.533  16.717  0.5168 -0.2266  0.0640
 4940SOL    HW126453   2.044   2.518  16.624 -1.3205  0.6506 -0.4210
 4940SOL    HW226454   1.931   2.531  16.708  0.6049  0.1804 -0.9512
 4941SOL     OW26455   1.249   4.001   9.911 -0.1415 -0.6261  0.3114
 4941SOL    HW126456   1.214   4.006  10.000  0.5195 -0.0978  0.5408
 4941SOL    HW226457   1.336   3.964   9.927  0.5024  1.1941  0.9149
 4942SOL     OW26458   3.657   0.087   4.221  0.1979  0.0939  0.2385
 4942SOL    HW126459   3.586   0.046   4.173  2.8378 -1.2371 -2.5181
 4942SOL    HW226460   3.724   0.082   4.153  1.2284  0.5754  1.2091
 4943SOL     OW26461   2.116   4.255   8.185  1.0159  0.1261  0.1376
 4943SOL    HW126462   2.103   4.301   8.102  2.5064 -3.1190 -1.8745
 4943SOL    HW226463   2.193   4.303   8.218  3.0433 -2.9712 -0.0271
 4944SOL     OW26464   1.362   2.994  16.219 -0.2457 -0.1498 -0.4130
 4944SOL    HW126465   1.450   3.025  16.197  0.0451 -1.4530 -1.0282
 4944SOL    HW226466   1.360   2.899  16.225 -0.0944 -0.0758  0.8642
 4945SOL     OW26467   0.275   1.383   6.720  0.1310  0.2176  0.1508
 4945SOL    HW126468   0.284   1.291   6.697 -1.4431  0.3717 -1.0357
 4945SOL    HW226469   0.353   1.392   6.775 -0.7552  0.0478  1.4331
 4946SOL     OW26470   1.356   2.526   7.258  0.3031 -0.5008 -0.0739
 4946SOL    HW126471   1.336   2.619   7.247  0.5675 -0.5730 -1.1279
 4946SOL    HW226472   1.366   2.501   7.167  1.0392  1.7005 -0.5809
 4947SOL     OW26473   2.079   1.003   8.235  0.1966 -0.2795  0.3113
 4947SOL    HW126474   2.009   0.956   8.282 -0.5291  0.1233 -0.3545
 4947SOL    HW226475   2.144   0.935   8.221  1.0422  0.0287  2.8521
 4948SOL     OW26476   2.590   0.109   7.810 -0.8648  0.6688  0.2389
 4948SOL    HW126477   2.590   0.116   7.715  0.6082 -1.2439  0.0990
 4948SOL    HW226478   2.624   0.197   7.827  1.5471 -0.1798 -0.1302
 4949SOL     OW26479   0.284   1.911   4.985 -0.0643 -0.0220  0.1083
 4949SOL    HW126480   0.254   1.939   5.072 -0.7231 -1.6035  0.3892
 4949SOL    HW226481   0.338   1.985   4.958  1.3411 -0.9006  0.5023
 4950SOL     OW26482   0.452   1.389  11.146 -0.0919  0.7185 -0.2409
 4950SOL    HW126483   0.424   1.469  11.191  1.0546  1.3209 -0.5867
 4950SOL    HW226484   0.385   1.377  11.079  0.5102 -0.1761 -0.6847
 4951SOL     OW26485   3.562   3.555   6.552  0.4095  0.1723 -0.4124
 4951SOL    HW126486   3.475   3.566   6.514 -0.6522 -2.2088  1.3623
 4951SOL    HW226487   3.551   3.464   6.580  1.7592  0.2644  0.4142
 4952SOL     OW26488   2.102   2.562   3.485 -0.3281 -0.6423 -0.2133
 4952SOL    HW126489   2.022   2.601   3.520 -0.4408 -1.1907  0.1325
 4952SOL    HW226490   2.105   2.474   3.523  0.0663  0.9249  3.3354
 4953SOL     OW26491   3.034   1.969   7.039 -0.4243  0.0850  0.1890
 4953SOL    HW126492   3.088   2.006   6.969 -0.1306 -1.1627 -0.2497
 4953SOL    HW226493   3.030   2.031   7.111 -1.1705 -0.1450  0.3477
 4954SOL     OW26494   1.169   2.381   5.976  0.7906  0.5422 -0.2829
 4954SOL    HW126495   1.208   2.313   6.030 -1.3319  0.8308  1.6271
 4954SOL    HW226496   1.174   2.456   6.036 -2.5424 -0.2516  0.9641
 4955SOL     OW26497   0.984   2.489   7.734 -0.1882 -0.5253 -0.0739
 4955SOL    HW126498   0.947   2.511   7.648  0.6527  0.5282 -0.1752
 4955SOL    HW226499   0.914   2.514   7.794  1.0640  1.8386  0.4024
 4956SOL     OW26500   3.221   2.607   8.287  0.1262 -0.0749 -0.0676
 4956SOL    HW126501   3.197   2.577   8.199 -0.9688  1.9797 -0.4722
 4956SOL    HW226502   3.160   2.678   8.304  2.3982  2.0466 -0.8331
 4957SOL     OW26503   3.321   0.468   4.241  0.1542  0.5831 -0.1046
 4957SOL    HW126504   3.277   0.547   4.272 -2.7961 -0.7836 -0.8435
 4957SOL    HW226505   3.259   0.396   4.251 -1.8761  2.6635  2.3007
 4958SOL     OW26506   0.159   2.873   3.270 -0.2154 -0.2439 -0.3927
 4958SOL    HW126507   0.236   2.926   3.250  0.6112 -1.1549  0.4219
 4958SOL    HW226508   0.108   2.888   3.190  0.7858 -0.8198 -1.1304
 4959SOL     OW26509   0.833   0.206   5.595  0.1315 -0.1570  0.1704
 4959SOL    HW126510   0.750   0.162   5.611 -0.3018  0.4770 -0.3103
 4959SOL    HW226511   0.850   0.177   5.505 -2.6237 -0.6731 -0.1828
 4960SOL     OW26512   2.102   4.537  15.321  0.5379 -0.4847  0.4850
 4960SOL    HW126513   2.126   4.490  15.241  1.1993  0.0524  0.3645
 4960SOL    HW226514   2.067   4.476  15.386  1.5235 -0.1153  1.3689
 4961SOL     OW26515   0.656   3.253   6.783  0.5199 -0.2229  0.0770
 4961SOL    HW126516   0.630   3.234   6.874  0.8584  0.0047  0.2206
 4961SOL    HW226517   0.619   3.341   6.780  0.8092 -0.1350 -0.9198
 4962SOL     OW26518   0.621   1.993   4.747  0.5185  0.2256 -0.2643
 4962SOL    HW126519   0.671   1.942   4.682  2.0946  0.5187  0.7340
 4962SOL    HW226520   0.681   1.985   4.821  0.6941  1.0602 -0.3143
 4963SOL     OW26521   4.719   4.688   8.866 -0.2200  0.5448 -0.1712
 4963SOL    HW126522   4.652   4.621   8.879  0.3855  0.1444  0.7983
 4963SOL    HW226523   0.004   4.719   8.953 -3.3712 -0.2691  0.9140
 4964SOL     OW26524   3.712   0.745   8.646  0.1143 -0.3519  0.5803
 4964SOL    HW126525   3.707   0.730   8.552  2.0546 -1.5135  0.6665
 4964SOL    HW226526   3.652   0.820   8.657  0.4745  0.0380 -0.1082
 4965SOL     OW26527   3.075   0.749   2.473  0.0730  0.3058 -0.3122
 4965SOL    HW126528   3.097   0.694   2.548 -0.6212  0.2085 -0.1793
 4965SOL    HW226529   3.044   0.678   2.417 -1.4351  0.3282  0.4908
 4966SOL     OW26530   0.439   0.575   0.767 -0.1694  0.0492  0.1225
 4966SOL    HW126531   0.466   0.650   0.714 -0.4199  0.5625  0.7180
 4966SOL    HW226532   0.525   0.533   0.773  0.2570  1.0270  0.8055
 4967SOL     OW26533   4.369   4.236   0.802  0.0213  0.0645 -0.5797
 4967SOL    HW126534   4.428   4.305   0.833  0.4339 -0.5076 -0.0871
 4967SOL    HW226535   4.409   4.156   0.835  1.2425  0.0071 -2.1819
 4968SOL     OW26536   3.150   3.629   1.398  0.1029 -0.2037  0.1704
 4968SOL    HW126537   3.144   3.706   1.341  0.9127 -0.2303  0.0539
 4968SOL    HW226538   3.211   3.667   1.462 -1.3180  0.6818  1.0233
 4969SOL     OW26539   3.886   2.462  14.747 -0.4820 -0.1160  0.1716
 4969SOL    HW126540   3.931   2.442  14.665 -1.0604 -4.1503  0.8307
 4969SOL    HW226541   3.796   2.478  14.718 -0.9028  0.9507  2.0291
 4970SOL     OW26542   1.077   0.552  10.164 -0.5640 -0.5269  0.4906
 4970SOL    HW126543   1.067   0.555  10.068  3.4762 -1.8315  0.0392
 4970SOL    HW226544   0.989   0.580  10.189 -1.4471 -0.2863 -2.8537
 4971SOL     OW26545   1.797   2.189   0.474 -0.1221 -0.1059  0.2121
 4971SOL    HW126546   1.877   2.224   0.514 -0.6145 -1.3871  2.3184
 4971SOL    HW226547   1.831   2.173   0.385 -0.7749  2.0338 -0.4176
 4972SOL     OW26548   3.300   2.442   2.763  0.0422 -0.0319 -0.0208
 4972SOL    HW126549   3.380   2.425   2.713  1.2117 -1.0735  2.1889
 4972SOL    HW226550   3.335   2.513   2.817  0.7967  0.1842 -0.7982
 4973SOL     OW26551   0.226   2.901  12.258 -0.1561  0.0915  0.3455
 4973SOL    HW126552   0.286   2.844  12.209 -1.3295 -0.3545 -0.5892
 4973SOL    HW226553   0.216   2.978  12.203  1.8219  0.8755  1.1090
 4974SOL     OW26554   2.456   0.981   4.138  0.4489  0.6441 -0.9672
 4974SOL    HW126555   2.395   0.914   4.108 -0.1936  1.4219 -1.4273
 4974SOL    HW226556   2.403   1.059   4.119  1.8986  1.9155  0.1988
 4975SOL     OW26557   2.262   1.963  16.993 -0.6449  0.5999 -0.0678
 4975SOL    HW126558   2.295   1.940  17.080  0.2078 -1.9436 -1.0832
 4975SOL    HW226559   2.346   1.994  16.962 -0.1420 -1.3616 -0.6348
 4976SOL     OW26560   2.121   3.544  15.913  0.2483 -0.4595  0.6983
 4976SOL    HW126561   2.148   3.521  15.824 -0.4710  1.7610 -0.0726
 4976SOL    HW226562   2.202   3.592  15.932  0.1531  0.8186 -2.1019
 4977SOL     OW26563   4.688   0.937   8.276 -0.3072 -0.1098 -0.1425
 4977SOL    HW126564   0.045   0.945   8.265 -0.4138  1.2008 -0.1211
 4977SOL    HW226565   4.689   0.859   8.331  2.1003  0.4409  0.5729
 4978SOL     OW26566   4.048   4.021  12.207  0.0996  0.4642  0.2780
 4978SOL    HW126567   4.113   3.954  12.187 -1.1185 -0.1798 -1.4745
 4978SOL    HW226568   4.076   4.046  12.296  0.5063  1.2901 -0.0784
 4979SOL     OW26569   1.140   3.793   9.019  0.0272  0.9027  0.1659
 4979SOL    HW126570   1.100   3.879   9.030 -1.6572  0.0636  0.6580
 4979SOL    HW226571   1.188   3.799   9.101  0.9635 -1.2473 -0.2102
 4980SOL     OW26572   3.397   2.271   4.635 -0.3152  0.2946  0.3444
 4980SOL    HW126573   3.446   2.192   4.656 -1.5751  0.0342  2.2794
 4980SOL    HW226574   3.404   2.321   4.716 -1.1353 -0.4462  0.8726
 4981SOL     OW26575   4.453   3.321   7.290 -0.2124  0.6632 -1.0625
 4981SOL    HW126576   4.506   3.311   7.211  1.0599 -0.1499 -0.1244
 4981SOL    HW226577   4.489   3.407   7.316  1.5339 -0.6059  0.7940
 4982SOL     OW26578   0.623   4.185   1.100 -0.4670  0.9123 -0.2192
 4982SOL    HW126579   0.630   4.130   1.178  0.7762 -0.6422 -1.4577
 4982SOL    HW226580   0.687   4.250   1.128  1.1274 -1.1501  0.8822
 4983SOL     OW26581   2.604   0.535   6.764  0.2536  0.5646  0.1103
 4983SOL    HW126582   2.581   0.555   6.855 -1.2222 -2.9649  0.4985
 4983SOL    HW226583   2.686   0.584   6.755  0.9061 -0.5981 -0.3156
 4984SOL     OW26584   3.511   1.575   0.622 -0.4945 -0.1283  0.1333
 4984SOL    HW126585   3.532   1.619   0.704  0.7712 -0.2117 -0.1534
 4984SOL    HW226586   3.509   1.647   0.559 -1.2594 -1.0512 -0.9094
 4985SOL     OW26587   1.709   3.273   2.908  0.3280 -0.0588  0.0409
 4985SOL    HW126588   1.650   3.197   2.906 -1.4606  1.4419 -4.1814
 4985SOL    HW226589   1.720   3.275   3.003  1.8953 -0.9251 -0.1178
 4986SOL     OW26590   1.366   4.039   3.202 -0.0145 -0.3392 -0.8080
 4986SOL    HW126591   1.431   4.089   3.152  0.4897  1.2108  1.3875
 4986SOL    HW226592   1.294   4.099   3.221  3.1774  3.0124  0.7564
 4987SOL     OW26593   1.859   4.113   8.224  0.2714  0.1309 -0.5620
 4987SOL    HW126594   1.949   4.130   8.194  0.0839 -0.8704 -1.6977
 4987SOL    HW226595   1.808   4.188   8.194  2.0356  0.9764 -1.4440
 4988SOL     OW26596   3.655   1.615   4.124  0.2269  0.1730 -0.0533
 4988SOL    HW126597   3.717   1.602   4.196 -1.6570  1.2724  1.7410
 4988SOL    HW226598   3.640   1.710   4.130  0.9506  0.2647  0.3303
 4989SOL     OW26599   1.538   1.448   4.262 -0.0247 -0.1258 -0.0178
 4989SOL    HW126600   1.609   1.511   4.273  1.1136 -1.3206 -0.3972
 4989SOL    HW226601   1.596   1.375   4.240 -0.9203 -0.9256  0.2865
 4990SOL     OW26602   1.094   2.864   5.070 -0.0118  0.1810 -0.5360
 4990SOL    HW126603   1.141   2.792   5.112  0.0093  0.9518  0.7594
 4990SOL    HW226604   1.118   2.842   4.980 -2.0066 -1.8559 -0.5849
 4991SOL     OW26605   2.888   1.088   5.897  0.0258 -0.2571  0.3798
 4991SOL    HW126606   2.942   1.167   5.896  2.6519 -2.0979 -1.1465
 4991SOL    HW226607   2.932   1.024   5.952  0.8741 -1.5204 -1.7662
 4992SOL     OW26608   2.097   4.600   3.146  0.6714  0.0109  0.2642
 4992SOL    HW126609   2.050   4.536   3.200 -0.6280 -0.7969 -1.8329
 4992SOL    HW226610   2.041   4.677   3.146  2.1046  1.0497 -1.9280
 4993SOL     OW26611   2.312   2.726  14.743 -0.0951  0.3649 -0.6212
 4993SOL    HW126612   2.217   2.733  14.734 -0.4403 -0.9210  2.1635
 4993SOL    HW226613   2.326   2.631  14.745 -0.1152  0.3777  0.1528
 4994SOL     OW26614   2.365   2.410   4.587  0.1390 -0.0050 -0.1214
 4994SOL    HW126615   2.406   2.345   4.645 -2.4812 -1.5573  0.0220
 4994SOL    HW226616   2.436   2.461   4.549 -0.3429  1.2629  0.6924
 4995SOL     OW26617   0.804   3.754   2.685  1.0186  0.2297 -0.0497
 4995SOL    HW126618   0.866   3.817   2.649  1.4582  0.3895  1.0070
 4995SOL    HW226619   0.750   3.802   2.747  0.1398  0.7274 -1.2062
 4996SOL     OW26620   0.905   0.896  13.951  0.1971  0.5354  0.3670
 4996SOL    HW126621   0.965   0.944  13.894 -0.3332 -0.6873 -1.2357
 4996SOL    HW226622   0.855   0.842  13.889  2.0804 -0.3049 -0.4402
 4997SOL     OW26623   2.592   3.030   8.749  0.4467 -0.6189  0.0958
 4997SOL    HW126624   2.528   3.100   8.758 -0.3501 -1.2882 -0.3117
 4997SOL    HW226625   2.542   2.974   8.690 -1.5185 -0.6109  1.7553
 4998SOL     OW26626   2.713   0.906   2.236  0.2412  0.1869  0.2779
 4998SOL    HW126627   2.698   0.903   2.141 -1.5257  0.4674  0.5510
 4998SOL    HW226628   2.648   0.848   2.275 -1.1959  2.1978  0.8975
 4999SOL     OW26629   4.232   4.694   7.144 -0.2083 -0.3305 -0.5615
 4999SOL    HW126630   4.192   4.627   7.199  0.3943  1.0876  1.6002
 4999SOL    HW226631   4.316   4.703   7.188  0.0101 -2.3873 -0.5746
 5000SOL     OW26632   0.302   4.221   5.068  0.1809  0.1907 -0.3503
 5000SOL    HW126633   0.234   4.155   5.058 -0.1582  0.6914 -1.3780
 5000SOL    HW226634   0.256   4.305   5.061 -0.5873 -0.1293  0.9167
 5001SOL     OW26635   4.463   2.093   7.728 -0.0932  0.0728 -0.0757
 5001SOL    HW126636   4.399   2.024   7.748  0.8353 -0.7460  0.1057
 5001SOL    HW226637   4.399   2.164   7.727 -0.1419 -0.0106 -2.7040
 5002SOL     OW26638   2.039   3.986   4.335 -0.7329  0.3593  0.8038
 5002SOL    HW126639   2.061   3.894   4.321  1.0191  1.0060 -0.5746
 5002SOL    HW226640   1.962   3.998   4.279  0.7095 -0.6589 -1.3730
 5003SOL     OW26641   3.732   1.711  14.442 -0.8797  0.7307  0.5794
 5003SOL    HW126642   3.723   1.622  14.476 -0.9299  0.1812 -0.8825
 5003SOL    HW226643   3.797   1.745  14.503  1.2240  0.8865 -1.7924
 5004SOL     OW26644   3.634   2.841   3.937  0.4045  0.3307 -0.6366
 5004SOL    HW126645   3.643   2.901   3.863 -1.0184  0.1756 -0.9326
 5004SOL    HW226646   3.705   2.779   3.920  1.1323  0.9178  0.2201
 5005SOL     OW26647   0.780   2.261  11.509 -1.0677  0.7629  0.5142
 5005SOL    HW126648   0.780   2.269  11.604 -2.3955  0.6315  0.5370
 5005SOL    HW226649   0.733   2.180  11.488  0.0695  0.4619 -0.8071
 5006SOL     OW26650   1.695   2.828   6.735  0.0468  0.4647 -1.0639
 5006SOL    HW126651   1.776   2.836   6.685  0.3460 -1.9621 -0.9547
 5006SOL    HW226652   1.724   2.835   6.826 -1.5113 -2.4993 -0.3470
 5007SOL     OW26653   4.224   4.070   8.983 -0.1114 -0.4291 -0.2349
 5007SOL    HW126654   4.289   4.003   9.002  0.6277  0.9179  2.0002
 5007SOL    HW226655   4.246   4.145   9.039  0.1432 -1.0248  0.4519
 5008SOL     OW26656   0.402   1.513  12.081  0.0485 -0.3687  0.1213
 5008SOL    HW126657   0.395   1.484  12.172 -2.1639  0.5141  0.2293
 5008SOL    HW226658   0.480   1.476  12.040 -0.7088 -0.4374 -1.2555
 5009SOL     OW26659   0.658   0.964   5.060 -0.3665  0.5350 -1.0659
 5009SOL    HW126660   0.736   0.921   5.094 -1.5542 -1.5245 -0.9868
 5009SOL    HW226661   0.594   0.894   5.076  0.5401  0.3756  1.9626
 5010SOL     OW26662   4.438   1.710  14.545  0.1536 -0.3865 -0.0651
 5010SOL    HW126663   4.480   1.755  14.618 -1.0473  1.1732 -0.3487
 5010SOL    HW226664   4.441   1.619  14.576 -1.8249 -0.4626 -0.1430
 5011SOL     OW26665   2.476   1.304   6.120  0.2343 -0.2806 -0.4627
 5011SOL    HW126666   2.415   1.371   6.090  0.3239 -0.6825 -1.5748
 5011SOL    HW226667   2.531   1.361   6.173 -1.8356 -0.7772  2.1730
 5012SOL     OW26668   1.286   0.153   3.183 -0.2617  0.2395 -0.3617
 5012SOL    HW126669   1.244   0.072   3.213  1.0783 -0.8006 -1.3255
 5012SOL    HW226670   1.364   0.113   3.144 -0.9473 -0.6103 -0.8543
 5013SOL     OW26671   4.331   1.263   8.533  0.5566  0.0133 -0.0832
 5013SOL    HW126672   4.346   1.350   8.496  2.7094  0.1091  0.9688
 5013SOL    HW226673   4.401   1.212   8.492 -1.5018 -2.4572 -0.5106
 5014SOL     OW26674   3.647   0.637   5.249  0.1212  0.3884  0.8749
 5014SOL    HW126675   3.661   0.732   5.252 -0.7923  0.5586 -0.0768
 5014SOL    HW226676   3.605   0.617   5.332 -0.4878 -0.7868  0.2892
 5015SOL     OW26677   1.053   0.827   5.711 -0.2609 -0.6875  0.3342
 5015SOL    HW126678   0.994   0.822   5.636  0.4390  1.5402 -0.3650
 5015SOL    HW226679   1.136   0.852   5.669  0.5318 -0.9790  1.7091
 5016SOL     OW26680   3.680   2.317   3.032  0.3043 -0.2041 -0.5203
 5016SOL    HW126681   3.604   2.341   3.085  0.8587 -2.7898  1.5100
 5016SOL    HW226682   3.722   2.393   2.992 -0.0827  0.4393  0.3089
 5017SOL     OW26683   2.647   2.308   9.403  0.0071  0.2016  0.3379
 5017SOL    HW126684   2.621   2.321   9.494 -1.7291  1.0029 -0.2735
 5017SOL    HW226685   2.701   2.229   9.401  1.4841  1.1916  1.5251
 5018SOL     OW26686   0.073   4.414   7.666 -0.3658  0.1534 -0.0051
 5018SOL    HW126687   0.096   4.474   7.595 -0.0989 -1.4092 -1.2375
 5018SOL    HW226688   0.159   4.373   7.676  0.2996  1.5571  0.0546
 5019SOL     OW26689   0.438   2.090   5.202  0.3880  0.0131  0.3585
 5019SOL    HW126690   0.473   2.179   5.192  0.2016  0.4142  3.2029
 5019SOL    HW226691   0.359   2.095   5.149  1.4150 -1.4493 -1.3262
 5020SOL     OW26692   2.974   1.898  11.043  0.0042  0.4538 -0.5012
 5020SOL    HW126693   3.010   1.837  11.107 -1.6483  0.4225  0.3975
 5020SOL    HW226694   2.880   1.880  11.055 -0.2173  0.9163 -1.5030
 5021SOL     OW26695   2.239   1.897  11.070  0.3570  0.1621 -0.4437
 5021SOL    HW126696   2.304   1.962  11.043  1.5373 -0.7419  0.2230
 5021SOL    HW226697   2.187   1.906  10.990  1.9561 -0.4684 -1.5505
 5022SOL     OW26698   0.110   3.429   6.701 -0.8159 -0.3257 -0.1816
 5022SOL    HW126699   0.086   3.406   6.612  1.1615 -3.0307 -0.0207
 5022SOL    HW226700   0.136   3.339   6.720 -0.0478  0.4293  2.3263
 5023SOL     OW26701   4.018   2.748   9.348  0.5233 -0.1703 -0.0647
 5023SOL    HW126702   4.103   2.747   9.303 -1.1470  0.7536 -3.3154
 5023SOL    HW226703   4.046   2.774   9.435  1.2940 -1.4227  0.0522
 5024SOL     OW26704   1.838   1.917   5.928  0.1201 -0.4814  0.0099
 5024SOL    HW126705   1.921   1.964   5.930 -1.2665  1.9949  0.4426
 5024SOL    HW226706   1.876   1.831   5.941 -0.8575 -0.8667  0.3197
 5025SOL     OW26707   1.256   1.173   9.610  0.0680 -0.2439  0.4711
 5025SOL    HW126708   1.291   1.218   9.533 -1.7440  0.2049 -0.0855
 5025SOL    HW226709   1.276   1.081   9.592 -1.7773 -0.3167 -1.1191
 5026SOL     OW26710   1.180   3.728   9.737 -0.2219 -0.0873  0.1366
 5026SOL    HW126711   1.177   3.746   9.831  1.0832  3.6157 -0.5141
 5026SOL    HW226712   1.172   3.633   9.740  0.5911 -0.0694  3.5074
 5027SOL     OW26713   2.569   1.793  17.583 -0.2470  0.0483  0.7119
 5027SOL    HW126714   2.557   1.845  17.503  1.9110 -0.9609 -0.2827
 5027SOL    HW226715   2.552   1.868  17.639  0.6900  0.5696  0.3014
 5028SOL     OW26716   0.148   2.922   5.596 -0.5856 -0.5749  0.2092
 5028SOL    HW126717   0.078   2.978   5.563 -1.0747 -1.8445 -0.9460
 5028SOL    HW226718   0.115   2.920   5.686 -2.4773  0.8426 -0.4684
 5029SOL     OW26719   2.953   1.042  13.739  0.4692  0.1330 -0.1151
 5029SOL    HW126720   2.912   1.059  13.654 -3.2772 -1.9116  1.2943
 5029SOL    HW226721   3.023   0.986  13.706  0.4650  0.3836 -0.5459
 5030SOL     OW26722   4.396   0.939  14.830 -0.3611  0.0735  0.2118
 5030SOL    HW126723   4.412   1.007  14.895 -1.0381 -0.1630  0.6316
 5030SOL    HW226724   4.422   0.981  14.748 -0.9402  0.3504  0.1628
 5031SOL     OW26725   2.913   2.296   1.861  0.2409  0.4857 -0.5089
 5031SOL    HW126726   2.953   2.380   1.884 -1.7854  1.8104 -1.8831
 5031SOL    HW226727   2.920   2.252   1.946 -1.5171  1.4166  0.1037
 5032SOL     OW26728   4.200   4.715  12.706 -0.6909 -0.1735  0.1715
 5032SOL    HW126729   4.272   0.028  12.668  0.5026  0.0015  2.6430
 5032SOL    HW226730   4.136   4.701  12.637 -0.2425 -1.0384 -0.0715
 5033SOL     OW26731   0.632   3.378   7.841  0.3204  0.2233 -0.4959
 5033SOL    HW126732   0.718   3.353   7.875  0.0030  1.0503  0.8984
 5033SOL    HW226733   0.647   3.363   7.747  1.6242  0.5600 -0.3514
 5034SOL     OW26734   1.951   0.028  12.919 -0.1258  0.0585 -0.0887
 5034SOL    HW126735   2.016   0.016  12.849 -0.9847  0.8206 -1.0186
 5034SOL    HW226736   1.887   4.703  12.884  0.5454 -0.4188 -0.4744
 5035SOL     OW26737   3.421   0.823   5.688  0.0732 -0.0413  0.5150
 5035SOL    HW126738   3.349   0.762   5.705 -0.0370 -0.1589 -0.3717
 5035SOL    HW226739   3.364   0.900   5.687  0.3322  0.1402 -0.6182
 5036SOL     OW26740   4.641   3.862   3.533 -0.2297  0.1383  0.2554
 5036SOL    HW126741   4.645   3.772   3.566  0.4267 -0.2743 -0.9400
 5036SOL    HW226742   4.732   3.889   3.545 -0.5677  1.6635 -0.6772
 5037SOL     OW26743   1.111   0.970   3.560  0.3347 -0.4743  0.8018
 5037SOL    HW126744   1.166   1.036   3.517 -1.7691 -0.0998 -1.2887
 5037SOL    HW226745   1.165   0.937   3.633 -1.3075 -0.4440  2.0290
 5038SOL     OW26746   0.657   3.717   0.721  0.3823  0.2878  0.1712
 5038SOL    HW126747   0.610   3.798   0.738 -0.8912 -1.0092  2.8959
 5038SOL    HW226748   0.608   3.656   0.777 -1.9178  0.7719 -1.3058
 5039SOL     OW26749   1.358   2.118   8.274  0.0681  0.8573 -0.1393
 5039SOL    HW126750   1.330   2.184   8.211 -2.7272  0.6074  0.8494
 5039SOL    HW226751   1.287   2.107   8.337  0.1894 -1.6724 -0.4284
 5040SOL     OW26752   4.028   1.588   9.482 -0.0440  0.4880 -0.7621
 5040SOL    HW126753   3.981   1.657   9.528  0.7319  0.1907  0.4725
 5040SOL    HW226754   3.950   1.553   9.437  0.3917 -0.0759 -1.0835
 5041SOL     OW26755   3.105   4.056   2.254  0.6596  0.4178 -0.1124
 5041SOL    HW126756   3.096   4.142   2.213 -1.9000  1.2565  2.2103
 5041SOL    HW226757   3.083   3.994   2.184 -0.7671 -0.1328  0.8443
 5042SOL     OW26758   3.258   3.420   1.932 -0.0166  0.0378  0.4644
 5042SOL    HW126759   3.282   3.498   1.981  1.3630  0.4212 -0.8202
 5042SOL    HW226760   3.293   3.348   1.984  1.3189  1.4945  1.5531
 5043SOL     OW26761   4.692   1.371   7.745 -0.1441 -0.3368 -0.2067
 5043SOL    HW126762   0.018   1.311   7.705 -0.7355 -1.1058  0.0079
 5043SOL    HW226763   4.608   1.340   7.711  0.3572 -4.6952  2.3881
 5044SOL     OW26764   3.267   1.357  15.723  0.1877  0.1422  0.1166
 5044SOL    HW126765   3.223   1.353  15.638 -1.5806 -1.4751  1.1095
 5044SOL    HW226766   3.340   1.299  15.700 -1.6983 -1.4301 -1.8757
 5045SOL     OW26767   2.035   1.141   9.006  0.1232 -0.1136  0.4370
 5045SOL    HW126768   2.116   1.106   9.044  0.1869 -0.7150 -0.2542
 5045SOL    HW226769   2.025   1.081   8.932 -1.2407  1.3500 -0.5620
 5046SOL     OW26770   2.458   3.253   4.989  0.1031  0.0121 -0.7157
 5046SOL    HW126771   2.547   3.290   4.990  0.9512 -1.9508 -2.3480
 5046SOL    HW226772   2.484   3.175   5.039 -0.6975 -1.2746 -2.2975
 5047SOL     OW26773   0.264   1.109   0.041 -0.2032  0.2054 -0.5555
 5047SOL    HW126774   0.177   1.076   0.061 -0.0457  1.1238  1.7492
 5047SOL    HW226775   0.311   1.108   0.125 -4.8390  2.5504  2.0212
 5048SOL     OW26776   2.650   2.786   3.837 -0.1870  0.1896  0.1137
 5048SOL    HW126777   2.745   2.790   3.831 -0.3279  2.8034 -0.6324
 5048SOL    HW226778   2.641   2.755   3.927  0.2829  0.7004  0.3356
 5049SOL     OW26779   1.865   1.479   8.834 -0.1117  0.0013  0.3461
 5049SOL    HW126780   1.805   1.411   8.866 -0.6310  0.5022  0.4384
 5049SOL    HW226781   1.801   1.548   8.815 -1.5051 -1.4124 -0.1493
 5050SOL     OW26782   4.406   3.828   9.009 -0.3101 -0.3838 -0.2157
 5050SOL    HW126783   4.474   3.877   9.054 -1.0400 -0.2511  0.7366
 5050SOL    HW226784   4.454   3.812   8.928 -0.5063  0.9807 -0.6049
 5051SOL     OW26785   4.467   1.862   3.733 -0.7455  0.0088 -0.6687
 5051SOL    HW126786   4.402   1.836   3.798 -1.3204 -0.0655 -1.2687
 5051SOL    HW226787   4.465   1.957   3.744 -1.2869  0.1752 -2.1201
 5052SOL     OW26788   2.788   0.851   9.747  0.5242 -0.7039  0.2685
 5052SOL    HW126789   2.708   0.842   9.798 -0.6352 -1.1869 -1.6545
 5052SOL    HW226790   2.806   0.773   9.694  1.6216  0.3892 -0.9700
 5053SOL     OW26791   4.347   0.009   4.848 -0.8425 -0.5775  0.6233
 5053SOL    HW126792   4.263   0.026   4.890 -2.0447 -0.4999 -1.8169
 5053SOL    HW226793   4.386   4.679   4.904  2.5221 -0.1315 -1.1788
 5054SOL     OW26794   2.436   3.659   3.404 -0.0865  0.1247  0.1915
 5054SOL    HW126795   2.413   3.603   3.330  1.8307 -2.0734  1.2869
 5054SOL    HW226796   2.349   3.664   3.443 -0.7815 -0.9498 -1.2198
 5055SOL     OW26797   1.735   0.923  12.915 -0.8750 -0.4878  0.3856
 5055SOL    HW126798   1.682   0.906  12.993 -1.8614  0.5126 -0.0712
 5055SOL    HW226799   1.749   0.841  12.869 -0.8587  0.0686 -0.6043
 5056SOL     OW26800   4.688   2.573   3.011  0.6114 -0.1437 -1.0391
 5056SOL    HW126801   0.018   2.529   3.063 -0.1591 -1.3098 -1.0283
 5056SOL    HW226802   4.650   2.498   2.965  0.7604 -0.0773 -1.2719
 5057SOL     OW26803   3.060   1.727   3.676 -0.1463 -0.4731 -0.4602
 5057SOL    HW126804   3.089   1.800   3.622 -0.3729  0.0940  0.1843
 5057SOL    HW226805   3.128   1.705   3.739 -1.4327 -0.5686  0.9092
 5058SOL     OW26806   2.544   3.541   3.630  0.0575 -0.0837 -0.0114
 5058SOL    HW126807   2.608   3.480   3.592  0.9981  0.8909  0.0016
 5058SOL    HW226808   2.513   3.577   3.547 -1.9742 -2.1242 -0.1354
 5059SOL     OW26809   2.625   4.643  10.052 -0.1510 -0.6437  0.3247
 5059SOL    HW126810   2.556   4.592  10.095  1.3120 -1.7977  1.2839
 5059SOL    HW226811   2.669   4.576  10.001  1.0229 -0.4421  1.0786
 5060SOL     OW26812   3.537   0.212   5.418  0.4124  0.3798  0.1382
 5060SOL    HW126813   3.601   0.248   5.479  1.2541 -0.7334 -0.0806
 5060SOL    HW226814   3.583   0.136   5.382 -0.9662 -0.3801 -0.0181
 5061SOL     OW26815   1.008   3.231   3.230 -0.3556 -0.0900 -0.1901
 5061SOL    HW126816   1.007   3.163   3.298  2.0125  0.6648  0.5736
 5061SOL    HW226817   1.099   3.257   3.221  0.0903 -0.6195  2.6318
 5062SOL     OW26818   2.642   1.950   2.189 -1.0113 -0.6341 -0.2154
 5062SOL    HW126819   2.729   1.920   2.163 -0.5894 -0.2265  0.7601
 5062SOL    HW226820   2.666   2.018   2.252  1.0263 -1.6174  0.0582
 5063SOL     OW26821   2.215   1.475   7.000  0.2803 -0.4781  0.0439
 5063SOL    HW126822   2.243   1.384   6.993  1.9717 -0.0320  0.9566
 5063SOL    HW226823   2.121   1.467   6.984  0.3552 -0.2672 -0.4784
 5064SOL     OW26824   1.948   1.573   0.705  0.1499  0.0721  0.4689
 5064SOL    HW126825   2.013   1.605   0.642 -0.5368 -0.0969 -0.3316
 5064SOL    HW226826   2.012   1.548   0.771  1.1698  2.9770  0.5643
 5065SOL     OW26827   3.909   3.196   7.309  0.1139 -0.0507 -0.5557
 5065SOL    HW126828   3.959   3.212   7.389 -0.7709 -4.1600  0.8135
 5065SOL    HW226829   3.829   3.163   7.349 -1.1720  3.4769 -0.2566
 5066SOL     OW26830   0.643   2.078  17.624 -0.0374  0.5554 -0.3499
 5066SOL    HW126831   0.559   2.120  17.640 -0.6043 -0.9184  0.5828
 5066SOL    HW226832   0.673   2.046  17.709  0.5568  0.9652 -0.4062
 5067SOL     OW26833   4.428   1.316   6.553 -0.4891  0.3353  0.2812
 5067SOL    HW126834   4.475   1.236   6.533 -1.2524  0.0997 -0.5303
 5067SOL    HW226835   4.485   1.384   6.516  1.9000 -1.3372  0.8811
 5068SOL     OW26836   4.320   1.515   3.148  0.2660  0.2401  0.2617
 5068SOL    HW126837   4.246   1.543   3.201  0.3464  0.9175  0.0282
 5068SOL    HW226838   4.395   1.564   3.182  1.8219 -2.2708  0.4204
 5069SOL     OW26839   0.386   1.095  11.487  0.0599 -0.2862 -0.0846
 5069SOL    HW126840   0.425   1.054  11.410 -0.4335 -1.6912  0.4306
 5069SOL    HW226841   0.393   1.187  11.460  1.0234 -0.2558  0.2663
 5070SOL     OW26842   3.157   4.049   4.528  0.8059  0.8812 -0.0711
 5070SOL    HW126843   3.081   4.065   4.584  1.9605  1.6959  1.2455
 5070SOL    HW226844   3.175   3.959   4.554 -0.4898  1.2247  2.0203
 5071SOL     OW26845   1.897   2.942   8.409 -0.3946 -0.2745  0.1239
 5071SOL    HW126846   1.929   3.010   8.351  1.1091 -0.4600  0.7375
 5071SOL    HW226847   1.806   2.972   8.399 -0.5870 -0.9079 -0.0215
 5072SOL     OW26848   1.077   4.333   9.338 -0.6652  0.8297 -0.3061
 5072SOL    HW126849   1.098   4.373   9.422  1.5138  0.1458 -0.5171
 5072SOL    HW226850   1.017   4.263   9.366 -0.3149  1.2781  1.5454
 5073SOL     OW26851   4.673   4.681   9.411 -0.5753 -0.2794  0.1898
 5073SOL    HW126852   0.016   4.687   9.359 -0.2853 -1.8314  0.4770
 5073SOL    HW226853   4.703   4.721   9.493 -1.4647  0.3989  0.1934
 5074SOL     OW26854   1.855   0.634  14.246  0.3168  0.0496 -0.1188
 5074SOL    HW126855   1.882   0.645  14.338 -0.1871  1.0683 -0.0926
 5074SOL    HW226856   1.845   0.539  14.252  0.3177  0.1355  1.3967
 5075SOL     OW26857   1.188   3.685   8.553  0.2299  0.0911  0.0825
 5075SOL    HW126858   1.185   3.770   8.507 -0.4375 -0.5257 -1.0209
 5075SOL    HW226859   1.246   3.638   8.492  0.1953 -0.0518  0.1611
 5076SOL     OW26860   2.714   4.034   2.359  0.1708  0.1846 -0.0882
 5076SOL    HW126861   2.698   3.954   2.308  0.0571 -0.6836  1.2996
 5076SOL    HW226862   2.727   4.104   2.295  0.8218 -0.3018 -0.4903
 5077SOL     OW26863   2.793   4.459   2.698  0.5930 -0.5344  0.0494
 5077SOL    HW126864   2.796   4.421   2.786 -0.9115 -2.1454 -0.6072
 5077SOL    HW226865   2.699   4.462   2.677  0.3082  0.6419  1.4743
 5078SOL     OW26866   0.799   3.597   7.429  0.2224 -0.3946 -0.3313
 5078SOL    HW126867   0.881   3.584   7.381 -0.3431 -0.8141 -1.1828
 5078SOL    HW226868   0.812   3.687   7.460 -0.7428  0.0699 -1.2668
 5079SOL     OW26869   1.913   2.502  13.511 -0.1504  0.2757 -0.6558
 5079SOL    HW126870   1.850   2.543  13.451  0.9871  1.9655 -0.7142
 5079SOL    HW226871   1.859   2.438  13.557 -2.4806  1.9851 -1.0364
 5080SOL     OW26872   1.577   2.675   5.300 -0.2484 -0.0026  0.4808
 5080SOL    HW126873   1.571   2.596   5.353 -0.3925  0.3464  0.9869
 5080SOL    HW226874   1.610   2.638   5.218  0.5069  1.0598  0.3018
 5081SOL     OW26875   0.529   0.241   4.002 -0.2854 -0.0193  0.1801
 5081SOL    HW126876   0.486   0.159   3.978 -1.1086  0.6827 -0.7528
 5081SOL    HW226877   0.469   0.264   4.073  2.1957  1.9645  1.6413
 5082SOL     OW26878   1.434   2.902   8.984  0.0682  0.4090 -0.1961
 5082SOL    HW126879   1.500   2.836   9.005  0.8851  0.8364 -1.4050
 5082SOL    HW226880   1.357   2.845   8.974 -0.1653  0.5568  0.8407
 5083SOL     OW26881   2.444   0.376   0.204 -0.3577  0.4539  0.2114
 5083SOL    HW126882   2.383   0.450   0.213  1.4445  1.8260  1.2651
 5083SOL    HW226883   2.393   0.304   0.168  0.6734 -1.0871  1.8201
 5084SOL     OW26884   0.097   0.134   7.582 -0.8915  0.1068 -0.4151
 5084SOL    HW126885   0.018   0.080   7.576 -0.7980  0.1126 -1.7109
 5084SOL    HW226886   0.120   0.128   7.490 -2.0705 -0.7044 -0.6592
 5085SOL     OW26887   1.738   4.381  14.712  0.3425  0.9585 -0.1196
 5085SOL    HW126888   1.807   4.358  14.774  0.1717  1.3564  0.2151
 5085SOL    HW226889   1.778   4.427  14.638  1.8025  0.5154  0.3944
 5086SOL     OW26890   0.375   3.856   7.991  0.2194  0.2148 -0.9071
 5086SOL    HW126891   0.363   3.763   7.969 -2.0356  0.2408  0.2521
 5086SOL    HW226892   0.313   3.869   8.063 -0.1389 -0.1912 -1.1382
 5087SOL     OW26893   3.501   2.329  15.719  0.3237 -0.2420 -0.4662
 5087SOL    HW126894   3.449   2.299  15.793  0.8942 -0.1138 -0.0118
 5087SOL    HW226895   3.467   2.419  15.724 -0.4749 -0.5668 -0.1944
 5088SOL     OW26896   1.767   3.916  16.108  0.2071 -0.2068  0.3447
 5088SOL    HW126897   1.834   3.855  16.075  1.9711  1.5253  0.6878
 5088SOL    HW226898   1.813   4.000  16.100  0.3173 -0.3743 -0.7763
 5089SOL     OW26899   3.170   1.180  14.848  0.2335 -0.1395 -0.4310
 5089SOL    HW126900   3.182   1.162  14.755 -1.6679  0.0018 -0.7118
 5089SOL    HW226901   3.102   1.248  14.845  0.1357 -0.2551 -0.8554
 5090SOL     OW26902   0.714   4.236   6.449 -0.3078  0.1050 -0.3055
 5090SOL    HW126903   0.632   4.240   6.398  1.5482  0.1344 -3.3072
 5090SOL    HW226904   0.726   4.330   6.463 -3.4518  0.6933 -1.5406
 5091SOL     OW26905   4.221   4.292  10.640 -0.2375  0.4745 -0.3138
 5091SOL    HW126906   4.143   4.344  10.661 -1.5279 -1.3917 -0.5508
 5091SOL    HW226907   4.249   4.257  10.724  0.8139  1.4892 -0.2406
 5092SOL     OW26908   4.335   3.481  17.631 -0.2891 -0.4372 -0.0323
 5092SOL    HW126909   4.419   3.441  17.608 -0.0547  0.0514 -0.0365
 5092SOL    HW226910   4.297   3.427  17.701 -0.3990 -1.5209 -0.9382
 5093SOL     OW26911   1.796   1.124  11.810 -0.2893  0.2884 -0.1248
 5093SOL    HW126912   1.871   1.065  11.802  0.2859  1.0285 -0.1829
 5093SOL    HW226913   1.806   1.188  11.739  2.6144 -1.0045 -0.8447
 5094SOL     OW26914   3.253   1.253   4.310  0.1674  0.3258  0.2207
 5094SOL    HW126915   3.328   1.199   4.336  0.5380 -0.0386 -1.6073
 5094SOL    HW226916   3.294   1.333   4.277  1.3600 -0.0536  0.7805
 5095SOL     OW26917   0.292   4.196   3.109  0.7728 -0.0219  0.0796
 5095SOL    HW126918   0.243   4.162   3.035  1.3043 -1.3216  0.3232
 5095SOL    HW226919   0.265   4.288   3.106  1.2440  0.0906 -0.7169
 5096SOL     OW26920   0.253   4.689   3.695  0.5508  0.0479 -0.7367
 5096SOL    HW126921   0.291   4.601   3.699  0.4478 -0.0624 -1.9595
 5096SOL    HW226922   0.169   4.669   3.653 -0.8318 -1.7607  2.8803
 5097SOL     OW26923   0.445   1.036  16.192 -0.2901 -0.1337 -0.0543
 5097SOL    HW126924   0.539   1.020  16.199 -0.4152 -0.1831  1.5446
 5097SOL    HW226925   0.428   0.978  16.117 -0.4415  0.0023 -0.1262
 5098SOL     OW26926   1.770   4.403   4.863  0.1360  0.7220 -0.2744
 5098SOL    HW126927   1.858   4.369   4.879 -0.5228 -1.2616 -0.8353
 5098SOL    HW226928   1.797   4.467   4.797  1.2681 -0.5218 -1.0333
 5099SOL     OW26929   2.629   2.987   3.630 -0.3493  0.3187 -0.6400
 5099SOL    HW126930   2.720   3.011   3.614 -0.3743 -0.3154 -1.7311
 5099SOL    HW226931   2.636   2.902   3.675  2.2168  0.2723 -1.1194
 5100SOL     OW26932   1.115   2.468   4.976 -0.3680  0.0007  0.0148
 5100SOL    HW126933   1.047   2.402   4.961  1.8878 -2.5199  0.6940
 5100SOL    HW226934   1.165   2.459   4.894  0.2615 -1.1419  0.5175
 5101SOL     OW26935   2.391   0.400  12.862 -0.4878 -0.1609 -0.1422
 5101SOL    HW126936   2.483   0.386  12.838 -1.3519 -1.2646 -2.7983
 5101SOL    HW226937   2.372   0.315  12.900  1.4436 -1.3321 -1.8383
 5102SOL     OW26938   0.247   0.828   8.709  0.2629 -0.0674 -0.1985
 5102SOL    HW126939   0.268   0.753   8.765  1.6195  0.2069 -0.3483
 5102SOL    HW226940   0.207   0.882   8.777 -0.7243 -1.8772  0.6563
 5103SOL     OW26941   4.173   0.999  10.487  0.6335 -0.1222  0.4951
 5103SOL    HW126942   4.229   1.044  10.550 -0.4555 -0.5712  1.7817
 5103SOL    HW226943   4.166   0.913  10.529 -2.9353 -0.2867 -0.4502
 5104SOL     OW26944   4.197   0.834   5.381  0.1750  0.1768  0.1355
 5104SOL    HW126945   4.253   0.905   5.352  0.9779 -0.9473 -1.0799
 5104SOL    HW226946   4.251   0.790   5.447 -1.1843 -1.5780  0.0942
 5105SOL     OW26947   1.200   3.182  17.175  0.0029 -0.3035 -0.3097
 5105SOL    HW126948   1.225   3.273  17.164  0.2034 -0.5544 -2.0023
 5105SOL    HW226949   1.242   3.141  17.099  0.8277  1.1700 -0.6369
 5106SOL     OW26950   2.942   2.426   7.431 -0.1376  0.3445  0.3303
 5106SOL    HW126951   2.997   2.452   7.504  0.7187 -0.8505  0.1162
 5106SOL    HW226952   2.886   2.363   7.477 -1.2244 -0.8732 -2.6139
 5107SOL     OW26953   1.319   2.339   9.202 -0.2401 -0.0982 -0.2927
 5107SOL    HW126954   1.309   2.423   9.246 -0.3078  0.4426 -1.3416
 5107SOL    HW226955   1.295   2.278   9.271  3.5043  0.3687  1.4191
 5108SOL     OW26956   4.557   1.523   6.436 -0.1687 -0.3786 -0.2781
 5108SOL    HW126957   4.642   1.483   6.417 -0.2306 -1.4536  1.6343
 5108SOL    HW226958   4.582   1.592   6.498 -0.2613 -1.1832  0.6603
 5109SOL     OW26959   4.643   2.713   1.154 -0.3338  0.4833 -0.2873
 5109SOL    HW126960   4.712   2.688   1.093  0.3618 -0.8223  1.0239
 5109SOL    HW226961   4.680   2.796   1.184  2.6358 -0.1979 -2.1156
 5110SOL     OW26962   4.305   1.760  11.121 -0.2231  0.3267 -0.1669
 5110SOL    HW126963   4.245   1.700  11.077  1.9800  0.1216 -2.8808
 5110SOL    HW226964   4.240   1.806  11.173  0.7593 -0.0424  1.3927
 5111SOL     OW26965   2.959   0.837   9.366  0.3915 -0.0447 -0.4429
 5111SOL    HW126966   3.014   0.913   9.387  0.1821  0.0122 -0.1045
 5111SOL    HW226967   2.876   0.880   9.344  1.5433  1.9718 -0.8940
 5112SOL     OW26968   2.877   2.258   8.764 -0.3652 -0.0420 -0.0909
 5112SOL    HW126969   2.811   2.326   8.775 -1.5181 -0.8978 -1.8153
 5112SOL    HW226970   2.827   2.180   8.788  0.0582  0.0146  1.0274
 5113SOL     OW26971   3.107   3.028   4.205  0.3833  0.6856 -0.6808
 5113SOL    HW126972   3.042   3.086   4.245  0.5326  0.6349 -0.3725
 5113SOL    HW226973   3.045   2.955   4.205  0.8831  0.2680  1.4802
 5114SOL     OW26974   0.556   4.587   5.528 -0.2447  0.2570 -0.2095
 5114SOL    HW126975   0.479   4.554   5.574 -0.2487  0.4197 -0.0975
 5114SOL    HW226976   0.512   4.617   5.448 -2.2821 -1.4413  0.3040
 5115SOL     OW26977   0.577   1.880   1.194  0.0716 -0.3482 -0.5012
 5115SOL    HW126978   0.489   1.840   1.193  0.5336 -1.4466  2.0132
 5115SOL    HW226979   0.562   1.973   1.208  1.2392 -0.0527 -1.2682
 5116SOL     OW26980   0.071   3.127   5.009 -0.4648  0.0208 -0.2434
 5116SOL    HW126981   0.022   3.059   5.056  1.9649 -1.1589  0.5646
 5116SOL    HW226982   0.079   3.186   5.084 -0.8438  0.3010 -0.4234
 5117SOL     OW26983   2.704   2.874  11.400  0.3583  0.3219  0.6162
 5117SOL    HW126984   2.725   2.824  11.321  0.5934  1.5992 -0.1249
 5117SOL    HW226985   2.612   2.851  11.400  0.5928 -0.6447 -0.3193
 5118SOL     OW26986   3.175   4.519   3.241 -0.9392  0.1528  0.6410
 5118SOL    HW126987   3.092   4.547   3.280 -0.7840  1.8374 -0.2818
 5118SOL    HW226988   3.202   4.454   3.306  0.1430  1.7187  1.7561
 5119SOL     OW26989   3.577   3.281  15.260  0.5371 -0.0279  0.3481
 5119SOL    HW126990   3.647   3.280  15.325  0.3471  1.9520  0.5761
 5119SOL    HW226991   3.626   3.273  15.177 -1.7097  0.5282 -1.0228
 5120SOL     OW26992   2.475   2.236   4.288  0.0724  0.4428 -0.5060
 5120SOL    HW126993   2.546   2.189   4.334 -0.4736 -0.5441 -0.6822
 5120SOL    HW226994   2.421   2.161   4.263 -1.5427  1.6280 -0.5629
 5121SOL     OW26995   1.940   3.475   6.710 -0.4769 -0.0745 -0.4173
 5121SOL    HW126996   1.901   3.392   6.683 -1.1603 -0.3860  1.5210
 5121SOL    HW226997   1.968   3.515   6.628 -0.3882  1.6121  0.4270
 5122SOL     OW26998   3.711   2.705   2.748 -0.3971 -0.5442 -0.1701
 5122SOL    HW126999   3.709   2.699   2.844 -1.5321 -1.5232 -0.2517
 5122SOL    HW227000   3.789   2.756   2.728  0.3122 -1.3227  0.6407
 5123SOL     OW27001   2.912   1.872   2.943  0.1448 -0.2616  0.7151
 5123SOL    HW127002   2.981   1.806   2.948  0.5145  0.0674  0.0042
 5123SOL    HW227003   2.842   1.833   2.996 -1.1183  0.8312 -0.1367
 5124SOL     OW27004   1.920   0.629   8.732 -0.0120  0.1160  0.4494
 5124SOL    HW127005   1.976   0.557   8.703 -0.0778  0.3670 -0.3014
 5124SOL    HW227006   1.866   0.639   8.654  2.4563 -0.8078 -1.3870
 5125SOL     OW27007   4.257   2.160   6.932  0.2375  0.4194  0.4250
 5125SOL    HW127008   4.211   2.226   6.880 -1.0182 -0.2255  0.7165
 5125SOL    HW227009   4.203   2.152   7.010 -1.5085  3.7453 -0.4535
 5126SOL     OW27010   4.642   0.773   5.951 -0.1464 -0.4439 -1.1060
 5126SOL    HW127011   4.701   0.847   5.939  1.3541 -1.3542  0.4891
 5126SOL    HW227012   4.630   0.786   6.045  1.5989 -3.6339 -0.4458
 5127SOL     OW27013   3.854   2.612  12.104 -0.2535 -0.3970 -0.4155
 5127SOL    HW127014   3.801   2.608  12.183 -1.1178  0.5712 -0.9531
 5127SOL    HW227015   3.945   2.611  12.135 -1.2651 -0.9457  2.4843
 5128SOL     OW27016   3.328   4.274   3.047  0.2951 -0.3794  0.7331
 5128SOL    HW127017   3.297   4.304   2.962  1.4465 -1.6448 -0.1284
 5128SOL    HW227018   3.251   4.252   3.100 -0.7659  1.2891 -0.1198
 5129SOL     OW27019   2.502   0.038   5.890  0.1290 -0.6321  0.4554
 5129SOL    HW127020   2.576   4.715   5.887  2.4003  2.1141  0.8296
 5129SOL    HW227021   2.423   4.725   5.906  1.0029 -1.2998  2.7185
 5130SOL     OW27022   0.172   3.836   2.315 -0.4956  0.1559  0.7384
 5130SOL    HW127023   0.218   3.760   2.280  0.0087  1.7776 -2.0973
 5130SOL    HW227024   0.085   3.808   2.287 -0.4256 -0.1280  0.8014
 5131SOL     OW27025   2.909   2.150   6.743 -0.6288 -0.0532 -0.1404
 5131SOL    HW127026   2.954   2.229   6.713  1.1462 -0.7131  0.7394
 5131SOL    HW227027   2.866   2.169   6.826 -0.6347 -3.0676  0.5397
 5132SOL     OW27028   3.515   3.078   4.794  0.1686 -0.4903 -0.2564
 5132SOL    HW127029   3.464   3.156   4.774 -0.0922 -1.1690 -2.1592
 5132SOL    HW227030   3.601   3.119   4.783 -0.1343  0.0876 -0.4817
 5133SOL     OW27031   3.601   0.305   7.108 -0.9499  0.3147 -0.6010
 5133SOL    HW127032   3.556   0.387   7.090 -0.7856  0.4959 -0.1885
 5133SOL    HW227033   3.686   0.342   7.132 -0.1923 -1.6183 -0.2720
 5134SOL     OW27034   4.698   2.629  17.274  0.0203  0.6783  0.2854
 5134SOL    HW127035   4.691   2.542  17.313 -0.9230  1.1650  1.2015
 5134SOL    HW227036   0.053   2.657  17.278  0.6912 -1.3274 -1.1079
 5135SOL     OW27037   1.242   1.438   0.889  0.2264 -0.0351  0.5286
 5135SOL    HW127038   1.330   1.440   0.852  0.0537  2.5710  0.2194
 5135SOL    HW227039   1.239   1.354   0.935 -1.9877  0.1298  0.6978
 5136SOL     OW27040   1.489   3.847   1.734 -0.6768  0.1441  0.4262
 5136SOL    HW127041   1.576   3.818   1.707  0.5402  3.0309  1.2651
 5136SOL    HW227042   1.497   3.872   1.826 -2.0840 -0.2809  0.6593
 5137SOL     OW27043   1.988   3.913  13.449 -0.1290 -0.2968 -0.0626
 5137SOL    HW127044   1.901   3.901  13.411 -0.3969  0.2028  0.3994
 5137SOL    HW227045   1.998   3.839  13.509  0.0291 -1.7591 -1.8900
 5138SOL     OW27046   2.554   2.624   3.490 -0.1946 -0.0895  0.4095
 5138SOL    HW127047   2.612   2.557   3.527 -0.8585 -0.0709  1.4944
 5138SOL    HW227048   2.531   2.664   3.574  2.3342  0.3980  0.8724
 5139SOL     OW27049   4.600   0.863   5.286 -0.4065 -0.3228 -0.3060
 5139SOL    HW127050   4.691   0.860   5.255  0.1236  1.9652  1.0755
 5139SOL    HW227051   4.560   0.779   5.263  0.3195 -0.1687 -2.1544
 5140SOL     OW27052   3.985   0.160   6.510  0.0433 -0.4204 -0.0618
 5140SOL    HW127053   3.900   0.167   6.465  0.7565  2.6390 -0.9534
 5140SOL    HW227054   4.048   0.119   6.452  0.7841  0.1737  0.3242
 5141SOL     OW27055   0.590   0.714   9.336  0.1500  0.1633 -0.4867
 5141SOL    HW127056   0.520   0.761   9.382 -0.8639 -1.3207 -0.5183
 5141SOL    HW227057   0.606   0.756   9.252 -1.7052 -0.2500 -1.0389
 5142SOL     OW27058   3.195   4.278   8.320 -0.0749 -0.9325 -0.2451
 5142SOL    HW127059   3.183   4.189   8.286 -1.2383 -0.5522 -0.8316
 5142SOL    HW227060   3.172   4.259   8.411 -0.5721 -2.0232 -0.6044
 5143SOL     OW27061   4.325   2.925   6.779 -0.4623 -0.2211  1.0751
 5143SOL    HW127062   4.303   3.007   6.823  0.9436  0.5056  0.4346
 5143SOL    HW227063   4.307   2.855   6.842  0.4253 -2.8981 -1.6154
 5144SOL     OW27064   2.096   1.833   6.976 -0.6598  0.2705 -0.4566
 5144SOL    HW127065   2.131   1.908   6.928  0.1588 -0.6017 -1.2249
 5144SOL    HW227066   2.021   1.807   6.923 -1.4247 -0.3321  0.9268
 5145SOL     OW27067   3.013   4.476  16.731 -0.0077  0.3861  0.1288
 5145SOL    HW127068   2.949   4.482  16.660  0.5279  0.2417 -0.3715
 5145SOL    HW227069   3.091   4.513  16.688 -2.0661  4.0411 -0.4564
 5146SOL     OW27070   0.375   1.373   2.000 -0.0034  0.1226 -0.4879
 5146SOL    HW127071   0.373   1.456   1.953  0.5034 -0.1884 -1.0635
 5146SOL    HW227072   0.370   1.404   2.091 -0.6024 -1.4170  0.0110
 5147SOL     OW27073   2.164   3.825   6.381 -0.1582 -0.7246 -0.5793
 5147SOL    HW127074   2.143   3.830   6.288  0.1708  2.1954 -0.5130
 5147SOL    HW227075   2.110   3.900   6.407  1.8826  0.2422  0.9413
 5148SOL     OW27076   4.064   1.884   6.381 -0.0650  0.2250  0.3870
 5148SOL    HW127077   4.016   1.933   6.314 -1.0208  1.1313  1.7370
 5148SOL    HW227078   4.052   1.796   6.346  0.6966 -0.7381  2.5098
 5149SOL     OW27079   0.220   0.837  13.462  0.1793 -0.2871  0.4366
 5149SOL    HW127080   0.231   0.745  13.438 -0.4342 -0.5479  1.1653
 5149SOL    HW227081   0.165   0.838  13.540 -1.2740 -2.5057 -0.5902
 5150SOL     OW27082   1.981   4.100   7.834  0.6294 -0.0735 -0.0691
 5150SOL    HW127083   2.070   4.091   7.799 -0.3770  0.9089 -2.9203
 5150SOL    HW227084   1.917   4.073   7.768  0.8919 -0.8366 -0.0118
 5151SOL     OW27085   1.380   2.249   7.314 -0.2192 -0.3101 -0.8124
 5151SOL    HW127086   1.462   2.200   7.304  0.6915  1.4674 -1.8811
 5151SOL    HW227087   1.388   2.341   7.290 -2.4838  0.1882  0.3574
 5152SOL     OW27088   2.773   4.585   7.614 -0.2107 -0.5528  0.2467
 5152SOL    HW127089   2.805   4.645   7.682 -0.8557  0.3717 -0.2828
 5152SOL    HW227090   2.738   4.650   7.553 -1.2734  0.2040  1.6540
 5153SOL     OW27091   2.359   1.120   1.151  0.7047  0.1266 -0.2718
 5153SOL    HW127092   2.280   1.066   1.158 -0.6131  2.0075 -0.6877
 5153SOL    HW227093   2.402   1.125   1.236 -0.4495 -1.2593  0.3925
 5154SOL     OW27094   0.861   0.731   5.287 -0.1780 -0.3492  0.6087
 5154SOL    HW127095   0.895   0.820   5.294 -0.7609 -0.0271 -0.6938
 5154SOL    HW227096   0.889   0.700   5.201  1.3037 -0.0080  0.9675
 5155SOL     OW27097   1.990   3.845   3.318 -0.1226  0.0319 -0.5758
 5155SOL    HW127098   1.909   3.886   3.289 -0.2598  0.7965  0.8899
 5155SOL    HW227099   2.003   3.767   3.264 -0.6260 -1.0016  0.7955
 5156SOL     OW27100   3.322   2.036   5.853  1.0943  0.6813  0.3553
 5156SOL    HW127101   3.282   2.103   5.908  0.3774  1.1875 -0.7786
 5156SOL    HW227102   3.257   2.027   5.783  0.7849 -1.1610  0.8765
 5157SOL     OW27103   0.453   0.450   6.028 -0.0150 -0.0206 -0.2308
 5157SOL    HW127104   0.470   0.481   5.939 -0.5844 -2.9406 -1.3503
 5157SOL    HW227105   0.537   0.459   6.073  0.6437 -1.7852 -1.1302
 5158SOL     OW27106   0.976   0.140   5.095 -0.6145 -0.0822  0.1734
 5158SOL    HW127107   1.004   0.048   5.086  0.2905  0.0933  1.2868
 5158SOL    HW227108   0.896   0.144   5.043  0.1839  3.1041 -0.7982
 5159SOL     OW27109   3.293   3.883   3.871 -0.5280  0.2116  0.1294
 5159SOL    HW127110   3.267   3.912   3.958 -1.2228 -1.5320  0.5048
 5159SOL    HW227111   3.226   3.823   3.837 -1.9345  1.2806  1.0075
 5160SOL     OW27112   3.766   3.191   3.386 -0.1604  0.3701 -0.0185
 5160SOL    HW127113   3.832   3.152   3.442 -1.4972 -1.5099  0.2527
 5160SOL    HW227114   3.795   3.280   3.369 -1.4473  0.9783  1.0232
 5161SOL     OW27115   2.076   3.549   6.444  0.0186  0.2276  0.0387
 5161SOL    HW127116   2.151   3.503   6.481  0.1440  1.1246  0.9036
 5161SOL    HW227117   2.114   3.637   6.442  3.1010 -1.0552  1.5322
 5162SOL     OW27118   1.341   0.162   3.537  0.8175 -0.4051  0.4842
 5162SOL    HW127119   1.395   0.236   3.564  0.4129  0.3696 -0.8494
 5162SOL    HW227120   1.249   0.186   3.544  1.1636  0.2747  2.5712
 5163SOL     OW27121   3.765   2.121   8.914 -0.0311  0.3580  0.3739
 5163SOL    HW127122   3.751   2.191   8.978 -0.2777 -0.9033  1.7146
 5163SOL    HW227123   3.694   2.064   8.945 -2.0075  2.3147 -0.6116
 5164SOL     OW27124   3.264   1.956   6.338  0.2994  0.8416  0.0003
 5164SOL    HW127125   3.328   1.913   6.395 -3.0558 -1.5165  1.9748
 5164SOL    HW227126   3.271   2.041   6.381  1.0475  0.7731  0.0222
 5165SOL     OW27127   2.278   1.553  13.996 -0.8555 -0.0809 -0.1132
 5165SOL    HW127128   2.273   1.636  14.043 -0.7828  0.6520 -1.3801
 5165SOL    HW227129   2.255   1.489  14.064 -1.6531  1.4759  1.0708
 5166SOL     OW27130   4.004   2.134  10.290 -0.1977  0.1522  0.1461
 5166SOL    HW127131   4.010   2.058  10.347 -1.0751  0.6676  0.9191
 5166SOL    HW227132   4.035   2.092  10.210 -2.9271  0.1276 -0.9017
 5167SOL     OW27133   1.826   4.459   3.559  0.3627 -0.1589  0.1813
 5167SOL    HW127134   1.891   4.443   3.627  1.3834  1.5240 -0.3880
 5167SOL    HW227135   1.746   4.473   3.610 -0.0251  0.1319 -0.4977
 5168SOL     OW27136   3.137   3.371   7.734 -0.0275 -0.2517 -0.4098
 5168SOL    HW127137   3.070   3.305   7.752  0.9273 -0.7770  1.2038
 5168SOL    HW227138   3.079   3.418   7.674  1.3597  2.6395  0.5087
 5169SOL     OW27139   0.017   0.635  13.852 -0.0281  0.3477  0.0209
 5169SOL    HW127140   0.112   0.651  13.859 -0.5464  4.6144 -2.3587
 5169SOL    HW227141   0.014   0.541  13.835  0.3818  0.1541  1.0131
 5170SOL     OW27142   0.912   3.791   9.348  0.6750 -0.0357 -0.5279
 5170SOL    HW127143   0.836   3.839   9.314  0.2969  0.3269  0.8300
 5170SOL    HW227144   0.883   3.761   9.434  2.2309 -0.5619 -0.1815
 5171SOL     OW27145   2.453   3.091  17.296  0.0792 -0.5522 -0.1034
 5171SOL    HW127146   2.521   3.156  17.315  0.1667 -0.6715 -0.0066
 5171SOL    HW227147   2.493   3.010  17.328  1.2665 -0.7524 -2.1470
 5172SOL     OW27148   0.080   3.094   7.252 -0.6082  0.1602 -0.1878
 5172SOL    HW127149   0.006   3.143   7.217  0.0432  1.6338  0.4956
 5172SOL    HW227150   0.079   3.028   7.183  1.3482 -2.7514  2.5204
 5173SOL     OW27151   3.100   1.695   1.841 -0.3889  0.1629 -0.5257
 5173SOL    HW127152   3.155   1.652   1.775 -0.3117 -0.3064 -0.1539
 5173SOL    HW227153   3.099   1.616   1.895 -0.2415  0.5947  0.0975
 5174SOL     OW27154   2.267   2.206   7.367 -0.0753  0.1473  0.3468
 5174SOL    HW127155   2.249   2.264   7.440 -1.3483  1.1614 -0.7611
 5174SOL    HW227156   2.199   2.138   7.365  0.0599  0.0357 -0.5666
 5175SOL     OW27157   2.502   1.489   1.769  0.2150  0.3822 -0.0218
 5175SOL    HW127158   2.438   1.425   1.798  0.2210 -0.0136 -0.8868
 5175SOL    HW227159   2.582   1.460   1.813 -0.3513 -0.9006  0.1495
 5176SOL     OW27160   1.992   0.368   4.808 -0.7764 -0.0393 -0.3822
 5176SOL    HW127161   2.005   0.458   4.777 -0.3484 -0.6040 -1.8383
 5176SOL    HW227162   2.012   0.379   4.901  0.5550 -0.1955 -0.6465
 5177SOL     OW27163   3.156   3.880  13.986  0.2096  0.6411 -0.5549
 5177SOL    HW127164   3.134   3.970  14.008 -0.5764  0.9761 -2.7003
 5177SOL    HW227165   3.249   3.881  14.008  0.4380 -1.4867 -1.3858
 5178SOL     OW27166   0.734   1.109  13.730 -0.7278  0.1607  0.0303
 5178SOL    HW127167   0.709   1.195  13.696  1.4231  0.9363  0.4383
 5178SOL    HW227168   0.692   1.051  13.666  1.0572  1.0710 -1.9437
 5179SOL     OW27169   4.715   0.331  17.619  0.2790  0.0566  0.3667
 5179SOL    HW127170   4.698   0.351  17.711 -0.1940  1.6196 -0.0651
 5179SOL    HW227171   0.043   0.399  17.605 -1.2737  1.2205 -1.0790
 5180SOL     OW27172   2.112   0.444   1.416 -0.5073  0.3475  0.4859
 5180SOL    HW127173   2.153   0.521   1.456 -0.3777 -0.9874  2.9305
 5180SOL    HW227174   2.154   0.382   1.476 -0.1783 -0.7189 -0.8673
 5181SOL     OW27175   2.023   4.560   9.065  0.3538  0.1460  0.5527
 5181SOL    HW127176   2.105   4.609   9.076  0.8647 -0.5008 -0.3467
 5181SOL    HW227177   2.025   4.502   9.141  1.7199  0.2013  0.5641
 5182SOL     OW27178   2.508   4.433  15.643  0.4895  0.4178 -0.3195
 5182SOL    HW127179   2.477   4.488  15.571  0.9455 -1.0707 -1.6457
 5182SOL    HW227180   2.601   4.432  15.622  1.2741  0.1401  3.2197
 5183SOL     OW27181   4.192   3.354   6.984 -0.6236  0.0840 -0.4017
 5183SOL    HW127182   4.176   3.404   7.064 -0.4645  0.3963 -0.5631
 5183SOL    HW227183   4.104   3.350   6.947 -1.0591  0.8171  0.5616
 5184SOL     OW27184   2.559   0.533  11.676 -0.0179 -0.3080 -0.1483
 5184SOL    HW127185   2.561   0.445  11.639  2.7963  0.3699 -1.5626
 5184SOL    HW227186   2.579   0.590  11.602 -2.0114  2.3417  1.3443
 5185SOL     OW27187   4.449   1.490   6.791  0.1699 -0.0138  0.5583
 5185SOL    HW127188   4.488   1.456   6.872  0.5950 -2.5532 -0.6996
 5185SOL    HW227189   4.452   1.415   6.731 -2.2101 -1.0396  1.7237
 5186SOL     OW27190   3.677   3.660   9.224  0.3407  0.9068  0.5204
 5186SOL    HW127191   3.681   3.574   9.266  2.9196  0.0839 -1.3863
 5186SOL    HW227192   3.762   3.664   9.180  0.2236  2.0800  0.4147
 5187SOL     OW27193   3.625   0.367   6.656 -0.2215 -0.4798  0.0365
 5187SOL    HW127194   3.618   0.273   6.638  0.6954 -0.5578  0.1185
 5187SOL    HW227195   3.689   0.362   6.727 -0.1305  1.2803  0.0734
 5188SOL     OW27196   1.055   1.973  16.800 -0.1027 -0.1275 -0.2067
 5188SOL    HW127197   0.968   1.993  16.767  1.3386  1.4579 -3.0273
 5188SOL    HW227198   1.104   1.943  16.723 -1.3982 -2.0342 -0.2930
 5189SOL     OW27199   2.777   4.674   9.201 -0.7210 -0.1079  0.0971
 5189SOL    HW127200   2.850   4.622   9.235  0.4803  0.9752 -0.8215
 5189SOL    HW227201   2.822   4.732   9.140 -1.7212  0.0960 -0.4444
 5190SOL     OW27202   0.708   4.332   9.662 -0.6412 -0.0396 -1.0265
 5190SOL    HW127203   0.682   4.289   9.744  0.6625 -0.4346 -0.8328
 5190SOL    HW227204   0.662   4.415   9.678 -1.4557 -1.2206  2.7952
 5191SOL     OW27205   0.645   1.629  16.566  0.0002 -0.0016 -0.0341
 5191SOL    HW127206   0.700   1.615  16.489 -1.7493  0.5442 -1.3794
 5191SOL    HW227207   0.613   1.717  16.549 -0.9586 -0.7654 -2.3168
 5192SOL     OW27208   1.910   3.768  16.442 -0.1180  0.6992 -0.4697
 5192SOL    HW127209   1.958   3.774  16.525  0.3228 -0.5015 -0.6426
 5192SOL    HW227210   1.919   3.673  16.434 -0.4625  0.4765  1.8729
 5193SOL     OW27211   0.545   2.991   2.170  0.1418 -0.7496 -0.4766
 5193SOL    HW127212   0.533   3.025   2.259  4.5983 -2.0615  0.6281
 5193SOL    HW227213   0.639   2.977   2.164  0.1765 -1.4580  1.5566
 5194SOL     OW27214   1.903   2.416   7.152 -0.4501 -0.1659 -0.0194
 5194SOL    HW127215   1.962   2.423   7.227 -1.7032 -1.4550  1.0805
 5194SOL    HW227216   1.874   2.507   7.150  1.5521  0.4296 -1.4271
 5195SOL     OW27217   4.703   3.383   9.498  0.2493  0.4518 -0.4893
 5195SOL    HW127218   0.027   3.432   9.553 -0.4260  1.1909 -0.4013
 5195SOL    HW227219   4.668   3.317   9.558 -2.0017  1.7106 -0.4308
 5196SOL     OW27220   0.924   2.992   5.967  0.1417 -0.5993 -0.1822
 5196SOL    HW127221   1.011   2.995   5.928  1.2442  0.2229  2.3579
 5196SOL    HW227222   0.904   2.899   5.967  2.0011 -1.0009  1.0230
 5197SOL     OW27223   2.706   1.585  17.642  0.2154 -0.3004 -0.0390
 5197SOL    HW127224   2.624   1.627  17.615  0.4794 -0.1826 -0.6469
 5197SOL    HW227225   2.750   1.574  17.558 -1.7637 -0.2135 -1.1030
 5198SOL     OW27226   2.413   0.447   6.581  0.2544  0.7411 -0.1603
 5198SOL    HW127227   2.462   0.468   6.661  0.2085  2.9637 -0.7138
 5198SOL    HW227228   2.482   0.442   6.515  0.4373  0.3331  0.0584
 5199SOL     OW27229   0.747   0.933   1.655  0.3227  0.4180 -0.2701
 5199SOL    HW127230   0.783   0.904   1.739 -0.6937 -1.6364 -0.5506
 5199SOL    HW227231   0.807   0.898   1.588  0.2928  1.0116 -0.6090
 5200SOL     OW27232   1.504   3.165   1.665 -0.2936 -0.1461 -0.6687
 5200SOL    HW127233   1.509   3.074   1.637 -1.0683  0.2563 -2.1508
 5200SOL    HW227234   1.478   3.158   1.756  0.1510 -1.4816 -0.6470
 5201SOL     OW27235   2.514   2.379   5.261  0.1078  0.1202  0.5292
 5201SOL    HW127236   2.505   2.304   5.320 -0.9842 -0.4012 -0.3076
 5201SOL    HW227237   2.490   2.451   5.319 -0.1687  0.3583  0.1118
 5202SOL     OW27238   4.453   0.451  12.851  0.0066 -0.3347 -0.4998
 5202SOL    HW127239   4.441   0.542  12.824  1.9380 -0.0708 -0.4553
 5202SOL    HW227240   4.390   0.415  12.787  0.0948 -0.1773 -0.6736
 5203SOL     OW27241   1.527   3.847   2.440  0.7409  0.1715 -0.5728
 5203SOL    HW127242   1.483   3.795   2.507 -0.2028  0.2848 -1.1164
 5203SOL    HW227243   1.462   3.833   2.371  0.2178 -0.7168  0.1016
 5204SOL     OW27244   3.853   2.833  15.261 -0.3544 -0.1250  0.2594
 5204SOL    HW127245   3.928   2.886  15.289  1.0021 -1.3825 -0.9782
 5204SOL    HW227246   3.908   2.771  15.213 -0.3629  1.7715 -2.1603
 5205SOL     OW27247   1.341   3.729   8.759 -0.7278 -0.0927 -0.0117
 5205SOL    HW127248   1.293   3.671   8.818  1.1695 -1.4341  0.1821
 5205SOL    HW227249   1.276   3.728   8.688 -1.2229 -2.6233  0.4704
 5206SOL     OW27250   4.490   2.891   4.922 -0.3080 -0.0562  0.5559
 5206SOL    HW127251   4.518   2.927   5.007 -1.5269  2.2353 -0.0222
 5206SOL    HW227252   4.571   2.907   4.874 -2.8726  0.2069 -3.6404
 5207SOL     OW27253   0.549   2.248  17.160  0.1397 -0.2957  0.2986
 5207SOL    HW127254   0.540   2.153  17.147  1.0022 -0.5002  1.1287
 5207SOL    HW227255   0.582   2.290  17.081  0.3827 -0.2688  0.4119
 5208SOL     OW27256   3.028   4.586  14.465  0.4160 -0.3297  0.1342
 5208SOL    HW127257   3.063   4.602  14.377  0.8643 -0.6596  0.2506
 5208SOL    HW227258   3.107   4.611  14.512 -0.4413  1.7885  0.4379
 5209SOL     OW27259   2.653   4.175  13.163  0.5300  0.8070 -0.1177
 5209SOL    HW127260   2.724   4.124  13.202  0.9060 -0.0802 -1.9603
 5209SOL    HW227261   2.620   4.230  13.234  2.1888  1.5668  0.0485
 5210SOL     OW27262   0.538   1.018  14.703 -0.0079 -0.2570  1.1458
 5210SOL    HW127263   0.593   1.059  14.637  1.2765  0.9068  2.9582
 5210SOL    HW227264   0.559   0.925  14.692 -0.2779  0.1676 -3.0396
 5211SOL     OW27265   0.374   3.478   9.274 -0.3025  0.1005 -0.2741
 5211SOL    HW127266   0.421   3.395   9.262  0.4909  0.7735 -1.7725
 5211SOL    HW227267   0.308   3.460   9.207  0.0961 -1.3057 -0.3002
 5212SOL     OW27268   2.210   0.462   2.644 -0.2094  0.1559 -0.2181
 5212SOL    HW127269   2.136   0.512   2.679  1.1994  3.9241 -2.6751
 5212SOL    HW227270   2.238   0.517   2.571 -0.7467  1.5782  0.6541
 5213SOL     OW27271   1.414   2.177   7.944 -0.3771 -0.0451 -0.0197
 5213SOL    HW127272   1.481   2.244   7.928 -0.7585  0.0783 -1.0879
 5213SOL    HW227273   1.472   2.101   7.950 -0.3218 -0.0586 -0.6838
 5214SOL     OW27274   2.159   3.806  17.528 -0.0798  0.4253  0.1405
 5214SOL    HW127275   2.071   3.833  17.554  0.3649 -0.6157  2.8188
 5214SOL    HW227276   2.193   3.883  17.484 -1.8809  1.4322  0.5099
 5215SOL     OW27277   1.648   1.938   5.700 -0.6999  0.0566  0.2966
 5215SOL    HW127278   1.725   1.963   5.750  0.3786  0.3220 -1.4871
 5215SOL    HW227279   1.629   1.862   5.755 -0.8634 -1.9434 -2.5239
 5216SOL     OW27280   4.101   2.141   1.251  0.1075  0.1175 -0.3707
 5216SOL    HW127281   4.122   2.232   1.230  0.6488  0.0195 -0.2740
 5216SOL    HW227282   4.187   2.100   1.263 -1.3427 -2.9976 -0.6951
 5217SOL     OW27283   4.042   0.820   5.154  0.4138 -0.5236 -0.5142
 5217SOL    HW127284   4.081   0.855   5.234  2.4984 -1.6709 -1.0033
 5217SOL    HW227285   3.960   0.869   5.152  0.3910 -0.4594  2.4887
 5218SOL     OW27286   0.008   0.631   9.230 -0.4627 -0.3019 -0.2290
 5218SOL    HW127287   4.730   0.720   9.262 -1.1344 -0.5713  0.2075
 5218SOL    HW227288   0.104   0.630   9.225 -0.4944  1.6778 -1.3657
 5219SOL     OW27289   0.767   3.223   9.400  0.3359  0.2224  0.4764
 5219SOL    HW127290   0.852   3.236   9.359 -0.7488  4.0180 -0.5789
 5219SOL    HW227291   0.786   3.212   9.493  2.7169  0.4424  0.0125
 5220SOL     OW27292   3.868   3.094   6.538 -0.2740 -0.2413 -0.0999
 5220SOL    HW127293   3.845   3.036   6.466 -0.1863  1.2382 -1.3291
 5220SOL    HW227294   3.957   3.062   6.554 -0.2593 -0.1366  0.0261
 5221SOL     OW27295   4.290   1.915   8.537  0.5496 -0.0995  0.2534
 5221SOL    HW127296   4.324   1.986   8.483  0.5682 -0.3475 -0.0572
 5221SOL    HW227297   4.252   1.969   8.607  3.0134  1.0455  0.7024
 5222SOL     OW27298   3.207   4.677   5.365 -0.3373 -0.2706 -0.5235
 5222SOL    HW127299   3.233   4.684   5.274 -0.2436  2.1024 -0.3142
 5222SOL    HW227300   3.224   4.584   5.379  2.7628  0.3357 -0.4405
 5223SOL     OW27301   2.413   1.078  13.875 -0.0030 -0.0885 -0.3845
 5223SOL    HW127302   2.419   1.173  13.879 -0.2840 -0.0962  0.3548
 5223SOL    HW227303   2.500   1.051  13.846  0.0013  1.6146 -1.9393
 5224SOL     OW27304   0.610   2.437  11.392 -0.1803 -0.6168  0.3253
 5224SOL    HW127305   0.541   2.422  11.457 -0.8347 -0.7970 -0.4191
 5224SOL    HW227306   0.666   2.367  11.428  2.2526  1.3317  0.3113
 5225SOL     OW27307   3.623   2.850   4.706 -0.2023 -0.3569  0.1177
 5225SOL    HW127308   3.710   2.875   4.675 -0.1920 -1.3860 -0.6927
 5225SOL    HW227309   3.591   2.935   4.736  1.5045  0.4343 -0.3067
 5226SOL     OW27310   3.812   1.769   8.309  0.1470 -0.1259  0.3888
 5226SOL    HW127311   3.844   1.829   8.376  0.7713  0.7291 -0.6621
 5226SOL    HW227312   3.833   1.683   8.345  3.8575 -0.7708 -3.3391
 5227SOL     OW27313   3.598   3.655   8.495 -0.0524 -0.7188  0.6573
 5227SOL    HW127314   3.644   3.659   8.411  1.9279  0.8713  1.8240
 5227SOL    HW227315   3.514   3.617   8.471 -0.1679  0.6728 -1.1802
 5228SOL     OW27316   4.276   4.239   9.204 -0.3120  0.1997  0.2268
 5228SOL    HW127317   4.255   4.332   9.216 -0.4157  0.0135  1.4947
 5228SOL    HW227318   4.331   4.218   9.280 -0.1965 -1.8136 -0.4354
 5229SOL     OW27319   1.639   0.331   5.565  0.4992  0.3663 -0.3036
 5229SOL    HW127320   1.709   0.345   5.502  2.2189 -1.7753  1.1106
 5229SOL    HW227321   1.604   0.247   5.534  0.5060  0.2375  0.0392
 5230SOL     OW27322   2.384   0.132   8.957 -0.1460 -0.1675  0.1516
 5230SOL    HW127323   2.464   0.079   8.954 -0.7537 -1.1899  1.6844
 5230SOL    HW227324   2.425   0.219   8.958 -0.9583  0.2675 -4.4801
 5231SOL     OW27325   1.473   0.404   3.551  0.2553 -0.3011 -0.2428
 5231SOL    HW127326   1.398   0.454   3.584  0.7319 -0.1314  0.5828
 5231SOL    HW227327   1.481   0.444   3.464 -0.7529  0.0801 -0.1649
 5232SOL     OW27328   4.303   1.154  10.301 -0.1054  0.7844 -0.1062
 5232SOL    HW127329   4.259   1.159  10.386  0.5827  1.5369  0.1970
 5232SOL    HW227330   4.378   1.101  10.330 -0.2429  0.2185 -0.7964
 5233SOL     OW27331   4.438   3.543   6.788 -0.3447  0.4574  0.0960
 5233SOL    HW127332   4.459   3.631   6.757 -1.4977  1.1439  1.2391
 5233SOL    HW227333   4.377   3.560   6.860  1.0608  0.6884  1.2325
 5234SOL     OW27334   3.551   0.630  11.800 -0.1953 -0.2990  0.0059
 5234SOL    HW127335   3.587   0.717  11.820  0.1506 -0.7356  1.2692
 5234SOL    HW227336   3.554   0.596  11.889  0.4861  0.0876  0.1318
 5235SOL     OW27337   3.897   2.395   6.283 -0.7871 -0.8684 -0.1774
 5235SOL    HW127338   3.950   2.344   6.344 -0.7189 -2.4168 -1.5316
 5235SOL    HW227339   3.889   2.332   6.212 -2.1869  1.5739 -2.2068
 5236SOL     OW27340   3.330   3.615   3.464  0.0465 -0.5969  0.1344
 5236SOL    HW127341   3.413   3.568   3.454  0.8803  0.9245 -0.0825
 5236SOL    HW227342   3.273   3.539   3.472 -1.0337  0.2516  0.5541
 5237SOL     OW27343   3.230   2.436   2.227  0.3359 -0.4894  0.1729
 5237SOL    HW127344   3.280   2.357   2.246  1.3378  0.0586 -0.1915
 5237SOL    HW227345   3.303   2.497   2.218  0.3365 -0.8432 -1.9626
 5238SOL     OW27346   1.012   1.717   7.768 -0.1360 -0.1750 -0.0229
 5238SOL    HW127347   1.073   1.730   7.840  0.4671  0.4160 -0.6405
 5238SOL    HW227348   1.068   1.754   7.700 -0.5156  1.4006  0.5084
 5239SOL     OW27349   0.077   3.161   9.231 -0.3284 -0.2601  0.1384
 5239SOL    HW127350   0.124   3.181   9.312  2.0773 -2.3238 -0.7616
 5239SOL    HW227351   0.069   3.066   9.242  0.1997 -0.1691  1.2664
 5240SOL     OW27352   4.224   1.594   6.919  0.3498 -0.3137 -0.7892
 5240SOL    HW127353   4.284   1.546   6.863  0.6784  1.1400 -1.6848
 5240SOL    HW227354   4.252   1.686   6.925 -2.0122  0.4012 -0.5996
 5241SOL     OW27355   1.299   1.736   3.005 -0.3811 -0.5387  0.5284
 5241SOL    HW127356   1.365   1.789   2.960 -0.8141  0.7244  1.3610
 5241SOL    HW227357   1.226   1.721   2.945  0.3399  0.4483 -0.5899
 5242SOL     OW27358   2.765   2.111   4.018  0.0380 -0.2873  0.0018
 5242SOL    HW127359   2.803   2.035   4.064 -0.3833 -0.8465 -0.5658
 5242SOL    HW227360   2.679   2.076   3.993  0.2290  0.3368 -1.5119
 5243SOL     OW27361   0.627   3.168  11.686 -0.1342 -0.0932 -0.2721
 5243SOL    HW127362   0.610   3.261  11.676  0.5070 -0.0062 -0.5443
 5243SOL    HW227363   0.630   3.134  11.596  1.1490  3.7361 -1.6655
 5244SOL     OW27364   3.336   1.478   7.654 -0.1490  0.4801  0.5785
 5244SOL    HW127365   3.410   1.491   7.594 -0.3817 -1.2601 -0.0852
 5244SOL    HW227366   3.354   1.549   7.716 -0.2309  0.2846  0.8246
 5245SOL     OW27367   1.375   4.146   4.744 -0.3846 -0.9350 -0.2042
 5245SOL    HW127368   1.316   4.221   4.737 -0.6509 -1.1614 -0.3706
 5245SOL    HW227369   1.452   4.195   4.714 -3.1297  1.6446 -3.1056
 5246SOL     OW27370   3.062   4.354  17.255 -0.6645  0.2526 -0.1714
 5246SOL    HW127371   2.988   4.389  17.205 -0.3674  2.0782  0.6592
 5246SOL    HW227372   3.126   4.396  17.197  0.3722  1.1304  1.5798
 5247SOL     OW27373   1.667   1.023   0.235 -0.0189 -0.1513 -0.2922
 5247SOL    HW127374   1.631   1.058   0.153  1.2794 -1.1067 -1.2781
 5247SOL    HW227375   1.683   0.933   0.207  1.4446  0.5952 -1.9143
 5248SOL     OW27376   2.545   0.956  17.144  0.1866 -0.5416  0.5453
 5248SOL    HW127377   2.599   0.941  17.066  0.4555 -0.9587  0.8155
 5248SOL    HW227378   2.456   0.932  17.116 -0.9036  2.5253  1.3687
 5249SOL     OW27379   0.912   4.732   8.957 -0.3418 -0.3361 -0.0341
 5249SOL    HW127380   0.936   0.054   8.887  1.2221 -0.5057  0.3611
 5249SOL    HW227381   0.851   0.056   9.000 -1.1659 -0.4678 -1.0224
 5250SOL     OW27382   3.736   3.338  13.914  0.0337 -0.2931 -0.5025
 5250SOL    HW127383   3.740   3.260  13.858 -2.7638 -0.4203 -0.5493
 5250SOL    HW227384   3.829   3.358  13.916 -0.0661  0.2447 -1.1136
 5251SOL     OW27385   3.746   1.920   2.958  0.2989 -0.4258 -0.2385
 5251SOL    HW127386   3.690   1.877   3.023  0.6722  0.3091  0.5790
 5251SOL    HW227387   3.782   1.996   3.005  0.0631  1.0250 -2.4139
 5252SOL     OW27388   4.334   2.039  12.141  0.6617  0.1786  0.2437
 5252SOL    HW127389   4.315   1.981  12.215  0.2455 -2.8382 -2.1891
 5252SOL    HW227390   4.392   1.983  12.089 -1.4158 -2.2497  0.5190
 5253SOL     OW27391   0.863   4.616   5.475 -0.5206  0.4405  0.0881
 5253SOL    HW127392   0.850   4.686   5.411  0.0572  1.8530  1.5109
 5253SOL    HW227393   0.775   4.605   5.512  0.0666  0.5866  1.5252
 5254SOL     OW27394   3.347   1.420   4.878  0.4486 -0.6813 -0.0933
 5254SOL    HW127395   3.351   1.441   4.785 -1.3134  1.3243  0.2991
 5254SOL    HW227396   3.306   1.335   4.862 -4.0343  1.4755 -0.0751
 5255SOL     OW27397   4.079   2.836   7.898  0.6968 -0.3286  0.3010
 5255SOL    HW127398   4.037   2.919   7.920 -0.6316 -1.4847  2.0503
 5255SOL    HW227399   4.150   2.867   7.841  2.1299 -1.1799  1.6167
 5256SOL     OW27400   4.121   4.712  17.135  0.5363 -0.2791  0.5359
 5256SOL    HW127401   4.081   4.631  17.104  1.9463 -1.8033  2.7672
 5256SOL    HW227402   4.125   0.028  17.055  0.8464  0.9941  1.3863
 5257SOL     OW27403   0.758   1.251  16.116  0.0938  0.1658 -0.5783
 5257SOL    HW127404   0.714   1.336  16.117 -2.1012 -0.9675 -0.3144
 5257SOL    HW227405   0.851   1.271  16.116 -0.1103  1.0956  0.7651
 5258SOL     OW27406   1.099   0.354   8.080 -0.1531  0.2597  0.0096
 5258SOL    HW127407   1.191   0.358   8.052  0.2144 -2.1570  0.8769
 5258SOL    HW227408   1.066   0.310   8.001  0.1432 -0.6919  0.4112
 5259SOL     OW27409   0.001   2.057  12.625  0.1017  0.8748  0.0187
 5259SOL    HW127410   0.031   2.109  12.550 -0.2038 -0.2734 -0.9107
 5259SOL    HW227411   4.658   2.105  12.648  0.2746  1.2395 -0.1336
 5260SOL     OW27412   0.315   4.283   7.685  0.4828  0.7796  0.7806
 5260SOL    HW127413   0.361   4.366   7.674 -0.3718  0.9921 -1.1385
 5260SOL    HW227414   0.376   4.216   7.715 -0.3119  0.2150  1.1737
 5261SOL     OW27415   1.269   0.029   1.504  0.4134 -0.3792 -0.5956
 5261SOL    HW127416   1.304   4.700   1.445  1.3752 -0.6211  0.2487
 5261SOL    HW227417   1.347   0.038   1.559 -0.1999 -1.2648  0.4410
 5262SOL     OW27418   1.632   0.854  12.589 -0.2279 -0.4554  1.0910
 5262SOL    HW127419   1.606   0.775  12.541  1.1328  1.1277 -2.2169
 5262SOL    HW227420   1.608   0.923  12.528  2.6986 -1.2432 -0.9985
 5263SOL     OW27421   4.516   1.657   5.314  0.3007  0.0405 -0.2204
 5263SOL    HW127422   4.588   1.687   5.257 -0.4802  0.4325 -1.0097
 5263SOL    HW227423   4.501   1.737   5.364  0.7847 -0.4994  0.7742
 5264SOL     OW27424   2.828   2.313   2.980 -0.0939 -0.1089  0.0508
 5264SOL    HW127425   2.853   2.331   2.889  3.0168 -0.3488  0.8493
 5264SOL    HW227426   2.777   2.234   2.963  1.1790  0.0391 -4.3791
 5265SOL     OW27427   1.621   0.093  17.607 -0.0563 -0.1022 -0.0397
 5265SOL    HW127428   1.661   0.165  17.558  0.9097 -1.9299 -1.9393
 5265SOL    HW227429   1.534   0.101  17.570  1.4154  1.5117 -3.1604
 5266SOL     OW27430   4.705   4.573   5.342  0.0769  0.1710 -0.0177
 5266SOL    HW127431   0.042   4.598   5.397 -0.3252  0.7738  0.2485
 5266SOL    HW227432   4.736   4.619   5.264 -1.0286 -1.4274 -1.3927
 5267SOL     OW27433   1.284   2.680   5.124 -0.0844 -0.2182  0.6722
 5267SOL    HW127434   1.354   2.669   5.060 -1.7344 -0.3434 -1.1329
 5267SOL    HW227435   1.233   2.604   5.095 -0.0714  0.2665 -0.6382
 5268SOL     OW27436   1.613   2.675   7.090 -0.3918 -0.0972  0.1665
 5268SOL    HW127437   1.579   2.736   7.155  1.4601  0.2275  0.8188
 5268SOL    HW227438   1.553   2.600   7.086  0.0771 -0.4039 -1.4209
 5269SOL     OW27439   0.761   0.250   1.266  0.0716  0.5012  0.1812
 5269SOL    HW127440   0.853   0.272   1.283  0.3204  0.2108 -0.8259
 5269SOL    HW227441   0.755   0.247   1.171  1.6698 -3.2429  0.2260
 5270SOL     OW27442   3.483   1.830   2.136 -0.3509 -0.1537 -0.4347
 5270SOL    HW127443   3.553   1.863   2.193  0.0344 -2.3011  0.3250
 5270SOL    HW227444   3.496   1.736   2.141  0.8700  0.0893  0.9724
 5271SOL     OW27445   4.341   3.107   7.999 -0.1118  0.0387 -0.0286
 5271SOL    HW127446   4.287   3.052   7.942  0.2508 -1.9840  1.5859
 5271SOL    HW227447   4.277   3.138   8.064 -0.9482 -0.9753 -0.3633
 5272SOL     OW27448   3.590   3.053   2.480 -0.1061  0.0317  0.3663
 5272SOL    HW127449   3.602   3.085   2.569  2.3056  1.6476 -0.5543
 5272SOL    HW227450   3.676   3.061   2.440 -0.2883  0.1984  0.0018
 5273SOL     OW27451   3.375   1.578  16.158 -0.0295  0.0512 -0.3129
 5273SOL    HW127452   3.326   1.504  16.124 -1.5586  0.6642  0.5747
 5273SOL    HW227453   3.381   1.635  16.081  2.2307  1.9800  1.2834
 5274SOL     OW27454   1.245   3.987   5.114  0.0475 -0.2068 -0.4778
 5274SOL    HW127455   1.176   4.048   5.091 -0.5116 -0.9900 -0.9008
 5274SOL    HW227456   1.203   3.905   5.087  0.4125 -0.6983  0.4597
 5275SOL     OW27457   2.184   0.775  14.898 -0.0489  0.2765 -0.0828
 5275SOL    HW127458   2.099   0.801  14.933 -0.3421 -3.2304  1.8751
 5275SOL    HW227459   2.220   0.723  14.970  2.2367  0.0174 -1.4045
 5276SOL     OW27460   3.740   1.732   6.032 -0.2209  0.6257  0.1085
 5276SOL    HW127461   3.817   1.785   6.055  0.4068 -1.5753  3.1286
 5276SOL    HW227462   3.673   1.797   6.054  1.4453  2.0685  1.0272
 5277SOL     OW27463   0.752   2.961   9.742 -0.2079 -0.3144  0.1368
 5277SOL    HW127464   0.734   2.929   9.654 -2.7790  0.9098  0.2391
 5277SOL    HW227465   0.734   3.054   9.735  0.2809 -0.1825  0.6095
 5278SOL     OW27466   3.632   4.512   0.937  0.8041 -0.2840  0.1193
 5278SOL    HW127467   3.566   4.447   0.962 -0.6147  1.0309 -0.2208
 5278SOL    HW227468   3.624   4.497   0.843  3.2543 -2.4468  0.2602
 5279SOL     OW27469   0.969   0.584   1.696  0.1691 -0.0752 -0.5630
 5279SOL    HW127470   0.990   0.598   1.788 -4.4247 -1.1452  0.6391
 5279SOL    HW227471   0.944   0.491   1.701 -0.4414  0.1483  0.6216
 5280SOL     OW27472   3.366   1.435   2.765 -0.6099  0.2674 -0.1162
 5280SOL    HW127473   3.401   1.517   2.800 -1.6114  1.0995 -1.0772
 5280SOL    HW227474   3.274   1.451   2.788  0.3250  0.7988  3.3465
 5281SOL     OW27475   4.137   1.425   7.134 -0.3838 -0.3862  0.1100
 5281SOL    HW127476   4.144   1.482   7.057 -0.4940  0.9174  1.0600
 5281SOL    HW227477   4.107   1.493   7.194  0.5606  1.2260 -1.2604
 5282SOL     OW27478   2.722   1.951   0.640 -0.3585 -0.0383  0.2113
 5282SOL    HW127479   2.793   2.014   0.629 -0.9111 -0.0136 -3.0114
 5282SOL    HW227480   2.689   1.989   0.722 -1.3777 -0.7441  0.1255
 5283SOL     OW27481   1.923   4.668   7.430 -0.6500  0.0478 -0.4284
 5283SOL    HW127482   1.943   4.692   7.339 -0.0262  1.1012 -0.0044
 5283SOL    HW227483   1.831   4.645   7.420 -0.6662 -0.2789  0.4971
 5284SOL     OW27484   3.720   3.287  17.047  0.1471  0.0930  0.0468
 5284SOL    HW127485   3.718   3.331  17.132 -1.0131  1.9808 -0.9450
 5284SOL    HW227486   3.682   3.352  16.988 -1.1469 -1.0242 -0.3637
 5285SOL     OW27487   3.523   1.085   5.009  0.4299  0.0052 -0.5432
 5285SOL    HW127488   3.455   1.031   5.048  0.6027  0.4556  0.3818
 5285SOL    HW227489   3.566   1.121   5.087 -0.0198 -0.6414 -0.0006
 5286SOL     OW27490   0.452   3.312   4.503  0.5389  0.3606 -0.5562
 5286SOL    HW127491   0.409   3.397   4.514  0.8773  0.6033 -1.0672
 5286SOL    HW227492   0.528   3.308   4.560 -0.8872 -0.1706  1.2837
 5287SOL     OW27493   1.759   0.568   0.391 -0.0161  0.6039  0.0788
 5287SOL    HW127494   1.852   0.589   0.404 -0.3229  1.2037  1.3077
 5287SOL    HW227495   1.741   0.518   0.471 -0.3689  1.6130  0.6230
 5288SOL     OW27496   2.733   0.627   8.072 -0.2436  0.5591  0.2484
 5288SOL    HW127497   2.642   0.637   8.042 -0.4771  0.0594  0.7897
 5288SOL    HW227498   2.781   0.643   7.991  0.9661 -1.6443  0.5283
 5289SOL     OW27499   2.904   4.329   8.915  0.1369  0.3131 -0.0268
 5289SOL    HW127500   2.843   4.292   8.979 -0.8674 -1.7295 -2.1656
 5289SOL    HW227501   2.867   4.278   8.843  1.0070 -1.2041  0.6131
 5290SOL     OW27502   2.126   1.181  13.950 -0.1066 -0.1970  0.2883
 5290SOL    HW127503   2.135   1.224  13.865 -1.1156 -0.8573 -0.1646
 5290SOL    HW227504   2.216   1.177  13.981  0.4693  2.3241 -1.0754
 5291SOL     OW27505   3.916   3.770   4.799  0.2442  0.2434  0.0124
 5291SOL    HW127506   3.881   3.858   4.817 -1.7531 -0.8391  1.3597
 5291SOL    HW227507   3.977   3.765   4.872  0.8333 -0.1870 -0.5140
 5292SOL     OW27508   3.560   0.646   8.114  0.1038 -0.6170  0.0446
 5292SOL    HW127509   3.558   0.551   8.100  2.0130 -0.3499 -2.0978
 5292SOL    HW227510   3.537   0.646   8.207  0.4493 -0.6569  0.1321
 5293SOL     OW27511   0.507   0.184  13.606 -0.1168  0.4968  0.1252
 5293SOL    HW127512   0.537   0.155  13.520  1.8623  3.5818 -0.2299
 5293SOL    HW227513   0.415   0.156  13.602 -0.2706  0.8580  1.0077
 5294SOL     OW27514   1.298   4.054   6.367 -0.4197 -0.1555 -0.2940
 5294SOL    HW127515   1.309   3.970   6.322 -2.2376  0.3148 -1.5969
 5294SOL    HW227516   1.348   4.113   6.311  0.6674 -0.0391  0.7995
 5295SOL     OW27517   4.001   2.720  16.132  0.2108 -0.2368 -0.0309
 5295SOL    HW127518   3.980   2.678  16.215 -0.1393 -0.9541 -0.4876
 5295SOL    HW227519   4.014   2.643  16.077 -0.7507 -1.4535  1.4210
 5296SOL     OW27520   1.057   2.083  10.360 -0.2216 -0.6215  0.4308
 5296SOL    HW127521   1.015   2.081  10.446 -1.0362  1.1394  0.0738
 5296SOL    HW227522   1.063   2.179  10.354 -0.1717 -0.6338  0.2964
 5297SOL     OW27523   0.450   1.758  11.940  0.0591  0.1088  0.0387
 5297SOL    HW127524   0.435   1.828  12.004 -0.0853 -1.3953  1.6648
 5297SOL    HW227525   0.442   1.677  11.991 -1.4401 -0.8716 -1.7749
 5298SOL     OW27526   3.167   0.817   1.788 -0.0316  0.4421 -0.2431
 5298SOL    HW127527   3.214   0.739   1.759 -4.2134 -1.8819 -0.7098
 5298SOL    HW227528   3.117   0.839   1.709  0.4343  1.7019 -0.1847
 5299SOL     OW27529   2.963   3.732  12.422  0.0871 -0.0988 -0.4441
 5299SOL    HW127530   3.015   3.808  12.449  0.6342 -0.6022 -0.0751
 5299SOL    HW227531   2.891   3.740  12.485  1.0467  0.0469  0.6395
 5300SOL     OW27532   4.156   3.269  15.209  0.0805 -0.0004  0.3525
 5300SOL    HW127533   4.162   3.174  15.197  0.0548 -0.1861  1.8454
 5300SOL    HW227534   4.129   3.282  15.300  0.0360 -1.8359  0.6021
 5301SOL     OW27535   3.754   1.204   3.451 -0.3226 -0.5145 -0.2129
 5301SOL    HW127536   3.684   1.267   3.435 -0.6941 -0.3106  2.2844
 5301SOL    HW227537   3.826   1.263   3.475 -0.9921  0.2192 -0.0191
 5302SOL     OW27538   2.649   0.007   8.464  0.0259 -0.5730  0.2605
 5302SOL    HW127539   2.690   4.658   8.459  0.6381 -0.2004 -1.4898
 5302SOL    HW227540   2.726   0.064   8.453  0.5123 -1.2803 -0.0341
 5303SOL     OW27541   3.902   4.657   2.696  0.0201 -0.5439  0.2443
 5303SOL    HW127542   3.917   4.684   2.605  0.3999 -0.2442  0.3914
 5303SOL    HW227543   3.939   4.734   2.741 -1.1627  0.9780 -1.3921
 5304SOL     OW27544   3.641   4.491   3.490  0.3129  0.7754 -0.2594
 5304SOL    HW127545   3.613   4.414   3.439  1.4641  0.6739 -0.7334
 5304SOL    HW227546   3.578   4.499   3.562 -2.6704  1.1512 -2.9661
 5305SOL     OW27547   2.491   2.022  17.414 -0.3076 -0.6237 -0.1401
 5305SOL    HW127548   2.571   2.039  17.365 -0.0446 -0.8562  0.2130
 5305SOL    HW227549   2.459   2.110  17.433  3.9006  0.8839 -0.0190
 5306SOL     OW27550   3.783   4.043   8.714 -0.2505 -0.2042 -0.7397
 5306SOL    HW127551   3.853   4.019   8.774 -0.9053  0.9350  0.4995
 5306SOL    HW227552   3.708   4.024   8.771 -0.3861 -1.3714 -1.3092
 5307SOL     OW27553   0.382   3.937   5.235 -0.3441 -0.8384 -0.0052
 5307SOL    HW127554   0.333   3.969   5.160 -1.8491  1.3649  1.8963
 5307SOL    HW227555   0.352   3.997   5.303 -1.9250 -2.5568  0.8138
 5308SOL     OW27556   1.497   2.111   2.590  0.3190  0.3719  0.4179
 5308SOL    HW127557   1.504   2.021   2.558 -1.0052  1.2170 -2.3048
 5308SOL    HW227558   1.545   2.160   2.523  0.0885 -0.8149 -0.6333
 5309SOL     OW27559   3.446   3.633   8.726 -0.2355  0.2555 -0.3324
 5309SOL    HW127560   3.501   3.664   8.798  1.0986  1.1715 -1.7318
 5309SOL    HW227561   3.495   3.660   8.649 -1.0398 -1.8441 -1.5725
 5310SOL     OW27562   3.141   1.152  14.583  0.0535 -0.4787  0.4656
 5310SOL    HW127563   3.113   1.060  14.590  0.9642 -0.6380  2.1140
 5310SOL    HW227564   3.196   1.147  14.505 -1.6468 -0.8320 -0.6937
 5311SOL     OW27565   1.870   3.114  11.939 -0.1285  0.2378  0.0209
 5311SOL    HW127566   1.783   3.078  11.924 -0.5906  1.2331  0.3733
 5311SOL    HW227567   1.857   3.194  11.989 -1.2018 -0.0920  0.2576
 5312SOL     OW27568   3.677   0.898   6.898  0.0099 -0.1033 -0.7099
 5312SOL    HW127569   3.598   0.936   6.860  0.1781  1.0899  0.1211
 5312SOL    HW227570   3.656   0.912   6.991  0.0222  1.4244 -0.9397
 5313SOL     OW27571   0.897   1.702   8.038 -0.0203 -0.4279 -0.0626
 5313SOL    HW127572   0.834   1.690   8.109 -0.2397 -2.7403 -0.6463
 5313SOL    HW227573   0.846   1.750   7.973 -0.9126 -0.5519  0.5419
 5314SOL     OW27574   0.801   1.344  16.886  0.0619  0.0244 -0.2450
 5314SOL    HW127575   0.814   1.394  16.966 -1.9904 -2.0596  1.4005
 5314SOL    HW227576   0.752   1.411  16.839 -0.3902  0.0142  0.2105
 5315SOL     OW27577   3.197   1.706  12.671 -0.2877  0.3000 -0.0533
 5315SOL    HW127578   3.252   1.782  12.650 -2.2887  2.2617  1.9130
 5315SOL    HW227579   3.249   1.670  12.743 -0.5469  1.6613  0.8075
 5316SOL     OW27580   1.652   0.632   7.640  0.9947  0.7231 -0.6767
 5316SOL    HW127581   1.661   0.700   7.708  0.9500 -0.6822  0.7335
 5316SOL    HW227582   1.557   0.642   7.633  0.6412 -0.5376  2.1896
 5317SOL     OW27583   3.889   2.060  15.857 -0.1524  0.1508  0.4401
 5317SOL    HW127584   3.859   1.969  15.853  0.1371  0.1291 -1.5510
 5317SOL    HW227585   3.843   2.093  15.779  0.6911  3.6571  1.4201
 5318SOL     OW27586   3.126   2.276   4.645  0.4352 -0.0865 -0.3071
 5318SOL    HW127587   3.125   2.181   4.631  0.4441  0.2613 -2.6487
 5318SOL    HW227588   3.220   2.287   4.633  0.5608 -1.5593 -0.6923
 5319SOL     OW27589   4.183   0.101   5.404  0.5558 -0.3670  1.1053
 5319SOL    HW127590   4.277   0.119   5.401  0.1824  1.3506 -0.4053
 5319SOL    HW227591   4.148   0.186   5.376  1.9238  0.1202  0.8771
 5320SOL     OW27592   2.464   1.741   6.563 -0.0470 -0.3904 -0.1111
 5320SOL    HW127593   2.393   1.806   6.559  0.0174 -0.2536  0.9960
 5320SOL    HW227594   2.440   1.707   6.650  0.1913 -0.4921 -0.0873
 5321SOL     OW27595   1.230   1.392  13.398  0.2561 -0.6108  0.1716
 5321SOL    HW127596   1.295   1.460  13.381  0.3511 -1.1451 -1.6103
 5321SOL    HW227597   1.154   1.431  13.356  0.4418 -1.6061 -1.0851
 5322SOL     OW27598   2.102   0.359  15.232  0.5317 -0.0293 -0.0607
 5322SOL    HW127599   2.045   0.353  15.155  0.5415 -1.4154  0.0389
 5322SOL    HW227600   2.086   0.276  15.278  0.0705  0.2672  0.3138
 5323SOL     OW27601   0.916   3.558  15.018  0.0568 -0.3388  0.2939
 5323SOL    HW127602   0.885   3.602  14.939  1.3458 -2.3567 -1.3292
 5323SOL    HW227603   0.859   3.480  15.022  0.0098 -0.3276 -0.1329
 5324SOL     OW27604   3.792   0.110   9.185  0.6907 -0.1124  0.8762
 5324SOL    HW127605   3.846   0.041   9.222  1.9507 -0.2367 -1.1947
 5324SOL    HW227606   3.813   0.178   9.249 -0.7431  2.2740 -1.1653
 5325SOL     OW27607   2.517   2.312  17.216  0.4401  0.4158  0.3941
 5325SOL    HW127608   2.588   2.249  17.205 -1.2181 -1.2333 -0.7676
 5325SOL    HW227609   2.489   2.292  17.305  1.2476 -0.1004  0.5347
 5326SOL     OW27610   3.202   3.866   4.954  0.1749 -0.0946 -0.4126
 5326SOL    HW127611   3.212   3.958   4.980  3.6595 -0.3031 -1.0855
 5326SOL    HW227612   3.217   3.878   4.860 -1.7661 -1.3955 -0.8920
 5327SOL     OW27613   4.396   1.195  16.520 -0.4507  0.1302 -0.2098
 5327SOL    HW127614   4.305   1.166  16.523 -0.3476 -0.3201 -1.7254
 5327SOL    HW227615   4.386   1.281  16.562  0.9785  0.1236  0.1238
 5328SOL     OW27616   2.577   3.497   7.514 -0.5285 -0.3438 -0.3853
 5328SOL    HW127617   2.509   3.440   7.550  1.5292 -1.5821  1.5742
 5328SOL    HW227618   2.600   3.556   7.586  0.8627 -2.4902  0.9401
 5329SOL     OW27619   1.959   1.871   0.770  0.3892  0.2102 -0.4645
 5329SOL    HW127620   1.876   1.918   0.766 -0.4418 -1.2574 -0.4612
 5329SOL    HW227621   1.923   1.783   0.760  0.7029  0.1416 -0.9681
 5330SOL     OW27622   3.161   1.767   9.939 -0.2916  0.5434  0.4132
 5330SOL    HW127623   3.250   1.772   9.904  0.1394 -0.1079  1.4077
 5330SOL    HW227624   3.115   1.780   9.856  0.1483 -1.3390 -0.1246
 5331SOL     OW27625   4.279   3.516   4.555  0.3356 -0.3203 -0.1732
 5331SOL    HW127626   4.309   3.425   4.559  2.5258  0.4551  1.0443
 5331SOL    HW227627   4.216   3.528   4.626  0.3843 -0.1030 -0.1665
 5332SOL     OW27628   2.276   3.695   2.960  0.4011 -0.7767  0.0012
 5332SOL    HW127629   2.300   3.698   2.867 -0.6893 -0.1275 -0.2482
 5332SOL    HW227630   2.205   3.630   2.958  0.3080 -0.6492 -0.9258
 5333SOL     OW27631   0.159   3.242   8.241 -0.4746  0.2954  0.2019
 5333SOL    HW127632   0.123   3.232   8.329  0.9313 -0.6988  0.6598
 5333SOL    HW227633   0.222   3.170   8.242 -0.4688  0.3020  0.2865
 5334SOL     OW27634   1.873   1.274   6.759  0.0514 -0.3322  0.1531
 5334SOL    HW127635   1.959   1.236   6.745  0.5134  0.7724  0.0036
 5334SOL    HW227636   1.889   1.368   6.752 -1.0986 -0.2234 -1.0795
 5335SOL     OW27637   2.856   3.867   0.658 -0.0872 -0.7765  0.3747
 5335SOL    HW127638   2.842   3.775   0.679  0.4653 -0.4864  2.0574
 5335SOL    HW227639   2.827   3.912   0.738  0.5370 -1.1876  0.8292
 5336SOL     OW27640   2.063   2.773   4.097  0.0893  0.1335 -0.6627
 5336SOL    HW127641   2.144   2.752   4.144  0.8250  0.2789 -1.8660
 5336SOL    HW227642   2.034   2.686   4.070 -0.0382  0.5611 -1.8968
 5337SOL     OW27643   3.341   2.930   5.629 -0.0881  0.5914  0.5197
 5337SOL    HW127644   3.373   3.020   5.625  3.9303 -0.8518  0.9805
 5337SOL    HW227645   3.413   2.887   5.675 -0.7178 -1.7383 -0.6584
 5338SOL     OW27646   0.861   3.222   6.444 -0.4532 -0.4916  0.4927
 5338SOL    HW127647   0.848   3.182   6.358 -0.5996  0.4133  0.0943
 5338SOL    HW227648   0.771   3.251   6.456 -0.1828  0.4069  0.3452
 5339SOL     OW27649   0.774   2.721   4.262 -0.1721  0.2002 -0.1008
 5339SOL    HW127650   0.855   2.769   4.243  0.0239  0.3679  1.1125
 5339SOL    HW227651   0.786   2.636   4.220  1.6611  0.5423 -0.2746
 5340SOL     OW27652   4.613   0.835   7.344  0.0377 -0.1783 -0.3439
 5340SOL    HW127653   4.572   0.917   7.317 -0.1655  0.3440  1.5314
 5340SOL    HW227654   4.707   0.856   7.344  0.1353 -0.5910 -1.1717
 5341SOL     OW27655   1.203   4.601  11.617 -0.2370  0.4608 -0.8696
 5341SOL    HW127656   1.183   4.554  11.536 -0.3600  2.8314 -2.2153
 5341SOL    HW227657   1.162   4.687  11.602 -1.7515  0.0874  1.0097
 5342SOL     OW27658   3.905   0.432  16.653 -0.3906  0.1726  0.0366
 5342SOL    HW127659   3.936   0.476  16.732  0.0402 -2.5570  1.3745
 5342SOL    HW227660   3.927   0.342  16.678  0.8439  0.5418  0.2394
 5343SOL     OW27661   2.244   4.243   5.739 -0.5086 -0.1829  0.1848
 5343SOL    HW127662   2.181   4.305   5.776  0.0238 -0.9462  2.3838
 5343SOL    HW227663   2.216   4.159   5.776  1.1592 -0.5026  0.7477
 5344SOL     OW27664   1.558   4.426  11.896 -0.4529  0.4633 -0.4742
 5344SOL    HW127665   1.553   4.418  11.800 -1.8422  2.4971 -0.5686
 5344SOL    HW227666   1.487   4.488  11.912 -0.6961 -0.0927  0.6243
 5345SOL     OW27667   4.639   0.699   4.273  0.5549  0.6091 -0.0833
 5345SOL    HW127668   4.625   0.748   4.354 -0.6736 -0.1664  0.1710
 5345SOL    HW227669   4.573   0.630   4.278 -0.2823  1.5317  1.5733
 5346SOL     OW27670   4.426   3.502   6.503 -0.4110  0.3732  0.2213
 5346SOL    HW127671   4.358   3.497   6.570  1.5297  1.2260  2.2710
 5346SOL    HW227672   4.490   3.550   6.555 -0.7957  1.0812  0.0404
 5347SOL     OW27673   2.768   1.440   1.830  0.1994  0.2363  0.4417
 5347SOL    HW127674   2.780   1.482   1.744 -0.5705 -1.7188 -0.6114
 5347SOL    HW227675   2.851   1.392   1.833 -0.8681 -1.6457 -0.0781
 5348SOL     OW27676   2.669   1.622   2.695  0.5296 -0.7033  0.0846
 5348SOL    HW127677   2.713   1.576   2.624 -0.3421 -0.3016 -0.7005
 5348SOL    HW227678   2.645   1.558   2.762 -0.6912 -0.7244 -0.3862
 5349SOL     OW27679   3.204   0.170  10.242  0.4330  0.3853  0.0601
 5349SOL    HW127680   3.162   0.214  10.168 -2.4938  0.5801  1.8362
 5349SOL    HW227681   3.234   0.235  10.305  0.0094 -0.1685  0.8271
 5350SOL     OW27682   0.280   3.010   9.726 -0.0940  0.1713 -0.5142
 5350SOL    HW127683   0.229   3.011   9.807  1.1518 -2.3272  0.3189
 5350SOL    HW227684   0.343   3.081   9.731 -0.2534  0.4477 -2.3907
 5351SOL     OW27685   0.047   2.592   5.502  0.3957 -0.1922 -0.4180
 5351SOL    HW127686   0.015   2.612   5.590  0.1541 -0.2457 -0.4933
 5351SOL    HW227687   4.704   2.565   5.457  0.5981 -1.1620 -0.1805
 5352SOL     OW27688   1.075   0.430   6.305 -0.0042 -0.3330  0.5101
 5352SOL    HW127689   1.130   0.373   6.359  1.4573 -0.0836 -0.6939
 5352SOL    HW227690   1.060   0.373   6.230  2.2455 -0.1774 -0.0557
 5353SOL     OW27691   4.710   3.379  10.215  0.5417 -0.0183 -0.2168
 5353SOL    HW127692   4.616   3.383  10.230 -0.0917 -0.7154 -3.9011
 5353SOL    HW227693   0.007   3.401  10.302  0.2335 -0.8944  0.1242
 5354SOL     OW27694   2.563   1.415   2.938 -0.1684 -0.0663  0.0502
 5354SOL    HW127695   2.468   1.416   2.929 -0.0457 -0.7304 -1.3414
 5354SOL    HW227696   2.568   1.328   2.978  0.8418 -0.0505 -0.0408
 5355SOL     OW27697   1.118   1.103  10.924 -0.0685 -0.2687 -0.7925
 5355SOL    HW127698   1.149   1.051  10.999  0.2466  0.8764 -0.1305
 5355SOL    HW227699   1.175   1.111  10.848 -0.0151 -1.8267 -0.9173
 5356SOL     OW27700   2.460   4.162   6.756  0.3249 -0.6633  0.1465
 5356SOL    HW127701   2.416   4.087   6.796  0.3148 -1.2546 -0.9666
 5356SOL    HW227702   2.502   4.119   6.682 -0.4873 -1.5478  0.1965
 5357SOL     OW27703   0.500   2.076  15.653 -0.0700  0.1798  0.0534
 5357SOL    HW127704   0.465   2.011  15.715  0.4050  0.0297  0.1616
 5357SOL    HW227705   0.435   2.077  15.582 -0.7817  1.3892  0.7148
 5358SOL     OW27706   3.317   2.163   4.929 -0.4380 -0.1909 -0.2885
 5358SOL    HW127707   3.393   2.221   4.925  1.3180 -2.4909 -0.2864
 5358SOL    HW227708   3.246   2.221   4.901  0.4262  1.4331  0.8559
 5359SOL     OW27709   3.069   1.970   1.856 -0.4891  0.4971  0.3424
 5359SOL    HW127710   3.130   1.898   1.840 -0.4909  0.3594  0.9513
 5359SOL    HW227711   3.081   1.979   1.951 -1.0777 -0.4957  0.5148
 5360SOL     OW27712   3.127   0.041  16.616  0.1687  0.0168  0.6621
 5360SOL    HW127713   3.099   0.001  16.534 -0.9676  1.3414  0.4040
 5360SOL    HW227714   3.203   0.095  16.595  0.0472  0.5832  1.6916
 5361SOL     OW27715   3.174   2.042  12.394 -0.0694  0.5247  0.2283
 5361SOL    HW127716   3.132   2.043  12.480  1.8657  1.9434  1.1730
 5361SOL    HW227717   3.189   2.136  12.380  0.6911  0.2247 -0.9500
 5362SOL     OW27718   2.785   4.149  15.506  0.4045  0.1043  0.0913
 5362SOL    HW127719   2.797   4.232  15.552 -0.5764  0.0962  0.3689
 5362SOL    HW227720   2.875   4.125  15.485  0.2787  1.0989 -1.6576
 5363SOL     OW27721   0.465   1.395   8.997 -0.0636  0.2720 -0.0231
 5363SOL    HW127722   0.376   1.425   9.014 -0.0381  0.2592  0.1365
 5363SOL    HW227723   0.463   1.359   8.909  2.0847  0.5263 -0.1838
 5364SOL     OW27724   1.677   1.587   3.673  0.6055 -0.1691  0.0214
 5364SOL    HW127725   1.704   1.650   3.607 -2.5168  0.8629 -0.2632
 5364SOL    HW227726   1.587   1.612   3.693  1.1791  2.2154 -0.3908
 5365SOL     OW27727   4.597   0.584   8.174  0.0506  0.6868 -0.4294
 5365SOL    HW127728   4.599   0.673   8.211 -3.3003  1.2560 -1.6787
 5365SOL    HW227729   4.663   0.591   8.105 -1.0888 -0.2335 -1.5951
 5366SOL     OW27730   2.200   0.169   2.348  0.7122 -0.1135 -0.0410
 5366SOL    HW127731   2.114   0.180   2.387  0.3711  1.6379 -1.2941
 5366SOL    HW227732   2.253   0.156   2.426  1.4581  2.2193 -0.1535
 5367SOL     OW27733   4.425   4.579   7.760 -0.1998 -0.4080  0.7308
 5367SOL    HW127734   4.343   4.530   7.747  0.7982 -1.4965 -1.3112
 5367SOL    HW227735   4.489   4.525   7.715 -1.3288 -0.8890 -0.2924
 5368SOL     OW27736   1.967   2.022   2.916 -0.3263 -0.2947 -0.3666
 5368SOL    HW127737   1.937   1.992   2.831  2.8959 -1.4284 -1.1145
 5368SOL    HW227738   2.055   1.985   2.923 -1.7058 -3.2900  1.3347
 5369SOL     OW27739   1.751   2.230   5.141  0.4633  1.2510  0.2743
 5369SOL    HW127740   1.700   2.303   5.174 -1.5010  0.5002 -1.0989
 5369SOL    HW227741   1.712   2.158   5.191 -1.7207  1.5009 -1.0583
 5370SOL     OW27742   0.435   1.023   7.003 -0.0778 -0.6195  0.3148
 5370SOL    HW127743   0.353   1.049   7.044 -0.1186  3.5121 -2.3861
 5370SOL    HW227744   0.492   1.096   7.028 -0.8272  0.5405 -1.3914
 5371SOL     OW27745   1.403   2.881  13.838  0.2361 -0.2157  0.1248
 5371SOL    HW127746   1.342   2.808  13.830 -1.9089  1.4331  1.4186
 5371SOL    HW227747   1.491   2.843  13.841 -0.2671 -1.5912 -2.9969
 5372SOL     OW27748   2.349   0.859   6.074 -0.5531 -0.2793 -0.2049
 5372SOL    HW127749   2.415   0.921   6.105 -1.5346  0.3256  0.6912
 5372SOL    HW227750   2.308   0.820   6.152  3.4635  1.3782  2.7453
 5373SOL     OW27751   0.914   2.079   2.799  0.4943  0.0706  0.5013
 5373SOL    HW127752   0.883   2.064   2.710  1.8468  2.7624 -0.4051
 5373SOL    HW227753   0.830   2.093   2.844 -0.1862  0.5648 -0.9115
 5374SOL     OW27754   3.669   3.210   3.128  0.5066  0.1374  0.1002
 5374SOL    HW127755   3.655   3.123   3.091 -0.1068  0.1263  0.3630
 5374SOL    HW227756   3.698   3.186   3.216 -0.6017 -2.9128 -0.3753
 5375SOL     OW27757   2.171   0.959  14.160  0.5415 -0.5947  0.2952
 5375SOL    HW127758   2.217   1.041  14.140 -1.1751  0.2387 -0.1719
 5375SOL    HW227759   2.174   0.953  14.256  0.7664  0.1421  0.3347
 5376SOL     OW27760   1.749   3.348   0.843  0.0258 -0.2261  0.1952
 5376SOL    HW127761   1.799   3.380   0.918 -0.9266  1.2442  0.1988
 5376SOL    HW227762   1.781   3.410   0.779 -0.2617 -1.5987 -1.2737
 5377SOL     OW27763   4.564   0.320   1.201 -0.1347  0.0683  0.4173
 5377SOL    HW127764   4.499   0.283   1.141  0.2736 -0.3226  0.2168
 5377SOL    HW227765   4.622   0.247   1.221 -0.4471 -0.6491 -1.3372
 5378SOL     OW27766   1.402   0.611  15.531  0.1127 -0.2190 -0.0962
 5378SOL    HW127767   1.311   0.581  15.529  0.1197 -0.1546 -1.2299
 5378SOL    HW227768   1.421   0.619  15.625 -0.4816 -0.6706  0.0603
 5379SOL     OW27769   1.047   2.274  10.627  0.3607 -0.2762 -0.4178
 5379SOL    HW127770   0.997   2.193  10.638 -0.6769  0.3959 -0.1658
 5379SOL    HW227771   1.010   2.312  10.547 -0.5084  0.5533  0.3709
 5380SOL     OW27772   2.593   2.359  14.718  0.0656  0.0597 -0.0315
 5380SOL    HW127773   2.660   2.427  14.732 -1.2660  0.9026  2.3105
 5380SOL    HW227774   2.515   2.408  14.745 -0.2877  1.3910 -3.5202
 5381SOL     OW27775   1.785   3.206   3.504  0.3292  0.5724  0.1341
 5381SOL    HW127776   1.866   3.170   3.468 -0.2272 -0.7702  0.2051
 5381SOL    HW227777   1.782   3.181   3.596  0.5725 -4.3871 -1.1802
 5382SOL     OW27778   4.526   2.750   7.672  0.6292 -0.3011  0.3205
 5382SOL    HW127779   4.455   2.689   7.691  0.5187 -0.3810 -0.3699
 5382SOL    HW227780   4.540   2.728   7.580 -0.8518 -1.2788  0.3356
 5383SOL     OW27781   0.851   4.233   3.906 -0.3790  0.0155  0.1499
 5383SOL    HW127782   0.890   4.232   3.993  2.8745 -2.8068 -1.3493
 5383SOL    HW227783   0.765   4.273   3.920 -0.1711 -0.5167  2.9147
 5384SOL     OW27784   2.214   1.635  15.550 -0.5873  0.1881 -0.2729
 5384SOL    HW127785   2.213   1.549  15.592 -0.2885  1.7254  2.8904
 5384SOL    HW227786   2.253   1.686  15.621 -0.0678  1.7422 -1.6821
 5385SOL     OW27787   4.229   3.285   8.224  0.3827  0.3745  0.3200
 5385SOL    HW127788   4.244   3.366   8.174  0.9747 -1.3369 -2.2827
 5385SOL    HW227789   4.135   3.273   8.210  0.6308 -0.7209 -0.3801
 5386SOL     OW27790   4.220   4.415   3.699  0.8377 -0.4746  0.6765
 5386SOL    HW127791   4.236   4.409   3.605  1.1816 -0.6271  0.7462
 5386SOL    HW227792   4.292   4.360   3.731  3.1942  1.7678 -0.8069
 5387SOL     OW27793   2.784   3.218   4.726  0.3717 -0.0286  0.1090
 5387SOL    HW127794   2.802   3.297   4.675 -1.9014  1.4359  1.5664
 5387SOL    HW227795   2.873   3.185   4.730  1.5302  2.8206 -1.9400
 5388SOL     OW27796   0.894   2.804   7.355  0.1677 -0.0590 -0.1283
 5388SOL    HW127797   0.960   2.767   7.297  1.2034  1.6548 -0.0401
 5388SOL    HW227798   0.815   2.788   7.303 -0.1485  1.5730 -0.1585
 5389SOL     OW27799   2.888   3.030   9.157  0.8849  0.0829 -0.5758
 5389SOL    HW127800   2.909   3.119   9.186 -0.0522 -0.0276  0.4336
 5389SOL    HW227801   2.849   3.043   9.070  0.3354  1.2304 -0.1653
 5390SOL     OW27802   1.599   1.801   1.626 -0.1813  0.1414 -0.1859
 5390SOL    HW127803   1.516   1.754   1.632  0.6983 -1.3467  0.2355
 5390SOL    HW227804   1.612   1.820   1.719  0.8911  0.6472 -0.4311
 5391SOL     OW27805   3.592   2.131   7.121 -0.6742  0.5200 -0.1677
 5391SOL    HW127806   3.630   2.198   7.177 -0.6689  0.0358  0.4148
 5391SOL    HW227807   3.523   2.180   7.076 -1.2515 -0.2118 -0.0940
 5392SOL     OW27808   4.402   0.632   5.332 -0.4120  0.1631 -0.0031
 5392SOL    HW127809   4.451   0.595   5.258 -1.6920  2.9361 -2.2535
 5392SOL    HW227810   4.389   0.551   5.381 -1.5571 -0.1113 -0.7683
 5393SOL     OW27811   1.417   0.095  14.430 -0.2294 -0.3352  0.4850
 5393SOL    HW127812   1.349   0.146  14.387  2.0639  3.0472  0.9040
 5393SOL    HW227813   1.478   0.068  14.362  0.9899  0.3137  1.3124
 5394SOL     OW27814   3.479   1.644   8.969  0.5115  1.4156  0.1348
 5394SOL    HW127815   3.414   1.666   8.903  1.0724 -3.0669 -1.9446
 5394SOL    HW227816   3.535   1.588   8.915 -1.3240  0.4536 -0.7859
 5395SOL     OW27817   4.445   1.161   2.516 -0.3297 -0.5826  0.1631
 5395SOL    HW127818   4.526   1.191   2.557  0.5258 -0.5396 -1.5832
 5395SOL    HW227819   4.406   1.235   2.468 -0.5161  0.4192  1.8334
 5396SOL     OW27820   1.515   1.764   4.571  0.5168 -0.0866 -0.2776
 5396SOL    HW127821   1.526   1.855   4.600 -1.0169 -1.1417  3.5816
 5396SOL    HW227822   1.579   1.715   4.623 -0.5984 -0.3599  0.8326
 5397SOL     OW27823   4.503   0.621   8.594  0.0985 -0.3274 -0.3380
 5397SOL    HW127824   4.478   0.534   8.563 -2.5239  0.6835 -1.0326
 5397SOL    HW227825   4.426   0.673   8.571 -0.8905 -0.6418  2.2786
 5398SOL     OW27826   1.424   0.718   3.394  0.4342  0.0676  0.2175
 5398SOL    HW127827   1.412   0.738   3.487 -1.7726 -1.0722  0.1607
 5398SOL    HW227828   1.337   0.730   3.356 -0.5663 -1.6174  2.0289
 5399SOL     OW27829   2.510   2.299   9.675 -0.2992  0.7202  0.1048
 5399SOL    HW127830   2.502   2.286   9.769  1.2556 -2.3662 -0.1801
 5399SOL    HW227831   2.440   2.238   9.649 -1.0707  1.3455  0.7271
 5400SOL     OW27832   0.421   2.926  11.164  0.2132  0.2947 -0.3135
 5400SOL    HW127833   0.343   2.965  11.124  0.9404 -0.3138 -2.3268
 5400SOL    HW227834   0.488   2.989  11.139 -0.5347  1.0686 -0.3868
 5401SOL     OW27835   4.093   2.108   5.851  0.1969  0.1558 -0.6107
 5401SOL    HW127836   4.188   2.098   5.861  0.5717 -0.5894 -4.9612
 5401SOL    HW227837   4.093   2.140   5.760  0.6399  1.2711 -0.2214
 5402SOL     OW27838   1.174   3.298  15.845 -0.2548  0.0664  0.2710
 5402SOL    HW127839   1.153   3.356  15.772 -2.3391  0.5659  1.2596
 5402SOL    HW227840   1.262   3.282  15.812 -0.4773 -2.4256  0.9298
 5403SOL     OW27841   3.484   2.378   8.756 -0.8307  0.1593 -0.3025
 5403SOL    HW127842   3.421   2.406   8.822 -0.1664  1.5403 -0.2572
 5403SOL    HW227843   3.490   2.456   8.700 -0.4163  0.8368  0.6982
 5404SOL     OW27844   0.807   2.549  13.011 -0.1474  0.1902 -0.2304
 5404SOL    HW127845   0.896   2.527  12.983 -0.1517 -0.8375  0.5496
 5404SOL    HW227846   0.769   2.564  12.924 -1.6637  0.0993  0.4183
 5405SOL     OW27847   0.964   2.757   1.861 -0.3950 -1.1274  0.2464
 5405SOL    HW127848   1.009   2.673   1.863  0.9042 -0.4110  1.0813
 5405SOL    HW227849   0.948   2.774   1.954  0.0050 -0.4441  0.1919
 5406SOL     OW27850   0.882   2.210  12.498 -0.2385 -0.3370  0.0825
 5406SOL    HW127851   0.939   2.133  12.501 -2.9121 -2.3295 -0.3146
 5406SOL    HW227852   0.875   2.228  12.591 -0.2976 -0.1914  0.0501
 5407SOL     OW27853   3.426   4.497   9.058 -0.0551 -0.3884  0.2941
 5407SOL    HW127854   3.444   4.510   8.965 -1.7252  2.1286  0.3281
 5407SOL    HW227855   3.333   4.520   9.052 -0.2309 -0.6426  2.0699
 5408SOL     OW27856   4.451   1.303   7.643 -0.5141  0.1281 -0.3026
 5408SOL    HW127857   4.373   1.248   7.643 -0.8194  0.5478  1.1487
 5408SOL    HW227858   4.438   1.355   7.564 -3.2341  0.7177  0.5158
 5409SOL     OW27859   2.516   0.373   8.073 -0.4327  0.6556  0.1356
 5409SOL    HW127860   2.431   0.352   8.033 -0.7993  2.5245 -0.0297
 5409SOL    HW227861   2.502   0.323   8.153  2.0478  0.7103  0.5896
 5410SOL     OW27862   0.383   2.240  12.563 -0.2792  0.3208 -0.7034
 5410SOL    HW127863   0.410   2.311  12.621  1.1721 -0.5316 -0.3487
 5410SOL    HW227864   0.462   2.201  12.527 -0.1499 -0.4407  0.4193
 5411SOL     OW27865   3.745   3.444   3.619 -0.1972  0.1338  0.2350
 5411SOL    HW127866   3.698   3.527   3.626  3.8835  2.4427  0.5964
 5411SOL    HW227867   3.832   3.485   3.617  0.8306 -2.0749  0.5462
 5412SOL     OW27868   0.992   2.625  11.007 -0.3256 -0.2225  0.4829
 5412SOL    HW127869   1.070   2.663  11.049 -1.6071  0.9580  1.8022
 5412SOL    HW227870   0.926   2.656  11.069  0.1015  0.0330  0.8101
 5413SOL     OW27871   2.148   3.708   4.862  0.6615 -0.3684 -1.0216
 5413SOL    HW127872   2.112   3.623   4.838 -0.6276 -0.4221  1.0873
 5413SOL    HW227873   2.193   3.700   4.946 -0.5261 -4.2640 -0.7698
 5414SOL     OW27874   1.223   3.260  16.103 -0.1320  0.1856 -0.5956
 5414SOL    HW127875   1.211   3.287  16.012 -4.2469 -1.6366 -0.5723
 5414SOL    HW227876   1.274   3.179  16.100  2.2077  1.7090 -2.6992
 5415SOL     OW27877   0.622   1.854   9.656  0.3744  0.3284 -0.3015
 5415SOL    HW127878   0.710   1.886   9.676  0.8353 -0.8588 -0.4351
 5415SOL    HW227879   0.581   1.902   9.728  0.7031  0.2612 -0.0697
 5416SOL     OW27880   0.229   3.208   0.861  0.3065 -0.2587  0.1576
 5416SOL    HW127881   0.237   3.116   0.883 -0.8906 -0.8359 -1.8107
 5416SOL    HW227882   0.202   3.192   0.771 -2.6512  3.8497  0.2961
 5417SOL     OW27883   0.324   4.318   9.807 -0.1535  0.6059  0.2980
 5417SOL    HW127884   0.272   4.381   9.757 -2.9640 -0.4703  1.8864
 5417SOL    HW227885   0.285   4.236   9.775  0.1484 -0.3140  2.3134
 5418SOL     OW27886   2.692   4.109   1.233 -0.6321  0.2892 -0.1351
 5418SOL    HW127887   2.787   4.125   1.236 -0.4265 -1.0288  0.2425
 5418SOL    HW227888   2.676   4.046   1.163  0.8142  1.6852 -1.7344
 5419SOL     OW27889   2.571   1.495   4.204 -0.7592  0.0448 -0.3235
 5419SOL    HW127890   2.633   1.550   4.253 -1.2779 -2.0025  2.6634
 5419SOL    HW227891   2.551   1.551   4.130 -0.4610  0.0287 -0.4159
 5420SOL     OW27892   2.451   2.023   2.748  0.2473  0.7919 -0.0096
 5420SOL    HW127893   2.465   1.958   2.679 -0.9598  1.5304 -0.9803
 5420SOL    HW227894   2.465   2.107   2.704  1.9750  1.3421  1.6129
 5421SOL     OW27895   2.343   1.725   7.734  0.0360  0.2817  0.3641
 5421SOL    HW127896   2.398   1.698   7.661 -0.9824  0.1388 -0.3550
 5421SOL    HW227897   2.274   1.771   7.686  1.3268  2.2926  0.4411
 5422SOL     OW27898   2.315   2.430   8.392  0.1416 -0.1768  0.0714
 5422SOL    HW127899   2.224   2.412   8.415 -0.6661  1.0948 -2.1159
 5422SOL    HW227900   2.342   2.443   8.483 -2.9294 -0.2358  0.9988
 5423SOL     OW27901   2.657   1.659  16.458  0.1206  0.2511 -0.3860
 5423SOL    HW127902   2.679   1.569  16.480  2.2441  0.5812 -1.1943
 5423SOL    HW227903   2.564   1.656  16.436 -0.6317 -1.1524  3.0176
 5424SOL     OW27904   3.093   0.148   7.406 -0.6504  0.1243  0.3698
 5424SOL    HW127905   3.174   0.180   7.368 -1.2391 -0.8191 -1.6927
 5424SOL    HW227906   3.063   0.105   7.326  1.3488  2.1505 -1.4542
 5425SOL     OW27907   1.478   3.476   3.373 -0.0683  0.5847  0.5783
 5425SOL    HW127908   1.549   3.416   3.351 -1.7977 -0.3311 -2.4796
 5425SOL    HW227909   1.423   3.465   3.296  1.6083  0.1620 -0.5464
 5426SOL     OW27910   2.337   0.939   2.142  0.2191  0.1394  0.2461
 5426SOL    HW127911   2.295   1.023   2.123 -0.5633  0.1779  2.1430
 5426SOL    HW227912   2.267   0.888   2.181 -0.1461  1.3006  1.0948
 5427SOL     OW27913   4.712   0.196   5.262  0.3908 -0.1885  0.0557
 5427SOL    HW127914   0.033   0.165   5.332  0.7852 -0.5388 -0.4246
 5427SOL    HW227915   0.039   0.246   5.211 -1.2522  1.5441 -0.3206
 5428SOL     OW27916   0.139   2.421   6.440 -0.2720  0.9290  0.2324
 5428SOL    HW127917   0.119   2.398   6.350 -1.4720  1.3079  0.4125
 5428SOL    HW227918   0.229   2.452   6.429  0.0330  0.9400  2.7326
 5429SOL     OW27919   0.710   1.671  11.160 -0.0349  0.2532  0.8818
 5429SOL    HW127920   0.615   1.675  11.154 -0.0171  1.2677  1.2688
 5429SOL    HW227921   0.717   1.576  11.172 -0.5552  0.1590  0.4233
 5430SOL     OW27922   1.040   0.659   1.957  0.4534 -0.0510  0.6263
 5430SOL    HW127923   1.104   0.715   1.913 -0.0514 -2.1999 -2.8829
 5430SOL    HW227924   0.974   0.721   1.987 -1.0336 -0.3872 -1.9171
 5431SOL     OW27925   3.367   1.740   7.512  0.5543  0.0747 -0.3494
 5431SOL    HW127926   3.278   1.706   7.501  0.3473  0.2718  0.7006
 5431SOL    HW227927   3.402   1.738   7.423  0.1590  0.0537 -0.5047
 5432SOL     OW27928   2.428   0.461  14.644 -0.4317  0.0568  0.2029
 5432SOL    HW127929   2.364   0.495  14.582  1.2764  1.5643 -0.7674
 5432SOL    HW227930   2.371   0.425  14.712 -1.3294 -1.0667 -1.1440
 5433SOL     OW27931   3.465   0.560  15.278  0.4923  0.3634 -0.2195
 5433SOL    HW127932   3.454   0.591  15.368 -0.8992 -0.2522 -0.1685
 5433SOL    HW227933   3.401   0.612  15.230  1.1067 -0.5991 -2.0930
 5434SOL     OW27934   1.807   1.386  17.027 -0.1373  0.6382 -0.1868
 5434SOL    HW127935   1.810   1.355  16.936  1.4222 -1.9671  0.7387
 5434SOL    HW227936   1.833   1.476  17.011 -3.0731  1.4131 -0.7530
 5435SOL     OW27937   4.558   4.180   6.003 -0.6018  0.2875 -0.1030
 5435SOL    HW127938   4.503   4.223   5.937 -0.6263 -0.8482 -0.8195
 5435SOL    HW227939   4.505   4.101   6.011 -1.1027  0.5477 -0.7755
 5436SOL     OW27940   1.626   4.583   6.522  0.2808  0.1271 -0.0341
 5436SOL    HW127941   1.561   4.541   6.579  1.8191  1.3812  2.6885
 5436SOL    HW227942   1.588   4.670   6.511  1.0325  0.4051 -0.4356
 5437SOL     OW27943   1.435   4.263   6.215  0.1125 -0.2745 -0.0649
 5437SOL    HW127944   1.415   4.352   6.184  0.1124 -1.5438 -3.7274
 5437SOL    HW227945   1.478   4.222   6.140  0.6323  1.4698 -0.7341
 5438SOL     OW27946   2.235   0.017   1.389  0.3349 -0.5113 -0.6211
 5438SOL    HW127947   2.165   4.717   1.335 -1.6730 -0.2530  1.7706
 5438SOL    HW227948   2.185   0.073   1.449 -1.3128 -2.4254 -0.1828
 5439SOL     OW27949   4.577   0.662   3.282  0.3904 -0.6013  0.9100
 5439SOL    HW127950   4.635   0.735   3.258  0.2621 -0.3866  1.2566
 5439SOL    HW227951   4.508   0.703   3.335 -1.0564  0.2516 -1.6019
 5440SOL     OW27952   0.828   0.745   3.212 -0.5491 -0.1926 -0.2150
 5440SOL    HW127953   0.829   0.834   3.246 -1.0966 -0.4491  0.4778
 5440SOL    HW227954   0.786   0.693   3.281  0.5272 -0.7939 -0.0072
 5441SOL     OW27955   0.423   1.404  10.707 -0.4004 -0.0964  0.1335
 5441SOL    HW127956   0.354   1.443  10.761  0.1697 -0.2221  0.9533
 5441SOL    HW227957   0.493   1.397  10.773 -1.0120 -0.8619  0.6974
 5442SOL     OW27958   3.930   0.345  11.915  0.5030 -0.0347  0.6325
 5442SOL    HW127959   3.956   0.436  11.929 -0.7534  0.1692  1.6335
 5442SOL    HW227960   3.860   0.342  11.980 -1.8454 -0.7414 -1.9149
 5443SOL     OW27961   2.266   1.363  14.202 -0.1140  0.0216 -0.1085
 5443SOL    HW127962   2.324   1.290  14.222 -0.7502 -0.5255 -0.2522
 5443SOL    HW227963   2.266   1.391  14.293 -0.5538  1.5066 -0.5717
 5444SOL     OW27964   1.510   0.498   1.331 -0.6170  0.1032  0.5252
 5444SOL    HW127965   1.600   0.482   1.303 -0.6641 -1.2284  1.1353
 5444SOL    HW227966   1.511   0.467   1.422  1.1879  0.6729  0.7027
 5445SOL     OW27967   4.002   1.747   3.756 -0.4710  0.1240 -0.6444
 5445SOL    HW127968   4.029   1.701   3.836  0.7589 -0.6314 -1.4821
 5445SOL    HW227969   4.077   1.796   3.723 -0.2590  1.4057  1.7396
 5446SOL     OW27970   3.691   4.417   6.635  0.5131  0.0111 -0.3510
 5446SOL    HW127971   3.735   4.476   6.574 -0.8552 -1.6266 -2.8831
 5446SOL    HW227972   3.602   4.451   6.632  0.7710  0.6854 -0.2754
 5447SOL     OW27973   3.051   0.767   7.315  0.7117 -0.2223 -0.3888
 5447SOL    HW127974   3.110   0.780   7.241 -0.2760  4.7625 -0.3256
 5447SOL    HW227975   2.999   0.847   7.316  1.9461  0.5476  3.7467
 5448SOL     OW27976   0.699   3.105   0.288 -0.3513 -0.7508  0.2953
 5448SOL    HW127977   0.737   3.174   0.235  1.1831 -1.5816  0.3206
 5448SOL    HW227978   0.606   3.120   0.306  0.1166  2.0205  0.2800
 5449SOL     OW27979   2.295   0.595   9.255  0.1828 -0.4824 -0.1043
 5449SOL    HW127980   2.302   0.587   9.160  0.5444 -0.9398 -0.0393
 5449SOL    HW227981   2.215   0.547   9.277 -0.8140  2.5353  2.8259
 5450SOL     OW27982   2.998   3.260   3.421  0.1690  0.3051  0.6103
 5450SOL    HW127983   3.031   3.307   3.344 -1.4704  2.6283  1.3191
 5450SOL    HW227984   3.061   3.291   3.486 -1.8594  1.5049  1.9797
 5451SOL     OW27985   1.209   1.868   2.278 -0.1206  0.7095  0.2566
 5451SOL    HW127986   1.213   1.838   2.369  0.6615 -1.1620 -0.4194
 5451SOL    HW227987   1.294   1.912   2.284  1.3168 -2.2450  1.1674
 5452SOL     OW27988   3.256   2.980   8.752 -0.4489  0.0621  0.7191
 5452SOL    HW127989   3.173   3.008   8.792  0.7377  0.3317  2.9695
 5452SOL    HW227990   3.240   2.887   8.734 -2.2485  0.5265 -0.1593
 5453SOL     OW27991   2.281   4.654   7.855  0.0625 -0.4620  0.1990
 5453SOL    HW127992   2.303   4.672   7.764  0.1291  2.0857  0.7126
 5453SOL    HW227993   2.213   4.588   7.841  1.5326 -1.7783 -0.6840
 5454SOL     OW27994   0.643   1.924   5.150  0.0519 -0.0663 -0.2323
 5454SOL    HW127995   0.583   1.995   5.176  0.4531  0.4039 -0.5890
 5454SOL    HW227996   0.691   1.967   5.079  1.8098 -2.0435 -0.2342
 5455SOL     OW27997   0.399   0.408   8.755 -0.2611 -0.2397  0.3719
 5455SOL    HW127998   0.482   0.367   8.730  0.8561  2.0525  0.3435
 5455SOL    HW227999   0.329   0.343   8.750 -1.7130  1.3039  0.6961
 5456SOL     OW28000   3.795   3.598  12.122 -0.3079  0.3377 -0.0137
 5456SOL    HW128001   3.848   3.556  12.055 -1.1125  3.0206 -2.3436
 5456SOL    HW228002   3.760   3.529  12.178 -0.6315 -0.8824 -1.7276
 5457SOL     OW28003   1.414   3.690   9.076  1.4908  0.1447 -0.1175
 5457SOL    HW128004   1.379   3.600   9.075  2.1364 -0.1174  1.5991
 5457SOL    HW228005   1.416   3.716   9.168  0.0655 -0.9395  0.2263
 5458SOL     OW28006   2.581   4.083   6.479 -0.6736  0.4299 -0.2821
 5458SOL    HW128007   2.619   4.008   6.433 -1.9488 -0.3681 -0.0245
 5458SOL    HW228008   2.537   4.134   6.411  2.2236  1.0960 -1.6529
 5459SOL     OW28009   0.014   1.805   5.961 -0.1074 -0.0858 -0.8995
 5459SOL    HW128010   0.098   1.786   5.918  0.6798  0.2986  0.4688
 5459SOL    HW228011   4.708   1.720   5.969 -0.0673 -0.0304 -0.1503
 5460SOL     OW28012   0.730   4.121  16.643 -0.3868 -0.4180 -0.3747
 5460SOL    HW128013   0.725   4.188  16.711  2.1569  0.0298 -0.6376
 5460SOL    HW228014   0.696   4.042  16.684 -0.1851 -0.4718 -0.3118
 5461SOL     OW28015   1.429   3.811   2.984 -0.1768 -0.2064 -0.7064
 5461SOL    HW128016   1.473   3.750   3.043 -0.7924  1.3547  1.3308
 5461SOL    HW228017   1.370   3.747   2.943 -3.4636  1.3762  1.6000
 5462SOL     OW28018   3.281   2.645  16.186  0.2046 -0.3484  0.2633
 5462SOL    HW128019   3.248   2.621  16.272  0.2952  0.0212  0.4018
 5462SOL    HW228020   3.236   2.729  16.173 -0.7360 -0.7439  1.0131
 5463SOL     OW28021   1.100   0.807   0.584  0.4457  0.4273  0.8611
 5463SOL    HW128022   1.074   0.880   0.639  1.3871  1.7270 -0.4103
 5463SOL    HW228023   1.087   0.842   0.496 -1.4603 -1.8589  0.2098
 5464SOL     OW28024   4.727   1.843   2.232  0.1625  0.6647  0.1869
 5464SOL    HW128025   0.053   1.771   2.225 -0.3621  0.4836 -2.9019
 5464SOL    HW228026   0.033   1.891   2.302 -1.2795  1.8864  0.2276
 5465SOL     OW28027   3.881   4.732   3.998  0.0020 -0.5823 -0.2479
 5465SOL    HW128028   3.928   4.715   3.916  1.3040  2.2302 -0.0843
 5465SOL    HW228029   3.896   4.649   4.043 -1.3483 -0.8453 -0.2852
 5466SOL     OW28030   0.179   4.461   4.984  0.3563  0.7765  0.8927
 5466SOL    HW128031   0.136   4.537   5.022 -1.3080  1.8310 -3.1053
 5466SOL    HW228032   0.225   4.494   4.907 -0.6136 -0.8338 -0.3503
 5467SOL     OW28033   4.164   0.487   7.424 -0.1919 -0.2032 -0.1748
 5467SOL    HW128034   4.221   0.465   7.350 -2.4942  2.9275 -2.8895
 5467SOL    HW228035   4.137   0.565   7.375 -1.8244  0.5396  1.8940
 5468SOL     OW28036   1.009   0.111  10.394 -0.0563 -0.1965 -0.4249
 5468SOL    HW128037   1.022   0.154  10.479 -3.3142 -0.9629  0.4513
 5468SOL    HW228038   1.036   0.176  10.330  1.8421 -1.8581 -1.3133
 5469SOL     OW28039   2.377   0.037   6.372 -0.2779 -0.6715 -0.3375
 5469SOL    HW128040   2.299   0.057   6.321  0.9215 -0.0985 -1.9682
 5469SOL    HW228041   2.433   0.106   6.336 -0.0198  0.2147  1.7633
 5470SOL     OW28042   0.551   0.797   6.255 -0.9437 -0.2039  0.2709
 5470SOL    HW128043   0.507   0.786   6.170  0.3892  2.2810 -0.7401
 5470SOL    HW228044   0.639   0.771   6.230 -0.1092  0.6868  2.2817
 5471SOL     OW28045   2.971   1.364   2.270  0.6039 -0.3138 -0.1731
 5471SOL    HW128046   2.973   1.406   2.184 -0.2952  0.8646  0.3685
 5471SOL    HW228047   2.934   1.277   2.256 -3.6126  1.5710 -0.8066
 5472SOL     OW28048   1.432   0.993   8.397 -0.6511  0.0115  0.1390
 5472SOL    HW128049   1.524   1.016   8.381 -1.0189 -0.6530 -2.9311
 5472SOL    HW228050   1.394   1.078   8.417  0.5608  0.6727 -0.3929
 5473SOL     OW28051   4.669   0.852   1.228  0.1269  0.0587  0.5169
 5473SOL    HW128052   0.001   0.872   1.164 -1.0997  2.8314  0.0633
 5473SOL    HW228053   4.665   0.758   1.213 -0.9828  0.2399 -0.3457
 5474SOL     OW28054   2.263   4.424  13.881 -0.2290 -0.7057 -0.0906
 5474SOL    HW128055   2.205   4.408  13.956  0.0341 -2.5073 -0.2657
 5474SOL    HW228056   2.199   4.430  13.810 -0.6213  0.0019  0.3191
 5475SOL     OW28057   0.608   1.181   5.375 -0.3924  0.2946  0.2993
 5475SOL    HW128058   0.594   1.274   5.360 -1.0178 -0.0236 -1.0594
 5475SOL    HW228059   0.697   1.183   5.342 -1.3832 -2.0980 -2.5059
 5476SOL     OW28060   4.392   2.474  12.984 -0.4179  0.5140  0.2719
 5476SOL    HW128061   4.460   2.444  13.044 -0.5862 -2.0209 -0.8316
 5476SOL    HW228062   4.381   2.395  12.931 -1.3640  1.4245 -0.8950
 5477SOL     OW28063   0.344   3.396  17.033  0.4821 -0.1169 -0.1640
 5477SOL    HW128064   0.337   3.491  17.042 -0.1886  0.0127 -2.2011
 5477SOL    HW228065   0.420   3.389  16.975  0.8083 -1.2542  0.3912
 5478SOL     OW28066   0.658   1.979   3.134 -0.0952  0.1019  0.2238
 5478SOL    HW128067   0.744   1.991   3.173 -0.5417  0.3043  1.1555
 5478SOL    HW228068   0.610   2.006   3.213  1.5747  0.1162  1.2201
 5479SOL     OW28069   1.834   1.754   5.436 -0.5868 -0.2860  0.8170
 5479SOL    HW128070   1.861   1.845   5.446 -3.8602  0.9197 -1.5632
 5479SOL    HW228071   1.769   1.766   5.367  1.4687 -0.9592 -1.2544
 5480SOL     OW28072   1.925   1.707   1.566  0.3417  0.1378 -0.2382
 5480SOL    HW128073   1.867   1.651   1.515  2.1715 -2.4157  0.4880
 5480SOL    HW228074   2.008   1.669   1.538  0.0910  0.0270 -0.8278
 5481SOL     OW28075   1.527   2.278   0.795  1.0515  0.2093  0.5276
 5481SOL    HW128076   1.532   2.220   0.719 -0.3110  0.2360  0.4230
 5481SOL    HW228077   1.573   2.226   0.861  1.8287  0.7328  0.4007
 5482SOL     OW28078   0.613   0.585  14.161 -0.0162  0.5844 -0.2211
 5482SOL    HW128079   0.576   0.599  14.074  1.2979 -2.4806 -1.2784
 5482SOL    HW228080   0.699   0.628  14.157 -0.7306  1.9148 -1.1702
 5483SOL     OW28081   2.662   0.621   9.557  0.8454 -0.2047 -0.1505
 5483SOL    HW128082   2.756   0.603   9.561  1.0303  1.3340  2.2952
 5483SOL    HW228083   2.622   0.563   9.491 -0.9389 -0.4277  1.1260
 5484SOL     OW28084   3.743   1.815   2.695 -0.1672 -0.0531 -0.1364
 5484SOL    HW128085   3.754   1.840   2.786 -1.9410  1.1212 -0.2505
 5484SOL    HW228086   3.834   1.797   2.671  0.7792  1.7545  2.0625
 5485SOL     OW28087   4.082   4.712   6.917 -0.4252 -0.2278 -0.3200
 5485SOL    HW128088   4.140   4.690   6.990 -1.8347 -1.3864  0.4611
 5485SOL    HW228089   4.027   0.043   6.955  1.0301  0.4216  0.6258
 5486SOL     OW28090   2.745   3.573   4.502  0.1617  0.3540 -0.5697
 5486SOL    HW128091   2.785   3.639   4.446  0.0770  1.8104  1.0909
 5486SOL    HW228092   2.807   3.499   4.498 -0.0469  0.1522 -0.1107
 5487SOL     OW28093   4.094   2.124   3.893  0.0825  0.3645 -0.2103
 5487SOL    HW128094   4.189   2.115   3.886 -0.2448 -2.2125 -1.1926
 5487SOL    HW228095   4.074   2.218   3.889 -0.1073  0.3859  1.1259
 5488SOL     OW28096   2.171   2.354   5.300 -0.4378 -0.2952  0.3962
 5488SOL    HW128097   2.118   2.290   5.253 -1.5950  0.1717  1.0437
 5488SOL    HW228098   2.214   2.400   5.228 -1.1184  0.0501  0.2094
 5489SOL     OW28099   2.145   4.269   9.181  0.5056 -0.4106 -0.1787
 5489SOL    HW128100   2.102   4.189   9.209  1.1778  0.0888  2.3129
 5489SOL    HW228101   2.213   4.283   9.247  0.0372 -0.7665  0.3693
 5490SOL     OW28102   0.693   0.476   6.239 -0.0062 -0.2891 -0.4720
 5490SOL    HW128103   0.703   0.381   6.242 -1.6468 -0.4389  0.3080
 5490SOL    HW228104   0.648   0.493   6.321  0.8868 -0.1060 -0.0123
 5491SOL     OW28105   1.951   3.565   5.694 -0.0316  0.0536 -0.0953
 5491SOL    HW128106   1.917   3.520   5.617  2.0654 -2.1057  0.2597
 5491SOL    HW228107   1.971   3.649   5.652  1.3895 -0.9145 -1.3553
 5492SOL     OW28108   3.215   1.213   4.669  0.4153 -0.3789 -0.3664
 5492SOL    HW128109   3.283   1.264   4.623  1.4902 -1.5861 -0.1176
 5492SOL    HW228110   3.171   1.162   4.602  0.1764  1.0517 -1.3179
 5493SOL     OW28111   4.410   0.734   7.093  0.9221 -0.4176  0.2291
 5493SOL    HW128112   4.350   0.733   7.018  0.9804  0.5983  0.1723
 5493SOL    HW228113   4.409   0.651   7.142 -1.1786 -0.7239 -0.3155
 5494SOL     OW28114   3.856   3.750   8.613 -0.4207  0.2126  0.5473
 5494SOL    HW128115   3.776   3.776   8.567 -0.6252  0.3284  0.9751
 5494SOL    HW228116   3.851   3.818   8.680  1.2138  1.1839 -0.2948
 5495SOL     OW28117   1.437   3.421   6.298  0.0648 -0.2090  0.5808
 5495SOL    HW128118   1.433   3.326   6.287  1.0656 -0.1551 -0.3335
 5495SOL    HW228119   1.419   3.454   6.209 -0.9142 -0.3990  0.7111
 5496SOL     OW28120   1.175   4.259   7.982  0.3313  0.2524 -0.6767
 5496SOL    HW128121   1.239   4.233   8.048 -1.4209 -1.5031  0.3406
 5496SOL    HW228122   1.179   4.182   7.926 -1.7621  1.1552 -2.1164
 5497SOL     OW28123   3.435   0.635  16.979  0.1907 -0.4190  0.4798
 5497SOL    HW128124   3.407   0.565  17.038  2.1716 -0.0067  1.9331
 5497SOL    HW228125   3.521   0.603  16.951  0.6400  1.0020  0.2223
 5498SOL     OW28126   0.429   2.339  12.919 -0.1574 -0.0698 -0.5224
 5498SOL    HW128127   0.449   2.253  12.881  1.2046  0.5508 -1.1858
 5498SOL    HW228128   0.446   2.311  13.009  0.6022  3.2542  0.3331
 5499SOL     OW28129   1.079   3.214   7.041 -0.4748  0.2800 -0.2946
 5499SOL    HW128130   1.023   3.150   6.997  0.3347 -0.0687 -0.8265
 5499SOL    HW228131   1.166   3.176   7.031 -0.5853 -0.1939  0.5731
 5500SOL     OW28132   3.316   4.439   8.143 -0.0407 -0.1827  0.2921
 5500SOL    HW128133   3.260   4.407   8.215  0.2508  0.1587  0.6717
 5500SOL    HW228134   3.391   4.448   8.202  0.5675 -1.5828 -0.2763
 5501SOL     OW28135   2.367   0.774  12.850  0.1405  0.7047  0.3413
 5501SOL    HW128136   2.338   0.825  12.774  0.4751  0.3712 -0.0088
 5501SOL    HW228137   2.449   0.731  12.824 -0.1950  0.8799 -1.0062
 5502SOL     OW28138   1.427   2.871   2.964 -0.2707 -0.1696  0.0048
 5502SOL    HW128139   1.333   2.864   2.951 -0.5247 -1.3706  2.4409
 5502SOL    HW228140   1.448   2.780   2.985  1.3342  0.3348  0.6090
 5503SOL     OW28141   1.568   2.091   3.693  0.2863  0.2525  0.1593
 5503SOL    HW128142   1.523   2.007   3.688 -0.5779  0.5948  2.1176
 5503SOL    HW228143   1.594   2.090   3.785 -0.2433  0.4489  0.3118
 5504SOL     OW28144   1.104   0.302   8.894 -0.0184 -0.4503  0.0130
 5504SOL    HW128145   1.123   0.396   8.893 -2.0899 -0.0140 -0.1979
 5504SOL    HW228146   1.189   0.263   8.879 -0.1619 -0.8555  0.2514
 5505SOL     OW28147   3.943   0.302   7.298 -0.2956  0.4208  0.0232
 5505SOL    HW128148   4.022   0.344   7.333 -1.1153  3.2149 -1.5011
 5505SOL    HW228149   3.935   0.229   7.360  0.2369  1.1647  0.9713
 5506SOL     OW28150   1.517   2.669   4.974  0.3209 -0.4758  0.1315
 5506SOL    HW128151   1.608   2.656   4.947  0.0520 -2.9566  0.4525
 5506SOL    HW228152   1.489   2.581   4.952  1.4585 -1.4717  2.6704
 5507SOL     OW28153   1.987   1.889   3.727 -0.3357  0.0337 -0.0095
 5507SOL    HW128154   2.063   1.942   3.702 -0.9402  0.0356 -1.8300
 5507SOL    HW228155   1.917   1.946   3.694 -1.2388 -1.3041 -0.3730
 5508SOL     OW28156   3.706   1.938   2.259 -0.2730 -0.4500  0.0247
 5508SOL    HW128157   3.690   1.938   2.353  0.4114 -1.2602  0.1391
 5508SOL    HW228158   3.714   2.031   2.237  0.2206 -0.1440  1.4907
 5509SOL     OW28159   1.057   1.799  15.996  0.7380  0.5221 -0.1132
 5509SOL    HW128160   1.066   1.705  15.979 -2.9450  0.0489  0.4525
 5509SOL    HW228161   1.126   1.812  16.060  0.2968 -1.8240  0.8638
 5510SOL     OW28162   3.492   2.307   6.152  0.1116 -0.0218  0.1582
 5510SOL    HW128163   3.455   2.324   6.066 -0.1598  0.2231  0.3210
 5510SOL    HW228164   3.547   2.384   6.164  2.2814 -1.4912 -0.3721
 5511SOL     OW28165   3.611   2.497  14.704  0.1809 -0.2023  1.0600
 5511SOL    HW128166   3.602   2.424  14.642  2.0143  2.6368 -2.5997
 5511SOL    HW228167   3.597   2.452  14.787  0.0129 -1.3362  0.4219
 5512SOL     OW28168   0.522   3.854   4.879  0.4747  0.3279  0.7730
 5512SOL    HW128169   0.490   3.886   4.794 -1.0178 -2.7189  0.1676
 5512SOL    HW228170   0.581   3.925   4.904  0.1449  0.7099  0.4666
 5513SOL     OW28171   3.382   1.724   9.372 -0.1744  0.4248 -0.1244
 5513SOL    HW128172   3.359   1.816   9.379 -0.8629  0.2887 -0.6924
 5513SOL    HW228173   3.438   1.714   9.450 -2.0611  0.4915  1.2272
 5514SOL     OW28174   3.911   3.493   8.516 -0.0259 -0.2247  0.1866
 5514SOL    HW128175   3.999   3.525   8.496 -0.0704  0.1455  0.5772
 5514SOL    HW228176   3.873   3.571   8.556  0.7867  0.3229 -0.0968
 5515SOL     OW28177   4.597   0.722   1.483 -0.4248 -0.2339 -0.6098
 5515SOL    HW128178   4.582   0.758   1.395  0.7427  1.1971 -0.2285
 5515SOL    HW228179   4.648   0.793   1.523 -2.0468  1.2733 -1.2088
 5516SOL     OW28180   1.117   3.574   7.466  0.3695 -0.4501  0.2262
 5516SOL    HW128181   1.137   3.482   7.480  0.8313 -0.5767 -1.2779
 5516SOL    HW228182   1.063   3.592   7.543 -2.4160 -0.7371 -1.6833
 5517SOL     OW28183   2.196   3.569   9.324 -0.3108 -0.3514 -0.2744
 5517SOL    HW128184   2.146   3.517   9.388  1.3200 -0.2368  1.0857
 5517SOL    HW228185   2.225   3.642   9.378 -0.8827  0.2429 -0.7744
 5518SOL     OW28186   0.401   0.764   6.031  0.6923 -0.4382  0.4444
 5518SOL    HW128187   0.353   0.701   6.085 -2.0569 -1.9905 -3.8700
 5518SOL    HW228188   0.386   0.737   5.941 -0.0748 -1.1764  0.7993
 5519SOL     OW28189   0.437   2.323   8.384 -0.4112  0.0960  0.2410
 5519SOL    HW128190   0.508   2.339   8.321 -0.4437 -1.5123 -0.2177
 5519SOL    HW228191   0.374   2.378   8.339 -1.9126 -1.2194  0.7457
 5520SOL     OW28192   2.696   3.029  12.637  0.4902  1.1442 -0.5343
 5520SOL    HW128193   2.762   3.083  12.593  0.0180  1.7868 -0.4528
 5520SOL    HW228194   2.653   3.102  12.683 -0.8952  0.0333 -0.0677
 5521SOL     OW28195   1.183   3.072   4.435 -0.5777 -0.1223 -0.2036
 5521SOL    HW128196   1.111   3.010   4.421 -0.5691 -0.2300  0.2378
 5521SOL    HW228197   1.233   3.055   4.355  1.0057  0.5518  0.6365
 5522SOL     OW28198   1.529   4.560   4.971  0.0099 -0.0941  0.3656
 5522SOL    HW128199   1.611   4.524   4.938 -1.0517 -0.9076 -1.3802
 5522SOL    HW228200   1.484   4.582   4.890  1.1218 -0.4982 -0.3541
 5523SOL     OW28201   2.815   0.884   2.727 -1.3456 -0.0425 -0.1897
 5523SOL    HW128202   2.852   0.876   2.815 -1.1549 -1.0863 -0.3739
 5523SOL    HW228203   2.787   0.976   2.731  1.5004  0.8676 -1.4867
 5524SOL     OW28204   3.036   4.411   6.629  0.8180 -0.5107 -0.2991
 5524SOL    HW128205   3.037   4.473   6.556 -0.4759 -1.4808 -1.1473
 5524SOL    HW228206   2.965   4.443   6.684  0.4887  1.0503 -1.6487
 5525SOL     OW28207   2.396   1.656  16.404  0.0208  0.6823  0.2694
 5525SOL    HW128208   2.363   1.745  16.403  0.7163  0.9524  0.9435
 5525SOL    HW228209   2.342   1.598  16.351  1.6377  1.6120 -2.4309
 5526SOL     OW28210   2.114   3.975   5.092  0.0586  0.6882  0.2086
 5526SOL    HW128211   2.122   4.071   5.095 -0.5998  0.7551 -0.2793
 5526SOL    HW228212   2.199   3.943   5.124 -0.2293 -0.6843 -0.4204
 5527SOL     OW28213   0.392   0.602   1.029 -0.0061  0.2156 -0.5927
 5527SOL    HW128214   0.379   0.594   0.934  0.3417  1.5290 -0.7474
 5527SOL    HW228215   0.481   0.566   1.038 -0.2858 -0.2091  0.4964
 5528SOL     OW28216   2.716   2.068  17.281  0.5143 -0.2391  0.0577
 5528SOL    HW128217   2.808   2.095  17.276  0.5992 -0.4885  0.2510
 5528SOL    HW228218   2.709   2.005  17.210  0.5264 -0.4271  0.2238
 5529SOL     OW28219   3.782   1.433  12.469 -0.6509 -0.5218 -0.4766
 5529SOL    HW128220   3.864   1.384  12.476  1.9597  3.8733 -0.3455
 5529SOL    HW228221   3.778   1.476  12.554 -0.3890 -1.8275  0.1996
 5530SOL     OW28222   0.775   3.270   2.274 -0.2736 -0.5857  0.5305
 5530SOL    HW128223   0.842   3.317   2.224 -0.2743 -1.1585 -0.0018
 5530SOL    HW228224   0.828   3.209   2.325 -0.8410  0.2485  2.1188
 5531SOL     OW28225   2.569   4.006  13.774  0.0491 -0.2303  0.0310
 5531SOL    HW128226   2.518   4.068  13.827 -0.4135 -1.5945  1.1850
 5531SOL    HW228227   2.512   3.929  13.774 -0.8942  0.4610 -0.4681
 5532SOL     OW28228   2.160   1.074   8.504  0.2270  0.1960 -0.1641
 5532SOL    HW128229   2.237   1.047   8.454 -0.1054 -0.2447 -0.4383
 5532SOL    HW228230   2.103   1.073   8.427  1.0116 -0.6567 -0.7406
 5533SOL     OW28231   3.311   2.508   9.384  0.6973  0.2970 -0.4149
 5533SOL    HW128232   3.335   2.579   9.324  0.6723  1.3094  0.7700
 5533SOL    HW228233   3.294   2.431   9.331  0.9654 -0.9477  1.3060
 5534SOL     OW28234   2.255   0.261   6.846  0.5168 -0.3517 -0.1399
 5534SOL    HW128235   2.203   0.199   6.897  0.4555  0.8596  1.2543
 5534SOL    HW228236   2.313   0.284   6.917  0.5719 -0.5257 -0.1284
 5535SOL     OW28237   3.227   2.230   6.729 -0.3876 -0.2820  0.3729
 5535SOL    HW128238   3.302   2.180   6.697 -1.1648 -1.6404  0.6598
 5535SOL    HW228239   3.243   2.316   6.691 -0.3093 -1.3802 -2.0595
 5536SOL     OW28240   2.402   0.891   9.290  0.8808  0.2384  0.3769
 5536SOL    HW128241   2.427   0.880   9.382 -0.4196  3.1203  1.0763
 5536SOL    HW228242   2.355   0.810   9.270 -0.1392  0.5653  1.5015
 5537SOL     OW28243   1.100   1.280   5.453 -0.2286 -0.1314 -0.3797
 5537SOL    HW128244   1.055   1.364   5.462  0.7245  0.1350  2.1054
 5537SOL    HW228245   1.138   1.281   5.542 -3.0485  0.0529  0.8066
 5538SOL     OW28246   2.990   2.148  12.575  0.0050  0.3638  0.6629
 5538SOL    HW128247   2.922   2.096  12.533  1.7397 -2.1138  0.9475
 5538SOL    HW228248   2.959   2.234  12.545 -2.8864 -0.9674 -0.1519
 5539SOL     OW28249   4.082   2.659   5.369  0.5320 -0.2213  0.4755
 5539SOL    HW128250   4.143   2.681   5.439  2.6661  0.2128 -1.5314
 5539SOL    HW228251   4.139   2.640   5.295  1.2382 -0.1900  1.0108
 5540SOL     OW28252   4.657   3.426   6.913  0.3432  0.0994 -0.9733
 5540SOL    HW128253   4.609   3.450   6.834 -1.0054 -0.1057 -0.2236
 5540SOL    HW228254   0.010   3.418   6.882  0.8212  1.9219 -0.0133
 5541SOL     OW28255   3.761   3.334   6.456 -0.2159  0.3242 -0.0549
 5541SOL    HW128256   3.670   3.322   6.484 -0.1596  2.3159  0.9379
 5541SOL    HW228257   3.805   3.255   6.489 -0.6068 -0.1916 -0.7625
 5542SOL     OW28258   3.399   1.219   2.580  0.5719 -0.1485 -0.7423
 5542SOL    HW128259   3.305   1.205   2.590  0.7743 -0.4766  0.6272
 5542SOL    HW228260   3.421   1.290   2.640 -2.2051  0.2604 -0.2298
 5543SOL     OW28261   1.203   0.024   4.383  0.1607  0.1556 -0.2770
 5543SOL    HW128262   1.197   4.668   4.360  3.3493 -0.1402  0.1930
 5543SOL    HW228263   1.297   0.037   4.389  0.0664  0.7693 -0.1141
 5544SOL     OW28264   4.389   4.268   0.500 -0.8762  0.0708 -0.3715
 5544SOL    HW128265   4.432   4.285   0.584 -1.1106 -0.0500 -0.2284
 5544SOL    HW228266   4.356   4.355   0.478 -3.8777 -1.0434 -0.3240
 5545SOL     OW28267   2.693   3.652  13.715 -0.1944  0.1534 -0.4098
 5545SOL    HW128268   2.707   3.675  13.807 -0.1247  1.3267 -0.7123
 5545SOL    HW228269   2.777   3.673  13.674  1.5194  1.7057  3.9285
 5546SOL     OW28270   3.113   1.275   6.175 -0.2245 -0.3726  0.0835
 5546SOL    HW128271   3.129   1.369   6.178 -1.1020 -0.2583  1.5744
 5546SOL    HW228272   3.019   1.259   6.170 -0.5324  0.8263  1.7152
 5547SOL     OW28273   4.291   4.292  12.279 -0.0144 -0.4237  0.6175
 5547SOL    HW128274   4.292   4.203  12.315  1.0633  0.1485  2.0006
 5547SOL    HW228275   4.264   4.279  12.188 -0.5989 -1.3320  0.9202
 5548SOL     OW28276   3.861   1.400  11.115 -0.0495 -0.0522  0.0602
 5548SOL    HW128277   3.799   1.426  11.047  2.4894  1.3518 -1.7049
 5548SOL    HW228278   3.812   1.335  11.166 -2.3961  0.1718 -1.9163
 5549SOL     OW28279   3.508   1.054   7.769  0.4311  0.3977  0.0747
 5549SOL    HW128280   3.587   1.104   7.790 -0.6917  1.9787  0.5359
 5549SOL    HW228281   3.552   0.969   7.762 -0.2902 -0.2085  2.9070
 5550SOL     OW28282   1.916   0.619  14.548 -0.3426 -0.1345  0.2979
 5550SOL    HW128283   1.900   0.711  14.571 -0.0334 -0.4501  1.7643
 5550SOL    HW228284   1.870   0.569  14.615  0.9824  0.4976  1.6778
 5551SOL     OW28285   1.697   3.615   2.193 -0.2615  0.4776  0.2015
 5551SOL    HW128286   1.792   3.610   2.197 -0.2791 -1.1413 -1.8686
 5551SOL    HW228287   1.677   3.615   2.287  2.6646  3.3469  0.8576
 5552SOL     OW28288   3.855   4.626  16.182 -0.0909  0.3497 -0.6274
 5552SOL    HW128289   3.792   4.563  16.145 -0.0982 -0.1728  0.2929
 5552SOL    HW228290   3.929   4.617  16.122  0.3080  2.6651 -0.5036
 5553SOL     OW28291   4.140   2.879  17.231  0.2435 -0.8109 -0.1099
 5553SOL    HW128292   4.107   2.854  17.318  1.4101  0.3722  0.6746
 5553SOL    HW228293   4.188   2.801  17.206  1.1319 -0.1650 -0.4262
 5554SOL     OW28294   2.121   0.396   1.930 -0.7207  0.8492 -0.1113
 5554SOL    HW128295   2.143   0.362   2.016 -0.8981 -0.3258 -0.5287
 5554SOL    HW228296   2.190   0.353   1.879 -1.9271 -1.5312  0.2960
 5555SOL     OW28297   2.441   2.540   9.012 -0.6019  0.2941 -0.3362
 5555SOL    HW128298   2.476   2.555   9.099 -1.9212  3.8230 -0.4145
 5555SOL    HW228299   2.352   2.507   9.027 -1.0540  1.5746 -0.2373
 5556SOL     OW28300   1.245   4.238   9.172 -0.5960  0.4106 -0.2958
 5556SOL    HW128301   1.185   4.281   9.233 -0.2162 -1.3736  1.3277
 5556SOL    HW228302   1.199   4.155   9.158 -1.0115  1.0029 -2.4875
 5557SOL     OW28303   4.202   1.887   6.929  0.0047 -0.0931 -0.0605
 5557SOL    HW128304   4.227   1.951   6.863 -0.3470  1.3650  1.2404
 5557SOL    HW228305   4.107   1.887   6.917 -0.2312 -1.0053  1.7379
 5558SOL     OW28306   2.428   1.041   8.827  0.5864  0.5149  0.0409
 5558SOL    HW128307   2.343   1.039   8.782  0.1930  0.5039  0.7968
 5558SOL    HW228308   2.482   1.105   8.780  1.0413  0.1107  0.0032
 5559SOL     OW28309   1.963   2.035   5.348  0.7675  0.5227  0.3000
 5559SOL    HW128310   1.943   2.059   5.258 -0.1345 -0.2166  0.3012
 5559SOL    HW228311   1.908   2.090   5.403 -0.9146  0.4966 -1.3633
 5560SOL     OW28312   0.583   2.604   5.807 -0.4257  0.4102 -0.0552
 5560SOL    HW128313   0.624   2.541   5.748  1.5468  0.8095  0.9002
 5560SOL    HW228314   0.545   2.662   5.740 -1.5557 -0.2376  0.0141
 5561SOL     OW28315   1.836   2.697   5.544  0.1754 -0.2236  0.1432
 5561SOL    HW128316   1.891   2.656   5.610  0.0791  0.1212  0.4382
 5561SOL    HW228317   1.766   2.722   5.604 -0.7958  0.0704 -1.1204
 5562SOL     OW28318   1.537   2.611   6.244 -0.2124  0.2464  0.3349
 5562SOL    HW128319   1.572   2.626   6.156 -1.4853  2.2807  0.1706
 5562SOL    HW228320   1.587   2.677   6.291  2.7777 -0.8641 -1.2975
 5563SOL     OW28321   2.555   2.631   8.614  0.0501  0.6977 -0.6621
 5563SOL    HW128322   2.606   2.550   8.607 -2.2080 -0.7882  0.3457
 5563SOL    HW228323   2.615   2.701   8.586 -0.6074  1.1999 -0.7958
 5564SOL     OW28324   3.137   0.952   4.537 -0.2227 -0.3791  0.1241
 5564SOL    HW128325   3.095   0.908   4.610 -2.0383 -1.5393 -1.6172
 5564SOL    HW228326   3.229   0.928   4.553  0.1168  1.1561  0.4715
 5565SOL     OW28327   0.418   4.013   4.448  0.3342  0.4320 -0.7681
 5565SOL    HW128328   0.448   3.976   4.365  0.6994  0.6460 -0.7301
 5565SOL    HW228329   0.327   4.023   4.420 -0.0779 -3.6779 -0.8853
 5566SOL     OW28330   4.437   1.762  16.657  0.2961  0.1409  0.0958
 5566SOL    HW128331   4.531   1.758  16.677  0.2191 -0.7326  0.2952
 5566SOL    HW228332   4.443   1.714  16.574  2.1934  0.9289 -0.2239
 5567SOL     OW28333   0.219   2.684   6.152  0.3470  0.0977  0.1037
 5567SOL    HW128334   0.312   2.678   6.131  0.0562  2.2851 -1.8811
 5567SOL    HW228335   0.205   2.776   6.174 -0.6352 -1.1625  4.6920
 5568SOL     OW28336   1.551   1.217   7.036  0.6702 -0.2750 -0.2283
 5568SOL    HW128337   1.642   1.187   7.035  0.4226 -1.0125 -0.5893
 5568SOL    HW228338   1.549   1.249   7.126  1.1439 -1.7222  0.2900
 5569SOL     OW28339   1.881   0.285  12.810  0.1460 -0.2144 -0.2508
 5569SOL    HW128340   1.799   0.238  12.798 -0.3097  0.6123 -0.4155
 5569SOL    HW228341   1.947   0.216  12.802  0.1772 -0.1571 -0.4860
 5570SOL     OW28342   0.802   3.756   6.094 -0.3340  0.3980 -0.4921
 5570SOL    HW128343   0.846   3.838   6.117  0.7752 -0.2478 -0.3236
 5570SOL    HW228344   0.873   3.694   6.106  0.1042  0.6548 -1.7358
 5571SOL     OW28345   0.153   0.005   2.145 -0.2074  0.2829 -0.0230
 5571SOL    HW128346   0.221   0.003   2.078  1.3173  1.0648  1.4938
 5571SOL    HW228347   0.160   0.091   2.186 -0.1446  0.3393 -0.1537
 5572SOL     OW28348   2.800   4.358   2.948  0.7277  0.2065  0.4692
 5572SOL    HW128349   2.877   4.389   2.996  0.7959 -0.6921  0.9418
 5572SOL    HW228350   2.731   4.419   2.977 -0.9987 -0.5823 -2.0247
 5573SOL     OW28351   3.263   4.626   5.764  0.3195  0.2666 -0.5893
 5573SOL    HW128352   3.350   4.645   5.799 -0.2589  0.2249  0.8515
 5573SOL    HW228353   3.272   4.664   5.676 -0.9233  0.2064 -0.7447
 5574SOL     OW28354   3.726   4.221  12.003  0.0908  0.0028  0.1162
 5574SOL    HW128355   3.819   4.239  11.993 -0.0169 -0.1971 -1.2082
 5574SOL    HW228356   3.717   4.165  11.926 -1.5076  2.2350 -1.2747
 5575SOL     OW28357   0.046   4.108  10.295  0.1115  0.0992 -0.6244
 5575SOL    HW128358   0.047   4.108  10.199 -1.8907 -3.6130 -0.6661
 5575SOL    HW228359   0.121   4.163  10.317  0.5644 -0.9571  0.4317
 5576SOL     OW28360   1.594   3.176   5.298 -0.5111 -0.2729  0.4255
 5576SOL    HW128361   1.513   3.138   5.332 -1.3642  1.1466 -0.0539
 5576SOL    HW228362   1.598   3.151   5.205  1.0200  1.1375  0.1244
 5577SOL     OW28363   1.858   0.418   6.901  0.0212 -0.4986  0.0939
 5577SOL    HW128364   1.920   0.415   6.828  1.1307 -0.5537  1.0208
 5577SOL    HW228365   1.845   0.325   6.918  1.6657 -1.0633 -1.6542
 5578SOL     OW28366   0.847   0.979   2.229  0.1864 -0.1219  0.5912
 5578SOL    HW128367   0.775   0.936   2.275 -0.0846 -0.4518 -0.1525
 5578SOL    HW228368   0.910   0.973   2.301  1.5279  0.6029 -0.5128
 5579SOL     OW28369   4.502   2.210   5.029 -0.1330  0.1954  0.3766
 5579SOL    HW128370   4.479   2.242   5.117 -0.9443 -1.2102  0.6684
 5579SOL    HW228371   4.539   2.126   5.056 -1.9893 -0.4265  0.9411
 5580SOL     OW28372   3.099   1.790   9.207 -0.8545 -0.0420  0.5471
 5580SOL    HW128373   3.090   1.699   9.178  1.8830 -0.6858  1.7628
 5580SOL    HW228374   3.008   1.819   9.202 -0.3343  1.5718  0.4858
 5581SOL     OW28375   1.670   2.760   9.028  0.0996 -0.2948 -0.4705
 5581SOL    HW128376   1.631   2.729   9.110 -0.1059  1.9753  0.2875
 5581SOL    HW228377   1.693   2.672   8.997  0.4415 -0.2199 -0.4290
 5582SOL     OW28378   1.526   1.857   2.532  0.3265  0.1747  0.1728
 5582SOL    HW128379   1.520   1.762   2.519 -0.4155  0.1346  0.8516
 5582SOL    HW228380   1.581   1.869   2.454 -1.0219  1.2065 -0.6284
 5583SOL     OW28381   2.884   1.598   5.781 -0.3055  0.0709  0.4045
 5583SOL    HW128382   2.959   1.590   5.839  0.3112  0.7210 -0.3056
 5583SOL    HW228383   2.906   1.528   5.718  1.2937 -0.4664  1.5790
 5584SOL     OW28384   4.433   4.259   3.015 -0.3545  0.6621 -0.0013
 5584SOL    HW128385   4.500   4.322   3.039  0.9347 -1.0165  0.8104
 5584SOL    HW228386   4.391   4.252   3.101 -2.6709 -2.3100 -1.3487
 5585SOL     OW28387   4.184   1.102   4.356  0.0323  0.2373  0.2806
 5585SOL    HW128388   4.210   1.062   4.439 -1.3660  1.0891  1.1489
 5585SOL    HW228389   4.247   1.060   4.297  0.4748  2.0492 -0.5223
 5586SOL     OW28390   2.341   0.054   4.268 -0.1679  0.3320  0.3850
 5586SOL    HW128391   2.356   0.135   4.316  2.8638  1.3765 -2.3077
 5586SOL    HW228392   2.297   0.010   4.340  0.7205 -0.9060  0.1767
 5587SOL     OW28393   2.602   1.975   1.199  0.0634  0.3198  0.4095
 5587SOL    HW128394   2.566   1.908   1.257  0.6612 -0.7731 -0.4676
 5587SOL    HW228395   2.548   2.052   1.216  2.8861  2.7386 -1.5032
 5588SOL     OW28396   0.232   0.241   2.251 -0.4173 -0.3019  0.3768
 5588SOL    HW128397   0.294   0.286   2.193 -0.7370  1.7961  1.6373
 5588SOL    HW228398   0.194   0.321   2.287  0.7032 -0.0874  1.1304
 5589SOL     OW28399   0.792   3.902   0.118  0.2877  0.0448  0.4575
 5589SOL    HW128400   0.709   3.949   0.109  0.3442 -0.4499 -2.5646
 5589SOL    HW228401   0.841   3.977   0.151  2.1143 -0.2405 -1.5980
 5590SOL     OW28402   0.456   2.595   6.058 -0.1002  0.2881  0.1563
 5590SOL    HW128403   0.470   2.504   6.086  0.8640 -0.0267 -1.3659
 5590SOL    HW228404   0.515   2.602   5.983 -0.1224 -2.2344 -0.1081
 5591SOL     OW28405   0.812   0.440   9.631 -0.1960 -0.0060  0.0679
 5591SOL    HW128406   0.791   0.530   9.606  1.3058  1.3449  3.5622
 5591SOL    HW228407   0.796   0.436   9.726  0.8608 -1.8986  0.1746
 5592SOL     OW28408   1.774   2.838   4.174 -0.2569 -0.3445 -0.0184
 5592SOL    HW128409   1.713   2.796   4.113 -1.3771 -2.4116  2.5478
 5592SOL    HW228410   1.858   2.817   4.134  0.6130  0.7887  1.2524
 5593SOL     OW28411   0.872   4.368   4.671  0.2072  0.1183 -0.0277
 5593SOL    HW128412   0.921   4.358   4.590 -1.2759 -0.0703 -0.8911
 5593SOL    HW228413   0.826   4.450   4.658 -1.9992 -0.6982  2.5477
 5594SOL     OW28414   1.284   4.588   1.311 -0.1689 -0.5310 -0.2147
 5594SOL    HW128415   1.312   4.601   1.221  1.7403 -1.6387  0.2066
 5594SOL    HW228416   1.193   4.610   1.294 -0.0841  0.7230  1.0081
 5595SOL     OW28417   0.167   0.931   4.747  0.3459 -0.3202 -0.1311
 5595SOL    HW128418   0.155   0.838   4.726 -1.7052  0.3434 -1.7901
 5595SOL    HW228419   0.153   0.988   4.672 -1.2832 -0.0461  0.3825
 5596SOL     OW28420   0.683   4.572  10.985  0.4755 -0.7118 -0.6102
 5596SOL    HW128421   0.728   4.651  10.957 -2.4096  0.1756 -2.6964
 5596SOL    HW228422   0.623   4.571  10.910  0.5305 -0.6975 -0.6539
 5597SOL     OW28423   0.547   4.550   4.025 -0.1941  0.7457 -0.4143
 5597SOL    HW128424   0.516   4.634   3.989  0.4676  0.9423 -0.5201
 5597SOL    HW228425   0.484   4.542   4.097  1.0907 -0.4648  0.5737
 5598SOL     OW28426   3.142   2.799   1.013 -0.5114  0.6502  0.4342
 5598SOL    HW128427   3.169   2.854   0.940 -0.0523  0.7279  0.6630
 5598SOL    HW228428   3.067   2.844   1.053  1.1175  2.2700  1.6324
 5599SOL     OW28429   3.877   0.676   6.298  0.0154 -0.5967 -0.2060
 5599SOL    HW128430   3.866   0.596   6.247 -1.9236 -1.8897  2.1943
 5599SOL    HW228431   3.862   0.640   6.386 -0.4775  0.3173  0.0814
 5600SOL     OW28432   0.781   0.619   7.901 -0.4603 -0.0104 -0.3621
 5600SOL    HW128433   0.690   0.592   7.899 -0.0315 -1.4487 -0.0565
 5600SOL    HW228434   0.765   0.712   7.919 -1.6505 -0.1752 -0.5646
 5601SOL     OW28435   2.364   0.817   7.794 -0.2771 -0.3937 -0.4786
 5601SOL    HW128436   2.304   0.890   7.778 -0.5774 -0.5557 -0.0874
 5601SOL    HW228437   2.394   0.798   7.705  1.5275 -1.3720  0.3386
 5602SOL     OW28438   2.527   1.046  15.111  0.4987  0.7552 -0.0597
 5602SOL    HW128439   2.473   0.996  15.173  0.0392 -0.7892 -1.7143
 5602SOL    HW228440   2.600   0.985  15.099  0.0504  0.7099 -2.5818
 5603SOL     OW28441   1.290   0.952   5.627 -0.0312 -0.3702  0.3426
 5603SOL    HW128442   1.376   0.917   5.652  0.8733  3.3175  2.2736
 5603SOL    HW228443   1.279   0.896   5.550  0.0496  1.4992 -1.0152
 5604SOL     OW28444   2.924   1.026   7.304  0.0630  0.2061  0.3383
 5604SOL    HW128445   2.985   1.058   7.370 -0.2113 -0.3521  0.8548
 5604SOL    HW228446   2.911   1.106   7.251 -1.1313  0.3610  0.8728
 5605SOL     OW28447   3.128   0.427  12.008  0.0032  0.5590 -0.1283
 5605SOL    HW128448   3.194   0.370  11.969 -2.3884 -1.3233 -1.3831
 5605SOL    HW228449   3.091   0.473  11.933  0.8469 -0.1245 -0.9561
 5606SOL     OW28450   2.154   2.733   2.423  0.0661 -0.7082 -0.0806
 5606SOL    HW128451   2.236   2.770   2.455 -0.4165 -0.2566  0.6324
 5606SOL    HW228452   2.173   2.710   2.332  1.4886  2.1377 -0.5037
 5607SOL     OW28453   2.711   4.400  14.838  0.1061 -0.0078 -0.3037
 5607SOL    HW128454   2.673   4.376  14.753 -1.2908  0.6126  0.1477
 5607SOL    HW228455   2.641   4.457  14.870  1.8476  1.2285  1.2416
 5608SOL     OW28456   3.779   4.284  10.215 -0.1050  0.5666 -0.5291
 5608SOL    HW128457   3.837   4.286  10.291 -0.9285 -0.3825  0.1239
 5608SOL    HW228458   3.734   4.364  10.242 -0.3055  0.7701 -1.4461
 5609SOL     OW28459   4.727   1.116   3.657 -0.1923  0.4375  1.0081
 5609SOL    HW128460   0.008   1.032   3.699  0.0127 -0.4365 -0.8531
 5609SOL    HW228461   4.632   1.110   3.660 -0.0686 -0.3809  3.8537
 5610SOL     OW28462   2.612   1.858   2.923 -0.0701 -0.0299  0.4532
 5610SOL    HW128463   2.645   1.796   2.858 -1.0496 -0.6801  0.5769
 5610SOL    HW228464   2.550   1.909   2.870  0.2344 -1.6352 -1.4598
 5611SOL     OW28465   2.221   3.505   0.844  0.4274 -0.0925 -0.3824
 5611SOL    HW128466   2.210   3.530   0.936  0.7265  2.2920 -1.0046
 5611SOL    HW228467   2.227   3.590   0.800 -1.2803 -1.0010 -2.3579
 5612SOL     OW28468   2.953   2.349  14.549 -0.3048  0.3272 -0.2834
 5612SOL    HW128469   2.933   2.271  14.497  1.2500  0.2358 -0.7439
 5612SOL    HW228470   2.889   2.412  14.517 -0.2146  0.8715  0.6166
 5613SOL     OW28471   2.045   4.636   2.483 -0.0519  0.7729  0.2125
 5613SOL    HW128472   2.020   4.727   2.470 -1.6192  0.5929  1.8683
 5613SOL    HW228473   2.083   4.630   2.571  0.8797 -1.1802 -0.3136
 5614SOL     OW28474   3.434   1.930   2.988 -0.0849  0.2381 -0.1748
 5614SOL    HW128475   3.461   1.946   3.079 -0.3904  0.0056 -0.0465
 5614SOL    HW228476   3.409   2.020   2.965  0.1583  0.8376  1.8495
 5615SOL     OW28477   1.276   3.523   6.857  0.0686 -0.2355  0.3452
 5615SOL    HW128478   1.245   3.496   6.943 -1.2664  0.7388  0.1787
 5615SOL    HW228479   1.218   3.466   6.806  0.6081  1.1776 -1.8636
 5616SOL     OW28480   3.038   4.508   7.922  0.7820 -0.5291  0.1763
 5616SOL    HW128481   3.070   4.531   7.835  2.6738  1.5201  1.4138
 5616SOL    HW228482   3.111   4.527   7.981 -0.2628  1.5653  0.8143
 5617SOL     OW28483   2.354   1.099   7.152 -0.2298  0.1298 -0.4714
 5617SOL    HW128484   2.271   1.115   7.196 -0.0937 -1.1485  0.2292
 5617SOL    HW228485   2.353   1.170   7.088  0.6225 -1.0622 -1.8021
 5618SOL     OW28486   2.862   4.124   6.957 -0.6918 -0.0951  0.3154
 5618SOL    HW128487   2.850   4.106   6.864  1.9624  2.8441 -0.6256
 5618SOL    HW228488   2.880   4.035   6.988 -1.3815 -0.1303  0.6039
 5619SOL     OW28489   0.942   0.678   8.737  0.2946  0.3810  0.2285
 5619SOL    HW128490   0.951   0.614   8.666  0.2015 -1.2978  1.7219
 5619SOL    HW228491   0.848   0.664   8.752  0.1167  0.3520 -0.9549
 5620SOL     OW28492   2.509   2.836   6.111 -0.0623 -0.1120 -0.6447
 5620SOL    HW128493   2.601   2.859   6.124  0.3065 -1.0155 -1.6815
 5620SOL    HW228494   2.520   2.766   6.046  0.9249 -0.6234  0.0655
 5621SOL     OW28495   3.249   0.306   6.912  0.0323  0.0357  0.0803
 5621SOL    HW128496   3.163   0.314   6.952  0.4270  1.6837  0.6053
 5621SOL    HW228497   3.228   0.324   6.820 -0.7656  2.4929  0.7629
 5622SOL     OW28498   0.893   1.668   3.265 -0.5421 -0.0718 -0.4285
 5622SOL    HW128499   0.806   1.679   3.228 -0.2206 -0.1230 -1.2124
 5622SOL    HW228500   0.932   1.602   3.208  0.8841  0.6378 -0.2860
 5623SOL     OW28501   1.864   3.747   2.965 -0.6803 -0.8347  0.3364
 5623SOL    HW128502   1.860   3.842   2.975  0.5310 -0.8327  0.8855
 5623SOL    HW228503   1.772   3.730   2.980 -0.7407 -1.0551 -0.2809
 5624SOL     OW28504   0.878   4.057   6.873  0.7388 -0.3873  0.1440
 5624SOL    HW128505   0.971   4.078   6.870  0.2787  1.5356 -0.4410
 5624SOL    HW228506   0.862   4.041   6.780  3.8196 -0.6326 -0.3546
 5625SOL     OW28507   1.856   0.917   2.739  0.3951 -0.2695  0.8045
 5625SOL    HW128508   1.850   0.864   2.819 -1.6773  0.3408  1.0662
 5625SOL    HW228509   1.948   0.914   2.715  0.4661  0.4188  1.0035
 5626SOL     OW28510   4.461   3.813   7.998 -0.2317  0.1259  0.3213
 5626SOL    HW128511   4.496   3.850   7.917 -1.9088 -1.6521 -1.2132
 5626SOL    HW228512   4.373   3.797   7.965 -0.8694  0.4818  1.8510
 5627SOL     OW28513   3.981   0.532   3.448  0.0514  0.2448  0.2557
 5627SOL    HW128514   3.900   0.496   3.485 -1.0352  1.3079 -1.0233
 5627SOL    HW228515   4.013   0.556   3.535  1.8398 -0.6545 -0.1542
 5628SOL     OW28516   0.980   3.683   6.352  0.0762  0.3341  0.1407
 5628SOL    HW128517   0.961   3.717   6.439 -1.8889  1.5838 -0.7968
 5628SOL    HW228518   0.928   3.754   6.316  2.2219  1.1912 -1.1909
 5629SOL     OW28519   1.004   3.033   3.422 -0.5752 -0.0682 -0.4248
 5629SOL    HW128520   0.955   2.970   3.474  0.0903  1.5095  2.1459
 5629SOL    HW228521   1.092   2.996   3.426 -0.6831 -0.2069  0.7863
 5630SOL     OW28522   1.417   1.963   6.041  0.2304  0.4900 -0.0691
 5630SOL    HW128523   1.422   1.867   6.049  1.1803  0.4653 -0.9014
 5630SOL    HW228524   1.340   1.966   5.985 -0.9598  1.8003  1.6439
 5631SOL     OW28525   1.242   4.514   6.884  0.4258 -0.0899 -0.4301
 5631SOL    HW128526   1.165   4.511   6.941  1.5055  1.3078  1.1049
 5631SOL    HW228527   1.215   4.580   6.820  1.0540  0.6823  0.1015
 5632SOL     OW28528   1.351   4.349  16.179  0.0556 -0.1020 -0.2194
 5632SOL    HW128529   1.366   4.440  16.207  0.6643 -0.1115 -0.5131
 5632SOL    HW228530   1.436   4.323  16.144  0.7611  1.4784  0.2939
 5633SOL     OW28531   1.669   1.307   7.726 -0.4568  0.3229  0.2209
 5633SOL    HW128532   1.732   1.283   7.793 -0.4867  2.5780  1.0380
 5633SOL    HW228533   1.671   1.239   7.659 -1.9195  0.4669  0.0299
 5634SOL     OW28534   1.285   0.327   5.621  0.1089 -0.0602  0.0852
 5634SOL    HW128535   1.260   0.392   5.687  0.4928 -0.0263  0.1969
 5634SOL    HW228536   1.347   0.286   5.681 -2.9900 -2.0574  1.9211
 5635SOL     OW28537   3.413   3.678   7.307  0.6283 -0.3450 -0.4943
 5635SOL    HW128538   3.464   3.757   7.321 -0.3686  0.2456 -0.1820
 5635SOL    HW228539   3.482   3.622   7.272 -0.2428 -1.4387 -0.4810
 5636SOL     OW28540   0.192   1.162   4.006  0.2520 -0.0625 -0.6032
 5636SOL    HW128541   0.131   1.181   4.077 -0.4559 -1.4610 -0.8327
 5636SOL    HW228542   0.245   1.097   4.053  1.4808 -1.2996 -3.7056
 5637SOL     OW28543   1.805   1.962   7.839 -0.4525 -0.2539 -0.1550
 5637SOL    HW128544   1.875   1.934   7.897 -0.7561  1.6678  1.1429
 5637SOL    HW228545   1.851   2.015   7.774 -0.4642 -1.4792 -1.1557
 5638SOL     OW28546   2.559   2.748   2.789  0.0697  0.0182  0.6579
 5638SOL    HW128547   2.555   2.755   2.884  0.6155  0.2663  0.6661
 5638SOL    HW228548   2.477   2.700   2.788 -0.2561  0.6343 -2.0549
 5639SOL     OW28549   1.015   0.743   4.175 -0.1223  0.2099 -0.0450
 5639SOL    HW128550   0.991   0.661   4.131 -0.3316  0.0698  0.3349
 5639SOL    HW228551   1.110   0.736   4.169 -0.0588 -0.1119  1.4653
 5640SOL     OW28552   1.138   1.850   4.016  0.6161 -0.2335 -0.2967
 5640SOL    HW128553   1.101   1.814   4.096 -0.0784  2.6489  0.6925
 5640SOL    HW228554   1.190   1.785   3.968  0.4992  0.1581 -0.9523
 5641SOL     OW28555   1.870   1.514   2.973  0.0593  0.2427 -0.4788
 5641SOL    HW128556   1.889   1.466   2.893  0.4633  3.2731 -2.2386
 5641SOL    HW228557   1.879   1.598   2.927  0.0654  0.2480 -0.4679
 5642SOL     OW28558   1.607   0.136   8.408 -0.0191  0.4303  0.1799
 5642SOL    HW128559   1.668   0.075   8.367 -0.5389 -0.9669  1.4517
 5642SOL    HW228560   1.539   0.078   8.442  0.1257  0.0793 -0.1239
 5643SOL     OW28561   2.928   4.370   2.359 -0.3974  0.0173 -0.3776
 5643SOL    HW128562   2.965   4.447   2.402 -2.4261  2.1114 -2.3481
 5643SOL    HW228563   2.834   4.389   2.364 -0.1444  1.4099 -0.9755
 5644SOL     OW28564   0.182   4.276   4.481 -0.1459  0.0857  0.2789
 5644SOL    HW128565   0.249   4.276   4.550 -0.9170 -2.1346  1.0138
 5644SOL    HW228566   0.179   4.185   4.454  1.9810 -0.1068  0.6690
 5645SOL     OW28567   3.754   1.027   9.551 -0.0406  0.1879 -0.2511
 5645SOL    HW128568   3.715   1.035   9.464 -0.2507 -0.9982 -0.2763
 5645SOL    HW228569   3.758   1.118   9.578  1.7737  0.2482 -0.6697
 5646SOL     OW28570   3.488   0.850   4.317  0.2154  0.1919  0.5424
 5646SOL    HW128571   3.410   0.797   4.304  0.7867 -0.8135  1.1655
 5646SOL    HW228572   3.555   0.783   4.331  2.9722  2.5858 -1.0905
 5647SOL     OW28573   1.646   4.358  15.105 -0.8645 -0.2988  0.2335
 5647SOL    HW128574   1.600   4.432  15.144 -0.1785  0.7738 -0.9768
 5647SOL    HW228575   1.588   4.330  15.033  0.4622 -0.1253 -0.9008
 5648SOL     OW28576   1.602   0.163  16.754 -0.3872 -0.1752  0.2377
 5648SOL    HW128577   1.550   0.112  16.692 -0.8477  1.3648 -0.6315
 5648SOL    HW228578   1.628   0.087  16.807 -0.1038  1.4530  2.4479
 5649SOL     OW28579   4.241   4.199  15.525 -0.0251  0.2576  0.6089
 5649SOL    HW128580   4.173   4.167  15.465 -1.9501  1.2621  2.2155
 5649SOL    HW228581   4.267   4.283  15.486 -0.4493  0.9778  1.8728
 5650SOL     OW28582   4.589   3.034   2.826 -0.4754 -0.5494 -0.2964
 5650SOL    HW128583   4.657   3.098   2.805  0.0729 -0.1348  2.7107
 5650SOL    HW228584   4.509   3.078   2.798 -0.2987 -1.5392 -2.3151
 5651SOL     OW28585   4.406   3.349   6.267 -0.2203  0.8101 -0.3569
 5651SOL    HW128586   4.312   3.332   6.265 -0.1920  0.5785  0.0898
 5651SOL    HW228587   4.414   3.406   6.343 -0.0167  0.1684  0.1085
 5652SOL     OW28588   1.931   1.068  14.091 -0.1527 -0.0623 -0.6377
 5652SOL    HW128589   1.977   1.119  14.024  1.3663  1.3147  1.4253
 5652SOL    HW228590   1.994   0.999  14.112 -1.0167  0.6313  4.3907
 5653SOL     OW28591   0.365   3.925   0.315 -0.7024 -0.5316 -0.0114
 5653SOL    HW128592   0.404   3.871   0.383  0.5109  0.1256 -0.1815
 5653SOL    HW228593   0.275   3.924   0.349 -0.1132  2.4153  1.6239
 5654SOL     OW28594   0.943   1.295   4.651  0.0397  0.4788  0.1543
 5654SOL    HW128595   0.996   1.234   4.600 -0.4783  0.6925 -0.6470
 5654SOL    HW228596   0.968   1.275   4.741  0.0132 -2.5084 -0.5102
 5655SOL     OW28597   1.941   1.513   4.275 -0.1304 -0.4491 -0.7167
 5655SOL    HW128598   1.991   1.503   4.194  0.5277 -2.4531 -0.0572
 5655SOL    HW228599   1.956   1.426   4.313  0.2682 -0.4446 -0.8626
 5656SOL     OW28600   2.884   4.241   4.244 -0.1198 -0.2183  0.4138
 5656SOL    HW128601   2.791   4.218   4.254  0.3969 -3.3720 -1.8582
 5656SOL    HW228602   2.877   4.336   4.247 -3.2917 -0.4058 -0.5301
 5657SOL     OW28603   4.364   2.544   2.958 -0.1778  0.1837 -0.2514
 5657SOL    HW128604   4.398   2.628   2.929 -0.1480  0.2638  0.0212
 5657SOL    HW228605   4.384   2.546   3.051  1.9999  0.3332 -0.7225
 5658SOL     OW28606   4.102   4.649  11.442  0.0471 -0.2248 -0.2321
 5658SOL    HW128607   4.158   4.692  11.377  1.8403 -0.0723  1.4134
 5658SOL    HW228608   4.164   4.593  11.490  1.7921 -0.8251 -3.1814
 5659SOL     OW28609   4.644   3.869   4.975  0.5138  0.4549  0.3012
 5659SOL    HW128610   4.596   3.802   5.024  0.4573  0.2174 -0.0814
 5659SOL    HW228611   4.697   3.813   4.919  1.7308  0.1030  1.7923
 5660SOL     OW28612   1.250   0.133  11.736  0.6816  0.0555  0.3432
 5660SOL    HW128613   1.198   0.206  11.703 -1.6678 -2.5189 -1.7035
 5660SOL    HW228614   1.341   0.164  11.738  0.6110  0.3955 -1.3654
 5661SOL     OW28615   3.535   1.281   2.914 -0.0719 -0.4985 -0.1039
 5661SOL    HW128616   3.495   1.342   2.852 -0.6171 -1.0242 -0.2809
 5661SOL    HW228617   3.468   1.285   2.982 -1.3506  2.2493 -1.5259
 5662SOL     OW28618   3.550   1.960   1.704 -0.3236  0.5651  0.0658
 5662SOL    HW128619   3.473   2.015   1.690  0.5238  1.2378 -1.9434
 5662SOL    HW228620   3.512   1.872   1.703 -1.2169  0.9550 -0.4299
 5663SOL     OW28621   3.680   0.871   2.994 -0.3492  0.0406 -0.5382
 5663SOL    HW128622   3.702   0.931   3.066 -2.2390 -0.9821  0.9164
 5663SOL    HW228623   3.588   0.858   3.020  0.3065 -1.2744  1.1128
 5664SOL     OW28624   2.595   1.131   7.267  0.4131  0.4092 -0.4134
 5664SOL    HW128625   2.598   1.224   7.246  3.1096  0.3664 -0.2474
 5664SOL    HW228626   2.509   1.115   7.229  0.5250  1.6935 -1.2208
 5665SOL     OW28627   2.674   4.064  14.862  0.2512 -0.0358  0.0156
 5665SOL    HW128628   2.739   4.126  14.894  0.8231  0.4725 -2.1102
 5665SOL    HW228629   2.700   3.981  14.901 -2.1550 -0.8936 -0.2067
 5666SOL     OW28630   0.527   1.621   7.055  0.4233  0.8713 -0.4593
 5666SOL    HW128631   0.518   1.577   6.970  0.8072 -0.8170  0.3688
 5666SOL    HW228632   0.568   1.697   7.013  3.0416 -0.4740 -0.3752
 5667SOL     OW28633   2.640   4.720   8.933  0.4256  0.0527  0.2516
 5667SOL    HW128634   2.661   4.665   9.009 -1.5646  0.3143  0.9742
 5667SOL    HW228635   2.720   0.035   8.923  0.9089 -0.6162  0.6025
 5668SOL     OW28636   1.506   0.934   8.019 -0.2743  0.0931  0.4491
 5668SOL    HW128637   1.426   0.883   8.013  0.4104 -0.7323 -1.8355
 5668SOL    HW228638   1.472   1.017   7.987 -2.0348 -0.6952  0.3130
 5669SOL     OW28639   0.207   1.116  15.736 -0.3200  0.0894 -0.4483
 5669SOL    HW128640   0.194   1.210  15.749  0.9280  0.3896 -1.3092
 5669SOL    HW228641   0.301   1.114  15.757 -0.7567  0.5794  1.4971
 5670SOL     OW28642   4.525   2.301   3.910 -0.1681  0.1472  0.0419
 5670SOL    HW128643   4.568   2.254   3.981  1.0370 -0.8799 -1.3701
 5670SOL    HW228644   4.594   2.365   3.889  0.4091 -0.1873  0.9212
 5671SOL     OW28645   2.242   3.175  15.909  0.3567  0.1483  0.0982
 5671SOL    HW128646   2.296   3.252  15.930 -2.9461  2.0673  1.6052
 5671SOL    HW228647   2.268   3.161  15.818 -3.4950 -0.3313 -0.9277
 5672SOL     OW28648   1.360   1.437   4.853  0.8542  0.4399 -0.5821
 5672SOL    HW128649   1.289   1.480   4.804 -0.3894 -2.2472 -1.1421
 5672SOL    HW228650   1.325   1.427   4.942  0.4178  1.1758 -0.6651
 5673SOL     OW28651   2.247   4.646   5.968 -0.3427  0.6148 -0.0416
 5673SOL    HW128652   2.186   4.661   6.041  1.6513  0.7039  1.6320
 5673SOL    HW228653   2.204   4.581   5.913  1.3405 -0.1843 -0.3959
 5674SOL     OW28654   3.928   3.612   5.784 -0.5030 -0.1898 -0.2150
 5674SOL    HW128655   3.939   3.692   5.835 -0.5466 -0.4479  0.2013
 5674SOL    HW228656   3.833   3.601   5.784 -0.7263  1.8898 -0.2477
 5675SOL     OW28657   4.473   2.375   5.847 -0.1974 -0.1417 -0.5499
 5675SOL    HW128658   4.536   2.305   5.869 -2.5510 -2.0669  0.0862
 5675SOL    HW228659   4.517   2.445   5.895  0.3362  0.0463 -1.3011
 5676SOL     OW28660   0.483   0.281   8.991  0.4116 -0.1983  0.4449
 5676SOL    HW128661   0.487   0.343   8.919  0.5161  0.1525  0.7534
 5676SOL    HW228662   0.437   0.339   9.052  1.5747  0.7445  0.4229
 5677SOL     OW28663   1.857   3.126  16.647  0.4243  0.0348 -0.4205
 5677SOL    HW128664   1.890   3.179  16.720 -0.3182  0.9507 -0.7500
 5677SOL    HW228665   1.941   3.108  16.606 -0.0997 -1.5872 -0.7738
 5678SOL     OW28666   2.035   2.445  15.427  0.0584 -0.5201  0.5225
 5678SOL    HW128667   2.026   2.352  15.406  0.6356 -0.3597 -0.4089
 5678SOL    HW228668   1.948   2.485  15.428 -0.0921 -0.8334 -0.2062
 5679SOL     OW28669   2.253   3.862  10.936 -0.6408  0.5699  0.5594
 5679SOL    HW128670   2.344   3.834  10.925 -0.7865 -0.3625  1.6687
 5679SOL    HW228671   2.228   3.797  11.002  0.5279  0.3055  0.7401
 5680SOL     OW28672   1.498   2.815   9.441 -0.2196  0.1085  0.1638
 5680SOL    HW128673   1.550   2.881   9.487  1.4647 -0.3065 -1.1361
 5680SOL    HW228674   1.413   2.858   9.429 -0.8905 -1.0221  0.8767
 5681SOL     OW28675   2.823   3.429   4.101  0.0609 -0.3415 -0.5510
 5681SOL    HW128676   2.900   3.380   4.131  0.0224 -0.3774 -0.5102
 5681SOL    HW228677   2.762   3.355   4.091 -2.2864  1.2538  1.8050
 5682SOL     OW28678   0.902   2.025  10.594  0.0574  0.0102 -0.1571
 5682SOL    HW128679   0.809   2.046  10.601  0.4049  0.4670  2.9816
 5682SOL    HW228680   0.924   1.972  10.670  0.7257 -1.1022 -1.1196
 5683SOL     OW28681   4.687   3.827   9.479  0.4333 -0.4515 -0.3356
 5683SOL    HW128682   4.627   3.760   9.448  0.7776 -0.0206 -1.9638
 5683SOL    HW228683   4.643   3.907   9.451  0.2658 -1.1336 -2.0504
 5684SOL     OW28684   2.589   2.808   2.081 -0.2538  0.0902 -0.4208
 5684SOL    HW128685   2.569   2.892   2.121  1.5215  0.1884  0.2609
 5684SOL    HW228686   2.559   2.821   1.992 -0.8578  1.1203 -0.0670
 5685SOL     OW28687   0.036   2.421  13.405 -0.0956 -0.1943 -0.0401
 5685SOL    HW128688   4.693   2.398  13.452  0.3577 -1.5986  0.0211
 5685SOL    HW228689   0.002   2.446  13.320 -0.6106  0.3993  0.3359
 5686SOL     OW28690   3.959   4.021   8.946 -0.6349 -0.4416 -0.6466
 5686SOL    HW128691   3.951   4.097   9.004  2.2459 -1.8966  1.6513
 5686SOL    HW228692   4.055   4.020   8.947 -0.6122 -1.0294 -3.3075
 5687SOL     OW28693   3.382   4.338   9.869 -0.3571 -0.3396 -0.2238
 5687SOL    HW128694   3.424   4.424   9.865  0.8257 -0.8495  1.0517
 5687SOL    HW228695   3.381   4.323   9.774  1.7642 -2.8227  0.1182
 5688SOL     OW28696   0.290   2.641  10.000 -0.0197  0.0505 -0.5551
 5688SOL    HW128697   0.344   2.718  10.016 -0.2829  0.1294 -0.0332
 5688SOL    HW228698   0.212   2.673  10.045 -0.5357  0.0419 -1.4475
 5689SOL     OW28699   1.416   0.106   1.005 -0.0526 -0.1593 -0.0221
 5689SOL    HW128700   1.387   0.162   1.077 -0.8289 -0.2735 -0.2461
 5689SOL    HW228701   1.379   0.021   1.030  2.2508 -0.9358  0.7224
 5690SOL     OW28702   0.592   0.078   9.487 -0.2936 -0.0862  0.9457
 5690SOL    HW128703   0.652   0.016   9.528  0.2521 -0.2530 -0.1050
 5690SOL    HW228704   0.512   0.074   9.539 -1.0210  0.3974 -0.1271
 5691SOL     OW28705   2.319   2.171   8.088 -0.6676 -0.4056  0.0639
 5691SOL    HW128706   2.301   2.092   8.138 -1.6362  0.7187  1.4989
 5691SOL    HW228707   2.372   2.221   8.150 -1.4544  1.2018 -0.5447
 5692SOL     OW28708   0.391   2.486   6.390  0.2487  0.0092  0.6621
 5692SOL    HW128709   0.444   2.429   6.334  0.8096  1.5544 -0.3866
 5692SOL    HW228710   0.438   2.522   6.464 -0.3734 -0.1341  1.1279
 5693SOL     OW28711   0.500   0.079   4.635 -0.1403  0.8516  0.0485
 5693SOL    HW128712   0.506   0.087   4.540 -0.6244  1.5026  0.0726
 5693SOL    HW228713   0.562   0.009   4.654 -0.4161  0.2049 -1.4247
 5694SOL     OW28714   3.012   3.428   7.187 -0.0336 -0.1457  0.1121
 5694SOL    HW128715   2.964   3.494   7.238 -1.4960  0.4715 -2.0655
 5694SOL    HW228716   3.094   3.408   7.232  0.4931 -0.3728 -0.9554
 5695SOL     OW28717   1.153   1.623   5.408 -0.0861  0.1285  0.1338
 5695SOL    HW128718   1.206   1.597   5.483  0.4520 -3.0354 -1.3264
 5695SOL    HW228719   1.066   1.601   5.443 -0.2522 -2.0014 -1.5963
 5696SOL     OW28720   3.790   3.606   9.527 -0.6006  0.3799 -0.2021
 5696SOL    HW128721   3.721   3.672   9.529 -1.3487 -0.5092  2.1376
 5696SOL    HW228722   3.746   3.529   9.492 -2.3349  1.6915 -0.9417
 5697SOL     OW28723   4.530   3.299  12.693 -0.3996 -0.1803  0.4246
 5697SOL    HW128724   4.561   3.352  12.766 -1.7727  0.2858  0.6703
 5697SOL    HW228725   4.440   3.286  12.723  0.3904 -1.9346  2.0649
 5698SOL     OW28726   2.658   0.251   6.039 -0.7945 -0.1009 -0.5488
 5698SOL    HW128727   2.655   0.205   6.123  0.0435 -1.7460 -1.4341
 5698SOL    HW228728   2.623   0.191   5.973 -0.8556  1.4495 -1.9391
 5699SOL     OW28729   1.299   4.536   3.056 -0.3788 -0.4737  0.3676
 5699SOL    HW128730   1.255   4.513   2.974  0.5584  3.1710 -1.1670
 5699SOL    HW228731   1.226   4.559   3.114 -0.2820 -0.2727  0.4107
 5700SOL     OW28732   4.676   2.419   5.075  0.1576  0.1144 -0.8609
 5700SOL    HW128733   4.632   2.348   5.029 -2.2898  0.3561  1.1471
 5700SOL    HW228734   4.677   2.477   4.998  1.9653  0.6421 -0.4564
 5701SOL     OW28735   0.258   3.588   8.607 -0.7125 -0.4133 -0.6513
 5701SOL    HW128736   0.175   3.545   8.629 -0.4028 -0.7671 -0.1806
 5701SOL    HW228737   0.268   3.654   8.675  0.8179  0.1078 -1.3828
 5702SOL     OW28738   2.524   1.605  13.838 -0.0018 -0.0668 -0.0466
 5702SOL    HW128739   2.601   1.653  13.868  1.2199 -1.3823 -1.0415
 5702SOL    HW228740   2.460   1.614  13.908  1.2695 -0.4475  1.1633
 5703SOL     OW28741   3.198   1.435   1.139 -0.4839  0.2013  0.6631
 5703SOL    HW128742   3.239   1.350   1.150  0.2895  0.2742 -1.6595
 5703SOL    HW228743   3.177   1.434   1.046 -1.1245  2.4263  0.7710
 5704SOL     OW28744   1.904   3.564   7.899 -0.3794 -0.0313  0.5479
 5704SOL    HW128745   1.875   3.606   7.818  0.2243  0.6132  0.6667
 5704SOL    HW228746   1.893   3.636   7.961 -0.4663 -0.6060  1.1956
 5705SOL     OW28747   2.839   3.334   2.965  0.5930  0.2548  0.3818
 5705SOL    HW128748   2.782   3.399   3.008 -0.4855  0.6873 -1.7063
 5705SOL    HW228749   2.798   3.248   2.975  2.5214 -0.4892  1.9013
 5706SOL     OW28750   4.376   4.315   7.332 -0.1314  0.3986  0.3457
 5706SOL    HW128751   4.309   4.383   7.322 -0.7126 -0.1995  0.1387
 5706SOL    HW228752   4.355   4.268   7.251  3.1730 -1.0480  0.3276
 5707SOL     OW28753   0.270   4.117   2.699  0.2064 -0.5619  0.1474
 5707SOL    HW128754   0.253   4.054   2.769 -0.1416  0.5406  1.0496
 5707SOL    HW228755   0.228   4.092   2.617 -2.5775 -0.7977  1.6412
 5708SOL     OW28756   3.586   2.093   2.530 -0.3959  0.1021 -0.0210
 5708SOL    HW128757   3.645   2.162   2.500 -0.2723 -0.2968 -0.6893
 5708SOL    HW228758   3.608   2.088   2.623  2.0038 -1.4440 -0.6750
 5709SOL     OW28759   3.709   1.025  12.219 -0.4872  0.1719  0.3534
 5709SOL    HW128760   3.708   1.121  12.227  0.0360  0.3792 -1.8996
 5709SOL    HW228761   3.693   0.998  12.309  0.3843 -2.4168 -0.2637
 5710SOL     OW28762   4.607   0.485   6.141 -0.2624 -0.2902  0.2375
 5710SOL    HW128763   4.686   0.538   6.133 -0.4116 -0.3113 -1.2181
 5710SOL    HW228764   4.593   0.483   6.236  0.2926  2.5048  0.3793
 5711SOL     OW28765   0.404   4.498   5.211  0.5714  0.1282 -0.1470
 5711SOL    HW128766   0.344   4.441   5.259  1.6210 -0.2097  0.7436
 5711SOL    HW228767   0.341   4.541   5.153 -0.1213 -1.2174 -0.4082
 5712SOL     OW28768   1.273   3.134   5.131  0.7561 -0.1613 -0.0787
 5712SOL    HW128769   1.338   3.065   5.146  0.4752 -0.6421 -1.0768
 5712SOL    HW228770   1.290   3.148   5.038  0.4760  1.1934  0.0849
 5713SOL     OW28771   0.984   4.527   2.304 -0.1714  1.0200 -0.7424
 5713SOL    HW128772   1.070   4.567   2.294  0.5572 -0.4018 -0.1197
 5713SOL    HW228773   0.946   4.592   2.364 -0.3793  1.3070 -1.1854
 5714SOL     OW28774   2.039   3.385  16.422 -0.3008  0.1472 -0.3507
 5714SOL    HW128775   2.073   3.309  16.471  1.3530 -1.1212 -3.4705
 5714SOL    HW228776   1.952   3.401  16.459  0.9237  1.4643  1.9547
 5715SOL     OW28777   2.128   1.551   5.788 -0.2898 -0.4927  0.4929
 5715SOL    HW128778   2.069   1.604   5.841  1.5791  1.9578  0.1123
 5715SOL    HW228779   2.120   1.586   5.700  0.0896 -0.2642  0.5502
 5716SOL     OW28780   3.438   1.505   9.214 -0.0330 -0.0010  0.5207
 5716SOL    HW128781   3.458   1.546   9.130  1.4747  0.6031  1.1811
 5716SOL    HW228782   3.447   1.578   9.276  0.4804  0.2814  0.1085
 5717SOL     OW28783   3.861   1.068  14.580  0.0002  0.8604 -0.0418
 5717SOL    HW128784   3.785   1.115  14.614 -1.9226 -0.9055 -1.8844
 5717SOL    HW228785   3.936   1.110  14.623  0.6444  0.3980 -0.7088
 5718SOL     OW28786   1.061   0.281  10.206  0.4118  0.6102 -0.5924
 5718SOL    HW128787   1.060   0.373  10.182 -2.3146  0.6717 -0.2905
 5718SOL    HW228788   1.140   0.252  10.161 -1.9075 -2.2070 -2.9196
 5719SOL     OW28789   3.655   2.312   1.864  0.0600  0.0968 -0.0306
 5719SOL    HW128790   3.677   2.223   1.838  0.1491  0.6420 -1.8570
 5719SOL    HW228791   3.562   2.319   1.884 -0.0439  0.7451 -0.7158
 5720SOL     OW28792   3.472   0.079   8.202  0.4063  0.0965 -0.1806
 5720SOL    HW128793   3.539   0.117   8.258  0.1121 -1.1984  1.0416
 5720SOL    HW228794   3.497   4.724   8.206 -0.0023 -0.0895 -1.8202
 5721SOL     OW28795   0.322   0.924   3.529  0.4582 -0.2775  0.4676
 5721SOL    HW128796   0.366   1.009   3.537  1.5760 -0.7762 -0.4575
 5721SOL    HW228797   0.290   0.903   3.617 -0.8350 -4.3774 -0.9925
 5722SOL     OW28798   3.446   4.288   3.694 -0.2723 -0.3576  0.4374
 5722SOL    HW128799   3.497   4.230   3.751  0.1672 -0.9748 -0.5964
 5722SOL    HW228800   3.366   4.235   3.691  0.9746 -2.2478  0.4985
 5723SOL     OW28801   0.108   3.542  10.925  0.1598 -0.3984 -0.9733
 5723SOL    HW128802   0.054   3.621  10.917  0.9834  0.1633 -1.0673
 5723SOL    HW228803   0.074   3.509  11.008 -1.6991  0.5211 -1.3599
 5724SOL     OW28804   2.272   0.622   2.387  0.2178 -0.1383  0.3474
 5724SOL    HW128805   2.350   0.676   2.379 -0.9954  1.9201  2.2921
 5724SOL    HW228806   2.205   0.672   2.340  0.6151 -0.1343 -0.2052
 5725SOL     OW28807   1.387   1.662   1.608 -0.4562 -0.3894 -0.7373
 5725SOL    HW128808   1.400   1.598   1.678  0.3942  1.6806  0.9901
 5725SOL    HW228809   1.414   1.604   1.536  3.1897  0.6500 -0.2341
 5726SOL     OW28810   2.551   3.119   5.915  0.4298  0.0931 -0.5198
 5726SOL    HW128811   2.598   3.186   5.866  1.4596 -0.2462  0.0174
 5726SOL    HW228812   2.610   3.103   5.988  0.0527 -1.4103 -0.5272
 5727SOL     OW28813   2.676   2.099   4.422 -0.0717  0.2182 -0.4928
 5727SOL    HW128814   2.646   2.089   4.512  0.8232  1.1968 -0.0827
 5727SOL    HW228815   2.769   2.114   4.441  0.1820 -0.5034 -1.1175
 5728SOL     OW28816   0.616   0.048   6.702  0.4049 -0.2035 -0.2007
 5728SOL    HW128817   0.550   0.107   6.737  0.6858  0.0611 -0.1118
 5728SOL    HW228818   0.558   4.725   6.654  0.4238  0.0385 -0.5267
 5729SOL     OW28819   2.989   3.533   3.889  0.3494  0.5426 -0.2896
 5729SOL    HW128820   2.945   3.542   3.974  1.1154  3.2052 -0.1788
 5729SOL    HW228821   2.931   3.472   3.843 -0.3378  0.5256  0.5766
 5730SOL     OW28822   0.763   0.498   8.222  0.1575 -0.0873 -0.0526
 5730SOL    HW128823   0.704   0.500   8.147 -1.2010 -3.9027  0.9530
 5730SOL    HW228824   0.696   0.515   8.288  1.0312  0.6826  0.6497
 5731SOL     OW28825   1.410   0.480  11.987 -0.1550  0.0212 -0.9459
 5731SOL    HW128826   1.371   0.537  11.921  0.1083 -0.3434 -1.4161
 5731SOL    HW228827   1.494   0.525  11.990  1.0977 -2.3991  0.2382
 5732SOL     OW28828   0.111   2.204  16.690  0.4888  0.3011 -0.1390
 5732SOL    HW128829   0.190   2.163  16.726  0.3160  0.8877  0.9145
 5732SOL    HW228830   0.046   2.188  16.758  0.3090  2.9281  0.3054
 5733SOL     OW28831   1.043   2.786   0.638  0.4234  0.2724  0.3965
 5733SOL    HW128832   0.974   2.738   0.684  0.5243  0.9425  1.2543
 5733SOL    HW228833   1.127   2.750   0.666 -0.6801 -2.0738  0.7434
 5734SOL     OW28834   3.950   2.099   8.026 -0.4726  0.8671  0.6870
 5734SOL    HW128835   3.979   2.078   7.937 -0.4290 -0.0054  0.9029
 5734SOL    HW228836   3.883   2.031   8.035  1.3257 -1.3716 -2.8608
 5735SOL     OW28837   1.239   2.100   6.753  0.2872 -0.0665 -0.2549
 5735SOL    HW128838   1.160   2.051   6.730  0.7464 -0.2366 -1.4193
 5735SOL    HW228839   1.311   2.040   6.734  0.7357  0.5882 -0.6080
 5736SOL     OW28840   1.824   0.633   7.066  0.7816  0.0461 -0.3274
 5736SOL    HW128841   1.860   0.564   7.009 -2.3356 -0.8256 -1.2331
 5736SOL    HW228842   1.849   0.602   7.153  0.0938  0.8361  0.1454
 5737SOL     OW28843   4.317   2.894   2.358 -0.1232 -0.1821 -0.3572
 5737SOL    HW128844   4.370   2.877   2.279 -1.2159  1.1560 -1.3577
 5737SOL    HW228845   4.309   2.812   2.407  0.5168  0.2362  0.4479
 5738SOL     OW28846   1.159   3.581  13.334 -0.0230 -0.4102 -0.3430
 5738SOL    HW128847   1.186   3.671  13.314  2.8662 -1.0419  0.6292
 5738SOL    HW228848   1.247   3.544  13.343  0.2136  0.8269  2.5478
 5739SOL     OW28849   2.153   1.840   4.802  0.2869  0.1661  0.1111
 5739SOL    HW128850   2.110   1.763   4.840  0.2672 -0.5917 -1.4431
 5739SOL    HW228851   2.153   1.820   4.708  1.2305 -0.0438  0.1519
 5740SOL     OW28852   2.317   4.529   2.827  0.2041 -0.6210  0.2497
 5740SOL    HW128853   2.233   4.484   2.818 -1.0246  1.6552  0.3467
 5740SOL    HW228854   2.306   4.539   2.922  1.4325  2.1803  0.0918
 5741SOL     OW28855   3.330   2.742   6.087 -0.4788 -0.0880  0.0353
 5741SOL    HW128856   3.250   2.796   6.092 -0.3570  0.0697  0.2520
 5741SOL    HW228857   3.363   2.759   6.175 -2.2760 -0.3386  0.7752
 5742SOL     OW28858   1.631   4.546   3.733  0.1720 -0.0764  0.7734
 5742SOL    HW128859   1.551   4.599   3.735  0.3248  0.2090 -0.5253
 5742SOL    HW228860   1.680   4.583   3.807 -0.3664 -0.1288  1.1620
 5743SOL     OW28861   3.513   0.994   2.496  0.5133  0.2652  0.0256
 5743SOL    HW128862   3.573   0.980   2.569  0.5008  0.3759  0.0564
 5743SOL    HW228863   3.458   1.069   2.521 -0.8777  0.0363 -2.3389
 5744SOL     OW28864   0.191   0.687   7.383  0.6433  0.3434  0.6477
 5744SOL    HW128865   0.285   0.687   7.403  0.4607  1.1186  1.4934
 5744SOL    HW228866   0.170   0.777   7.404 -0.5120  0.0223  0.8455
 5745SOL     OW28867   2.550   0.591  17.235 -0.0350 -0.1819 -0.0986
 5745SOL    HW128868   2.464   0.571  17.197  0.3382 -1.6008 -0.1823
 5745SOL    HW228869   2.605   0.567  17.161 -1.1425  0.4567 -1.1265
 5746SOL     OW28870   1.293   0.938   2.391  0.4926  0.2774 -0.1618
 5746SOL    HW128871   1.378   0.979   2.407  0.4626  0.3671 -0.2302
 5746SOL    HW228872   1.314   0.877   2.320 -1.2142 -0.1469 -0.3263
 5747SOL     OW28873   0.808   4.150   2.753 -0.7665  0.1745 -0.3703
 5747SOL    HW128874   0.770   4.082   2.697  0.7540 -0.4035 -0.6968
 5747SOL    HW228875   0.746   4.156   2.825  0.7841 -0.5461  1.0185
 5748SOL     OW28876   3.621   3.856  10.145 -0.5817  0.5238 -0.2316
 5748SOL    HW128877   3.594   3.935  10.191 -1.6469  0.6023 -1.0015
 5748SOL    HW228878   3.666   3.804  10.212  2.3403  0.0106 -2.5666
 5749SOL     OW28879   2.892   2.648   8.009 -0.1880 -0.0044 -0.4484
 5749SOL    HW128880   2.818   2.707   8.005  0.8746  1.4613  1.2496
 5749SOL    HW228881   2.955   2.694   7.954  0.7781 -0.6113  0.1481
 5750SOL     OW28882   4.073   3.868   5.027  0.0241  0.4674  0.0916
 5750SOL    HW128883   4.098   3.959   5.037  0.7263  0.3923 -1.0492
 5750SOL    HW228884   4.038   3.856   5.116  3.2419 -1.2309  1.1368
 5751SOL     OW28885   0.767   3.541   5.804 -0.1355  0.2384  0.0157
 5751SOL    HW128886   0.799   3.630   5.792 -1.6238  1.1514  2.9748
 5751SOL    HW228887   0.764   3.522   5.710  0.3476  2.9244 -0.5336
 5752SOL     OW28888   2.157   2.784   3.843  0.0003 -0.4384 -1.0305
 5752SOL    HW128889   2.160   2.806   3.936 -1.4614 -1.6927 -0.6859
 5752SOL    HW228890   2.071   2.814   3.813  0.8612  1.1470 -1.9046
 5753SOL     OW28891   1.894   3.097   8.170  0.2883 -0.3267  0.3704
 5753SOL    HW128892   1.832   3.157   8.130  1.2276 -1.0780 -2.2087
 5753SOL    HW228893   1.975   3.134   8.135 -0.6610  0.7456 -0.6978
 5754SOL     OW28894   4.272   1.280   4.089  0.4265  0.1021  0.9255
 5754SOL    HW128895   4.305   1.199   4.049 -1.8273  0.2289 -1.2292
 5754SOL    HW228896   4.337   1.346   4.064 -0.1703 -0.5140 -2.3535
 5755SOL     OW28897   1.378   0.388   1.847 -0.3190  0.8590 -0.6388
 5755SOL    HW128898   1.454   0.402   1.903 -1.7969 -0.4395  1.6852
 5755SOL    HW228899   1.305   0.388   1.909  1.3288  2.2929  1.3272
 5756SOL     OW28900   0.979   0.987   6.170 -0.1490 -0.6813 -0.3436
 5756SOL    HW128901   0.942   0.905   6.137  0.8651 -0.3157 -2.4232
 5756SOL    HW228902   0.894   1.029   6.187 -0.1232 -0.6586 -0.2718
 5757SOL     OW28903   0.647   0.745  13.886 -0.5388  0.1084  0.0608
 5757SOL    HW128904   0.617   0.654  13.892 -1.2370  0.3842  0.7706
 5757SOL    HW228905   0.598   0.758  13.804  0.6190 -1.3970 -0.8746
 5758SOL     OW28906   3.763   4.237   4.244  0.0256  0.3052 -0.2820
 5758SOL    HW128907   3.783   4.290   4.322  1.6466 -0.7384  0.0101
 5758SOL    HW228908   3.761   4.148   4.279 -0.8143  0.1727 -0.6794
 5759SOL     OW28909   3.727   1.557  12.206 -0.3035 -0.5851 -0.3423
 5759SOL    HW128910   3.760   1.550  12.296 -1.4898 -0.9941  0.0519
 5759SOL    HW228911   3.801   1.589  12.154  1.7120 -1.2513  2.0918
 5760SOL     OW28912   1.068   3.394   6.438  0.3803 -0.6162 -0.5689
 5760SOL    HW128913   1.135   3.372   6.374 -0.6065 -2.1332 -1.0842
 5760SOL    HW228914   1.005   3.322   6.441 -1.5899  1.0663 -0.6881
 5761SOL     OW28915   4.722   2.917   8.170 -0.3314  0.1833 -0.0101
 5761SOL    HW128916   4.665   2.854   8.213  1.4160 -2.5732 -1.7427
 5761SOL    HW228917   4.699   2.899   8.079 -1.9908  1.6614  0.1207
 5762SOL     OW28918   0.429   2.322  14.956  0.2360 -0.0582  0.7642
 5762SOL    HW128919   0.446   2.260  15.027  1.8030 -0.8406 -0.2999
 5762SOL    HW228920   0.342   2.288  14.933  0.7434 -1.9991  1.7552
 5763SOL     OW28921   2.847   1.865   9.176  0.4871  0.0918 -0.3521
 5763SOL    HW128922   2.763   1.824   9.194  1.4523 -0.3856  2.9835
 5763SOL    HW228923   2.834   1.881   9.082  1.2125  1.0686 -0.2889
 5764SOL     OW28924   1.086   2.791   7.701  0.1969 -0.4657 -0.1342
 5764SOL    HW128925   1.114   2.778   7.792  0.9643 -1.7532 -0.5577
 5764SOL    HW228926   0.994   2.817   7.700  0.3213  0.0882  2.1463
 5765SOL     OW28927   1.041   3.694   6.840 -0.0427 -0.0554  0.5999
 5765SOL    HW128928   1.109   3.688   6.773 -0.3599  1.7786  0.1012
 5765SOL    HW228929   1.005   3.607   6.858  1.0657 -0.6070  0.1381
 5766SOL     OW28930   0.325   2.381   9.075 -0.0340  0.6831  0.4983
 5766SOL    HW128931   0.346   2.373   9.168 -1.1096 -1.8628  0.5138
 5766SOL    HW228932   0.358   2.302   9.032 -0.2216  1.3017 -0.7883
 5767SOL     OW28933   1.688   3.122   8.569  0.4662  0.2058 -0.6866
 5767SOL    HW128934   1.610   3.092   8.615  1.0908 -0.2081  0.0886
 5767SOL    HW228935   1.740   3.165   8.636 -0.0476 -1.9166  1.0880
 5768SOL     OW28936   0.346   0.660  11.162 -0.2048  0.0667 -0.0218
 5768SOL    HW128937   0.328   0.753  11.150  1.3006 -0.0655 -3.4099
 5768SOL    HW228938   0.267   0.627  11.204 -0.4865  0.1044 -0.5293
 5769SOL     OW28939   1.346   1.556   6.593  0.6558  0.5885 -0.2978
 5769SOL    HW128940   1.317   1.647   6.584 -0.5146  0.0061 -2.2935
 5769SOL    HW228941   1.264   1.509   6.608  0.9494  1.0372  2.8124
 5770SOL     OW28942   3.182   3.995   7.038 -0.0260 -0.0705  0.6196
 5770SOL    HW128943   3.256   4.047   7.071 -0.4809  1.7184 -1.1569
 5770SOL    HW228944   3.134   3.976   7.119  0.5740  0.9474  1.2164
 5771SOL     OW28945   1.532   4.450   7.139 -0.4335  0.3225  0.1035
 5771SOL    HW128946   1.468   4.395   7.183 -2.0103  1.8295 -0.2677
 5771SOL    HW228947   1.501   4.438   7.049  0.1814  3.1698 -0.5157
 5772SOL     OW28948   2.164   3.912   1.763 -0.1795  0.1833 -0.6851
 5772SOL    HW128949   2.229   3.878   1.824 -1.0096 -2.1748 -1.1255
 5772SOL    HW228950   2.119   3.970   1.824 -2.8990 -2.4031 -0.2233
 5773SOL     OW28951   3.204   1.782   3.030 -0.4439 -0.3945 -0.2715
 5773SOL    HW128952   3.231   1.781   3.122 -0.7235 -0.5387 -0.1922
 5773SOL    HW228953   3.279   1.822   2.986 -0.4861 -0.6180 -0.5464
 5774SOL     OW28954   4.383   4.530   6.068 -0.0654  0.1487 -0.2669
 5774SOL    HW128955   4.401   4.454   6.013 -0.1075  0.9973 -1.4567
 5774SOL    HW228956   4.411   4.594   6.002 -1.7718  2.5181  1.2821
 5775SOL     OW28957   1.448   0.217   4.230 -0.8143 -0.5520  0.3886
 5775SOL    HW128958   1.465   0.143   4.288  1.3313 -0.2168  0.1774
 5775SOL    HW228959   1.471   0.289   4.288  1.6238  1.0873 -2.6113
 5776SOL     OW28960   0.463   4.506   7.618 -0.4488  0.3319 -0.2716
 5776SOL    HW128961   0.463   4.597   7.648  0.8305 -0.3323  1.7479
 5776SOL    HW228962   0.556   4.487   7.605 -0.1351  0.4572  1.8697
 5777SOL     OW28963   4.192   4.314   3.437 -0.1090  0.1491  0.3946
 5777SOL    HW128964   4.179   4.291   3.345  0.6496 -2.4408  0.9352
 5777SOL    HW228965   4.123   4.261   3.476 -0.8312 -0.7141 -2.0458
 5778SOL     OW28966   2.666   0.910  11.331  0.3750  0.0912 -0.6713
 5778SOL    HW128967   2.660   0.999  11.296 -2.0553 -0.0398 -0.6436
 5778SOL    HW228968   2.677   0.945  11.420  0.2578 -2.3362  0.2788
 5779SOL     OW28969   2.988   3.818  13.691 -0.2689  0.3101 -0.2667
 5779SOL    HW128970   2.928   3.888  13.667 -1.8578 -0.8996  0.1235
 5779SOL    HW228971   3.073   3.847  13.658  0.0389 -1.1218 -0.7665
 5780SOL     OW28972   4.554   0.164   6.111 -0.5318 -0.1048 -1.0991
 5780SOL    HW128973   4.512   0.118   6.038  0.6926  0.6588 -2.2869
 5780SOL    HW228974   4.564   0.251   6.072 -0.5030  0.7032  0.7080
 5781SOL     OW28975   0.242   2.609   3.808  0.0553  0.2421  0.0633
 5781SOL    HW128976   0.280   2.605   3.721 -1.1967 -1.7098 -0.3916
 5781SOL    HW228977   0.297   2.672   3.854  1.1681  0.3298 -1.3882
 5782SOL     OW28978   1.640   3.459   6.461 -0.0385  0.6469  0.3037
 5782SOL    HW128979   1.571   3.483   6.399  1.2934  0.5762 -1.2152
 5782SOL    HW228980   1.597   3.387   6.507  0.2129  0.4100  0.1698
 5783SOL     OW28981   3.902   2.967   5.961  0.0276 -0.9554  0.1238
 5783SOL    HW128982   3.956   2.925   5.895  1.4798  0.5929  0.3338
 5783SOL    HW228983   3.937   3.055   5.944 -1.6633 -0.0202  1.4599
 5784SOL     OW28984   3.477   3.858   3.185  0.1014  0.7862 -0.3631
 5784SOL    HW128985   3.393   3.830   3.149 -0.2764 -0.2158  1.3168
 5784SOL    HW228986   3.450   3.921   3.252 -0.1636  0.8304 -0.5108
 5785SOL     OW28987   1.329   3.113   6.723 -0.1572 -0.1054 -0.0342
 5785SOL    HW128988   1.334   3.125   6.818 -2.8206  1.0711 -0.0363
 5785SOL    HW228989   1.356   3.022   6.714  1.2668  0.5512 -2.5031
 5786SOL     OW28990   4.660   4.309   2.486 -0.2006  0.5770  0.5637
 5786SOL    HW128991   4.623   4.394   2.509 -1.6295  0.3205 -0.7963
 5786SOL    HW228992   4.586   4.257   2.455 -0.1693 -0.3257  1.9582
 5787SOL     OW28993   2.014   1.322   5.636 -0.5147  0.0202  0.1273
 5787SOL    HW128994   2.088   1.340   5.694 -0.6568 -6.1289  2.1623
 5787SOL    HW228995   1.945   1.284   5.689 -2.1467  1.2601 -1.1164
 5788SOL     OW28996   1.819   0.463   0.996  0.0532  0.0677  0.0122
 5788SOL    HW128997   1.737   0.492   0.955  0.6748 -0.7938 -1.8421
 5788SOL    HW228998   1.824   0.377   0.953 -1.9252  0.5328 -1.1685
 5789SOL     OW28999   0.650   2.889   9.499 -0.1454 -0.8869  0.1603
 5789SOL    HW129000   0.615   2.810   9.457 -0.8609  0.4652 -1.8030
 5789SOL    HW229001   0.651   2.944   9.420  1.2901 -2.2534 -0.7794
 5790SOL     OW29002   2.607   3.771   6.780  0.0876  0.5070 -0.3246
 5790SOL    HW129003   2.597   3.844   6.840 -0.0734  1.0085 -0.9641
 5790SOL    HW229004   2.678   3.810   6.730  0.3355  0.5475  0.0576
 5791SOL     OW29005   4.348   1.115  10.655 -0.1036 -0.0893  0.3801
 5791SOL    HW129006   4.405   1.169  10.599 -1.4798 -1.3091 -2.1780
 5791SOL    HW229007   4.399   1.122  10.736  2.4009  2.8682 -1.4509
 5792SOL     OW29008   2.164   3.044  11.060 -0.3785  0.3523  0.0223
 5792SOL    HW129009   2.163   2.958  11.103 -1.0395  0.6010  0.5052
 5792SOL    HW229010   2.250   3.068  11.095 -0.6591 -1.9521  2.2835
 5793SOL     OW29011   1.571   1.824  14.387  0.5806  0.1078  0.2747
 5793SOL    HW129012   1.493   1.862  14.427 -0.3590 -1.4047 -0.1112
 5793SOL    HW229013   1.571   1.843  14.293  2.2500 -0.8239  0.0994
 5794SOL     OW29014   2.041   4.282   1.325 -0.3328 -0.1292 -0.4374
 5794SOL    HW129015   2.082   4.226   1.391  1.0427  0.8836 -0.4243
 5794SOL    HW229016   2.107   4.351   1.326 -0.9381  0.4281  0.7383
 5795SOL     OW29017   2.071   4.431   3.377  0.1740 -0.2825  0.2215
 5795SOL    HW129018   2.070   4.513   3.427  0.2899 -0.2126  0.1055
 5795SOL    HW229019   2.137   4.387   3.430 -0.9893 -2.6143 -0.2360
 5796SOL     OW29020   0.098   1.583   4.175  0.1720  0.7342  0.7805
 5796SOL    HW129021   0.082   1.492   4.201  0.5526  0.4308 -0.0443
 5796SOL    HW229022   0.009   1.613   4.193  0.0402  0.2782  0.8922
 5797SOL     OW29023   2.540   2.185   7.620  0.6708  0.1981  0.7560
 5797SOL    HW129024   2.545   2.172   7.714  0.0361 -0.1661  0.7367
 5797SOL    HW229025   2.512   2.276   7.622  1.7249  0.4840  2.2496
 5798SOL     OW29026   2.909   2.019   3.232 -0.0381 -0.1264 -0.1422
 5798SOL    HW129027   2.955   1.992   3.153  1.0886  2.3326 -0.3060
 5798SOL    HW229028   2.968   2.083   3.271 -0.4604  0.1100  0.1154
 5799SOL     OW29029   0.477   2.155  14.683  0.5434  0.2696  0.0806
 5799SOL    HW129030   0.413   2.084  14.689  0.6580  0.2848  1.6444
 5799SOL    HW229031   0.499   2.165  14.776  4.3984 -0.5104 -0.7619
 5800SOL     OW29032   1.688   4.121   1.616 -0.2644 -1.1648  0.4818
 5800SOL    HW129033   1.722   4.033   1.598  1.0022 -0.8695  1.4046
 5800SOL    HW229034   1.768   4.172   1.601 -0.1348 -1.1783  1.1001
 5801SOL     OW29035   0.430   0.810   7.680  0.2691 -0.3053 -0.5907
 5801SOL    HW129036   0.463   0.828   7.768 -0.4338  1.8556 -0.7826
 5801SOL    HW229037   0.477   0.872   7.626 -1.4466  0.1860 -1.5198
 5802SOL     OW29038   4.658   1.692   3.651  0.4781 -0.1621 -0.0097
 5802SOL    HW129039   4.601   1.760   3.686  1.8161  1.6626 -1.3679
 5802SOL    HW229040   4.614   1.676   3.567  1.6940 -0.3413 -0.6075
 5803SOL     OW29041   4.524   3.697   7.579  0.6816  0.0323  0.8492
 5803SOL    HW129042   4.612   3.725   7.603  0.4068  0.7819  1.0080
 5803SOL    HW229043   4.495   3.777   7.535  0.7818 -0.4782 -0.1351
 5804SOL     OW29044   2.672   3.983   8.847  0.0151 -0.1280  0.1693
 5804SOL    HW129045   2.584   4.019   8.838 -1.1220 -2.6876  0.8251
 5804SOL    HW229046   2.688   4.026   8.931  1.9022 -0.0698 -0.2145
 5805SOL     OW29047   2.052   4.243   5.115  0.0318 -0.0407  0.1566
 5805SOL    HW129048   2.109   4.314   5.144  0.4296  0.1675 -1.1162
 5805SOL    HW229049   2.049   4.253   5.020  0.4060 -2.0000 -0.0767
 5806SOL     OW29050   3.000   3.319   2.005 -0.1963  0.0924  0.1439
 5806SOL    HW129051   3.079   3.351   1.962 -0.9128  1.1895 -0.3495
 5806SOL    HW229052   3.029   3.266   2.079 -1.9672  0.1369  0.8707
 5807SOL     OW29053   4.288   4.368   5.247 -0.4955 -0.8340 -0.1569
 5807SOL    HW129054   4.337   4.434   5.296  0.5800 -1.7362 -0.0160
 5807SOL    HW229055   4.329   4.369   5.160  0.2116 -0.2940  0.1870
 5808SOL     OW29056   3.908   2.511   4.213 -0.6456 -0.2213 -0.0521
 5808SOL    HW129057   3.914   2.605   4.230 -1.1156  0.1006 -1.6590
 5808SOL    HW229058   3.860   2.478   4.289 -0.5333 -2.7100 -1.0797
 5809SOL     OW29059   1.479   0.392   2.536 -0.4108 -0.5870 -0.1825
 5809SOL    HW129060   1.487   0.394   2.632  1.4859  0.2532 -0.3566
 5809SOL    HW229061   1.428   0.312   2.527 -1.9594  0.3634  0.2611
 5810SOL     OW29062   2.755   4.385  15.928  0.0512  0.0274  0.1118
 5810SOL    HW129063   2.660   4.391  15.920 -0.0194  1.2161  1.8184
 5810SOL    HW229064   2.776   4.410  15.838  0.8858 -1.4440 -0.0976
 5811SOL     OW29065   0.245   4.655   2.966 -0.0413  0.0835 -0.6076
 5811SOL    HW129066   0.203   0.004   2.969 -0.0218  0.0968 -0.7101
 5811SOL    HW229067   0.266   4.646   2.873  1.4405  2.8144 -0.5270
 5812SOL     OW29068   0.458   3.846   4.170  0.3548 -0.0345 -0.1901
 5812SOL    HW129069   0.437   3.807   4.085  0.0165 -2.6271  1.0814
 5812SOL    HW229070   0.483   3.771   4.224  0.7310  0.4684  0.3245
 5813SOL     OW29071   2.125   2.638  16.137 -0.1749  0.0729  0.7603
 5813SOL    HW129072   2.183   2.675  16.204  0.1721  0.3597  0.3058
 5813SOL    HW229073   2.132   2.705  16.069 -0.4238  0.4024  1.0587
 5814SOL     OW29074   1.230   1.354  15.097  0.2697 -0.1550 -0.1021
 5814SOL    HW129075   1.198   1.385  15.182  0.0796 -0.9538  0.1163
 5814SOL    HW229076   1.272   1.272  15.124  1.0567  0.2951  0.0440
 5815SOL     OW29077   2.525   2.609   2.252  0.4863  0.5611  0.5117
 5815SOL    HW129078   2.543   2.683   2.194  0.7704  0.1444  0.0752
 5815SOL    HW229079   2.585   2.554   2.202 -0.8729 -0.2769 -0.1922
 5816SOL     OW29080   3.713   0.623   8.394  0.8808 -0.2476 -0.4683
 5816SOL    HW129081   3.621   0.600   8.383  0.6393  0.3084  0.3689
 5816SOL    HW229082   3.751   0.536   8.382  0.1358 -0.6780  0.3524
 5817SOL     OW29083   0.765   4.377   6.931 -0.1388 -0.3299  0.5251
 5817SOL    HW129084   0.694   4.435   6.904 -0.7325 -0.5586  1.5682
 5817SOL    HW229085   0.751   4.302   6.873 -0.6939 -1.0956  1.6512
 5818SOL     OW29086   3.450   2.870   3.329 -0.0564 -0.3076  0.2560
 5818SOL    HW129087   3.356   2.858   3.346  0.2572 -1.8083  0.9402
 5818SOL    HW229088   3.450   2.966   3.325  4.7166 -0.3636 -0.5478
 5819SOL     OW29089   0.924   3.427  16.472  0.1192 -0.0011 -0.7821
 5819SOL    HW129090   0.952   3.361  16.409 -3.2199 -0.8147 -1.3727
 5819SOL    HW229091   1.003   3.433  16.527 -0.4417 -0.3420  0.0613
 5820SOL     OW29092   2.365   1.938   4.991  0.1541  0.1279  0.2671
 5820SOL    HW129093   2.362   2.021   5.037  0.4561  0.6136 -0.5987
 5820SOL    HW229094   2.272   1.923   4.977  0.0291  1.6708 -0.4856
 5821SOL     OW29095   1.243   2.128   9.358 -0.2891 -0.7962  0.2076
 5821SOL    HW129096   1.294   2.059   9.315  0.6123  0.9024 -1.4131
 5821SOL    HW229097   1.264   2.107   9.449 -2.0948 -1.3025  0.5064
 5822SOL     OW29098   1.044   0.171   1.433 -0.2177 -0.0333 -0.5352
 5822SOL    HW129099   1.036   0.140   1.523  1.3385  1.5121  0.1552
 5822SOL    HW229100   1.137   0.151   1.418 -0.6364 -1.3553 -1.2882
 5823SOL     OW29101   2.790   0.480   5.085 -0.0767  0.0552  0.6147
 5823SOL    HW129102   2.755   0.399   5.048 -1.6550 -0.0366  2.3229
 5823SOL    HW229103   2.734   0.550   5.051 -2.1674 -1.1008  1.6513
 5824SOL     OW29104   2.201   3.397  12.235  0.3161 -0.7115  0.2231
 5824SOL    HW129105   2.210   3.303  12.248  0.7170 -0.9175 -1.4079
 5824SOL    HW229106   2.160   3.423  12.317  0.0679 -1.5146  0.3550
 5825SOL     OW29107   2.497   3.753   3.818  0.2351  0.5493  0.0292
 5825SOL    HW129108   2.402   3.744   3.811  0.3441  0.7876 -1.7945
 5825SOL    HW229109   2.524   3.690   3.751 -0.1811 -0.1479  0.5204
 5826SOL     OW29110   2.882   1.512   3.629 -0.2620 -0.4966 -0.2098
 5826SOL    HW129111   2.955   1.573   3.620  0.6164 -1.3104  1.4605
 5826SOL    HW229112   2.898   1.471   3.715  1.8171  1.4935  0.3471
 5827SOL     OW29113   2.585   4.146  14.391  0.0164 -0.1250 -0.1828
 5827SOL    HW129114   2.571   4.104  14.306 -0.8555 -0.0789 -0.0661
 5827SOL    HW229115   2.616   4.235  14.376  2.4021 -1.0651 -0.7753
 5828SOL     OW29116   0.374   1.133   0.307 -0.4057 -0.3370  0.3482
 5828SOL    HW129117   0.320   1.159   0.381  0.9505  1.4996  0.7076
 5828SOL    HW229118   0.419   1.058   0.346 -0.7791 -0.3239  0.7882
 5829SOL     OW29119   1.547   1.370  11.611  0.4723  0.4473 -0.2928
 5829SOL    HW129120   1.509   1.367  11.698  0.8404 -1.0490 -0.1831
 5829SOL    HW229121   1.476   1.416  11.568 -1.5306 -2.3258  0.0829
 5830SOL     OW29122   1.575   0.089   5.439  0.5633  0.0834 -0.0087
 5830SOL    HW129123   1.547   0.080   5.348  0.4134 -2.3836  0.2760
 5830SOL    HW229124   1.665   0.058   5.431  0.6360  0.3164 -0.0970
 5831SOL     OW29125   2.046   2.052   7.366 -0.5426  0.1898  0.3732
 5831SOL    HW129126   2.008   2.105   7.296 -0.8673 -2.8067 -1.6923
 5831SOL    HW229127   2.041   1.963   7.332 -1.6001  1.4050 -2.6087
 5832SOL     OW29128   0.435   0.907   7.253 -0.0699 -0.0202  0.2365
 5832SOL    HW129129   0.502   0.931   7.189 -1.5367 -0.4331 -1.4671
 5832SOL    HW229130   0.367   0.892   7.186  0.9617 -2.8475 -0.1665
 5833SOL     OW29131   3.050   2.927   8.226 -0.6867  0.2970  0.1122
 5833SOL    HW129132   2.973   2.871   8.223 -1.1929  1.1221 -2.1973
 5833SOL    HW229133   3.022   3.015   8.249 -0.9751  0.1715  0.2316
 5834SOL     OW29134   0.711   2.493  12.588  0.1333  0.2648 -0.5208
 5834SOL    HW129135   0.764   2.448  12.522 -0.5518 -1.4437  0.0679
 5834SOL    HW229136   0.713   2.435  12.664 -1.5878 -0.4069 -0.9742
 5835SOL     OW29137   0.957   1.462   7.112  0.2317  0.4637  0.4957
 5835SOL    HW129138   0.872   1.491   7.144  0.4792  0.7268  0.9163
 5835SOL    HW229139   0.951   1.496   7.023 -1.0962 -0.4299  0.2428
 5836SOL     OW29140   3.167   4.356   5.827 -0.1577 -0.7253 -0.5795
 5836SOL    HW129141   3.207   4.433   5.786 -1.3158  0.3589  0.3236
 5836SOL    HW229142   3.156   4.389   5.916 -0.0298  0.1389 -0.8858
 5837SOL     OW29143   3.893   2.037   6.247  0.4209 -0.2608  0.4713
 5837SOL    HW129144   3.906   2.107   6.184 -2.0210  1.4711  1.9070
 5837SOL    HW229145   3.799   2.025   6.232  0.5113 -0.7335  0.2525
 5838SOL     OW29146   1.879   3.620   3.666  0.4021 -0.3999  0.3010
 5838SOL    HW129147   1.899   3.712   3.646 -0.6191 -0.0137  1.0555
 5838SOL    HW229148   1.807   3.600   3.606  0.7421  1.0885 -0.5939
 5839SOL     OW29149   3.483   4.146   2.299 -0.2104  0.4683 -0.2278
 5839SOL    HW129150   3.549   4.215   2.291  1.2188 -1.2958 -3.2913
 5839SOL    HW229151   3.464   4.128   2.207 -0.0511 -1.1853  0.0694
 5840SOL     OW29152   4.368   2.530   8.261  0.1011 -0.0704  0.0276
 5840SOL    HW129153   4.341   2.442   8.284 -1.5612  0.2994 -0.5037
 5840SOL    HW229154   4.343   2.544   8.169 -1.1507 -1.5851  0.1548
 5841SOL     OW29155   0.706   1.152  14.546 -0.0873 -0.1156 -0.0042
 5841SOL    HW129156   0.739   1.100  14.473  0.6790 -0.7058  0.7606
 5841SOL    HW229157   0.785   1.192  14.582 -0.7268  3.0923 -2.1627
 5842SOL     OW29158   1.741   2.286  15.349  0.6260 -0.6382  0.3020
 5842SOL    HW129159   1.825   2.247  15.373  1.2632  1.0396  0.8529
 5842SOL    HW229160   1.764   2.333  15.269  2.2615 -0.0870  1.1021
 5843SOL     OW29161   4.465   4.412   4.226  0.3964 -0.4261 -0.5654
 5843SOL    HW129162   4.487   4.370   4.310 -0.5310  1.1888  0.4738
 5843SOL    HW229163   4.371   4.393   4.221  0.2878 -0.2276  0.5780
 5844SOL     OW29164   3.733   0.637   7.543  0.2650  0.7902 -0.1865
 5844SOL    HW129165   3.735   0.634   7.447  0.2040 -3.6092 -0.0616
 5844SOL    HW229166   3.657   0.580   7.556 -0.2361  1.1238 -1.6574
 5845SOL     OW29167   2.859   2.774   6.279 -0.4435  0.2574  0.1063
 5845SOL    HW129168   2.799   2.724   6.334  0.2758  0.7152  1.2879
 5845SOL    HW229169   2.844   2.863   6.310 -0.6826  0.0449  0.5933
 5846SOL     OW29170   0.023   2.951   1.129 -0.1055  0.1066  0.1212
 5846SOL    HW129171   0.007   3.043   1.149 -1.1055 -0.5095  2.2248
 5846SOL    HW229172   0.107   2.941   1.174 -0.4366 -0.0421  0.7095
 5847SOL     OW29173   2.958   2.933   1.200  0.3370 -0.4150  0.4426
 5847SOL    HW129174   2.902   3.009   1.216 -0.7990 -1.4851  1.4899
 5847SOL    HW229175   3.047   2.960   1.225 -0.2124  0.4772  1.3975
 5848SOL     OW29176   1.932   0.636  12.312 -0.0587  0.4329  0.0422
 5848SOL    HW129177   1.946   0.709  12.372 -0.1196  0.0597  0.5066
 5848SOL    HW229178   2.022   0.611  12.292 -0.6937 -1.9460  0.1750
 5849SOL     OW29179   2.756   1.474   5.158  0.6268  0.3025  0.2073
 5849SOL    HW129180   2.771   1.424   5.238  1.0577  0.7654  0.4137
 5849SOL    HW229181   2.726   1.399   5.106  0.8278  0.0503  0.4572
 5850SOL     OW29182   2.962   2.651  13.197 -0.4548  0.3088 -0.0321
 5850SOL    HW129183   2.991   2.625  13.284  1.7587  2.1840 -0.2111
 5850SOL    HW229184   2.895   2.586  13.176 -0.1136 -0.2269  0.5426
 5851SOL     OW29185   4.400   4.250   3.800 -0.4733  0.3358 -0.2357
 5851SOL    HW129186   4.390   4.227   3.893 -1.1601 -0.8283 -0.5938
 5851SOL    HW229187   4.431   4.169   3.759 -0.7185 -0.5307  1.3006
 5852SOL     OW29188   3.503   4.230   8.244 -0.3390  0.0095 -0.1765
 5852SOL    HW129189   3.429   4.230   8.183 -0.9984 -0.2697  0.6093
 5852SOL    HW229190   3.497   4.145   8.288  0.9525  1.3481  2.5986
 5853SOL     OW29191   1.448   1.730   5.576 -0.3358 -0.4506 -0.2792
 5853SOL    HW129192   1.481   1.669   5.510 -0.8017  1.5041 -2.3578
 5853SOL    HW229193   1.529   1.760   5.616 -0.6400  0.0093 -0.0009
 5854SOL     OW29194   1.241   3.903   4.545  0.2294  0.3423 -0.7140
 5854SOL    HW129195   1.321   3.947   4.576  0.6073 -1.0930  0.3287
 5854SOL    HW229196   1.252   3.877   4.454  0.9306  0.7833 -0.7631
 5855SOL     OW29197   1.254   1.217   9.320 -0.8687  0.2037 -0.5277
 5855SOL    HW129198   1.232   1.251   9.233 -0.5332 -0.4660 -0.8766
 5855SOL    HW229199   1.337   1.173   9.302  0.6146  3.1749 -1.0502
 5856SOL     OW29200   0.566   3.321   1.470  0.0524 -0.0242 -0.4183
 5856SOL    HW129201   0.581   3.305   1.376  0.8505 -0.6517 -0.1874
 5856SOL    HW229202   0.526   3.236   1.490 -0.1275 -0.0399 -0.8431
 5857SOL     OW29203   2.291   3.856   1.249 -0.0121  0.2911  0.7641
 5857SOL    HW129204   2.280   3.925   1.314 -1.2739  1.0307 -0.2285
 5857SOL    HW229205   2.310   3.914   1.174  2.6039 -3.5148 -1.5106
 5858SOL     OW29206   4.238   3.694  13.308  0.8478 -0.3315 -0.3605
 5858SOL    HW129207   4.252   3.729  13.221 -0.0180 -1.3106 -0.8996
 5858SOL    HW229208   4.328   3.694  13.341 -0.0958 -2.0885  2.2992
 5859SOL     OW29209   0.659   4.125   2.365 -0.1825 -0.0217 -0.6523
 5859SOL    HW129210   0.727   4.081   2.314 -0.3735 -2.2495  1.0153
 5859SOL    HW229211   0.685   4.094   2.452  2.4943 -0.1328 -1.4839
 5860SOL     OW29212   0.148   2.481   3.155  0.1361  0.0132  0.0843
 5860SOL    HW129213   0.171   2.527   3.236 -0.0206 -0.8770  0.6369
 5860SOL    HW229214   0.210   2.529   3.101 -0.5488  0.3437 -0.4138
 5861SOL     OW29215   0.945   3.560   9.658  0.2064 -0.3796 -0.5243
 5861SOL    HW129216   0.885   3.542   9.585  0.0519 -0.7806 -0.3009
 5861SOL    HW229217   0.928   3.654   9.658 -2.9087 -0.9178  1.7572
 5862SOL     OW29218   3.903   2.230   6.050  0.2691 -0.2951  0.1822
 5862SOL    HW129219   3.981   2.241   5.995  0.8872 -1.1907  0.8861
 5862SOL    HW229220   3.834   2.251   5.988  0.7171  2.2257  0.5460
 5863SOL     OW29221   1.295   2.834   6.358  0.6523  0.9583  0.4250
 5863SOL    HW129222   1.353   2.767   6.323  0.6260  0.7481  0.7813
 5863SOL    HW229223   1.315   2.819   6.451 -2.2659  1.2980  1.0937
 5864SOL     OW29224   3.408   2.657   7.364 -0.5917 -0.2190 -0.5605
 5864SOL    HW129225   3.504   2.663   7.360 -0.2852 -3.1445  2.0852
 5864SOL    HW229226   3.411   2.582   7.424  0.1159  0.4970  0.3096
 5865SOL     OW29227   4.259   4.449   2.553  0.3560 -0.3275  0.5888
 5865SOL    HW129228   4.342   4.453   2.600 -0.1553  1.3294  1.3416
 5865SOL    HW229229   4.226   4.373   2.601  0.4721 -0.5298  0.3455
 5866SOL     OW29230   0.926   0.891  12.238  0.0698  0.4294 -0.3462
 5866SOL    HW129231   0.908   0.901  12.144  2.0902 -0.9851 -0.8706
 5866SOL    HW229232   1.021   0.884  12.238  0.2905  3.6711  0.0580
 5867SOL     OW29233   3.087   4.618   5.999  0.6375  0.7319  0.5368
 5867SOL    HW129234   3.151   4.558   6.037 -0.5617 -1.6110 -1.1499
 5867SOL    HW229235   3.141   4.648   5.925  1.2497 -0.2993  0.5570
 5868SOL     OW29236   1.304   0.422   0.924  0.3497  0.0896  0.0592
 5868SOL    HW129237   1.235   0.405   0.861 -0.7951  1.1260  1.0406
 5868SOL    HW229238   1.286   0.512   0.952  0.0979  0.8220 -2.4675
 5869SOL     OW29239   2.809   3.794   6.582 -0.4070  0.3188 -0.3122
 5869SOL    HW129240   2.776   3.797   6.492  0.0286  1.5060 -0.4361
 5869SOL    HW229241   2.853   3.709   6.585  1.3508  1.2283  0.1230
 5870SOL     OW29242   0.641   0.741   1.261 -0.3384 -0.2177 -0.0205
 5870SOL    HW129243   0.735   0.738   1.276 -0.3925 -0.2526  0.3199
 5870SOL    HW229244   0.628   0.662   1.208 -1.1854 -0.2495  0.2234
 5871SOL     OW29245   1.811   0.346   4.063 -0.4708 -0.0222  0.4304
 5871SOL    HW129246   1.872   0.330   4.135 -0.4623  0.9412  0.6393
 5871SOL    HW229247   1.750   0.273   4.077  1.9295 -2.1300 -0.0609
 5872SOL     OW29248   0.836   4.618   9.607 -0.3118  0.9154 -0.2175
 5872SOL    HW129249   0.815   4.614   9.513 -0.9785 -1.0201  0.0159
 5872SOL    HW229250   0.890   4.696   9.615  0.2812  0.5708 -0.8729
 5873SOL     OW29251   0.029   1.541   4.460 -0.4029  0.4995 -0.0027
 5873SOL    HW129252   0.050   1.529   4.553  0.2030  3.0608  0.1836
 5873SOL    HW229253   0.109   1.575   4.420 -0.1776 -1.7010 -1.4264
 5874SOL     OW29254   0.778   1.576  16.328 -0.4212 -0.1440  0.2601
 5874SOL    HW129255   0.839   1.623  16.270  2.2670 -2.8151  0.9558
 5874SOL    HW229256   0.707   1.529  16.284 -1.7155  2.3986 -0.4019
 5875SOL     OW29257   1.134   2.183  13.172  0.0685  0.1999 -0.2023
 5875SOL    HW129258   1.047   2.174  13.133 -0.3988  0.6659  0.7419
 5875SOL    HW229259   1.117   2.257  13.229  0.1190 -0.7277  1.0135
 5876SOL     OW29260   4.146   4.274   2.757 -0.1540 -0.3915 -0.1261
 5876SOL    HW129261   4.110   4.207   2.699 -0.2963 -0.1536 -0.3117
 5876SOL    HW229262   4.198   4.232   2.825 -3.9352 -1.1199  2.3149
 5877SOL     OW29263   0.491   1.064  15.773  0.3760 -0.0024 -0.3820
 5877SOL    HW129264   0.504   1.119  15.850 -1.1382 -1.3682  0.8430
 5877SOL    HW229265   0.512   0.979  15.810  0.5088  0.8888  1.6076
 5878SOL     OW29266   2.342   4.181   9.357 -0.4631 -0.1624  0.5987
 5878SOL    HW129267   2.426   4.142   9.381  0.0407  1.5640  1.5961
 5878SOL    HW229268   2.275   4.116   9.335 -0.0620 -0.5630  0.5469
 5879SOL     OW29269   3.052   1.985   4.340 -0.1889  0.0475 -0.1056
 5879SOL    HW129270   3.009   2.068   4.361 -0.8167 -0.6460  1.3956
 5879SOL    HW229271   3.137   1.987   4.384  0.0574 -1.2296 -0.5282
 5880SOL     OW29272   4.605   1.153   3.022 -0.0318 -0.3388 -0.3002
 5880SOL    HW129273   4.597   1.178   3.114 -0.6955  0.4988 -0.5867
 5880SOL    HW229274   4.627   1.060   3.022 -0.5949 -0.4732  1.3759
 5881SOL     OW29275   3.792   1.836  15.777  0.0958  0.4866  0.4217
 5881SOL    HW129276   3.761   1.747  15.796 -2.1911  1.1861 -0.0550
 5881SOL    HW229277   3.711   1.866  15.737 -2.0809 -1.1997  3.6070
 5882SOL     OW29278   3.698   3.996   7.181  0.0279  0.2150 -0.3195
 5882SOL    HW129279   3.671   3.960   7.266  0.4079 -0.3286 -0.4284
 5882SOL    HW229280   3.614   4.041   7.170  0.5993  1.2776 -0.3464
 5883SOL     OW29281   2.696   1.937   7.948  0.1164 -0.6439  0.5411
 5883SOL    HW129282   2.711   1.844   7.960 -0.8769 -0.8438  0.2729
 5883SOL    HW229283   2.767   1.941   7.884 -1.8000 -1.2789 -1.6127
 5884SOL     OW29284   1.422   1.400   8.632 -0.3352  0.3926 -0.2448
 5884SOL    HW129285   1.356   1.438   8.690 -0.2502 -2.6958  1.8465
 5884SOL    HW229286   1.498   1.457   8.648  0.3142 -0.1441 -1.4235
 5885SOL     OW29287   3.312   1.988   7.328 -0.1509  0.4410  0.5745
 5885SOL    HW129288   3.218   1.988   7.346 -0.3595  0.1235 -0.5176
 5885SOL    HW229289   3.323   2.052   7.258 -1.5793 -0.3367 -0.3720
 5886SOL     OW29290   4.153   4.617  10.488 -0.1863 -0.3418  0.7175
 5886SOL    HW129291   4.207   4.609  10.566  1.7443 -1.8246 -0.7833
 5886SOL    HW229292   4.205   4.568  10.424 -0.9478  0.3768 -0.4558
 5887SOL     OW29293   0.141   1.692   0.910  1.1150  0.5025  0.1574
 5887SOL    HW129294   0.062   1.688   0.963 -0.0175 -1.3171 -1.6370
 5887SOL    HW229295   0.194   1.614   0.928  0.9306  0.1949 -0.6029
 5888SOL     OW29296   3.421   0.755   0.628 -0.0761 -0.3103 -0.0989
 5888SOL    HW129297   3.497   0.799   0.590 -0.1361  0.1712  0.3346
 5888SOL    HW229298   3.420   0.800   0.713  2.0775 -0.0662 -0.1950
 5889SOL     OW29299   1.825   3.045   7.151  0.0483 -0.1663 -0.0977
 5889SOL    HW129300   1.791   3.036   7.240 -2.0980  0.0744 -0.8917
 5889SOL    HW229301   1.772   3.119   7.124  0.7484  0.9704  1.6046
 5890SOL     OW29302   1.604   3.040   0.928 -0.1271  0.0287  0.3108
 5890SOL    HW129303   1.616   3.079   1.014  1.9034 -1.7968  0.8692
 5890SOL    HW229304   1.580   3.111   0.869  0.3584  0.0243  0.1065
 5891SOL     OW29305   3.923   3.455  11.946  0.4160  0.1021 -0.0472
 5891SOL    HW129306   3.955   3.365  11.941 -2.2666 -0.9386  1.5200
 5891SOL    HW229307   3.977   3.487  11.874  0.7738 -1.6352 -0.5592
 5892SOL     OW29308   3.069   3.271   1.444 -0.1784  0.1776  0.3986
 5892SOL    HW129309   3.061   3.202   1.509  2.6406 -0.2207  0.3602
 5892SOL    HW229310   3.005   3.336   1.474 -1.0200 -0.0219 -0.9838
 5893SOL     OW29311   4.077   4.480   2.168 -0.3471  0.6513 -0.3180
 5893SOL    HW129312   3.998   4.528   2.142 -0.5561  0.3835 -0.1893
 5893SOL    HW229313   4.137   4.537   2.120 -2.2893  0.6745 -2.7563
 5894SOL     OW29314   0.376   0.338   7.957  0.6904 -0.3026 -0.4862
 5894SOL    HW129315   0.304   0.323   7.895 -0.8606  1.0598  0.9596
 5894SOL    HW229316   0.378   0.252   7.999 -3.2514 -0.2837 -0.2276
 5895SOL     OW29317   3.382   2.432   4.834  0.1628 -0.0866 -0.2379
 5895SOL    HW129318   3.415   2.521   4.848  0.4805 -0.3306  0.5619
 5895SOL    HW229319   3.289   2.456   4.835  0.0093 -0.6749 -0.3557
 5896SOL     OW29320   3.477   1.715   1.577  0.1052 -0.1176  0.0306
 5896SOL    HW129321   3.451   1.647   1.515 -0.1458 -0.1050  0.1199
 5896SOL    HW229322   3.402   1.710   1.636  1.3865  1.6775  1.8016
 5897SOL     OW29323   2.501   0.723  14.840 -0.1674 -0.2384  0.1602
 5897SOL    HW129324   2.429   0.692  14.785 -1.3084  1.9271  0.4332
 5897SOL    HW229325   2.471   0.812  14.856 -2.5525 -0.9855 -0.1380
 5898SOL     OW29326   4.203   4.282   1.052  0.0947  0.0371 -0.0313
 5898SOL    HW129327   4.143   4.223   1.097 -0.5696 -0.3825 -1.4690
 5898SOL    HW229328   4.209   4.243   0.964 -2.5049 -0.2777 -0.0728
 5899SOL     OW29329   2.053   1.147   0.821 -0.2362  0.0452 -0.2419
 5899SOL    HW129330   2.076   1.063   0.860  0.9580  0.7540  0.5786
 5899SOL    HW229331   1.967   1.140   0.780  0.2632  1.3201 -1.5274
 5900SOL     OW29332   1.159   0.082   8.205 -0.4172 -0.6001  0.8894
 5900SOL    HW129333   1.159   0.158   8.263  2.3753 -0.2789  0.4619
 5900SOL    HW229334   1.077   0.110   8.164 -0.9426 -1.5172  1.3303
 5901SOL     OW29335   1.207   0.202   4.093  0.0753 -0.2531 -0.3616
 5901SOL    HW129336   1.191   0.114   4.058  0.9529  0.1472 -1.8098
 5901SOL    HW229337   1.291   0.188   4.136 -0.1054  2.2890  0.7799
 5902SOL     OW29338   2.943   3.585  15.562 -0.4125 -0.5471 -0.7214
 5902SOL    HW129339   2.998   3.601  15.638 -0.7651 -2.1930 -0.1148
 5902SOL    HW229340   2.864   3.557  15.609 -0.3631 -0.4632 -0.5887
 5903SOL     OW29341   3.058   0.446  15.986 -0.0257 -0.0707  0.1721
 5903SOL    HW129342   2.968   0.475  15.971  0.0622 -0.5003 -1.1512
 5903SOL    HW229343   3.041   0.370  16.041  0.3241  0.5914  1.2104
 5904SOL     OW29344   3.466   1.302   3.416 -0.2012  0.1555 -0.5911
 5904SOL    HW129345   3.440   1.222   3.461 -1.9346  2.1933  2.0526
 5904SOL    HW229346   3.440   1.282   3.326 -1.7244  0.1445 -0.1380
 5905SOL     OW29347   2.258   2.368   6.478  0.1380 -0.2464  0.5878
 5905SOL    HW129348   2.168   2.366   6.447  0.2310 -3.7272  0.5559
 5905SOL    HW229349   2.245   2.406   6.565  3.9135 -0.1501  1.1294
 5906SOL     OW29350   3.183   2.758   3.379  0.6283  0.2072  0.3578
 5906SOL    HW129351   3.093   2.791   3.381  0.5391  0.1115 -1.9233
 5906SOL    HW229352   3.184   2.711   3.295 -0.0398 -0.0402  0.4890
 5907SOL     OW29353   1.169   4.001   7.859 -0.1019  0.1918 -0.6087
 5907SOL    HW129354   1.185   3.910   7.881  0.5795  0.1177 -1.4253
 5907SOL    HW229355   1.075   4.011   7.875  0.1993 -1.3462  2.0211
 5908SOL     OW29356   1.657   4.217   4.587  0.6344  0.0876  0.3590
 5908SOL    HW129357   1.731   4.180   4.635  1.3302  1.1366  0.0877
 5908SOL    HW229358   1.703   4.272   4.523  1.6190 -0.9178  0.1887
 5909SOL     OW29359   0.241   3.143   7.464 -0.2927  0.2527  0.0399
 5909SOL    HW129360   0.329   3.145   7.426  0.3094  1.2976  1.4909
 5909SOL    HW229361   0.191   3.119   7.386  0.3524 -2.5757  0.4769
 5910SOL     OW29362   3.505   4.128  13.338 -0.7052 -0.2495 -0.4895
 5910SOL    HW129363   3.521   4.165  13.251 -1.8676  2.0516  0.2483
 5910SOL    HW229364   3.542   4.042  13.320  1.7266  0.2878  1.8431
 5911SOL     OW29365   1.539   3.244   6.610 -0.3363 -0.2154 -0.3968
 5911SOL    HW129366   1.517   3.303   6.682 -0.5953  0.3508 -0.9414
 5911SOL    HW229367   1.463   3.187   6.622 -0.1824 -0.2569  0.3629
 5912SOL     OW29368   2.334   2.727   3.378 -0.2675  0.0274  0.3219
 5912SOL    HW129369   2.392   2.671   3.430 -3.0674 -1.7376  1.5049
 5912SOL    HW229370   2.252   2.688   3.407 -1.0514 -0.0209 -2.0173
 5913SOL     OW29371   2.318   1.151  14.524 -0.4612  0.8272 -0.2360
 5913SOL    HW129372   2.388   1.197  14.478 -0.2412 -1.4085 -2.1424
 5913SOL    HW229373   2.266   1.217  14.571 -0.3268 -0.4898  1.8013
 5914SOL     OW29374   0.200   1.874  10.762 -0.0325 -0.1731 -0.0820
 5914SOL    HW129375   0.137   1.807  10.734  1.7963 -2.0637  0.3019
 5914SOL    HW229376   0.145   1.933  10.813 -3.1010 -0.2705 -3.2725
 5915SOL     OW29377   2.907   0.096   8.960 -0.3912  0.6272 -0.6540
 5915SOL    HW129378   2.927   0.052   8.877  0.6956 -0.8072  0.3617
 5915SOL    HW229379   2.998   0.106   8.989 -1.0898  0.5424  1.5820
 5916SOL     OW29380   3.952   2.262  16.099  0.0740 -0.1280  0.0936
 5916SOL    HW129381   3.963   2.192  16.035  0.9977 -0.5170  0.6743
 5916SOL    HW229382   3.962   2.344  16.052  0.1827  0.1615  0.6249
 5917SOL     OW29383   1.886   2.394  17.680  0.6044 -0.2908  0.0449
 5917SOL    HW129384   1.851   2.460  17.620 -3.0966 -2.4177 -0.1896
 5917SOL    HW229385   1.962   2.436  17.720 -1.5539  1.9828  1.7686
 5918SOL     OW29386   1.478   2.355   4.299  0.1422  0.2079  0.3674
 5918SOL    HW129387   1.565   2.330   4.269  0.5278  0.0177  1.6592
 5918SOL    HW229388   1.490   2.397   4.384 -0.9984  2.0849 -0.4027
 5919SOL     OW29389   2.018   0.275   5.085 -0.5843 -0.2464 -0.4452
 5919SOL    HW129390   1.931   0.237   5.092 -0.6054 -0.0233  0.6565
 5919SOL    HW229391   2.067   0.228   5.153 -0.2045 -1.9190 -1.8914
 5920SOL     OW29392   1.208   0.878   1.895 -0.2329  0.2451  0.2680
 5920SOL    HW129393   1.298   0.909   1.883  0.5828 -1.7095  1.3417
 5920SOL    HW229394   1.167   0.957   1.859  0.6160  0.3639 -0.4430
 5921SOL     OW29395   1.342   0.997   6.547 -0.0202  0.4473  0.1425
 5921SOL    HW129396   1.268   0.975   6.603  0.1148  1.7603  0.8180
 5921SOL    HW229397   1.320   0.959   6.461  1.4500 -2.4839  1.0494
 5922SOL     OW29398   2.996   2.781  10.376  0.1870  0.4401  0.1309
 5922SOL    HW129399   3.088   2.795  10.399  0.0573 -0.5010  1.2167
 5922SOL    HW229400   2.977   2.864  10.332  0.3766 -0.1994 -1.1539
 5923SOL     OW29401   4.248   2.999   7.719  0.0035  0.1802  0.8137
 5923SOL    HW129402   4.212   2.940   7.653  1.5056  0.9147 -0.6445
 5923SOL    HW229403   4.295   3.064   7.667 -3.3437  2.9825  1.3072
 5924SOL     OW29404   4.502   2.060   6.902  0.2740 -0.2139 -0.7401
 5924SOL    HW129405   4.474   2.023   6.818  0.0804 -1.5270 -0.0948
 5924SOL    HW229406   4.423   2.086   6.948  0.6707 -1.5798  0.6926
 5925SOL     OW29407   2.938   0.098   0.061 -0.3312  0.6575 -0.4217
 5925SOL    HW129408   2.872   0.164   0.082  0.0168  0.6465  0.6596
 5925SOL    HW229409   3.018   0.136   0.098 -0.0401 -0.8112  0.4298
 5926SOL     OW29410   4.263   0.583   5.866 -0.0584 -0.1852 -0.5855
 5926SOL    HW129411   4.271   0.546   5.954  0.5200 -1.5168 -1.1979
 5926SOL    HW229412   4.203   0.657   5.871 -1.5401 -1.4844  0.8855
 5927SOL     OW29413   0.928   0.702  16.170  0.1655  0.5466  0.2431
 5927SOL    HW129414   0.996   0.644  16.205 -0.7906 -1.3065 -0.9495
 5927SOL    HW229415   0.951   0.682  16.079  0.0234  2.0674 -0.1139
 5928SOL     OW29416   0.982   3.972   2.621 -0.2878  0.0894 -0.3227
 5928SOL    HW129417   0.962   4.053   2.668  0.2377  0.5108 -0.8217
 5928SOL    HW229418   1.073   3.958   2.648 -1.1752 -2.0806  1.5457
 5929SOL     OW29419   1.537   4.670   2.000  0.3228 -0.5607 -0.1194
 5929SOL    HW129420   1.587   4.661   1.919 -0.2809 -2.6284 -0.2597
 5929SOL    HW229421   1.556   0.020   2.036  2.6161 -1.6489  1.3451
 5930SOL     OW29422   0.309   2.803  14.293 -0.2133 -0.2228 -0.6124
 5930SOL    HW129423   0.311   2.707  14.289 -0.1977 -0.2287 -0.4593
 5930SOL    HW229424   0.402   2.821  14.286  0.4203 -2.9213  1.0649
 5931SOL     OW29425   1.110   4.097  17.691  0.1105  0.5070  0.1333
 5931SOL    HW129426   1.203   4.092  17.714  0.8219  2.0861 -2.4203
 5931SOL    HW229427   1.123   4.148  17.611  1.1148 -1.1983 -0.7945
 5932SOL     OW29428   2.299   4.467   4.172 -0.2379 -0.2159 -0.6729
 5932SOL    HW129429   2.243   4.439   4.244  1.5326 -0.0998  0.7410
 5932SOL    HW229430   2.239   4.513   4.114 -0.5036 -0.5782 -0.6859
 5933SOL     OW29431   0.393   2.417   9.922  0.5565  0.4741  0.2232
 5933SOL    HW129432   0.363   2.502   9.952  0.3901 -0.0496  1.5046
 5933SOL    HW229433   0.446   2.398   9.999  0.7619  4.6915  1.1114
 5934SOL     OW29434   1.364   3.945   3.820 -0.4460 -0.6323  0.4412
 5934SOL    HW129435   1.331   3.956   3.730  0.9434  2.5073  0.3432
 5934SOL    HW229436   1.403   3.858   3.807  0.2840 -0.1074 -0.9142
 5935SOL     OW29437   3.996   1.164  13.066  0.1452 -0.3104 -0.7886
 5935SOL    HW129438   3.904   1.181  13.085  0.2378  0.8457 -1.4336
 5935SOL    HW229439   4.029   1.167  13.156 -1.7373 -3.2665  0.0140
 5936SOL     OW29440   4.303   3.621   6.274 -0.5833 -0.2184 -0.2335
 5936SOL    HW129441   4.345   3.568   6.342 -1.3468 -0.9753 -0.3502
 5936SOL    HW229442   4.366   3.689   6.252 -2.2853  1.7410  0.9494
 5937SOL     OW29443   0.119   2.837   4.591 -0.0505  0.2065  0.0235
 5937SOL    HW129444   0.176   2.770   4.631 -1.1229 -1.0287 -0.5055
 5937SOL    HW229445   0.154   2.851   4.503 -0.4956 -0.2269 -0.2229
 5938SOL     OW29446   1.964   1.296   3.241 -0.1159 -0.3358 -0.3019
 5938SOL    HW129447   1.963   1.391   3.243  1.6974 -0.4041  3.1970
 5938SOL    HW229448   1.919   1.274   3.159 -1.0462  0.1875  0.0768
 5939SOL     OW29449   0.275   3.093  14.286  0.2338  0.7197 -0.2905
 5939SOL    HW129450   0.292   3.000  14.296 -3.4271  0.0372 -0.4598
 5939SOL    HW229451   0.206   3.102  14.352  0.4695  0.4942 -0.0130
 5940SOL     OW29452   2.780   1.825  10.774 -0.0649 -0.1208 -0.4466
 5940SOL    HW129453   2.738   1.799  10.857  1.0134  0.3230  0.2325
 5940SOL    HW229454   2.724   1.901  10.758  1.0193  1.0879  1.4762
 5941SOL     OW29455   3.401   3.965   7.598  0.5213 -0.1868 -0.2577
 5941SOL    HW129456   3.342   3.899   7.635  0.2907  0.2955  0.2319
 5941SOL    HW229457   3.335   4.022   7.559  1.8828  1.2943 -0.3684
 5942SOL     OW29458   2.138   0.840   6.755 -0.3336 -0.2654  0.0938
 5942SOL    HW129459   2.127   0.758   6.803  0.3877 -0.0113  0.7009
 5942SOL    HW229460   2.214   0.880   6.797 -0.2720  0.6139 -0.8491
 5943SOL     OW29461   1.641   3.320   8.869  0.1688  0.3145 -0.2385
 5943SOL    HW129462   1.645   3.398   8.924 -0.9031 -1.2605  2.0727
 5943SOL    HW229463   1.649   3.253   8.936 -2.1824 -0.0894 -0.3616
 5944SOL     OW29464   3.832   2.710   2.421 -0.4570 -0.1966  0.2456
 5944SOL    HW129465   3.742   2.739   2.430 -0.3978 -0.2678  1.1356
 5944SOL    HW229466   3.828   2.618   2.393 -1.6158 -0.2612  0.6545
 5945SOL     OW29467   4.289   2.193   6.629  0.0876  0.4992  0.3426
 5945SOL    HW129468   4.206   2.146   6.622  1.6311 -1.9658 -1.3051
 5945SOL    HW229469   4.342   2.116   6.648 -1.1106 -0.2380  0.6968
 5946SOL     OW29470   4.730   1.316   8.866 -0.5183 -0.2161 -0.0206
 5946SOL    HW129471   0.063   1.351   8.810  1.3003 -2.1045  1.0510
 5946SOL    HW229472   4.671   1.391   8.862 -0.1587  0.1106  0.8210
 5947SOL     OW29473   4.442   2.551   7.938 -0.1073  0.7318 -0.4261
 5947SOL    HW129474   4.354   2.545   7.976 -0.6284 -2.2555 -2.1147
 5947SOL    HW229475   4.419   2.568   7.847 -0.6378  1.6321 -0.1245
 5948SOL     OW29476   3.483   0.503  12.049 -0.4774 -0.8327  0.1141
 5948SOL    HW129477   3.453   0.418  12.017 -0.7737 -1.1042  1.1273
 5948SOL    HW229478   3.472   0.503  12.144  0.6155  0.9711  0.2599
 5949SOL     OW29479   3.440   4.667   0.645  0.0744  0.8356 -0.1852
 5949SOL    HW129480   3.520   4.616   0.641 -0.1194  0.5228 -0.0896
 5949SOL    HW229481   3.389   4.625   0.576  0.6117 -0.4955  0.2323
 5950SOL     OW29482   0.561   0.623   8.667 -0.2252 -0.0433 -0.2531
 5950SOL    HW129483   0.544   0.599   8.576 -1.4007  0.7052 -0.2265
 5950SOL    HW229484   0.511   0.554   8.711  0.8157  0.0963  1.1688
 5951SOL     OW29485   3.553   2.357  13.073  0.2296 -0.4485 -0.2134
 5951SOL    HW129486   3.465   2.327  13.096 -0.1443 -0.8525 -2.1338
 5951SOL    HW229487   3.541   2.406  12.992 -0.6037 -1.6728 -0.8463
 5952SOL     OW29488   2.957   1.294  15.758  0.3052 -0.1922  0.8807
 5952SOL    HW129489   2.989   1.360  15.819  1.3290  0.4214 -0.3150
 5952SOL    HW229490   3.018   1.291  15.685 -0.5825 -0.6831  0.1539
 5953SOL     OW29491   1.987   0.192   8.919  0.0960 -0.3563  0.3892
 5953SOL    HW129492   2.033   0.130   8.863  0.9761 -0.8022  1.6100
 5953SOL    HW229493   2.061   0.208   8.977  0.8614 -3.7434  0.3653
 5954SOL     OW29494   2.239   4.117   4.450  0.1750  0.4206 -0.1033
 5954SOL    HW129495   2.301   4.045   4.466  0.1478  0.4169 -0.0120
 5954SOL    HW229496   2.158   4.073   4.424  0.2104  1.2707 -1.6317
 5955SOL     OW29497   3.331   4.678   5.072 -0.4751 -0.2186 -0.1489
 5955SOL    HW129498   3.382   4.718   5.002 -1.6155  0.4315 -0.6126
 5955SOL    HW229499   3.247   4.721   5.055  0.2278  1.9950  1.8789
 5956SOL     OW29500   1.029   2.066  15.136 -0.5424  0.0051  0.6157
 5956SOL    HW129501   1.122   2.089  15.127 -0.3060 -1.6634 -1.2383
 5956SOL    HW229502   0.986   2.114  15.065  1.3778 -0.4598 -0.8880
 5957SOL     OW29503   1.755   1.174   5.237  0.6682  0.0938  0.1992
 5957SOL    HW129504   1.667   1.145   5.262  2.2937 -2.8204  2.4234
 5957SOL    HW229505   1.789   1.187   5.325 -1.0002 -0.3449  0.9083
 5958SOL     OW29506   0.449   0.120  13.282  0.1258  0.4346  0.0520
 5958SOL    HW129507   0.370   0.071  13.260  0.6338 -0.4999  0.2890
 5958SOL    HW229508   0.442   0.209  13.249 -0.1509  1.0531  1.8020
 5959SOL     OW29509   0.619   4.143  17.075  0.3096  0.5128 -0.0586
 5959SOL    HW129510   0.586   4.057  17.100 -1.5464  1.8065  2.0618
 5959SOL    HW229511   0.584   4.157  16.987  1.5018  0.4574 -0.5388
 5960SOL     OW29512   3.753   2.378  16.273  0.2362 -0.2455 -0.0639
 5960SOL    HW129513   3.706   2.421  16.202 -1.9783 -1.7311  0.5103
 5960SOL    HW229514   3.825   2.335  16.227 -0.8838 -1.2238 -0.8907
 5961SOL     OW29515   4.224   3.351   6.645 -0.4731 -0.0550  0.1706
 5961SOL    HW129516   4.197   3.365   6.736  1.1802  0.3536  0.5907
 5961SOL    HW229517   4.157   3.398   6.595 -0.8521 -3.1329 -2.2634
 5962SOL     OW29518   2.020   3.031   6.024  0.3810 -0.3739 -0.3699
 5962SOL    HW129519   2.069   3.045   5.944  0.6335 -0.3590 -0.2127
 5962SOL    HW229520   1.927   3.021   6.004 -0.4578  0.5660  3.0526
 5963SOL     OW29521   2.399   4.400   9.543 -0.2867 -0.0023  0.4871
 5963SOL    HW129522   2.335   4.470   9.557 -1.2623 -0.8573  0.2708
 5963SOL    HW229523   2.358   4.356   9.468  0.3663  1.9080 -0.9869
 5964SOL     OW29524   3.581   3.207   6.060  0.1628  0.2873  0.1083
 5964SOL    HW129525   3.512   3.273   6.058  1.5966  1.8603  1.9208
 5964SOL    HW229526   3.626   3.238   5.981  1.1462 -2.4712 -0.3825
 5965SOL     OW29527   0.488   3.183   9.854 -0.1409 -0.1630  0.1132
 5965SOL    HW129528   0.558   3.212   9.795 -0.4982 -1.9881 -1.2150
 5965SOL    HW229529   0.536   3.180   9.936 -0.6752 -1.8206  0.3596
 5966SOL     OW29530   2.194   2.995   2.174 -0.0112 -0.2793 -0.2787
 5966SOL    HW129531   2.288   3.004   2.162 -0.0375  1.9775  1.1473
 5966SOL    HW229532   2.161   2.961   2.091  0.3751  0.9597 -0.9288
 5967SOL     OW29533   2.631   1.041   3.886 -0.0841 -0.5267 -0.2229
 5967SOL    HW129534   2.703   1.096   3.917  0.0416 -0.2149 -1.0706
 5967SOL    HW229535   2.624   0.983   3.962  2.4528 -0.7819 -0.1734
 5968SOL     OW29536   2.771   0.489  17.560  0.5356  0.1806 -0.2066
 5968SOL    HW129537   2.697   0.540  17.527  0.1670 -1.1611 -1.4489
 5968SOL    HW229538   2.765   0.510  17.654  1.4659  1.2418 -0.3847
 5969SOL     OW29539   1.841   2.754   8.161  0.4174 -0.4597 -0.0732
 5969SOL    HW129540   1.817   2.810   8.235 -1.6789 -2.7491  0.9788
 5969SOL    HW229541   1.791   2.795   8.090  0.2140 -2.2022 -0.9259
 5970SOL     OW29542   1.825   4.557  15.329  0.0757 -0.2965  0.0635
 5970SOL    HW129543   1.873   4.549  15.246  0.5907 -0.0869  0.3424
 5970SOL    HW229544   1.855   4.478  15.373  0.0138 -1.4473 -1.9266
 5971SOL     OW29545   0.129   3.442  10.427  0.0465  0.3305  0.0310
 5971SOL    HW129546   0.205   3.496  10.450  0.6600 -0.7204  0.4884
 5971SOL    HW229547   0.151   3.372  10.490 -2.0673  0.4096  0.8455
 5972SOL     OW29548   2.543   4.421   7.809 -0.1343  0.0741  0.0545
 5972SOL    HW129549   2.628   4.463   7.798 -0.4557  0.4411 -0.9574
 5972SOL    HW229550   2.493   4.493   7.847 -1.7818  0.0121 -2.0169
 5973SOL     OW29551   4.017   1.335   3.362 -0.0466 -0.4269  0.0248
 5973SOL    HW129552   4.021   1.404   3.429  2.7580  0.6766 -1.3190
 5973SOL    HW229553   3.991   1.398   3.295 -1.0188  0.3373  1.1136
 5974SOL     OW29554   0.539   0.114   2.301 -0.3245 -0.0436 -0.3876
 5974SOL    HW129555   0.623   0.076   2.326 -0.7127 -0.6505 -0.0209
 5974SOL    HW229556   0.489   0.066   2.367 -0.5939  0.1909 -0.4171
 5975SOL     OW29557   0.225   3.401  13.025 -0.4855  1.1418 -0.4649
 5975SOL    HW129558   0.226   3.339  12.952 -1.2666 -1.1512  1.4618
 5975SOL    HW229559   0.300   3.456  13.003  0.2307  1.3382  2.4989
 5976SOL     OW29560   4.188   1.476   8.325 -0.1211  0.1027 -0.4465
 5976SOL    HW129561   4.278   1.507   8.337  0.6049 -1.9617 -0.5577
 5976SOL    HW229562   4.143   1.558   8.304  2.7681  1.7314 -0.2341
 5977SOL     OW29563   0.074   0.990   3.297  0.0518 -0.4162 -0.4128
 5977SOL    HW129564   0.154   0.991   3.244 -0.1249  1.2283 -0.6504
 5977SOL    HW229565   0.089   0.921   3.362 -4.5983 -1.3062 -0.3456
 5978SOL     OW29566   0.354   3.044  17.053  0.3469  0.2795 -0.1648
 5978SOL    HW129567   0.348   3.138  17.073 -2.1385 -0.0103  0.4501
 5978SOL    HW229568   0.268   3.020  17.018  0.8066  0.6971 -1.5824
 5979SOL     OW29569   1.488   3.219   7.432  1.0795 -0.4075 -0.1593
 5979SOL    HW129570   1.490   3.315   7.432 -0.5368 -0.3769 -0.5996
 5979SOL    HW229571   1.425   3.199   7.500  2.8407  1.3352  1.9944
 5980SOL     OW29572   0.612   1.247   7.086  0.2865  0.6415  0.4142
 5980SOL    HW129573   0.622   1.323   7.144 -0.7459  0.5704  0.6829
 5980SOL    HW229574   0.704   1.221   7.092 -0.4966 -2.5595 -1.1900
 5981SOL     OW29575   1.461   0.839   7.078  0.4774 -0.2854 -0.1508
 5981SOL    HW129576   1.388   0.789   7.041  0.2180  1.0409 -1.4670
 5981SOL    HW229577   1.488   0.890   7.002 -0.2400  0.5558  0.1583
 5982SOL     OW29578   2.238   2.008   2.918  0.1455  0.0217 -0.1005
 5982SOL    HW129579   2.318   2.022   2.867  1.0876 -2.7555  0.6091
 5982SOL    HW229580   2.213   2.099   2.932  2.9333  0.8486 -0.4755
 5983SOL     OW29581   1.917   3.370   8.572  0.8696 -0.1681  0.1273
 5983SOL    HW129582   1.833   3.377   8.528  0.3113  1.2858  1.4388
 5983SOL    HW229583   1.969   3.412   8.504 -1.1205  0.6091 -0.8864
 5984SOL     OW29584   3.962   0.800   8.308 -0.1957 -0.1196 -0.2979
 5984SOL    HW129585   3.867   0.811   8.306 -0.4214 -1.5411  1.8402
 5984SOL    HW229586   3.963   0.745   8.230  1.4487 -0.0731 -0.3288
 5985SOL     OW29587   2.398   0.608   4.268  0.1090 -0.1974 -0.4222
 5985SOL    HW129588   2.467   0.609   4.203  1.1341 -0.8607  0.6555
 5985SOL    HW229589   2.336   0.675   4.239  0.9943  1.0759  0.5948
 5986SOL     OW29590   0.263   4.556  14.831 -0.3543 -0.9471  0.0079
 5986SOL    HW129591   0.203   4.630  14.821  0.0081 -0.2225  3.0299
 5986SOL    HW229592   0.222   4.518  14.910  0.9010 -1.2015  0.5307
 5987SOL     OW29593   2.880   4.594   8.483  0.2536 -0.4888  0.4515
 5987SOL    HW129594   2.848   4.505   8.468  1.6335 -1.0670  0.9487
 5987SOL    HW229595   2.951   4.606   8.420  0.6898 -0.3595  0.9699
 5988SOL     OW29596   3.789   0.451   3.678 -0.3935  0.7860  0.8833
 5988SOL    HW129597   3.774   0.426   3.769  0.0279 -0.2440  0.6734
 5988SOL    HW229598   3.738   0.531   3.666 -1.5576 -0.1979 -0.7297
 5989SOL     OW29599   4.218   0.369   9.067  0.5146 -0.1135 -0.3151
 5989SOL    HW129600   4.257   0.291   9.027  0.9386  0.4538 -1.0083
 5989SOL    HW229601   4.130   0.339   9.090  0.2080 -0.9435 -2.4800
 5990SOL     OW29602   0.352   1.279   4.870 -0.0195 -0.2821 -0.0628
 5990SOL    HW129603   0.429   1.239   4.912 -0.1643 -0.1460  0.3389
 5990SOL    HW229604   0.334   1.209   4.809  1.1669 -0.7688  0.1497
 5991SOL     OW29605   1.215   1.008   5.930  0.6165  0.2777 -0.0546
 5991SOL    HW129606   1.255   0.920   5.924  0.2731  0.2378 -1.6745
 5991SOL    HW229607   1.140   0.990   5.986  0.8701 -2.1883 -0.5022
 5992SOL     OW29608   3.809   2.292   0.838  0.2744 -0.2973  0.5821
 5992SOL    HW129609   3.887   2.262   0.791  1.0309  2.9855 -0.2721
 5992SOL    HW229610   3.838   2.372   0.882  1.5261 -0.8036  0.6927
 5993SOL     OW29611   0.065   2.141   3.680 -0.5330 -0.0613  0.3008
 5993SOL    HW129612   0.087   2.234   3.684 -1.9269  0.2164  1.2746
 5993SOL    HW229613   0.019   2.124   3.762 -1.2270 -0.3297 -0.1485
 5994SOL     OW29614   3.918   1.996   5.252  0.0354  0.5852  0.2073
 5994SOL    HW129615   3.831   2.035   5.255  0.4060  1.3346  1.0919
 5994SOL    HW229616   3.906   1.906   5.283 -0.7016  0.9068  0.8504
 5995SOL     OW29617   2.640   2.680   4.090 -0.2303  0.0245 -0.2355
 5995SOL    HW129618   2.594   2.605   4.127  0.0217  0.2311  0.5055
 5995SOL    HW229619   2.628   2.748   4.157 -0.7852  0.6140 -0.9390
 5996SOL     OW29620   2.118   1.244   5.386  0.0905  0.4594  0.8915
 5996SOL    HW129621   2.199   1.228   5.434  0.9060  5.8317  1.3703
 5996SOL    HW229622   2.063   1.247   5.464 -0.5974 -1.1255  0.4554
 5997SOL     OW29623   2.928   2.049   1.051  0.3320 -0.3834  0.1191
 5997SOL    HW129624   2.977   1.971   1.079 -2.3755 -2.2103 -0.2066
 5997SOL    HW229625   2.992   2.113   1.083  1.1280  0.0982 -2.4561
 5998SOL     OW29626   2.421   2.816   4.535  0.1984 -0.0949  0.2568
 5998SOL    HW129627   2.364   2.892   4.546  0.1213 -0.4824  2.4815
 5998SOL    HW229628   2.361   2.762   4.586  1.4383 -2.4992 -0.8241
 5999SOL     OW29629   1.344   0.516   4.342  0.5079  0.0185  0.2042
 5999SOL    HW129630   1.292   0.486   4.267  2.2423 -1.2955 -0.4928
 5999SOL    HW229631   1.310   0.449   4.402  2.6409 -2.3709 -1.2184
 6000SOL     OW29632   1.517   3.424   6.805 -0.3078  0.5363 -0.1371
 6000SOL    HW129633   1.563   3.426   6.888 -0.1226  0.5529 -0.2401
 6000SOL    HW229634   1.432   3.462   6.829  0.3232  1.3099  0.8427
 6001SOL     OW29635   0.132   2.470  14.160  0.0949 -0.1824 -0.7687
 6001SOL    HW129636   0.110   2.555  14.122  0.1775  0.3944  0.4621
 6001SOL    HW229637   0.201   2.500  14.220 -0.4697  0.5330 -0.4800
 6002SOL     OW29638   1.729   1.048   9.029  0.4643  0.1458 -0.4061
 6002SOL    HW129639   1.783   0.981   8.988  2.0013  0.4665  1.1017
 6002SOL    HW229640   1.711   1.105   8.954 -0.0686 -0.6224 -0.8689
 6003SOL     OW29641   2.103   0.796   9.101 -0.5417 -0.4977  0.7870
 6003SOL    HW129642   2.168   0.866   9.102  0.1485 -1.1495  2.8644
 6003SOL    HW229643   2.157   0.718   9.090  0.3101 -0.0570  1.7978
 6004SOL     OW29644   1.909   2.388   3.018  0.2557  0.1811 -0.5592
 6004SOL    HW129645   2.001   2.389   2.991  0.6641 -0.2948  0.8064
 6004SOL    HW229646   1.909   2.474   3.059  3.8256  0.9981 -2.2778
 6005SOL     OW29647   4.175   0.544  16.502 -0.0421 -0.1685  0.3317
 6005SOL    HW129648   4.166   0.532  16.407 -1.8174  1.0754  0.3394
 6005SOL    HW229649   4.112   0.481  16.536  1.0190 -1.0420  0.6607
 6006SOL     OW29650   4.170   1.721   5.945 -0.1399  0.0972  0.1466
 6006SOL    HW129651   4.187   1.683   5.858  0.9135 -1.1164  0.8848
 6006SOL    HW229652   4.101   1.786   5.933 -0.4834 -0.0048  1.6573
 6007SOL     OW29653   4.470   3.848  16.573  0.1449  0.3560 -0.0460
 6007SOL    HW129654   4.446   3.940  16.585  0.0137  0.6867 -3.0321
 6007SOL    HW229655   4.444   3.804  16.655 -0.8292  0.5675 -0.2438
 6008SOL     OW29656   1.103   1.883   5.637 -0.0006  0.4047 -0.1899
 6008SOL    HW129657   1.036   1.817   5.624  0.9824 -0.6321 -0.0052
 6008SOL    HW229658   1.101   1.897   5.542  1.4710 -1.0406 -0.4455
 6009SOL     OW29659   2.389   4.032   8.905 -0.4183 -0.2411 -0.0473
 6009SOL    HW129660   2.373   3.938   8.903 -0.6602 -0.2248  1.0228
 6009SOL    HW229661   2.309   4.056   8.952 -0.3089 -0.9730  0.5069
 6010SOL     OW29662   3.276   3.452   8.008  0.6240  0.5256 -0.1719
 6010SOL    HW129663   3.216   3.422   8.077  0.4748  0.6963 -0.2270
 6010SOL    HW229664   3.238   3.535   7.980 -1.2771 -0.9465 -1.9516
 6011SOL     OW29665   2.939   2.758   9.223 -0.0128 -0.1904 -0.4709
 6011SOL    HW129666   2.920   2.851   9.239  0.4744  0.0950 -1.5923
 6011SOL    HW229667   2.898   2.724   9.303  2.7288 -2.6845 -0.1370
 6012SOL     OW29668   4.383   3.292  13.865  0.4705 -0.3391 -0.1572
 6012SOL    HW129669   4.379   3.205  13.903 -0.6099  0.3227  1.2547
 6012SOL    HW229670   4.331   3.346  13.925  0.9351 -2.0662  1.7895
 6013SOL     OW29671   2.921   0.055   7.770  0.2029  0.0520 -0.3807
 6013SOL    HW129672   2.901   0.138   7.727 -0.1070  0.9082  1.4102
 6013SOL    HW229673   2.994   0.018   7.720  1.5938  1.7960  0.3857
 6014SOL     OW29674   1.241   4.354   4.633  0.2889 -0.3089 -0.0201
 6014SOL    HW129675   1.284   4.413   4.571 -0.7847 -0.6869 -1.1283
 6014SOL    HW229676   1.174   4.319   4.574 -0.0455  1.2211 -0.5645
 6015SOL     OW29677   0.819   0.101   5.321 -0.4756  0.2673 -0.3693
 6015SOL    HW129678   0.758   0.143   5.260 -0.6700  2.8425  1.6100
 6015SOL    HW229679   0.891   0.094   5.258  0.3326  0.5915  0.5192
 6016SOL     OW29680   3.342   4.564  11.421  0.1289  0.0129  0.5272
 6016SOL    HW129681   3.376   4.488  11.373  0.9718  1.1745 -0.7219
 6016SOL    HW229682   3.429   4.587  11.455  0.2854  0.7777 -0.3899
 6017SOL     OW29683   1.460   3.485   9.711  0.8083 -0.2502  0.0797
 6017SOL    HW129684   1.476   3.420   9.642  3.5694  0.7552 -0.2037
 6017SOL    HW229685   1.382   3.444   9.749  0.8979 -0.7954 -0.3188
 6018SOL     OW29686   0.543   0.585   8.369  0.0942  0.7190  0.1843
 6018SOL    HW129687   0.534   0.663   8.315  1.3870  0.9247  0.2715
 6018SOL    HW229688   0.451   0.586   8.395 -0.1658 -0.4399 -0.6865
 6019SOL     OW29689   1.280   3.151   8.159  0.3205 -0.9008  0.1451
 6019SOL    HW129690   1.221   3.134   8.232  0.4445 -0.8203  0.2623
 6019SOL    HW229691   1.270   3.246   8.165  1.7358 -0.5519 -2.7689
 6020SOL     OW29692   3.954   1.435   5.558  0.1930 -0.0457  0.2909
 6020SOL    HW129693   4.028   1.461   5.503 -0.9431 -2.3809 -2.3619
 6020SOL    HW229694   3.897   1.512   5.559 -0.5735 -0.6149  0.0814
 6021SOL     OW29695   0.821   3.361   8.402  0.2104 -0.4426 -0.2236
 6021SOL    HW129696   0.738   3.377   8.446 -0.1829 -0.2557 -1.0315
 6021SOL    HW229697   0.815   3.265   8.404  0.7555 -0.5093 -1.3971
 6022SOL     OW29698   3.300   1.931  16.678  0.0868 -0.0428  0.0347
 6022SOL    HW129699   3.233   1.865  16.663 -0.5600  1.0115 -1.6641
 6022SOL    HW229700   3.249   2.011  16.690  0.0580 -0.2822  1.5641
 6023SOL     OW29701   4.155   0.868  14.601 -0.8641  0.3421  0.5259
 6023SOL    HW129702   4.167   0.947  14.549 -2.3183  0.0776 -0.1950
 6023SOL    HW229703   4.209   0.808  14.550 -1.4838  0.5005 -0.3028
 6024SOL     OW29704   1.475   1.357  17.150  0.4580  0.5187 -0.0893
 6024SOL    HW129705   1.568   1.342  17.166  1.0993  3.5487 -1.0075
 6024SOL    HW229706   1.446   1.269  17.125 -0.7157  1.6467 -2.7192
 6025SOL     OW29707   2.513   2.538   0.949 -0.0108  0.2592 -0.2686
 6025SOL    HW129708   2.566   2.459   0.959 -0.3640  0.1113  0.4299
 6025SOL    HW229709   2.574   2.612   0.953 -0.2850  0.4450  0.4102
 6026SOL     OW29710   4.317   3.052   9.699 -0.4117 -0.3137 -0.2702
 6026SOL    HW129711   4.312   3.102   9.780  3.2080 -1.0262  0.4089
 6026SOL    HW229712   4.339   3.116   9.630  2.4656  0.7830  1.6488
 6027SOL     OW29713   1.726   0.728   3.475 -0.2576  0.0763  0.8472
 6027SOL    HW129714   1.759   0.640   3.454 -1.3221 -0.2922  0.6942
 6027SOL    HW229715   1.721   0.736   3.570  1.8232 -0.7097  1.0276
 6028SOL     OW29716   4.061   4.645  15.852 -0.0918 -0.6439  0.1612
 6028SOL    HW129717   3.980   4.600  15.826 -0.4069 -0.4760  0.8541
 6028SOL    HW229718   4.078   4.606  15.937 -0.8646 -2.7237 -0.6362
 6029SOL     OW29719   4.305   2.098   9.952 -0.4877 -0.2094 -0.3759
 6029SOL    HW129720   4.388   2.099   9.904 -1.1352  2.2987 -1.4267
 6029SOL    HW229721   4.267   2.184   9.938 -1.2162 -0.2354  1.3568
 6030SOL     OW29722   1.491   2.041   4.499 -0.3887 -0.4141  0.1662
 6030SOL    HW129723   1.582   2.025   4.475 -0.8775 -0.9022 -1.3522
 6030SOL    HW229724   1.460   2.058   4.410  0.1549  0.0552  0.0696
 6031SOL     OW29725   2.991   4.350  17.518 -0.1472  0.0737 -0.3192
 6031SOL    HW129726   3.023   4.348  17.428 -0.3815 -1.3546 -0.3645
 6031SOL    HW229727   3.017   4.438  17.546 -0.9318 -0.0221  0.7462
 6032SOL     OW29728   2.854   4.678  14.642 -0.1944  0.7622  0.3204
 6032SOL    HW129729   2.920   4.735  14.681 -1.2147  2.0381  0.1873
 6032SOL    HW229730   2.894   4.642  14.563 -2.6487 -0.7922 -0.1984
 6033SOL     OW29731   3.333   0.179   0.535 -0.6960  0.0224 -0.1341
 6033SOL    HW129732   3.348   0.195   0.442 -1.2524 -2.7608 -0.6824
 6033SOL    HW229733   3.372   0.093   0.544  2.0011  1.4410  1.8776
 6034SOL     OW29734   4.332   0.266   5.866 -0.1505  0.2158  0.2090
 6034SOL    HW129735   4.243   0.258   5.832 -0.4404  2.1461  0.5391
 6034SOL    HW229736   4.310   0.316   5.945 -0.5630  1.7892 -0.9167
 6035SOL     OW29737   2.447   1.083   4.780 -0.5300  0.2892 -0.5688
 6035SOL    HW129738   2.533   1.068   4.740 -1.9993 -0.8965 -3.3053
 6035SOL    HW229739   2.418   1.162   4.734 -0.5465 -0.7743 -2.4001
 6036SOL     OW29740   0.552   0.209   6.389 -0.4863  0.1657 -0.4676
 6036SOL    HW129741   0.591   0.227   6.474 -1.2391 -0.2236 -0.0423
 6036SOL    HW229742   0.588   0.124   6.364  2.4706  2.5774 -4.5028
 6037SOL     OW29743   1.229   2.065   7.740  0.3850 -0.6532 -0.2974
 6037SOL    HW129744   1.160   2.125   7.770  1.4745  0.5132 -0.1152
 6037SOL    HW229745   1.294   2.073   7.810 -0.6349  0.4507  0.5330
 6038SOL     OW29746   2.894   0.625   4.260 -0.4562  0.3084  0.0392
 6038SOL    HW129747   2.823   0.681   4.231  0.4296  1.6030  0.3507
 6038SOL    HW229748   2.955   0.639   4.188  0.1041  0.6921  0.5898
 6039SOL     OW29749   4.643   3.226   7.086 -0.7304 -0.2603 -0.2643
 6039SOL    HW129750   4.569   3.181   7.046 -1.2338 -1.1670  1.6962
 6039SOL    HW229751   4.657   3.304   7.032 -2.9060  2.2514  2.7942
 6040SOL     OW29752   1.792   2.404  12.203  0.0113 -0.2623  0.7470
 6040SOL    HW129753   1.817   2.459  12.278 -0.5571  2.1126 -0.8056
 6040SOL    HW229754   1.845   2.326  12.223  0.0665 -0.1205  1.1726
 6041SOL     OW29755   1.235   4.375   3.336  0.4962  0.0977 -0.4672
 6041SOL    HW129756   1.200   4.340   3.417  0.5706  1.5537  0.1960
 6041SOL    HW229757   1.310   4.426   3.367 -0.4809  0.8294  0.6778
 6042SOL     OW29758   2.488   3.911  16.224  0.5183 -0.4461 -0.1232
 6042SOL    HW129759   2.476   3.959  16.305 -0.7101 -1.3999  0.2611
 6042SOL    HW229760   2.400   3.874  16.213 -0.3964  2.3727 -2.2328
 6043SOL     OW29761   1.303   3.691  11.706 -0.0997 -0.5570 -0.2577
 6043SOL    HW129762   1.236   3.656  11.647 -1.3227 -1.0694  1.4104
 6043SOL    HW229763   1.341   3.607  11.734  1.1033 -0.1216 -0.5844
 6044SOL     OW29764   2.044   4.441   5.502 -0.1495  0.1131 -0.2576
 6044SOL    HW129765   2.003   4.356   5.488 -1.4544  0.9084 -1.1908
 6044SOL    HW229766   2.087   4.448   5.416 -2.3284 -0.9059 -1.4290
 6045SOL     OW29767   2.993   1.444   8.717  0.6187 -0.3008 -0.1263
 6045SOL    HW129768   3.052   1.427   8.790  0.3811  0.1765  0.1759
 6045SOL    HW229769   2.929   1.500   8.761  0.7549 -0.2586  0.0160
 6046SOL     OW29770   3.336   2.045   2.208 -0.5578 -0.6166 -0.3703
 6046SOL    HW129771   3.375   1.966   2.171 -2.0486 -0.7381 -1.7189
 6046SOL    HW229772   3.397   2.066   2.278 -0.0849  0.5432 -1.1299
 6047SOL     OW29773   1.843   1.470  14.686 -0.0143  0.4171 -0.1535
 6047SOL    HW129774   1.832   1.424  14.603  0.8206 -1.5233  0.8174
 6047SOL    HW229775   1.784   1.413  14.735  0.8394 -1.9782 -1.9129
 6048SOL     OW29776   2.143   2.204   1.354 -0.1231  0.0217  0.0985
 6048SOL    HW129777   2.179   2.221   1.267  0.7944 -0.5496  0.3735
 6048SOL    HW229778   2.050   2.191   1.334  0.0401 -2.4259  0.9813
 6049SOL     OW29779   3.173   4.715   6.739 -0.7664  0.4972  0.6357
 6049SOL    HW129780   3.105   0.022   6.789 -1.2629  0.5104 -0.0489
 6049SOL    HW229781   3.130   4.671   6.665  2.2885 -1.2033 -0.1194
 6050SOL     OW29782   1.976   0.919   5.528 -0.3501  0.7150  0.0578
 6050SOL    HW129783   2.043   0.909   5.460 -1.1768  2.1271 -0.9765
 6050SOL    HW229784   2.037   0.956   5.592  0.5182  1.1748 -1.0370
 6051SOL     OW29785   4.206   2.433   5.782  0.1679 -0.2149  0.0387
 6051SOL    HW129786   4.295   2.412   5.809 -0.6624 -1.2021  1.9487
 6051SOL    HW229787   4.173   2.475   5.862  0.8171 -0.8570  0.6331
 6052SOL     OW29788   0.063   4.401   6.870  0.6631 -0.0175  0.2388
 6052SOL    HW129789   4.726   4.428   6.924 -0.6998  1.9430 -2.6120
 6052SOL    HW229790   0.134   4.386   6.932  0.0946  1.9759  1.3565
 6053SOL     OW29791   0.880   3.770  10.122 -0.0323  0.2276 -0.2438
 6053SOL    HW129792   0.975   3.769  10.108 -0.1015 -0.8342 -0.6385
 6053SOL    HW229793   0.866   3.784  10.216 -0.0942 -0.3803 -0.1622
 6054SOL     OW29794   0.794   3.516   9.436  0.2200  0.0579 -0.2051
 6054SOL    HW129795   0.719   3.469   9.473 -0.5944  0.2986 -1.5715
 6054SOL    HW229796   0.757   3.530   9.349 -0.5371  1.0157  0.2835
 6055SOL     OW29797   1.523   4.682   3.096  0.0142  0.3367 -0.2466
 6055SOL    HW129798   1.547   4.619   3.165  0.3857 -0.6541 -1.2853
 6055SOL    HW229799   1.445   4.636   3.065 -0.4687  0.4030  0.8541
 6056SOL     OW29800   2.038   2.068   8.940 -0.7157 -0.6862  0.5229
 6056SOL    HW129801   2.065   2.122   8.866 -0.3567 -1.1753  0.3002
 6056SOL    HW229802   2.124   2.036   8.967 -0.1960 -1.4798 -2.0669
 6057SOL     OW29803   4.265   2.765   5.534  0.2748  0.2730  0.3979
 6057SOL    HW129804   4.332   2.708   5.572 -1.3058 -1.2437  0.9465
 6057SOL    HW229805   4.291   2.844   5.580  1.8308 -0.4343  0.7391
 6058SOL     OW29806   1.673   1.734  17.268  0.4394  0.2654  0.2034
 6058SOL    HW129807   1.674   1.677  17.191  0.8629  0.6354 -0.0695
 6058SOL    HW229808   1.669   1.669  17.339 -2.5731 -0.3617 -0.5743
 6059SOL     OW29809   0.588   2.349   7.849  0.6789  0.0903 -0.3606
 6059SOL    HW129810   0.518   2.292   7.882 -0.6101  2.4005  0.8879
 6059SOL    HW229811   0.538   2.409   7.795 -0.4228 -1.6399 -1.2768
 6060SOL     OW29812   3.817   3.441   6.145  0.0928  0.1578  0.2743
 6060SOL    HW129813   3.737   3.487   6.119  0.5344  1.6297  1.5869
 6060SOL    HW229814   3.780   3.394   6.220  2.2554 -1.6271  0.2234
 6061SOL     OW29815   2.207   0.676   2.841  0.0707  0.0445  0.2325
 6061SOL    HW129816   2.125   0.631   2.861  1.1359 -2.2294 -0.6125
 6061SOL    HW229817   2.271   0.606   2.856  0.6708  0.0860 -2.2260
 6062SOL     OW29818   1.380   3.721  10.733  0.4316 -0.3184  0.2898
 6062SOL    HW129819   1.410   3.792  10.791 -0.7004  0.8562 -0.5927
 6062SOL    HW229820   1.319   3.767  10.676  1.5103  0.4081 -0.2762
 6063SOL     OW29821   0.150   0.682   5.510 -0.4985 -0.2724 -0.1442
 6063SOL    HW129822   0.106   0.617   5.455 -0.4826 -0.3977 -0.0089
 6063SOL    HW229823   0.114   0.646   5.591 -0.0952  1.7117  0.9072
 6064SOL     OW29824   4.009   3.548   3.582  0.2711 -0.3020 -0.0039
 6064SOL    HW129825   4.049   3.626   3.622  1.1817 -0.5250 -0.4978
 6064SOL    HW229826   4.079   3.516   3.526  0.8364  0.6133  0.1752
 6065SOL     OW29827   1.455   1.492   1.804  0.4161  0.3712  0.2755
 6065SOL    HW129828   1.548   1.499   1.823  0.5726 -1.3033  0.1461
 6065SOL    HW229829   1.424   1.449   1.883  1.4247 -0.1185  0.3918
 6066SOL     OW29830   1.597   4.495   8.112 -0.0478 -0.2584 -0.7014
 6066SOL    HW129831   1.685   4.531   8.102  0.6013 -1.4213  0.8399
 6066SOL    HW229832   1.552   4.537   8.039  0.3407 -1.3933 -1.5985
 6067SOL     OW29833   0.445   4.651  15.061 -0.2088 -0.2966  0.4279
 6067SOL    HW129834   0.482   4.611  14.982  2.4795 -1.3838  2.2303
 6067SOL    HW229835   0.381   4.714  15.027  1.5614  1.3481  0.1665
 6068SOL     OW29836   3.713   4.081   5.850  0.7630  0.3578 -0.1037
 6068SOL    HW129837   3.631   4.079   5.899  0.9064  0.3333  0.1332
 6068SOL    HW229838   3.670   4.057   5.767  0.3608 -0.3762  0.3198
 6069SOL     OW29839   2.465   0.770   8.060 -0.4653 -0.1034 -0.4712
 6069SOL    HW129840   2.423   0.789   7.976 -1.3595 -0.8501 -0.1995
 6069SOL    HW229841   2.401   0.713   8.102 -0.7621 -0.7384 -1.7511
 6070SOL     OW29842   4.680   4.392   3.786  0.9762 -0.4398  0.1512
 6070SOL    HW129843   4.701   4.393   3.880  0.9948 -1.5937  0.1606
 6070SOL    HW229844   4.588   4.368   3.777  1.0196 -0.4105 -0.3737
 6071SOL     OW29845   1.576   0.775   7.315  0.3830  0.0143 -0.3379
 6071SOL    HW129846   1.536   0.694   7.344 -0.2495  0.3342 -0.3224
 6071SOL    HW229847   1.545   0.781   7.225 -1.4118 -2.1144  0.1462
 6072SOL     OW29848   1.130   3.299   6.158  0.0338  0.0857 -0.0040
 6072SOL    HW129849   1.133   3.307   6.063 -1.6032  2.1255  0.1146
 6072SOL    HW229850   1.202   3.245   6.189 -1.3813 -1.6317  0.2767
 6073SOL     OW29851   2.664   1.658  17.193 -0.2512 -0.2414 -0.2504
 6073SOL    HW129852   2.685   1.732  17.136  1.9001 -0.8565 -0.2251
 6073SOL    HW229853   2.623   1.714  17.258 -0.9005  1.3338 -2.0048
 6074SOL     OW29854   4.171   0.200   7.555  0.5780  0.4003 -0.0009
 6074SOL    HW129855   4.126   0.284   7.562  0.2422  0.2778 -0.7297
 6074SOL    HW229856   4.094   0.143   7.555  1.0811 -0.2843  0.3215
 6075SOL     OW29857   0.832   3.447   8.762  0.1869 -0.7232 -0.1749
 6075SOL    HW129858   0.856   3.509   8.831 -1.5895 -0.3014  0.0613
 6075SOL    HW229859   0.808   3.368   8.810  0.0978 -1.3562 -1.2628
 6076SOL     OW29860   1.423   0.794  11.105  0.2071 -0.1000  0.9004
 6076SOL    HW129861   1.328   0.784  11.095  0.2945  1.5149 -1.5517
 6076SOL    HW229862   1.426   0.850  11.027 -2.3455 -1.9394 -0.5189
 6077SOL     OW29863   1.877   1.189   0.004  0.5021  0.4909 -0.1211
 6077SOL    HW129864   1.904   1.098   0.020  1.0718  0.4897 -1.1003
 6077SOL    HW229865   1.793   1.180  17.707 -0.9424  0.3589  2.7156
 6078SOL     OW29866   3.276   1.778  17.179 -0.1821 -0.2653 -0.3645
 6078SOL    HW129867   3.226   1.812  17.105 -0.3217  1.4311  0.5086
 6078SOL    HW229868   3.212   1.726  17.228  1.7791 -2.2290  0.0722
 6079SOL     OW29869   2.326   0.330   4.755 -0.0557 -0.0681 -0.3356
 6079SOL    HW129870   2.265   0.347   4.827  0.7462 -0.5494  0.4462
 6079SOL    HW229871   2.404   0.385   4.759  0.1838 -0.3356 -1.2724
 6080SOL     OW29872   2.550   0.480   4.452  0.8224  0.0226 -0.0070
 6080SOL    HW129873   2.502   0.524   4.381 -0.1270 -0.6390  0.2248
 6080SOL    HW229874   2.643   0.502   4.452  0.5258  1.2801  0.7086
 6081SOL     OW29875   1.929   0.980  15.540  0.0357  0.5962 -0.0947
 6081SOL    HW129876   1.932   0.968  15.635 -1.0236  0.3992 -0.0864
 6081SOL    HW229877   2.016   1.011  15.517 -0.6573  1.7133 -1.2565
 6082SOL     OW29878   2.171   3.962  14.434 -0.2141  0.2435  0.3930
 6082SOL    HW129879   2.200   3.979  14.345  0.5695  1.5205  0.8999
 6082SOL    HW229880   2.165   4.053  14.462  1.9552 -0.2452  2.4044
 6083SOL     OW29881   3.096   1.957   2.137 -0.0896  0.0022  0.5099
 6083SOL    HW129882   3.108   1.864   2.157 -1.6711 -0.5077 -0.9040
 6083SOL    HW229883   3.175   1.991   2.179 -1.1705  0.8758  1.8224
 6084SOL     OW29884   4.613   2.162  17.558  0.4140 -0.1488 -0.7916
 6084SOL    HW129885   4.585   2.087  17.506 -2.0864  0.4148 -0.2763
 6084SOL    HW229886   4.527   2.201  17.574 -0.3229 -2.5911  1.1432
 6085SOL     OW29887   0.655   2.445   9.283 -0.0741 -0.3577  0.0461
 6085SOL    HW129888   0.588   2.385   9.316  1.4515 -1.6512  0.7829
 6085SOL    HW229889   0.619   2.476   9.200  4.0360 -0.9323 -1.9487
 6086SOL     OW29890   3.519   4.690   5.570 -0.2408 -0.4959  0.1498
 6086SOL    HW129891   3.519   4.596   5.584 -0.5676 -0.4368  0.5531
 6086SOL    HW229892   3.562   4.695   5.485 -1.0599  0.1953 -0.2276
 6087SOL     OW29893   4.687   4.235   9.777  0.1958  0.1267 -0.3179
 6087SOL    HW129894   4.632   4.158   9.794 -0.5385  0.9093  0.8170
 6087SOL    HW229895   0.036   4.194   9.765 -0.0889 -1.2728  2.4557
 6088SOL     OW29896   2.146   0.004   7.234  0.4853 -0.2984  0.0672
 6088SOL    HW129897   2.183   4.655   7.216  2.3173  0.3467  0.8526
 6088SOL    HW229898   2.172   0.029   7.322  1.4502  3.8473 -1.3870
 6089SOL     OW29899   0.992   1.231   1.102  0.1024  0.0883  0.0818
 6089SOL    HW129900   1.050   1.261   1.173  0.1088  2.7214 -1.0604
 6089SOL    HW229901   0.926   1.300   1.100 -2.1015 -2.0444 -0.1084
 6090SOL     OW29902   0.122   4.399  13.387 -0.2619 -0.3709 -0.0832
 6090SOL    HW129903   0.158   4.359  13.466 -0.1242  0.8343  0.4553
 6090SOL    HW229904   0.189   4.467  13.389  0.0784 -0.6055 -3.7259
 6091SOL     OW29905   3.112   3.873  17.579  0.0801  0.3875  0.8503
 6091SOL    HW129906   3.051   3.802  17.560  0.0102  0.8729 -0.7820
 6091SOL    HW229907   3.053   3.945  17.601 -0.2807 -0.3756  2.4225
 6092SOL     OW29908   3.003   0.594  15.109  1.4636 -0.5510  0.6723
 6092SOL    HW129909   2.933   0.606  15.173 -0.6038 -0.2535 -1.6482
 6092SOL    HW229910   2.981   0.663  15.046 -0.2952 -0.2749  1.5853
 6093SOL     OW29911   1.761   3.028   9.028 -0.0345  0.1643  0.2924
 6093SOL    HW129912   1.842   3.022   8.977  0.9173  1.3258  1.6646
 6093SOL    HW229913   1.735   2.936   9.019  1.6221 -0.2857  0.1809
 6094SOL     OW29914   3.524   3.671  14.485  0.2214 -0.3347 -0.1611
 6094SOL    HW129915   3.491   3.584  14.506 -1.3158  0.5607  1.1562
 6094SOL    HW229916   3.533   3.701  14.575 -4.5317 -1.2672  0.6464
 6095SOL     OW29917   4.070   0.236   6.754 -0.0208  0.2023 -0.1233
 6095SOL    HW129918   4.056   0.203   6.665  1.0373  0.0433 -0.2253
 6095SOL    HW229919   4.090   0.155   6.800 -1.3555 -0.7035 -1.1234
 6096SOL     OW29920   2.161   3.026  13.987 -0.0813  1.4060  0.1018
 6096SOL    HW129921   2.206   3.013  14.070 -0.7838 -1.9134 -0.0611
 6096SOL    HW229922   2.184   2.949  13.935 -2.0615 -0.2069  1.6373
 6097SOL     OW29923   1.753   3.563   4.415 -0.0766  0.4687 -0.1246
 6097SOL    HW129924   1.715   3.478   4.436 -0.3405  0.8666  0.9785
 6097SOL    HW229925   1.802   3.547   4.334  1.2870  1.3088  0.5369
 6098SOL     OW29926   4.524   2.827  17.311 -0.5746 -0.1291 -0.1112
 6098SOL    HW129927   4.590   2.759  17.299 -0.2308  0.1852  0.0184
 6098SOL    HW229928   4.505   2.822  17.405  2.0249 -0.4947  0.3808
 6099SOL     OW29929   2.250   2.983   4.238  0.1145  0.4450 -0.4870
 6099SOL    HW129930   2.283   2.934   4.313 -1.1267  0.1957 -0.0913
 6099SOL    HW229931   2.212   2.905   4.198 -1.9402  0.8716  0.6102
 6100SOL     OW29932   0.325   2.704  10.787  0.5621  0.0069  0.4498
 6100SOL    HW129933   0.409   2.749  10.777  1.5726 -1.9612  0.0254
 6100SOL    HW229934   0.302   2.700  10.694  2.5030 -2.9792  0.0815
 6101SOL     OW29935   1.557   1.400   3.439  0.2839 -0.1425 -0.5351
 6101SOL    HW129936   1.601   1.346   3.374 -1.4198 -0.8543 -1.0787
 6101SOL    HW229937   1.622   1.470   3.448 -1.1897  1.1907 -0.3999
 6102SOL     OW29938   0.194   0.982   8.165 -0.4656  0.0541  0.4585
 6102SOL    HW129939   0.201   1.039   8.088  2.6821 -0.0976  0.6441
 6102SOL    HW229940   0.262   1.017   8.222 -0.5532  0.3348  0.3909
 6103SOL     OW29941   2.437   0.966   5.190  0.0908  0.0725  0.1953
 6103SOL    HW129942   2.388   0.901   5.140  0.5019  0.4085 -0.6606
 6103SOL    HW229943   2.515   0.970   5.135  0.0769  0.0282  0.1720
 6104SOL     OW29944   2.763   3.967   4.495  0.1381  0.4525  0.0340
 6104SOL    HW129945   2.781   3.878   4.465 -2.3593 -0.2592  0.6156
 6104SOL    HW229946   2.677   3.976   4.453  1.2343  1.1796 -2.0818
 6105SOL     OW29947   1.295   3.901   0.764  0.7415  0.1144  0.2085
 6105SOL    HW129948   1.272   3.843   0.836 -1.0452 -0.3163 -0.7055
 6105SOL    HW229949   1.217   3.908   0.709  1.2616 -0.9560 -0.6748
 6106SOL     OW29950   3.350   2.135   3.194  0.1480  0.3333  0.2881
 6106SOL    HW129951   3.282   2.089   3.144  0.8902 -0.0547 -0.3684
 6106SOL    HW229952   3.365   2.219   3.152 -1.4179  0.9743  0.9963
 6107SOL     OW29953   0.947   2.158   4.574 -0.7805  0.4350 -0.7714
 6107SOL    HW129954   1.033   2.200   4.581 -1.0663  1.2257 -1.9847
 6107SOL    HW229955   0.964   2.073   4.614 -1.6972  1.2875  1.4453
 6108SOL     OW29956   0.963   1.379   4.944 -0.1955 -0.4362 -0.3937
 6108SOL    HW129957   0.952   1.287   4.967  1.4554 -0.2264  1.2528
 6108SOL    HW229958   1.033   1.408   5.003 -0.8233  2.0602 -0.8834
 6109SOL     OW29959   0.269   2.206   9.630 -0.7232  0.4131 -0.1722
 6109SOL    HW129960   0.237   2.180   9.544  1.4867 -0.2595 -0.7945
 6109SOL    HW229961   0.237   2.136   9.687  0.6673  0.2829  0.4528
 6110SOL     OW29962   4.715   3.058  16.673 -0.1157  0.5195 -0.4918
 6110SOL    HW129963   4.700   3.139  16.722 -0.2020  0.6065 -0.6620
 6110SOL    HW229964   4.728   3.088  16.583 -1.3155  3.3729  0.2683
 6111SOL     OW29965   3.333   2.898   3.052  0.2082 -0.7014  0.4119
 6111SOL    HW129966   3.352   2.938   3.137 -0.1772  2.9939 -1.2319
 6111SOL    HW229967   3.304   2.961   2.986  0.5881 -0.1072  0.8150
 6112SOL     OW29968   4.330   4.563   2.916 -0.7919 -0.2009  0.4927
 6112SOL    HW129969   4.339   4.656   2.933 -0.1735  0.1482 -1.7706
 6112SOL    HW229970   4.240   4.552   2.949 -0.6258 -1.3518  0.5635
 6113SOL     OW29971   3.165   3.664   7.931 -0.2790 -0.5223  0.1585
 6113SOL    HW129972   3.207   3.740   7.972 -0.1760 -0.7775  0.5332
 6113SOL    HW229973   3.077   3.690   7.957 -0.6868 -1.8102  0.0374
 6114SOL     OW29974   1.799   0.470  14.737 -0.1142 -0.3551  0.4967
 6114SOL    HW129975   1.707   0.462  14.759 -0.1274 -1.4488  0.0627
 6114SOL    HW229976   1.818   0.377  14.722  0.0174  0.0407 -1.7016
 6115SOL     OW29977   1.097   2.745   2.928  0.1707 -0.0213 -0.1758
 6115SOL    HW129978   1.074   2.710   3.014 -0.6552 -0.9956 -0.7961
 6115SOL    HW229979   1.151   2.674   2.892 -0.0347 -0.3292  0.1299
 6116SOL     OW29980   1.165   3.048   8.943 -0.7165  0.8354  0.6672
 6116SOL    HW129981   1.211   3.054   9.026 -0.4811 -1.2545  0.6910
 6116SOL    HW229982   1.189   3.127   8.895 -0.6783 -0.2910 -1.1554
 6117SOL     OW29983   4.062   3.226  14.461 -0.8736  0.0627 -0.0201
 6117SOL    HW129984   4.033   3.196  14.547  1.7755 -1.4548  0.3548
 6117SOL    HW229985   4.050   3.320  14.471  2.4499  0.2402  2.5046
 6118SOL     OW29986   2.683   1.380  15.699 -0.0278  0.0820  0.3807
 6118SOL    HW129987   2.772   1.378  15.734  0.4364  4.4125 -0.5424
 6118SOL    HW229988   2.668   1.291  15.665 -0.0717  0.7838 -1.4109
 6119SOL     OW29989   3.615   1.499  15.987 -0.1975  0.3593 -0.6768
 6119SOL    HW129990   3.653   1.518  15.901  2.6931  0.4643  0.6357
 6119SOL    HW229991   3.543   1.561  15.971  0.9697  2.1084  0.9001
 6120SOL     OW29992   1.948   2.478  11.214  0.5848 -0.0139  0.6868
 6120SOL    HW129993   1.870   2.442  11.256  1.3121  1.4737  3.2858
 6120SOL    HW229994   1.910   2.522  11.138 -1.1508 -2.2951  0.2319
 6121SOL     OW29995   0.595   0.870   2.289 -0.3605  0.7900  0.6816
 6121SOL    HW129996   0.550   0.832   2.364  0.7297 -0.9166  0.4901
 6121SOL    HW229997   0.554   0.826   2.214  1.9494  0.5555 -0.4691
 6122SOL     OW29998   3.718   1.568   8.843  0.4135 -0.4261  0.4071
 6122SOL    HW129999   3.708   1.639   8.780 -2.6590 -2.2051 -1.1663
 6122SOL    HW230000   3.806   1.537   8.822  1.3186  1.1662  1.9374
 6123SOL     OW30001   0.402   0.353   5.260  0.0329 -0.6757 -0.0786
 6123SOL    HW130002   0.436   0.382   5.345 -1.0554 -0.5107  0.3011
 6123SOL    HW230003   0.328   0.412   5.246 -0.3831 -0.9504  0.9453
 6124SOL     OW30004   1.261   3.479  10.404 -0.0897  0.0127  0.3419
 6124SOL    HW130005   1.318   3.432  10.465  0.1601 -0.0857  0.0266
 6124SOL    HW230006   1.319   3.543  10.364 -0.8313 -0.7892 -2.0190
 6125SOL     OW30007   3.991   1.819  14.334 -0.3310  0.0513 -0.4604
 6125SOL    HW130008   3.959   1.753  14.272 -0.7326  0.2206 -0.4265
 6125SOL    HW230009   3.909   1.830  14.380 -0.7385 -2.0492 -0.6827
 6126SOL     OW30010   1.464   4.514   0.840  0.0238 -0.5596 -0.0431
 6126SOL    HW130011   1.475   4.423   0.870 -1.0998 -0.3272  1.0705
 6126SOL    HW230012   1.429   4.497   0.753 -2.0488  0.0124  0.6734
 6127SOL     OW30013   3.036   0.492   7.502  0.9573 -0.2833  0.3871
 6127SOL    HW130014   3.000   0.570   7.544 -0.0954 -1.5683  1.8741
 6127SOL    HW230015   3.106   0.458   7.557  1.4246 -0.5263 -0.3655
 6128SOL     OW30016   3.769   3.826   6.990  0.1320  0.0516  0.4294
 6128SOL    HW130017   3.750   3.894   7.055 -1.9252  0.0630 -0.1881
 6128SOL    HW230018   3.841   3.775   7.028  0.9458 -0.4564 -1.7284
 6129SOL     OW30019   1.041   4.525  17.610 -0.2045  0.1827 -0.8422
 6129SOL    HW130020   1.074   4.448  17.564 -0.5561 -0.3420 -0.2160
 6129SOL    HW230021   0.990   4.566  17.540 -0.6500  0.8522 -0.1231
 6130SOL     OW30022   0.557   1.088   8.088 -0.1463 -0.2705 -0.3074
 6130SOL    HW130023   0.629   1.109   8.147 -1.0858  1.9927  0.0439
 6130SOL    HW230024   0.484   1.109   8.147 -1.4783 -1.8037 -1.3940
 6131SOL     OW30025   3.504   1.340   8.950 -0.4235 -0.5690  0.1864
 6131SOL    HW130026   3.531   1.282   9.020 -0.3210 -1.4065 -0.5496
 6131SOL    HW230027   3.506   1.278   8.877 -1.1397 -1.7314  1.1462
 6132SOL     OW30028   2.909   0.224   6.523 -0.0647 -0.2097 -0.3044
 6132SOL    HW130029   2.892   0.153   6.461 -1.1443 -0.8406  0.7308
 6132SOL    HW230030   2.830   0.223   6.577  0.0288 -0.3478 -0.1691
 6133SOL     OW30031   4.283   0.885  12.371  0.5125  0.0703 -0.0888
 6133SOL    HW130032   4.249   0.796  12.371 -0.4421  0.4320 -1.7504
 6133SOL    HW230033   4.335   0.874  12.292  0.3243  0.2932 -0.2437
 6134SOL     OW30034   3.036   1.889  14.047 -0.0671  0.0293 -0.4182
 6134SOL    HW130035   2.998   1.875  13.960 -0.5948 -2.6641  0.2504
 6134SOL    HW230036   2.962   1.868  14.103  0.3308 -1.5317 -0.4852
 6135SOL     OW30037   2.416   0.179   5.355 -0.1393  0.0883  0.3109
 6135SOL    HW130038   2.481   0.112   5.333 -0.2704  0.2696 -0.6135
 6135SOL    HW230039   2.435   0.198   5.447 -0.2982 -1.9426  0.7675
 6136SOL     OW30040   2.800   4.348   4.619 -0.6559  0.5760 -0.4289
 6136SOL    HW130041   2.790   4.258   4.587  3.7797  0.1326 -0.4798
 6136SOL    HW230042   2.837   4.328   4.704  2.1200  2.2155 -1.2519
 6137SOL     OW30043   0.513   3.599   4.807  0.9593  0.0985  0.1143
 6137SOL    HW130044   0.606   3.577   4.814  0.9567  0.6095  1.7226
 6137SOL    HW230045   0.514   3.682   4.855  0.8167 -0.5317  1.1919
 6138SOL     OW30046   3.792   0.877   4.926 -0.4476 -0.2183 -0.1281
 6138SOL    HW130047   3.799   0.915   5.014 -0.8500  0.1656 -0.2620
 6138SOL    HW230048   3.767   0.787   4.951  1.3535 -0.7236 -0.1499
 6139SOL     OW30049   3.739   2.414   7.933  0.1385  0.3451  0.0897
 6139SOL    HW130050   3.689   2.408   7.852  1.8229 -0.1195 -0.9288
 6139SOL    HW230051   3.794   2.335   7.934 -0.4299 -0.0576 -0.2579
 6140SOL     OW30052   4.023   2.757   4.692 -0.2054  0.1902 -0.1163
 6140SOL    HW130053   4.089   2.768   4.761 -0.0224 -1.0738 -0.0743
 6140SOL    HW230054   3.969   2.831   4.721  0.9479  1.0820 -0.2698
 6141SOL     OW30055   1.958   3.331  16.819  0.4963  0.5296  0.2931
 6141SOL    HW130056   2.021   3.398  16.794  1.5926  0.0770  1.9046
 6141SOL    HW230057   1.961   3.354  16.912  1.8419  0.1887  0.3266
 6142SOL     OW30058   2.278   2.029  10.287  0.5313 -0.1878 -0.0724
 6142SOL    HW130059   2.363   2.074  10.286 -0.8989  2.5306  1.6463
 6142SOL    HW230060   2.231   2.089  10.344  1.4960  1.8382 -1.3959
 6143SOL     OW30061   0.385   2.776   2.814  0.1753 -0.8100 -0.1914
 6143SOL    HW130062   0.320   2.785   2.744  0.6807  0.7042 -0.4692
 6143SOL    HW230063   0.457   2.749   2.758  0.9249  1.3083 -0.2470
 6144SOL     OW30064   0.742   1.037   4.822  0.2067  0.1075  0.2012
 6144SOL    HW130065   0.718   1.128   4.805 -0.1085 -0.5446 -2.9733
 6144SOL    HW230066   0.679   1.008   4.888  0.1531 -0.6810 -0.1914
 6145SOL     OW30067   1.652   2.230  11.269  0.2305 -0.5229  0.6043
 6145SOL    HW130068   1.617   2.241  11.180 -2.0420  0.0743  1.5882
 6145SOL    HW230069   1.590   2.266  11.331 -1.0812 -0.7837 -0.5438
 6146SOL     OW30070   0.605   0.065   5.674  0.6831 -0.1963  0.8288
 6146SOL    HW130071   0.611   4.729   5.612  3.8368  0.0065  0.9138
 6146SOL    HW230072   0.570   0.018   5.750  1.2784 -1.0250  0.5910
 6147SOL     OW30073   0.271   2.378   2.803  0.0791  0.6998  0.0995
 6147SOL    HW130074   0.294   2.459   2.848  0.8551  1.6088 -1.9017
 6147SOL    HW230075   0.324   2.390   2.724 -1.4662  3.1808 -0.5584
 6148SOL     OW30076   4.293   3.513   9.204  0.3893  0.1585  0.6076
 6148SOL    HW130077   4.325   3.423   9.198  0.9518  0.5570 -2.4423
 6148SOL    HW230078   4.199   3.505   9.191  0.4157  0.6546  0.0983
 6149SOL     OW30079   4.288   2.864   8.310  0.1909  0.0958  0.0594
 6149SOL    HW130080   4.376   2.838   8.281  0.1020  0.3794 -0.4665
 6149SOL    HW230081   4.261   2.799   8.375  0.2779 -2.0820 -2.1098
 6150SOL     OW30082   3.639   0.457   9.029 -0.3542 -0.1778  0.1970
 6150SOL    HW130083   3.622   0.463   8.935  3.4402  0.2600 -0.4581
 6150SOL    HW230084   3.734   0.462   9.021 -0.4619 -1.3382 -1.8070
 6151SOL     OW30085   0.967   1.602   9.370  0.1277  0.1603  0.2720
 6151SOL    HW130086   1.056   1.587   9.339 -0.0244  0.5629 -0.3465
 6151SOL    HW230087   0.953   1.682   9.320 -2.3841 -0.9111 -0.7507
 6152SOL     OW30088   1.373   4.471   0.580  0.4530 -0.5131  0.7311
 6152SOL    HW130089   1.318   4.405   0.537  0.4095 -0.0351  0.0456
 6152SOL    HW230090   1.461   4.444   0.552 -0.2566 -1.7711 -0.3138
 6153SOL     OW30091   1.000   4.500   7.012 -0.3589 -0.3807 -0.0765
 6153SOL    HW130092   0.936   4.460   6.953  1.2363 -1.7337 -0.8897
 6153SOL    HW230093   0.934   4.546   7.063  0.2776 -0.3487  0.7228
 6154SOL     OW30094   0.866   1.919   3.988 -0.3465  0.3880  0.2661
 6154SOL    HW130095   0.955   1.897   3.960 -0.4738  0.1562  0.0388
 6154SOL    HW230096   0.879   1.993   4.047  0.7372 -0.2598  0.8459
 6155SOL     OW30097   3.256   3.455   9.896 -0.2405  0.3913  0.5752
 6155SOL    HW130098   3.177   3.507   9.916 -0.0668  0.4555  1.1057
 6155SOL    HW230099   3.233   3.373   9.942  2.9306  0.5195  2.3913
 6156SOL     OW30100   3.458   0.611  15.537 -0.2776 -0.5171 -0.5928
 6156SOL    HW130101   3.412   0.694  15.533  0.8476  0.0898 -0.8225
 6156SOL    HW230102   3.477   0.604  15.631  2.5770 -1.3508 -1.2324
 6157SOL     OW30103   0.462   1.926   5.840 -0.1516  0.7279 -0.5342
 6157SOL    HW130104   0.506   2.004   5.875 -1.2003  0.7987  0.6330
 6157SOL    HW230105   0.387   1.961   5.792 -0.5833 -0.4874 -0.7512
 6158SOL     OW30106   2.542   2.995  10.946  0.6025 -0.3859  0.5871
 6158SOL    HW130107   2.618   2.959  10.901 -1.7237 -3.2371 -0.9839
 6158SOL    HW230108   2.483   2.921  10.956 -0.6197  0.8351  2.4295
 6159SOL     OW30109   1.837   2.150   3.132  0.0603 -0.1000 -0.3942
 6159SOL    HW130110   1.865   2.092   3.061  2.0992  0.3774  0.0382
 6159SOL    HW230111   1.864   2.232   3.092 -0.7874  0.1302 -0.5042
 6160SOL     OW30112   1.183   3.360  15.016 -0.6225  0.6235 -0.2656
 6160SOL    HW130113   1.097   3.319  15.016 -0.2910 -0.0615 -0.3276
 6160SOL    HW230114   1.183   3.395  14.927  0.3473 -1.1830 -0.9606
 6161SOL     OW30115   4.562   2.591  10.412 -0.2657 -0.1228 -0.3085
 6161SOL    HW130116   4.595   2.535  10.342  3.5162  1.7110  0.0144
 6161SOL    HW230117   4.519   2.657  10.359 -0.8258  2.3079  3.2132
 6162SOL     OW30118   0.898   2.587   8.127 -0.1492  0.1363 -0.1718
 6162SOL    HW130119   0.912   2.681   8.119 -1.0471  0.3302  0.5070
 6162SOL    HW230120   0.860   2.579   8.039  0.9405 -1.6180 -0.4718
 6163SOL     OW30121   0.361   3.755   8.825  0.0460 -0.2544  0.4001
 6163SOL    HW130122   0.367   3.821   8.894  3.1491 -0.5042  0.3584
 6163SOL    HW230123   0.357   3.671   8.870 -0.7619 -0.5651 -0.2437
 6164SOL     OW30124   3.607   0.832   7.869  0.0635  0.2931  0.0771
 6164SOL    HW130125   3.574   0.802   7.954  1.2118 -0.0462  0.4025
 6164SOL    HW230126   3.616   0.750   7.822 -1.7037  1.0760 -1.6078
 6165SOL     OW30127   0.652   3.657   5.328 -0.3470 -0.1161 -0.0997
 6165SOL    HW130128   0.716   3.727   5.334  1.0816 -1.1471 -3.3277
 6165SOL    HW230129   0.658   3.623   5.239  1.4726  1.3641 -0.5443
 6166SOL     OW30130   4.223   0.752   4.176  0.1618  0.0463 -0.5080
 6166SOL    HW130131   4.285   0.824   4.190  0.7848 -0.7600  0.8148
 6166SOL    HW230132   4.139   0.792   4.197  0.0714  0.1133 -0.9968
 6167SOL     OW30133   0.561   4.528   2.904  0.0609  0.1046 -0.3957
 6167SOL    HW130134   0.655   4.508   2.910  0.1407  0.3607 -0.8008
 6167SOL    HW230135   0.549   4.530   2.809 -1.4547 -1.4633 -0.2437
 6168SOL     OW30136   0.828   2.500   4.507  0.0516  0.0004 -0.3044
 6168SOL    HW130137   0.790   2.583   4.535  0.9569  0.3828 -0.2216
 6168SOL    HW230138   0.880   2.474   4.582 -1.8812  0.0777  1.0748
 6169SOL     OW30139   0.903   2.854   4.792 -0.8342 -0.2470  0.2785
 6169SOL    HW130140   0.845   2.822   4.861  0.6318  1.9325  2.4943
 6169SOL    HW230141   0.985   2.810   4.812 -0.7598 -0.3256 -0.1945
 6170SOL     OW30142   0.724   1.494   1.708 -0.0070 -0.6287 -0.3384
 6170SOL    HW130143   0.766   1.553   1.646  0.6331 -2.7073 -1.8808
 6170SOL    HW230144   0.761   1.409   1.686  3.3167  0.7693 -0.0675
 6171SOL     OW30145   0.772   1.324   3.343  0.1241 -0.4329  0.5165
 6171SOL    HW130146   0.863   1.330   3.370  0.4225 -4.4377  0.4651
 6171SOL    HW230147   0.729   1.374   3.413  1.6156  0.2036  0.9719
 6172SOL     OW30148   3.560   1.659   8.500  0.1067 -1.0744 -0.3630
 6172SOL    HW130149   3.494   1.620   8.558  0.5971 -0.9876  0.2508
 6172SOL    HW230150   3.633   1.600   8.518  0.6233  0.7729  3.5253
 6173SOL     OW30151   1.093   0.854   6.983  0.8012 -0.0186 -0.0683
 6173SOL    HW130152   1.104   0.779   7.042  2.1621  1.3076  1.3301
 6173SOL    HW230153   1.125   0.931   7.029 -1.5940  0.6677  0.4261
 6174SOL     OW30154   4.466   3.834   4.727  0.0684  0.0998 -0.0774
 6174SOL    HW130155   4.451   3.767   4.794  1.8512 -1.0178 -0.7999
 6174SOL    HW230156   4.538   3.888   4.760  0.0828  1.5049 -2.4121
 6175SOL     OW30157   0.751   2.635   3.497 -0.1455  0.7624  0.0708
 6175SOL    HW130158   0.838   2.619   3.462  0.5725  2.1038  1.1988
 6175SOL    HW230159   0.740   2.555   3.547  2.5452  1.1963  1.3651
 6176SOL     OW30160   1.782   1.129   3.615 -0.4115 -0.2152 -0.5853
 6176SOL    HW130161   1.739   1.125   3.530  0.7656  1.1924 -1.2323
 6176SOL    HW230162   1.830   1.211   3.608  0.5598 -0.7791 -0.5576
 6177SOL     OW30163   0.731   1.887  16.239  0.2490 -0.3405  0.0033
 6177SOL    HW130164   0.717   1.975  16.206  0.5836 -1.2801 -2.6045
 6177SOL    HW230165   0.728   1.836  16.158  1.2054 -0.1163 -0.1732
 6178SOL     OW30166   2.359   3.748   8.894 -0.1056  0.2888  0.6585
 6178SOL    HW130167   2.435   3.690   8.881 -0.6389  0.1154 -1.7240
 6178SOL    HW230168   2.296   3.691   8.938 -0.1341 -0.7673 -0.7260
 6179SOL     OW30169   1.672   2.762   7.926 -0.3725 -0.1689  0.0009
 6179SOL    HW130170   1.659   2.685   7.869  0.9600 -0.5174  0.1637
 6179SOL    HW230171   1.585   2.800   7.936 -0.0136  0.3262  1.1599
 6180SOL     OW30172   3.912   3.112   7.567 -0.0180  0.2334  0.0939
 6180SOL    HW130173   3.978   3.147   7.627  0.6265  0.7007 -0.8767
 6180SOL    HW230174   3.838   3.134   7.623 -0.8904 -0.3156 -0.8550
 6181SOL     OW30175   2.318   0.701   4.530  0.2103  0.1359  0.0409
 6181SOL    HW130176   2.335   0.620   4.481 -2.1500  0.1422 -0.7573
 6181SOL    HW230177   2.335   0.670   4.619  1.7357  0.4237 -0.1392
 6182SOL     OW30178   2.743   1.580   4.647  0.8406 -0.6180  0.3778
 6182SOL    HW130179   2.790   1.581   4.731  2.4047  3.6485 -0.5816
 6182SOL    HW230180   2.809   1.621   4.592  1.4412 -0.3891  1.2531
 6183SOL     OW30181   3.204   1.554   3.916 -0.0075 -0.5466  0.0484
 6183SOL    HW130182   3.292   1.586   3.899 -0.6998  1.2680 -0.1334
 6183SOL    HW230183   3.167   1.640   3.938 -1.7418 -0.7713 -2.0131
 6184SOL     OW30184   2.720   4.607  15.583  0.3065  0.2594  0.4992
 6184SOL    HW130185   2.644   4.625  15.528  1.7464  1.5259 -1.0709
 6184SOL    HW230186   2.751   4.696  15.597 -1.3526  0.7528  1.0263
 6185SOL     OW30187   1.621   1.672  17.649 -0.3975 -0.0949 -0.4763
 6185SOL    HW130188   1.640   1.682  17.742 -0.4987 -1.2096 -0.3340
 6185SOL    HW230189   1.671   1.748  17.618 -0.0755  0.1817  0.7238
 6186SOL     OW30190   1.503   3.317  13.107 -0.1928 -0.1909  0.2265
 6186SOL    HW130191   1.516   3.348  13.018  0.5360  1.2338  0.8253
 6186SOL    HW230192   1.554   3.236  13.108  0.4952  0.2407 -0.2515
 6187SOL     OW30193   2.094   2.258   2.110 -0.3208  0.3638 -0.0300
 6187SOL    HW130194   2.161   2.274   2.176 -0.9067  2.3884  0.0722
 6187SOL    HW230195   2.141   2.194   2.057 -0.2881 -0.0360  0.4847
 6188SOL     OW30196   0.638   0.499   1.063 -0.2290 -0.0800  0.4662
 6188SOL    HW130197   0.699   0.429   1.087 -0.8648 -0.6577  0.3916
 6188SOL    HW230198   0.686   0.521   0.983 -1.7677  0.1592 -0.3872
 6189SOL     OW30199   3.790   0.315   2.506 -0.3110 -0.3879  0.1101
 6189SOL    HW130200   3.862   0.252   2.504  1.4440  1.6366 -0.9400
 6189SOL    HW230201   3.832   0.396   2.535  1.1246 -0.6004 -1.3488
 6190SOL     OW30202   2.142   3.661  11.081  0.8042 -0.2091  0.1351
 6190SOL    HW130203   2.164   3.569  11.073  0.1272 -0.3749  0.1688
 6190SOL    HW230204   2.074   3.659  11.148 -0.4075 -0.0410 -1.0722
 6191SOL     OW30205   2.183   0.401   6.258  0.4419  0.1843 -0.2010
 6191SOL    HW130206   2.161   0.450   6.179  1.0009  1.6799  0.5594
 6191SOL    HW230207   2.145   0.465   6.319  0.6611 -1.2624  1.4443
 6192SOL     OW30208   0.746   1.901   7.871  0.5880 -0.3757 -0.2101
 6192SOL    HW130209   0.773   1.859   7.789 -2.1098 -3.4357  0.4508
 6192SOL    HW230210   0.802   1.978   7.875  0.1290 -0.0270 -0.4511
 6193SOL     OW30211   0.440   3.936   9.061 -0.2927 -0.1644  0.0848
 6193SOL    HW130212   0.352   3.925   9.095  0.0738 -2.0885  0.3942
 6193SOL    HW230213   0.469   3.999   9.126  0.5227  0.4194 -0.8387
 6194SOL     OW30214   1.471   1.419   7.918  0.0061  0.3955  0.4113
 6194SOL    HW130215   1.537   1.401   7.851 -0.8273 -2.7123  0.4106
 6194SOL    HW230216   1.518   1.476   7.979  0.1741  1.4077 -0.6702
 6195SOL     OW30217   1.233   3.978  17.178 -0.8394  0.3721  0.2725
 6195SOL    HW130218   1.141   3.961  17.198 -1.1010  1.3747 -0.0816
 6195SOL    HW230219   1.264   3.990  17.267 -3.2948 -0.3419  1.2279
 6196SOL     OW30220   3.660   0.159   0.615  0.3875  0.0997 -0.3548
 6196SOL    HW130221   3.632   0.247   0.591  0.8233  0.5706  0.8959
 6196SOL    HW230222   3.683   0.180   0.705  0.1368 -2.4829  0.3287
 6197SOL     OW30223   4.042   3.915   3.871 -0.4355 -0.1051  0.4304
 6197SOL    HW130224   4.095   3.964   3.808  0.9351  0.5849  2.1459
 6197SOL    HW230225   3.981   3.984   3.896 -1.4957 -0.5408 -0.9057
 6198SOL     OW30226   1.878   0.647  10.239 -0.1391  0.7234  0.2642
 6198SOL    HW130227   1.807   0.695  10.283 -0.9480  0.2278 -0.4944
 6198SOL    HW230228   1.873   0.692  10.155 -0.2392  0.6743  0.2439
 6199SOL     OW30229   1.109   1.312   9.107 -0.5312  0.3810 -0.2659
 6199SOL    HW130230   1.118   1.243   9.042 -0.9248  2.8182 -2.9214
 6199SOL    HW230231   1.020   1.294   9.137  0.3990 -0.2356  2.0939
 6200SOL     OW30232   4.599   0.642   2.932 -0.6466 -0.3113 -0.7835
 6200SOL    HW130233   4.576   0.729   2.963  0.2283 -0.0496 -0.8693
 6200SOL    HW230234   4.547   0.652   2.853 -0.1976 -0.3113 -1.0806
 6201SOL     OW30235   1.347   1.552  11.566  0.1209  0.0316  0.3255
 6201SOL    HW130236   1.274   1.563  11.504  0.5239  0.9817  0.0127
 6201SOL    HW230237   1.415   1.605  11.523  0.9202 -0.7625  0.6092
 6202SOL     OW30238   0.340   0.016  15.479  0.2013 -0.0218  0.4782
 6202SOL    HW130239   0.355   0.077  15.407  0.6107  0.9809  1.4150
 6202SOL    HW230240   0.421   0.015  15.530 -0.5687  0.3360  1.7063
 6203SOL     OW30241   2.325   1.879  17.236 -0.4969  0.0731 -0.1586
 6203SOL    HW130242   2.350   1.921  17.318  0.8312  2.3256 -1.7171
 6203SOL    HW230243   2.318   1.788  17.266 -0.0095 -0.0105 -0.2994
 6204SOL     OW30244   1.478   4.397   1.105  0.6283 -0.1706  0.1746
 6204SOL    HW130245   1.426   4.326   1.141 -0.0907 -0.1185 -0.7550
 6204SOL    HW230246   1.532   4.357   1.037  0.9912  2.4039 -1.0743
 6205SOL     OW30247   0.717   3.533   8.083  0.4365  0.2282  0.1090
 6205SOL    HW130248   0.629   3.501   8.065  0.4013 -0.7496  2.0542
 6205SOL    HW230249   0.723   3.558   8.175  2.9206 -0.1529  0.0524
 6206SOL     OW30250   2.384   4.660   9.848  0.7725  0.4572 -0.2036
 6206SOL    HW130251   2.468   4.696   9.876 -0.7102  2.8625  1.2348
 6206SOL    HW230252   2.361   4.613   9.929 -0.0817  0.1756 -0.6108
 6207SOL     OW30253   4.174   3.781   9.342 -0.3407 -0.0159  0.7040
 6207SOL    HW130254   4.125   3.701   9.361 -0.1629 -0.1879  0.4536
 6207SOL    HW230255   4.188   3.814   9.430  2.3601  1.5688 -0.3140
 6208SOL     OW30256   0.652   3.543  13.039 -0.7605  0.5304 -0.1656
 6208SOL    HW130257   0.651   3.447  13.031 -3.3568  0.7944 -3.2258
 6208SOL    HW230258   0.593   3.560  12.965  1.2144  0.6806 -1.7133
 6209SOL     OW30259   2.067   4.446   7.778  0.6383  0.5552  0.7721
 6209SOL    HW130260   2.029   4.533   7.792  0.0970  0.2883  0.9874
 6209SOL    HW230261   1.999   4.385   7.808  0.0305  1.7278  1.7658
 6210SOL     OW30262   2.872   2.215   7.016 -0.3279  0.0124 -0.1083
 6210SOL    HW130263   2.950   2.242   7.064 -0.4292  0.7455 -0.3551
 6210SOL    HW230264   2.845   2.300   6.982 -1.8071 -0.3196  0.2157
 6211SOL     OW30265   1.378   2.736   2.664 -0.1889 -0.1562 -0.7725
 6211SOL    HW130266   1.342   2.657   2.704  1.1626 -1.9263 -3.0176
 6211SOL    HW230267   1.473   2.724   2.673 -0.4131 -2.2188 -1.0562
 6212SOL     OW30268   2.834   4.276   6.202  0.1131 -0.0632  0.0204
 6212SOL    HW130269   2.920   4.261   6.241  0.2291 -0.0651 -0.2384
 6212SOL    HW230270   2.825   4.365   6.235 -1.6030  0.8137 -2.8473
 6213SOL     OW30271   0.636   2.890   1.714  0.2339  0.1548  0.1483
 6213SOL    HW130272   0.630   2.935   1.630  0.6011  1.6447  0.9312
 6213SOL    HW230273   0.644   2.967   1.770  1.1108  0.4378 -0.3772
 6214SOL     OW30274   4.045   3.447   6.464 -0.2967  0.0589 -0.1820
 6214SOL    HW130275   3.954   3.419   6.469  0.8169 -3.4443  0.6096
 6214SOL    HW230276   4.076   3.417   6.379 -0.3290  0.2949 -0.2771
 6215SOL     OW30277   1.883   2.822   3.775 -0.8552  0.4321 -0.0956
 6215SOL    HW130278   1.866   2.741   3.822  0.5557 -0.2108 -0.6861
 6215SOL    HW230279   1.794   2.856   3.778 -1.0474 -0.2449  1.4840
 6216SOL     OW30280   1.028   4.282   7.152  0.0192  0.3911 -0.1954
 6216SOL    HW130281   1.032   4.347   7.083  1.0569  0.3797 -0.1455
 6216SOL    HW230282   0.943   4.246   7.128  0.7091 -0.9707 -0.5798
 6217SOL     OW30283   3.728   0.622   4.990  0.7054  0.8404  0.2106
 6217SOL    HW130284   3.749   0.595   5.079  4.5527  0.1053 -0.9167
 6217SOL    HW230285   3.633   0.613   4.984  0.7704  0.3768 -0.1093
 6218SOL     OW30286   1.571   0.478   0.808  0.5633 -0.1129  0.2341
 6218SOL    HW130287   1.539   0.568   0.801  0.2719 -0.3894 -2.1485
 6218SOL    HW230288   1.490   0.431   0.829  0.5669  0.1455  0.8083
 6219SOL     OW30289   1.952   3.426   8.910 -0.3880  0.1099 -0.0503
 6219SOL    HW130290   1.885   3.383   8.859 -0.8038 -0.7071  1.1823
 6219SOL    HW230291   1.956   3.519   8.889 -3.3364  0.8502  2.6389
 6220SOL     OW30292   2.421   3.454   3.883 -0.0135  0.1691  0.0384
 6220SOL    HW130293   2.435   3.406   3.802 -0.3581 -0.4044  0.3202
 6220SOL    HW230294   2.478   3.531   3.874  0.1728 -0.1596 -1.5829
 6221SOL     OW30295   1.299   1.063   4.775  0.3132 -0.1473 -0.5436
 6221SOL    HW130296   1.367   1.122   4.743  1.9269 -0.6452  1.9321
 6221SOL    HW230297   1.230   1.066   4.709  1.6052 -0.3919 -1.9196
 6222SOL     OW30298   4.008   0.866  14.833 -0.2014  0.0388 -0.4036
 6222SOL    HW130299   4.060   0.854  14.754 -0.5889  1.7284 -0.9113
 6222SOL    HW230300   3.958   0.788  14.857  3.0442 -1.3838  1.6751
 6223SOL     OW30301   3.840   2.679   6.417 -0.5902  0.1972  0.1197
 6223SOL    HW130302   3.832   2.642   6.505 -0.8436 -2.4705 -1.0173
 6223SOL    HW230303   3.875   2.604   6.369 -0.9954 -0.3830  0.7261
 6224SOL     OW30304   3.501   3.276   6.534  0.1731  0.3111  0.0091
 6224SOL    HW130305   3.430   3.249   6.592 -0.5326  0.3737 -0.8348
 6224SOL    HW230306   3.486   3.203   6.474  3.3277 -1.1423  0.9988
 6225SOL     OW30307   2.393   2.329   3.651  0.5208 -0.0403  0.9318
 6225SOL    HW130308   2.313   2.363   3.612  0.4301 -0.5207  0.6945
 6225SOL    HW230309   2.370   2.272   3.724 -1.5538  1.7145  1.6463
 6226SOL     OW30310   4.193   0.813  10.679 -0.3658 -0.7164  0.6930
 6226SOL    HW130311   4.196   0.843  10.770  1.5999 -0.2565  0.4835
 6226SOL    HW230312   4.271   0.757  10.682 -1.0916 -1.7102  1.1530
 6227SOL     OW30313   0.873   3.818   7.549  0.2412 -0.4055 -0.3243
 6227SOL    HW130314   0.927   3.763   7.606 -0.7639 -0.4520  0.5665
 6227SOL    HW230315   0.795   3.839   7.599  0.0358  2.5709 -1.8788
 6228SOL     OW30316   0.809   4.009   0.616 -0.4744 -0.2177  0.2324
 6228SOL    HW130317   0.777   4.027   0.704  0.5631 -1.3895  0.8430
 6228SOL    HW230318   0.773   4.085   0.569 -1.5399 -0.3374  0.8520
 6229SOL     OW30319   4.623   4.591  15.752 -0.1632  0.0125 -0.1336
 6229SOL    HW130320   4.539   4.635  15.739  0.2196  0.3737 -1.3851
 6229SOL    HW230321   4.674   4.623  15.677 -0.7537  0.6425 -0.2569
 6230SOL     OW30322   4.449   4.140  15.183 -0.3085  0.5754 -0.0791
 6230SOL    HW130323   4.503   4.158  15.106 -3.8509 -1.3190 -2.9648
 6230SOL    HW230324   4.381   4.086  15.143 -0.1361 -0.4869  1.0424
 6231SOL     OW30325   0.582   1.229   5.072  0.5633  0.2886  0.2017
 6231SOL    HW130326   0.602   1.137   5.060  0.8635  0.7118 -2.5577
 6231SOL    HW230327   0.656   1.268   5.119 -0.0797  0.3569  1.1598
 6232SOL     OW30328   1.562   4.243   0.911  0.1293 -0.0055 -0.2807
 6232SOL    HW130329   1.653   4.214   0.908  0.2418  0.3598 -0.4227
 6232SOL    HW230330   1.534   4.190   0.836 -2.2381  0.4337  0.2836
 6233SOL     OW30331   3.798   2.377  11.784  0.2784  0.0184 -0.1840
 6233SOL    HW130332   3.859   2.358  11.855 -0.1835 -2.3302 -0.4088
 6233SOL    HW230333   3.742   2.440  11.828  1.4535  0.0377  1.2852
 6234SOL     OW30334   0.225   3.494   9.045  0.0598 -0.4106 -0.2100
 6234SOL    HW130335   0.145   3.546   9.044 -0.4336 -1.1766 -0.1827
 6234SOL    HW230336   0.181   3.412   9.024 -0.1508  0.3268 -2.6376
 6235SOL     OW30337   2.775   1.090   7.729  0.1862 -0.1608 -0.0762
 6235SOL    HW130338   2.700   1.063   7.676 -1.4780  2.9743  0.6804
 6235SOL    HW230339   2.763   1.181   7.756 -1.1588 -0.3084 -0.1809
 6236SOL     OW30340   1.797   0.836   5.321  0.2298 -0.2932  0.1548
 6236SOL    HW130341   1.856   0.862   5.392  1.7617 -0.5216 -1.0455
 6236SOL    HW230342   1.715   0.879   5.345  0.0779 -0.5040  0.0143
 6237SOL     OW30343   0.473   0.165   2.028  0.5893 -0.1720 -0.6859
 6237SOL    HW130344   0.482   0.145   2.121 -1.9166 -0.7571 -0.5746
 6237SOL    HW230345   0.464   0.260   2.029  2.7442  0.0349 -0.3639
 6238SOL     OW30346   2.573   0.915   5.445  0.3942  0.8472  0.6434
 6238SOL    HW130347   2.659   0.949   5.471  0.8334  0.1434  0.0934
 6238SOL    HW230348   2.560   0.935   5.352  0.3128  1.7909  0.8507
 6239SOL     OW30349   4.558   2.877  15.049  0.4333  0.5714 -0.2459
 6239SOL    HW130350   4.529   2.962  15.017 -1.4697 -1.1005 -3.0160
 6239SOL    HW230351   4.590   2.833  14.970 -0.6253 -0.8993  0.1340
 6240SOL     OW30352   2.590   3.309   3.234  0.4923 -0.2818  0.1792
 6240SOL    HW130353   2.568   3.220   3.205 -1.1305 -0.4315  1.8681
 6240SOL    HW230354   2.633   3.336   3.153 -2.6667  1.6067 -0.8993
 6241SOL     OW30355   3.995   0.030  16.416  0.0618 -0.2502 -0.3745
 6241SOL    HW130356   3.965   4.719  16.338 -0.2730  1.8800 -1.5458
 6241SOL    HW230357   4.065   4.708  16.444 -0.5637  0.8639  3.5544
 6242SOL     OW30358   4.665   0.495   4.579 -0.0976  0.2601 -0.1997
 6242SOL    HW130359   4.660   0.409   4.620 -1.3668  1.0849  1.3422
 6242SOL    HW230360   4.585   0.500   4.526  0.9503  1.5193 -1.6981
 6243SOL     OW30361   3.530   4.141   3.900 -0.0794 -0.2297  0.7523
 6243SOL    HW130362   3.442   4.110   3.924 -0.5019  1.1926  1.0277
 6243SOL    HW230363   3.536   4.212   3.964  0.6310 -0.1638  0.6109
 6244SOL     OW30364   4.071   1.779   5.613  0.1641 -0.4759 -0.3901
 6244SOL    HW130365   4.110   1.709   5.665  2.2092  2.3150  1.8163
 6244SOL    HW230366   4.043   1.839   5.682  1.8458  0.6367 -0.6712
 6245SOL     OW30367   1.452   2.434   8.771  0.1831  0.2069 -0.0593
 6245SOL    HW130368   1.405   2.353   8.792  1.0532  0.4588  2.8665
 6245SOL    HW230369   1.379   2.495   8.758 -0.4433 -0.0525  2.2154
 6246SOL     OW30370   4.151   1.850  11.336  0.0007  0.4420  0.2583
 6246SOL    HW130371   4.093   1.846  11.413 -0.8675  1.2973 -0.3489
 6246SOL    HW230372   4.231   1.870  11.384  0.6717 -0.1537 -0.6268
 6247SOL     OW30373   1.507   4.336   1.507 -0.2168  0.5420 -0.0361
 6247SOL    HW130374   1.588   4.285   1.514 -0.9338 -0.6801 -0.5232
 6247SOL    HW230375   1.444   4.265   1.496  1.0194 -0.3738 -1.1787
 6248SOL     OW30376   1.070   3.827  11.242  0.2586 -0.0396  0.3416
 6248SOL    HW130377   1.162   3.845  11.261  0.6500 -0.8590 -0.7951
 6248SOL    HW230378   1.024   3.892  11.295  0.7904  0.0277  0.7197
 6249SOL     OW30379   1.892   2.978   2.895  0.1476 -0.3137 -0.5973
 6249SOL    HW130380   1.852   2.900   2.934  2.7138 -0.3346  2.0197
 6249SOL    HW230381   1.818   3.007   2.842 -0.0194 -1.1029 -0.8125
 6250SOL     OW30382   3.518   3.647  10.936  0.5505 -0.6077 -0.4785
 6250SOL    HW130383   3.463   3.639  10.858 -0.2592 -0.6464  0.0977
 6250SOL    HW230384   3.577   3.573  10.921  0.4558 -0.5038 -1.3738
 6251SOL     OW30385   3.536   0.703   4.000 -0.7416 -0.0370 -0.1112
 6251SOL    HW130386   3.520   0.609   3.988  0.1694 -0.0522 -1.2006
 6251SOL    HW230387   3.465   0.730   4.058 -1.7453 -0.6184 -1.0576
 6252SOL     OW30388   0.165   2.211   2.441  0.1962  0.2378  0.4542
 6252SOL    HW130389   0.227   2.278   2.414  0.8424  0.3653  2.2788
 6252SOL    HW230390   0.087   2.259   2.469 -0.2002 -0.6400  0.8666
 6253SOL     OW30391   3.797   3.215  16.697  0.2303 -0.3222  0.4011
 6253SOL    HW130392   3.835   3.178  16.617  1.2968 -1.8227  1.6066
 6253SOL    HW230393   3.797   3.311  16.690  2.8991 -0.2853  0.7357
 6254SOL     OW30394   1.502   0.916   3.603 -0.1859  0.3287 -0.1051
 6254SOL    HW130395   1.555   0.959   3.536  0.8305 -0.2126  0.3464
 6254SOL    HW230396   1.572   0.896   3.666 -0.4397  0.7034  0.2960
 6255SOL     OW30397   2.847   4.210  16.961 -0.2513  0.0567  0.0871
 6255SOL    HW130398   2.824   4.285  17.016 -2.2562  0.8270 -1.8147
 6255SOL    HW230399   2.942   4.217  16.950 -0.1468 -2.1758 -0.3525
 6256SOL     OW30400   1.892   0.201  10.230 -0.2987  0.2764  0.8142
 6256SOL    HW130401   1.924   0.111  10.231 -1.5232 -0.1680 -0.8478
 6256SOL    HW230402   1.850   0.205  10.316  0.3358  0.6522  1.1057
 6257SOL     OW30403   1.888   4.213  15.137  0.3624  0.4700 -0.7235
 6257SOL    HW130404   1.899   4.185  15.046 -2.7344  0.6191 -1.1445
 6257SOL    HW230405   1.798   4.244  15.132  0.6925  1.5390 -0.0479
 6258SOL     OW30406   2.980   3.806   1.201 -0.1508 -0.3570  0.3058
 6258SOL    HW130407   2.895   3.782   1.240 -0.6611 -1.1128 -1.2947
 6258SOL    HW230408   3.010   3.726   1.157  1.2320  0.1510  0.3283
 6259SOL     OW30409   3.234   4.108   2.483 -0.1727  0.1525 -0.0624
 6259SOL    HW130410   3.306   4.123   2.422 -0.4900 -0.8528 -0.6968
 6259SOL    HW230411   3.164   4.071   2.429 -0.1326 -0.7067  0.4645
 6260SOL     OW30412   3.033   0.796   2.028  0.0856 -0.2192 -0.1912
 6260SOL    HW130413   3.101   0.782   1.962 -0.6557  0.4112 -1.0863
 6260SOL    HW230414   3.029   0.709   2.068  1.0694 -0.2825 -0.2332
 6261SOL     OW30415   0.498   3.904  17.158 -0.3539  0.2146 -0.2827
 6261SOL    HW130416   0.521   3.863  17.241 -1.9873 -1.4164 -0.6463
 6261SOL    HW230417   0.403   3.895  17.164 -0.4437  1.1356 -0.2446
 6262SOL     OW30418   3.875   3.244   9.870 -0.0185  0.0761  0.1189
 6262SOL    HW130419   3.931   3.308   9.914  0.2622  2.0721 -3.1761
 6262SOL    HW230420   3.795   3.284   9.837 -0.5801 -1.7064 -0.6703
 6263SOL     OW30421   3.372   2.888  15.358 -0.0912 -0.3225  0.0870
 6263SOL    HW130422   3.360   2.974  15.399  1.4823 -0.2600  0.4132
 6263SOL    HW230423   3.422   2.907  15.279  0.3825  1.8105  0.8916
 6264SOL     OW30424   3.809   0.434  12.182  0.6678  0.7603  0.2079
 6264SOL    HW130425   3.857   0.504  12.226  0.1235 -0.1433  2.2428
 6264SOL    HW230426   3.746   0.494  12.144  0.2900 -0.0572 -0.4396
 6265SOL     OW30427   1.413   4.314   6.891  0.1983  0.2174  0.1515
 6265SOL    HW130428   1.363   4.244   6.934  0.3284  0.6771  1.0491
 6265SOL    HW230429   1.355   4.390   6.890  0.6987  0.6311  2.7358
 6266SOL     OW30430   1.097   3.523   9.356 -0.1336  0.1472 -0.1461
 6266SOL    HW130431   1.005   3.503   9.343 -0.2878  0.2380  0.7795
 6266SOL    HW230432   1.098   3.609   9.399  0.4119 -0.5942  1.3205
 6267SOL     OW30433   1.890   0.281   4.467  0.9647  0.3166 -0.1261
 6267SOL    HW130434   1.870   0.349   4.403  2.4772 -0.4611 -1.4126
 6267SOL    HW230435   1.965   0.327   4.505 -0.2645  1.9410  0.3427
 6268SOL     OW30436   2.920   4.363   5.551  0.3242  0.1439 -0.2979
 6268SOL    HW130437   2.875   4.447   5.546 -0.8554 -0.4812 -0.2751
 6268SOL    HW230438   2.868   4.339   5.628 -0.3378  3.0103  0.1478
 6269SOL     OW30439   3.944   1.825   8.723  0.0021  0.3914  0.1909
 6269SOL    HW130440   3.851   1.808   8.739 -0.3812  2.4742  0.2188
 6269SOL    HW230441   3.944   1.897   8.660  0.7216  2.9132  3.0603
 6270SOL     OW30442   1.643   0.022   5.848 -0.2117 -0.3557 -0.1672
 6270SOL    HW130443   1.728   0.027   5.804  0.8042 -0.6109  1.7359
 6270SOL    HW230444   1.608   4.671   5.833 -4.6489  1.2713  0.8048
 6271SOL     OW30445   1.280   0.893   3.803 -0.8806 -0.4357 -0.4907
 6271SOL    HW130446   1.282   0.809   3.847 -0.8586  0.1846  0.6907
 6271SOL    HW230447   1.357   0.885   3.747 -1.3898  0.5130 -1.3385
 6272SOL     OW30448   3.838   4.034   4.776  0.5535 -0.5043  0.5604
 6272SOL    HW130449   3.743   4.040   4.766  0.9580  0.4579 -3.0122
 6272SOL    HW230450   3.843   4.100   4.845  0.1059  0.8598 -0.7126
 6273SOL     OW30451   1.699   2.349   9.305 -0.0881 -0.3558 -0.1149
 6273SOL    HW130452   1.650   2.336   9.224  1.3274  3.1393 -1.5369
 6273SOL    HW230453   1.712   2.258   9.331  0.6092 -0.7728 -1.8995
 6274SOL     OW30454   1.343   0.168   4.921  0.5735 -0.0097 -0.2920
 6274SOL    HW130455   1.280   0.238   4.938  1.9526  1.1299  0.1948
 6274SOL    HW230456   1.389   0.196   4.841  2.6903 -1.1510  0.5164
 6275SOL     OW30457   0.344   4.629   4.207 -0.0161 -0.3550 -0.4444
 6275SOL    HW130458   0.401   4.585   4.270  0.8548 -0.2634 -1.1720
 6275SOL    HW230459   0.257   4.593   4.229  1.0245 -2.3147  0.5275
 6276SOL     OW30460   3.692   4.457   4.859  0.0985  0.7632  0.4020
 6276SOL    HW130461   3.722   4.520   4.925  0.8135  1.5656 -0.6988
 6276SOL    HW230462   3.711   4.505   4.779  0.2622 -2.2707 -1.3744
 6277SOL     OW30463   2.557   1.911   9.031  0.3933  0.0050 -0.4555
 6277SOL    HW130464   2.574   1.930   9.123 -2.6188  1.5260 -0.2163
 6277SOL    HW230465   2.537   1.818   9.043  0.1247  0.1977  0.6066
 6278SOL     OW30466   1.296   2.188   8.833  0.5072  0.1737 -0.0614
 6278SOL    HW130467   1.326   2.112   8.884 -0.5097 -0.3986 -0.3170
 6278SOL    HW230468   1.343   2.169   8.752  3.3641 -0.1601  1.6785
 6279SOL     OW30469   3.225   3.078   1.272  0.1781 -0.5928 -0.1559
 6279SOL    HW130470   3.188   3.153   1.318  0.3880 -0.4880 -0.1570
 6279SOL    HW230471   3.292   3.116   1.216 -0.4274  0.3287 -0.2499
 6280SOL     OW30472   1.089   0.152   4.588  0.6354 -0.1172  0.0207
 6280SOL    HW130473   1.124   0.101   4.515 -1.4184  0.8451 -1.6279
 6280SOL    HW230474   1.118   0.235   4.551 -0.5387  1.5082  2.8029
 6281SOL     OW30475   2.795   3.959  15.210  0.1929  0.2071  0.8147
 6281SOL    HW130476   2.841   3.896  15.265 -1.4458 -2.2811 -0.6946
 6281SOL    HW230477   2.813   3.919  15.124 -0.7204 -1.1764  1.2723
 6282SOL     OW30478   4.676   3.976   6.378  0.4082  0.0291 -0.0074
 6282SOL    HW130479   4.723   3.997   6.459  2.1601  0.5601 -1.1539
 6282SOL    HW230480   4.589   4.014   6.385  1.1671  1.1856  3.1194
 6283SOL     OW30481   3.013   2.517   7.671  0.4031  0.1456  0.2857
 6283SOL    HW130482   3.092   2.545   7.717  0.0503 -3.9863  3.4347
 6283SOL    HW230483   2.971   2.464   7.739 -2.4109 -1.7288 -2.9303
 6284SOL     OW30484   0.662   1.868  13.784  0.4067 -0.7227  0.0417
 6284SOL    HW130485   0.580   1.865  13.835  0.1786  0.0550 -0.2852
 6284SOL    HW230486   0.696   1.779  13.797  1.7925 -0.1157  0.5657
 6285SOL     OW30487   2.811   3.857   2.017  0.1860 -0.1445 -0.1873
 6285SOL    HW130488   2.837   3.812   1.936 -0.7046 -0.5693 -0.2304
 6285SOL    HW230489   2.805   3.947   1.984  2.0173  0.0946  0.1230
 6286SOL     OW30490   2.501   0.813  16.877  0.4552  0.3917  0.9115
 6286SOL    HW130491   2.508   0.752  16.804  1.1339  0.2853  1.0696
 6286SOL    HW230492   2.406   0.824  16.882  0.2336 -1.6694  1.0134
 6287SOL     OW30493   0.389   3.379   2.270  0.6208  0.3409 -0.7231
 6287SOL    HW130494   0.307   3.331   2.256  1.6883 -1.3595 -1.1010
 6287SOL    HW230495   0.393   3.355   2.363  0.2054 -0.0716 -0.8070
 6288SOL     OW30496   0.271   3.144   4.358 -0.0242 -0.4474 -0.2108
 6288SOL    HW130497   0.183   3.136   4.395 -0.1010  0.1015 -0.2880
 6288SOL    HW230498   0.314   3.193   4.428 -0.2005 -0.0810 -0.3618
 6289SOL     OW30499   2.232   3.445   7.510 -0.2548 -0.6317  0.5780
 6289SOL    HW130500   2.194   3.361   7.535 -3.1598  0.2308 -0.9454
 6289SOL    HW230501   2.269   3.474   7.593 -2.7567  0.7608  1.1921
 6290SOL     OW30502   3.724   0.169   6.379  0.1756  0.3129 -0.0407
 6290SOL    HW130503   3.666   0.164   6.455  1.4858 -0.7352  0.8906
 6290SOL    HW230504   3.659   0.218   6.328 -1.2018  0.2391  1.6369
 6291SOL     OW30505   2.484   3.790  15.389  0.1166 -0.0332  0.4442
 6291SOL    HW130506   2.510   3.877  15.360 -3.2352  0.4539 -1.0258
 6291SOL    HW230507   2.397   3.776  15.352  0.5426  0.7170 -0.8156
 6292SOL     OW30508   2.042   2.625   8.714  0.1379 -0.8102 -0.0479
 6292SOL    HW130509   2.027   2.596   8.804  0.1459 -0.9059 -0.0778
 6292SOL    HW230510   1.959   2.588   8.684 -1.1119  1.0359  1.1608
 6293SOL     OW30511   3.410   2.175  15.982  0.1699 -0.3147  0.5999
 6293SOL    HW130512   3.407   2.256  16.034  0.4180 -1.0382  1.7546
 6293SOL    HW230513   3.503   2.152  15.988  0.1206 -1.1930 -2.1937
 6294SOL     OW30514   1.871   4.213   8.900  0.0866  0.1470  0.0798
 6294SOL    HW130515   1.924   4.147   8.946  2.3485  0.7024 -1.7628
 6294SOL    HW230516   1.786   4.183   8.932  0.9130 -3.3707 -1.0242
 6295SOL     OW30517   3.757   2.057   3.991 -0.4318  0.3230  0.8759
 6295SOL    HW130518   3.793   2.030   3.906 -0.9288  1.1153  0.4150
 6295SOL    HW230519   3.744   2.148   3.965  2.3046  0.5664  0.2685
 6296SOL     OW30520   0.022   0.844  13.627  0.0807 -1.1607  0.7316
 6296SOL    HW130521   0.000   0.784  13.698 -0.2497 -1.5428  0.2992
 6296SOL    HW230522   0.016   0.931  13.667 -0.7543 -0.2800 -1.2976
 6297SOL     OW30523   4.179   3.005   8.540 -0.1819 -0.2013  0.1588
 6297SOL    HW130524   4.145   3.092   8.518 -1.7470 -1.6525 -3.2498
 6297SOL    HW230525   4.223   2.981   8.458  3.0409  3.5916  0.7594
 6298SOL     OW30526   1.247   3.481   5.623 -0.2596  0.1191  0.3050
 6298SOL    HW130527   1.333   3.517   5.605  0.1311 -1.4210 -0.9207
 6298SOL    HW230528   1.279   3.391   5.626 -3.3155 -1.0174 -0.6280
 6299SOL     OW30529   2.973   3.435   4.703 -0.4081  0.4772 -0.1533
 6299SOL    HW130530   2.999   3.371   4.768 -1.4059  0.2628  0.0410
 6299SOL    HW230531   3.018   3.393   4.630 -0.4557  0.6662 -0.2911
 6300SOL     OW30532   0.132   0.282   4.057 -0.0051 -0.2501 -0.3858
 6300SOL    HW130533   0.199   0.213   4.060 -1.2367 -1.2778  3.9819
 6300SOL    HW230534   0.075   0.248   4.126  3.3294 -0.5025  2.2516
 6301SOL     OW30535   4.033   0.088   4.878  0.6717  0.8598 -0.0337
 6301SOL    HW130536   3.968   0.157   4.872  0.9688  1.0560 -0.9614
 6301SOL    HW230537   4.048   0.084   4.973 -0.3760 -0.1726  0.0914
 6302SOL     OW30538   4.141   1.165  16.446 -0.5860  0.1101 -0.1913
 6302SOL    HW130539   4.050   1.167  16.473 -0.8350 -0.8901 -0.9693
 6302SOL    HW230540   4.127   1.108  16.370 -0.7854  2.0513 -1.6125
 6303SOL     OW30541   1.546   4.695   6.305 -0.1462 -0.3028 -0.4623
 6303SOL    HW130542   1.466   4.645   6.288 -0.2241 -0.7513  1.3070
 6303SOL    HW230543   1.597   4.641   6.365  1.1630  2.5471  1.0105
 6304SOL     OW30544   4.398   0.685   4.803 -0.2217 -0.2732 -0.1650
 6304SOL    HW130545   4.391   0.671   4.897 -1.8258 -0.1305 -0.2693
 6304SOL    HW230546   4.348   0.613   4.766 -0.0567 -0.1670 -0.5963
 6305SOL     OW30547   2.996   4.278   9.693 -0.3176  0.5432  0.0617
 6305SOL    HW130548   2.933   4.273   9.621 -0.4503  0.0886  0.2054
 6305SOL    HW230549   3.079   4.295   9.649 -0.4569 -0.4375 -0.5931
 6306SOL     OW30550   4.579   1.211   8.427  0.2104 -0.1354  0.0055
 6306SOL    HW130551   4.579   1.118   8.403 -1.4348  0.1087 -0.9696
 6306SOL    HW230552   4.586   1.200   8.522 -0.5657  0.7416  0.1639
 6307SOL     OW30553   4.100   0.059  17.393 -0.1370 -0.1957  0.0403
 6307SOL    HW130554   4.146   4.731  17.448  1.2865 -0.6722 -1.7127
 6307SOL    HW230555   4.116   0.021  17.307 -0.0683 -2.4797  1.0406
 6308SOL     OW30556   4.339   1.367   2.900 -0.1293 -0.2448 -0.0449
 6308SOL    HW130557   4.333   1.415   2.983  0.9301  0.4569 -0.3611
 6308SOL    HW230558   4.432   1.377   2.877 -0.2879  1.5258  0.0507
 6309SOL     OW30559   3.739   3.870   6.716 -0.1104  0.4284  0.0052
 6309SOL    HW130560   3.759   3.873   6.809  0.8012  1.1800 -0.2202
 6309SOL    HW230561   3.766   3.953   6.677 -1.3231  1.1774  0.7668
 6310SOL     OW30562   0.971   0.618   3.587  0.0008 -0.6947 -0.3068
 6310SOL    HW130563   0.901   0.670   3.626 -0.2615 -0.5945 -0.8983
 6310SOL    HW230564   0.917   0.594   3.511  0.2898  0.5815 -0.9127
 6311SOL     OW30565   2.109   0.434  13.318  0.2495  0.3491  0.6030
 6311SOL    HW130566   2.160   0.480  13.251  0.5528 -3.4052 -1.7045
 6311SOL    HW230567   2.059   0.373  13.263  1.1891  0.4323 -0.3368
 6312SOL     OW30568   0.260   1.445  10.938  0.4180 -0.1151  0.0780
 6312SOL    HW130569   0.172   1.409  10.952  0.8473 -1.3505 -0.4036
 6312SOL    HW230570   0.246   1.531  10.978 -3.4000 -1.2629  1.2179
 6313SOL     OW30571   2.691   4.271   3.404 -0.4930  0.1616 -0.3838
 6313SOL    HW130572   2.606   4.304   3.376 -1.2605 -1.3310  0.1855
 6313SOL    HW230573   2.734   4.350   3.436  1.2689 -0.4390 -1.2358
 6314SOL     OW30574   0.664   1.327  11.560  0.4146  0.1493 -0.2570
 6314SOL    HW130575   0.587   1.369  11.599  1.3224  0.5098  1.1454
 6314SOL    HW230576   0.737   1.364  11.610  1.1240  1.1888 -2.0431
 6315SOL     OW30577   2.566   0.671   5.256  0.0651 -0.0426 -0.4770
 6315SOL    HW130578   2.604   0.697   5.340  2.5068 -0.5759 -1.4067
 6315SOL    HW230579   2.546   0.579   5.275 -1.8232  0.5594  0.4485
 6316SOL     OW30580   1.402   2.658   8.477 -0.0727 -0.0496 -0.3918
 6316SOL    HW130581   1.399   2.752   8.492 -0.0068 -0.3377  1.4405
 6316SOL    HW230582   1.337   2.632   8.542 -0.6305 -1.1609 -1.3881
 6317SOL     OW30583   4.686   4.315   6.622  0.1088 -0.1319  0.1301
 6317SOL    HW130584   0.023   4.330   6.563 -1.2489  1.0313 -1.2902
 6317SOL    HW230585   4.713   4.351   6.706  0.7214  0.4949 -0.3362
 6318SOL     OW30586   3.072   1.336   1.658  0.1578  0.5293  0.3586
 6318SOL    HW130587   3.028   1.367   1.579 -0.3324  0.6263  0.6723
 6318SOL    HW230588   3.160   1.321   1.623  0.1577  1.3455  0.0201
 6319SOL     OW30589   2.612   1.135   3.006 -0.3209  0.3850  0.3365
 6319SOL    HW130590   2.557   1.134   3.085  0.9628  0.2439  1.2269
 6319SOL    HW230591   2.695   1.096   3.033  0.0962  1.1576  0.1570
 6320SOL     OW30592   0.206   4.377   1.056  0.4138 -0.3067 -0.4516
 6320SOL    HW130593   0.158   4.450   1.017  0.2174  0.0391  0.4596
 6320SOL    HW230594   0.251   4.418   1.129  3.5812  0.6444 -2.9107
 6321SOL     OW30595   0.221   3.005   6.202 -0.3025 -0.3389 -0.3190
 6321SOL    HW130596   0.197   3.094   6.227 -0.2549 -0.5043  0.3222
 6321SOL    HW230597   0.307   3.025   6.165  0.1505  0.5573  1.2166
 6322SOL     OW30598   1.637   4.191   3.493  0.3334 -0.0026  0.1116
 6322SOL    HW130599   1.634   4.101   3.525  1.4337  0.3134  1.1589
 6322SOL    HW230600   1.552   4.219   3.526  0.1741  0.0769 -0.3809
 6323SOL     OW30601   1.616   3.790   6.049  0.2649 -0.1122 -0.7724
 6323SOL    HW130602   1.672   3.724   6.089  2.5790  0.9543 -2.2998
 6323SOL    HW230603   1.545   3.740   6.008  0.6643 -1.3141 -0.0055
 6324SOL     OW30604   0.572   2.389   2.275  0.1827  0.7064  0.0960
 6324SOL    HW130605   0.603   2.479   2.286 -0.8760  1.4502 -2.9300
 6324SOL    HW230606   0.483   2.400   2.308 -0.2611  1.6495 -1.3985
 6325SOL     OW30607   2.254   4.435   1.411 -0.2073 -0.1148  0.1126
 6325SOL    HW130608   2.285   4.524   1.429 -1.4956  0.2860  0.3041
 6325SOL    HW230609   2.326   4.382   1.445  1.1439  0.6446 -1.5668
 6326SOL     OW30610   0.540   2.362   6.162  0.7554  0.4398  0.6030
 6326SOL    HW130611   0.632   2.386   6.151  0.2339  2.0198 -0.2386
 6326SOL    HW230612   0.540   2.268   6.179  0.1773  0.1140 -1.2898
 6327SOL     OW30613   2.228   3.554   1.363 -0.2710 -0.1641 -0.5452
 6327SOL    HW130614   2.218   3.633   1.417 -2.7527 -0.5910 -0.4123
 6327SOL    HW230615   2.192   3.591   1.283 -1.6558  0.2802  0.2854
 6328SOL     OW30616   1.311   3.445   8.422 -0.0278  0.5224  0.0436
 6328SOL    HW130617   1.357   3.372   8.381  0.1920 -0.1414  1.4752
 6328SOL    HW230618   1.353   3.444   8.508  1.8035  1.4855 -0.8492
 6329SOL     OW30619   0.265   3.505  10.717  0.1869  0.1274  0.1182
 6329SOL    HW130620   0.189   3.530  10.770  0.4716  3.0928 -0.8575
 6329SOL    HW230621   0.251   3.412  10.700  1.1325 -0.1297  0.7181
 6330SOL     OW30622   2.256   2.398   2.533  0.6994 -0.3358 -0.5737
 6330SOL    HW130623   2.208   2.448   2.466  0.8481 -0.4399 -0.7590
 6330SOL    HW230624   2.196   2.345   2.585  0.0250  0.0345 -0.9745
 6331SOL     OW30625   1.004   1.204   3.170 -0.1463 -0.8240  0.1532
 6331SOL    HW130626   0.973   1.148   3.241 -0.3492 -1.2577 -0.2775
 6331SOL    HW230627   1.093   1.171   3.159  0.5123  0.6173  1.1675
 6332SOL     OW30628   2.087   0.431   0.293 -0.6476 -0.0409 -0.2068
 6332SOL    HW130629   2.158   0.491   0.271  0.5445 -0.8514  1.4860
 6332SOL    HW230630   2.025   0.491   0.336 -2.7092 -1.7833 -0.7424
 6333SOL     OW30631   2.888   1.743   1.097 -0.3420 -0.1509 -0.3105
 6333SOL    HW130632   2.978   1.749   1.063 -0.9246 -0.4946 -1.9257
 6333SOL    HW230633   2.830   1.788   1.036  1.1804  1.0695 -0.8471
 6334SOL     OW30634   1.657   3.775   9.874 -0.2209 -0.0627 -0.6412
 6334SOL    HW130635   1.704   3.754   9.793 -0.7077  1.7112 -1.4045
 6334SOL    HW230636   1.703   3.854   9.902  0.3546 -0.5065 -0.3502
 6335SOL     OW30637   1.428   2.501   6.989 -0.5975 -0.0083 -0.1457
 6335SOL    HW130638   1.480   2.450   6.927 -2.7888 -1.0433 -1.1104
 6335SOL    HW230639   1.361   2.537   6.931  1.5371 -0.1162 -2.7163
 6336SOL     OW30640   3.960   4.356  10.707 -0.1194  0.0780  0.0059
 6336SOL    HW130641   3.958   4.324  10.798  1.5431  2.4793  0.8965
 6336SOL    HW230642   3.874   4.327  10.676  1.1636 -1.3418 -2.1859
 6337SOL     OW30643   1.656   3.245   7.081 -0.1265  0.4196  0.2041
 6337SOL    HW130644   1.697   3.302   7.015 -1.7460  1.3058 -0.0480
 6337SOL    HW230645   1.619   3.323   7.124 -0.8706  0.0833  0.1743
 6338SOL     OW30646   3.886   3.255  12.934 -0.1000  0.3596  0.0240
 6338SOL    HW130647   3.934   3.333  12.965  1.3686 -0.4328 -0.2603
 6338SOL    HW230648   3.951   3.190  12.907  0.8212  0.4623  1.9487
 6339SOL     OW30649   1.508   0.063   6.821 -0.3825  0.3780 -0.5973
 6339SOL    HW130650   1.523   4.711   6.789 -0.0321 -0.1474  1.0524
 6339SOL    HW230651   1.484   0.108   6.740 -0.9661 -0.5285 -0.9262
 6340SOL     OW30652   2.495   0.852   9.556 -0.5815 -0.0783 -0.1792
 6340SOL    HW130653   2.551   0.775   9.548  1.0200  1.1294 -0.7543
 6340SOL    HW230654   2.473   0.846   9.649  1.2699  0.5046  0.3022
 6341SOL     OW30655   1.902   1.418  12.735  0.0187 -0.2987 -0.3822
 6341SOL    HW130656   1.878   1.407  12.643 -0.7500 -3.4849  0.1762
 6341SOL    HW230657   1.994   1.392  12.723  0.3713  0.0861  1.4409
 6342SOL     OW30658   4.731   2.172   6.974  0.2812  0.3332 -0.1764
 6342SOL    HW130659   0.059   2.103   6.986 -0.5241 -0.0980  1.7375
 6342SOL    HW230660   4.649   2.130   6.950  0.6626  0.9818 -2.6473
 6343SOL     OW30661   4.221   3.470   4.215 -0.2032  0.6213  0.1125
 6343SOL    HW130662   4.248   3.432   4.298 -1.5149  0.0692  0.2891
 6343SOL    HW230663   4.128   3.445   4.219  0.0639 -0.4052 -0.0177
 6344SOL     OW30664   3.058   0.095   9.890  0.4788 -0.2757  0.0723
 6344SOL    HW130665   3.002   0.046   9.950 -0.5580 -0.2481 -0.8865
 6344SOL    HW230666   3.124   0.032   9.862 -0.3573  0.0351 -2.6454
 6345SOL     OW30667   2.037   0.419   7.657  0.3380 -0.2331 -0.3311
 6345SOL    HW130668   1.952   0.397   7.695 -0.7585  1.6253 -1.7384
 6345SOL    HW230669   2.057   0.505   7.693  0.7177 -0.3928 -0.1603
 6346SOL     OW30670   0.128   3.261  13.237 -0.0617 -0.2242 -0.0150
 6346SOL    HW130671   0.045   3.303  13.261 -0.5368 -0.5727 -1.0638
 6346SOL    HW230672   0.177   3.311  13.171 -1.8596 -1.0948 -2.0024
 6347SOL     OW30673   3.301   0.959  17.471  0.7490 -0.2096  0.3770
 6347SOL    HW130674   3.344   0.877  17.446 -0.6581 -0.9647  0.4292
 6347SOL    HW230675   3.258   0.922  17.549 -0.2096 -0.2710 -0.1760
 6348SOL     OW30676   2.449   1.564   0.471 -0.2252 -0.0843 -0.4779
 6348SOL    HW130677   2.446   1.594   0.562  2.1840 -1.1837 -0.0250
 6348SOL    HW230678   2.543   1.553   0.453 -0.2073  0.1581 -0.5272
 6349SOL     OW30679   1.968   0.589   7.310 -0.0853 -0.2786 -0.3565
 6349SOL    HW130680   2.044   0.562   7.363  0.2401  0.0291 -0.6669
 6349SOL    HW230681   1.904   0.532   7.352 -0.2691 -1.9942 -2.9428
 6350SOL     OW30682   0.840   3.124   4.864  0.6350 -0.2408  0.2147
 6350SOL    HW130683   0.922   3.169   4.842 -0.8312  1.9132 -0.8989
 6350SOL    HW230684   0.860   3.038   4.826  1.4335  0.0566 -0.0535
 6351SOL     OW30685   2.303   0.860   1.557 -0.3257 -0.2067  0.2876
 6351SOL    HW130686   2.302   0.899   1.645  1.7463 -0.9684  0.6334
 6351SOL    HW230687   2.367   0.905   1.503 -0.0661 -0.1267  0.6598
 6352SOL     OW30688   0.467   2.659   5.257 -0.5862  0.0571  0.6308
 6352SOL    HW130689   0.395   2.673   5.318 -0.2085  0.0567  1.0747
 6352SOL    HW230690   0.443   2.714   5.182  1.5571 -3.3673 -2.5280
 6353SOL     OW30691   2.199   4.288   8.939 -0.2745  0.7607  0.1128
 6353SOL    HW130692   2.111   4.319   8.916 -1.3164 -1.7321  0.6712
 6353SOL    HW230693   2.180   4.282   9.032  0.8023  1.7613  0.3855
 6354SOL     OW30694   1.533   1.089   2.396  0.7777  1.0010  0.3529
 6354SOL    HW130695   1.596   1.158   2.378 -0.3530  1.8276 -0.4301
 6354SOL    HW230696   1.587   1.021   2.436  0.3188  1.0733  1.0915
 6355SOL     OW30697   0.862   0.352   2.921  0.3466 -0.3673 -0.2578
 6355SOL    HW130698   0.790   0.291   2.935 -0.5686  1.1940  1.9272
 6355SOL    HW230699   0.939   0.298   2.937  1.2096  0.5174 -1.3786
 6356SOL     OW30700   0.782   4.407   5.682 -0.0690  0.7645 -0.7365
 6356SOL    HW130701   0.715   4.419   5.615 -0.6240  0.3887 -0.2389
 6356SOL    HW230702   0.721   4.403   5.756  0.1904 -0.2759 -0.5840
 6357SOL     OW30703   2.966   3.560   6.631 -0.4722  0.8132 -0.0604
 6357SOL    HW130704   2.924   3.483   6.593  1.1914 -0.9171  1.5368
 6357SOL    HW230705   2.962   3.544   6.726  3.9461  0.7370  0.1355
 6358SOL     OW30706   2.535   1.177   1.632 -0.0075  1.1517 -0.6203
 6358SOL    HW130707   2.596   1.104   1.638 -0.7427  0.5293 -0.7003
 6358SOL    HW230708   2.560   1.239   1.701 -2.6003  1.2099  0.2482
 6359SOL     OW30709   1.056   4.446   6.236  0.8337  0.3975  0.1087
 6359SOL    HW130710   0.987   4.513   6.236  1.1978  0.7849 -2.1709
 6359SOL    HW230711   1.007   4.364   6.235  0.7528  0.4378  0.7480
 6360SOL     OW30712   1.295   3.585   2.863 -1.1293  0.2052  0.2109
 6360SOL    HW130713   1.360   3.590   2.792  2.4461  0.5115  3.4589
 6360SOL    HW230714   1.233   3.522   2.827 -0.7321  0.3186 -0.6818
 6361SOL     OW30715   0.025   3.376   4.360 -0.6679  0.1519  0.3254
 6361SOL    HW130716   4.700   3.447   4.346 -2.7420 -2.0857 -1.7093
 6361SOL    HW230717   0.071   3.395   4.442  0.5437  0.9395 -0.5324
 6362SOL     OW30718   1.666   2.082   6.058  0.1973  0.2617 -0.1117
 6362SOL    HW130719   1.583   2.036   6.059  1.3257 -1.7697 -0.7185
 6362SOL    HW230720   1.714   2.014   6.012 -1.0560 -0.5744 -0.1780
 6363SOL     OW30721   4.677   0.985   9.587 -0.4181 -0.5568  0.4536
 6363SOL    HW130722   0.023   0.960   9.626  0.4011  0.4554 -0.6421
 6363SOL    HW230723   4.618   0.914   9.614  0.0814 -1.0936  0.1304
 6364SOL     OW30724   4.390   0.000   5.876 -0.2079 -0.4000 -0.1496
 6364SOL    HW130725   4.341   4.689   5.810 -1.4072  0.2211  0.2977
 6364SOL    HW230726   4.360   0.090   5.868 -0.8708 -0.9785 -3.9112
 6365SOL     OW30727   1.459   1.538   6.943 -0.2933  0.0392 -0.7294
 6365SOL    HW130728   1.365   1.527   6.931 -0.5210 -0.0785  1.1871
 6365SOL    HW230729   1.481   1.448   6.966 -0.9794 -0.5069 -2.1925
 6366SOL     OW30730   0.777   3.151  12.094  0.3942 -0.3524  0.4346
 6366SOL    HW130731   0.711   3.082  12.098 -2.6965  2.5243 -0.4477
 6366SOL    HW230732   0.812   3.155  12.005 -3.2836 -1.1770 -1.0708
 6367SOL     OW30733   1.826   1.720   2.820 -0.2491 -0.3353  0.6506
 6367SOL    HW130734   1.842   1.797   2.766 -1.9839  1.1931  2.2772
 6367SOL    HW230735   1.738   1.699   2.789  0.9915 -0.2284 -2.8916
 6368SOL     OW30736   2.854   3.449   5.549  0.6603  0.5284  0.2006
 6368SOL    HW130737   2.890   3.479   5.466 -0.4929 -0.9188 -0.8301
 6368SOL    HW230738   2.837   3.532   5.593  0.3907  1.6453 -1.9796
 6369SOL     OW30739   2.485   2.106   5.379  0.2232 -0.1563 -0.0736
 6369SOL    HW130740   2.567   2.108   5.428  0.0042 -2.2329  0.3740
 6369SOL    HW230741   2.501   2.035   5.316  2.3291 -0.0867  0.3670
 6370SOL     OW30742   1.161   2.390  12.405  0.4048 -0.0913 -0.2359
 6370SOL    HW130743   1.248   2.356  12.426  0.4999  1.4142  1.8534
 6370SOL    HW230744   1.119   2.381  12.491 -0.0478  1.7736 -0.2675
 6371SOL     OW30745   2.172   2.852   8.821 -0.0458 -0.2892 -0.2005
 6371SOL    HW130746   2.153   2.772   8.773  0.0846 -0.2617 -0.3005
 6371SOL    HW230747   2.267   2.858   8.813 -0.0034 -2.5114 -1.2223
 6372SOL     OW30748   1.472   3.594   2.665  0.2681 -0.0996 -0.7710
 6372SOL    HW130749   1.444   3.579   2.575  0.4788  1.5110 -1.1035
 6372SOL    HW230750   1.546   3.533   2.673  0.0403 -0.0350  1.7329
 6373SOL     OW30751   4.181   0.350   3.419  0.3082 -0.0346 -0.4574
 6373SOL    HW130752   4.189   0.443   3.437  1.0017 -1.0586  4.6801
 6373SOL    HW230753   4.092   0.353   3.384  0.7278  2.4109 -1.3200
 6374SOL     OW30754   3.273   3.731   7.664 -0.3855  0.0825  0.1674
 6374SOL    HW130755   3.341   3.664   7.666 -0.0421  0.4173 -0.2362
 6374SOL    HW230756   3.225   3.714   7.745  0.0881 -0.2625  0.3763
 6375SOL     OW30757   2.700   1.493   7.720  0.0304  0.0026 -0.0568
 6375SOL    HW130758   2.661   1.551   7.786  2.2145  1.7231 -0.2665
 6375SOL    HW230759   2.708   1.414   7.774  0.6362 -0.0400 -0.2126
 6376SOL     OW30760   2.768   4.591   4.836 -0.8445  0.4281  0.7830
 6376SOL    HW130761   2.805   4.646   4.767 -0.7223 -0.1137  0.4147
 6376SOL    HW230762   2.723   4.525   4.783  1.5990 -2.2859  2.1158
 6377SOL     OW30763   2.260   1.318  14.728  0.0945  0.1450 -0.2543
 6377SOL    HW130764   2.194   1.372  14.772  0.3225 -0.2886  0.6354
 6377SOL    HW230765   2.317   1.285  14.798  0.8321  0.7904 -0.5445
 6378SOL     OW30766   1.232   4.148   1.535  0.0299  0.0354 -0.0730
 6378SOL    HW130767   1.280   4.066   1.524 -0.1696 -0.1047  0.1159
 6378SOL    HW230768   1.229   4.189   1.449 -0.5452 -2.0360 -1.0342
 6379SOL     OW30769   3.718   1.217   7.822 -0.0096 -0.4810 -0.1774
 6379SOL    HW130770   3.808   1.184   7.813  0.7218  1.0889  1.3799
 6379SOL    HW230771   3.733   1.282   7.891 -0.0461  0.5925 -1.1870
 6380SOL     OW30772   0.935   4.536   7.716  0.5635  0.3235 -0.0823
 6380SOL    HW130773   1.017   4.487   7.711  0.3622  0.0736 -0.9678
 6380SOL    HW230774   0.929   4.540   7.812 -3.2125  0.2430 -0.3047
 6381SOL     OW30775   3.160   2.503   9.616 -0.0530  0.1675 -0.2324
 6381SOL    HW130776   3.091   2.570   9.622  0.8532  1.1967 -1.3251
 6381SOL    HW230777   3.194   2.504   9.527 -2.7531  0.6999 -1.2748
 6382SOL     OW30778   3.122   0.278   4.244  0.4174 -0.2226 -0.5801
 6382SOL    HW130779   3.118   0.244   4.154 -1.2329 -0.8843 -0.2588
 6382SOL    HW230780   3.137   0.196   4.291  0.5618 -0.9370 -1.8640
 6383SOL     OW30781   3.609   1.989   3.468 -0.3019  0.2268  0.0039
 6383SOL    HW130782   3.640   2.065   3.517  1.3434 -0.9948  0.8585
 6383SOL    HW230783   3.533   1.973   3.523 -0.6092  0.2190 -0.4190
 6384SOL     OW30784   2.583   1.659   7.888 -0.0660 -0.4113 -0.0641
 6384SOL    HW130785   2.529   1.708   7.825 -1.4590 -0.0145  1.4470
 6384SOL    HW230786   2.515   1.631   7.949 -0.2858  2.8788  1.2185
 6385SOL     OW30787   3.436   1.683  15.877  0.4498  0.3808  1.1248
 6385SOL    HW130788   3.379   1.759  15.890 -0.0964 -0.1815  2.0214
 6385SOL    HW230789   3.433   1.679  15.781  2.3679  0.9758  1.0351
 6386SOL     OW30790   0.071   0.310   4.832  0.7772 -0.0469 -0.0879
 6386SOL    HW130791   0.125   0.292   4.755  3.1987 -0.2918  1.6589
 6386SOL    HW230792   0.008   0.238   4.840  1.3132 -0.5576 -0.5345
 6387SOL     OW30793   1.252   1.588   5.725  0.0783  0.1931  0.0205
 6387SOL    HW130794   1.316   1.525   5.758 -0.7289 -0.1447  0.9702
 6387SOL    HW230795   1.301   1.667   5.703  0.9207 -0.0759  0.9249
 6388SOL     OW30796   1.006   3.555  10.456  0.0102 -0.0883 -0.2164
 6388SOL    HW130797   1.017   3.625  10.519  1.0341  0.0346 -0.5340
 6388SOL    HW230798   1.098   3.531  10.451  0.3255  0.8373  1.3743
 6389SOL     OW30799   3.181   4.096  10.324  0.6039 -0.2060  0.1825
 6389SOL    HW130800   3.215   4.138  10.245  1.8025  0.9198  1.3003
 6389SOL    HW230801   3.252   4.051  10.367  0.3921 -2.1846 -1.5486
 6390SOL     OW30802   0.376   3.020   5.471 -0.2089  0.3265  0.5418
 6390SOL    HW130803   0.295   2.986   5.509  0.5812 -1.4119  0.6685
 6390SOL    HW230804   0.379   3.106   5.513  0.7277  0.3931  0.3261
 6391SOL     OW30805   3.814   3.798   1.250  0.4571 -0.0103  0.5549
 6391SOL    HW130806   3.763   3.805   1.170  1.4791 -2.4174 -0.3075
 6391SOL    HW230807   3.749   3.774   1.315 -0.2111  1.6759  0.5111
 6392SOL     OW30808   1.189   3.651  16.311 -0.1699 -1.1622  0.2134
 6392SOL    HW130809   1.274   3.685  16.338 -0.7049  1.1366 -0.9889
 6392SOL    HW230810   1.209   3.558  16.322  1.1148 -1.0227 -0.9125
 6393SOL     OW30811   0.624   3.177   8.486  0.3432 -0.0943 -0.6496
 6393SOL    HW130812   0.551   3.117   8.475 -1.4001  1.8393  0.2496
 6393SOL    HW230813   0.578   3.240   8.542 -1.2418 -1.4337 -0.4437
 6394SOL     OW30814   2.885   1.161   9.405  0.0410 -0.5345 -0.8154
 6394SOL    HW130815   2.884   1.127   9.495  1.3156 -1.5361 -1.1800
 6394SOL    HW230816   2.970   1.205   9.402 -1.2394  1.9676 -0.3746
 6395SOL     OW30817   3.051   3.431   3.129 -0.2930 -0.2093 -0.6361
 6395SOL    HW130818   3.012   3.392   3.051 -1.1792  1.2176 -0.9048
 6395SOL    HW230819   3.144   3.447   3.113 -0.2315  0.6573  0.6106
 6396SOL     OW30820   0.055   1.894   1.165 -0.5322  0.5633  0.4209
 6396SOL    HW130821   0.076   1.836   1.239  0.8428 -0.0867 -0.4704
 6396SOL    HW230822   0.138   1.910   1.120 -0.4115 -3.0934 -0.6206
 6397SOL     OW30823   3.581   3.914  11.521 -0.1237  0.4456  0.4550
 6397SOL    HW130824   3.655   3.895  11.464 -0.2868 -3.6479  1.5420
 6397SOL    HW230825   3.560   3.831  11.565  1.9516 -0.4731 -0.2899
 6398SOL     OW30826   0.959   1.015   0.751 -0.2006 -0.7296 -0.3142
 6398SOL    HW130827   0.973   1.084   0.687  0.9660 -1.6979 -1.0974
 6398SOL    HW230828   0.878   1.042   0.795 -0.1648  1.6875 -1.7418
 6399SOL     OW30829   3.093   2.808   7.488 -0.4193  0.5018  0.2446
 6399SOL    HW130830   3.173   2.775   7.530 -0.0858  0.9044 -0.0655
 6399SOL    HW230831   3.029   2.762   7.541  0.3428 -1.2292 -0.3542
 6400SOL     OW30832   1.226   3.259  11.763 -0.2919 -0.4339  0.1356
 6400SOL    HW130833   1.185   3.190  11.814 -1.0859  1.2674  1.8294
 6400SOL    HW230834   1.173   3.334  11.792  0.2645 -0.5353  1.4321
 6401SOL     OW30835   4.088   4.136  13.882 -0.0714 -0.0156 -0.0965
 6401SOL    HW130836   4.052   4.171  13.801 -1.2026 -0.4512  0.2154
 6401SOL    HW230837   4.100   4.213  13.938  0.5193 -1.0563  1.2171
 6402SOL     OW30838   0.346   1.797   3.473 -0.1474  0.1460  0.0266
 6402SOL    HW130839   0.289   1.759   3.539  0.8203  0.3159  0.9722
 6402SOL    HW230840   0.407   1.725   3.456  0.1290  0.5901 -0.9150
 6403SOL     OW30841   4.708   4.612   2.955  0.4127  0.6451  0.8637
 6403SOL    HW130842   0.063   4.590   2.944  0.2012 -1.0436  2.4131
 6403SOL    HW230843   4.709   4.700   2.918 -1.5108  0.5049  0.4735
 6404SOL     OW30844   4.119   1.869   3.338 -0.1596 -0.4842 -0.5014
 6404SOL    HW130845   4.033   1.895   3.373  0.4366  1.4921 -0.5185
 6404SOL    HW230846   4.127   1.931   3.265  3.3162  0.3636  0.5987
 6405SOL     OW30847   4.211   2.659   8.028  0.3371 -0.1653  0.7008
 6405SOL    HW130848   4.174   2.685   8.113  0.1237  0.0167  0.5520
 6405SOL    HW230849   4.190   2.735   7.975  3.0402  0.1735  0.1243
 6406SOL     OW30850   1.237   3.805  15.237  0.0963 -0.4257 -0.2705
 6406SOL    HW130851   1.229   3.815  15.332 -1.2566 -2.3583 -0.1722
 6406SOL    HW230852   1.184   3.726  15.232  0.5366 -0.7708  0.6819
 6407SOL     OW30853   4.517   2.889  10.247 -0.2952  0.0322  0.4484
 6407SOL    HW130854   4.431   2.924  10.226 -0.1852  1.9677  3.1023
 6407SOL    HW230855   4.499   2.892  10.341 -1.1677  1.7306  0.2226
 6408SOL     OW30856   1.271   0.982  10.386 -0.0832  0.5756  0.0370
 6408SOL    HW130857   1.255   0.929  10.464 -2.3317  0.9287 -0.1929
 6408SOL    HW230858   1.330   0.931  10.329  1.6384  0.9224  1.5357
 6409SOL     OW30859   2.382   4.456   7.449  0.3801 -0.3570 -0.6496
 6409SOL    HW130860   2.326   4.483   7.377  0.0002 -3.4860 -1.5410
 6409SOL    HW230861   2.318   4.391   7.480  2.3293 -2.1708 -0.3916
 6410SOL     OW30862   1.436   2.573   8.046  0.1630  0.7782  0.2919
 6410SOL    HW130863   1.357   2.559   8.097 -0.3116 -1.9140 -1.2442
 6410SOL    HW230864   1.462   2.661   8.075  1.5778 -0.5819  3.2027
 6411SOL     OW30865   1.930   1.402   7.044  0.5969  0.1345  0.1033
 6411SOL    HW130866   1.878   1.327   7.014  1.1716 -0.1637 -0.1695
 6411SOL    HW230867   1.870   1.474   7.029  1.0925  0.6711  0.6774
 6412SOL     OW30868   1.279   0.630   6.635  0.1785  0.5845 -0.8116
 6412SOL    HW130869   1.343   0.662   6.571  0.7655 -0.8107 -0.9179
 6412SOL    HW230870   1.257   0.715   6.675 -0.9710 -1.1962  2.3146
 6413SOL     OW30871   2.788   3.032   6.391  0.3364 -0.0003  0.1622
 6413SOL    HW130872   2.771   2.985   6.473 -0.9454 -0.4474 -0.3583
 6413SOL    HW230873   2.807   3.122   6.417  1.3007 -0.5370  1.2878
 6414SOL     OW30874   1.502   4.434   0.242  0.3057 -0.0890  0.3363
 6414SOL    HW130875   1.517   4.364   0.179  2.8509  2.4221 -1.8348
 6414SOL    HW230876   1.529   4.508   0.187 -0.1724  0.1156  0.3781
 6415SOL     OW30877   3.934   2.083   4.510  0.0337 -0.2403  0.1957
 6415SOL    HW130878   3.844   2.115   4.522 -0.3303 -0.3448 -2.2877
 6415SOL    HW230879   3.980   2.102   4.592 -0.6236 -1.3597  0.8201
 6416SOL     OW30880   4.147   1.017   2.209  0.3933  0.8641  0.4811
 6416SOL    HW130881   4.240   1.035   2.222  0.4282  0.7030  0.4500
 6416SOL    HW230882   4.130   1.071   2.132  0.2049  0.1501  0.0235
 6417SOL     OW30883   3.208   2.613  11.320 -0.0006  0.1522  0.0791
 6417SOL    HW130884   3.225   2.652  11.406 -1.3548 -1.1225  0.9283
 6417SOL    HW230885   3.284   2.647  11.273 -1.4282 -0.0906 -2.4021
 6418SOL     OW30886   2.462   0.040  15.042  0.0741 -0.2716  0.7490
 6418SOL    HW130887   2.415   0.063  14.962 -0.2249  1.1880  1.3443
 6418SOL    HW230888   2.545   0.077  15.014 -0.4471 -1.0243 -1.7500
 6419SOL     OW30889   0.435   4.621   6.549 -0.1630  0.0681 -0.3664
 6419SOL    HW130890   0.372   4.612   6.621  1.0290  0.6005  0.7516
 6419SOL    HW230891   0.383   4.612   6.469 -0.6494 -2.0626  0.1969
 6420SOL     OW30892   2.618   3.808   5.705 -0.3172 -0.5006 -0.2947
 6420SOL    HW130893   2.705   3.770   5.693 -0.6286 -1.2611 -0.1488
 6420SOL    HW230894   2.566   3.738   5.667  2.3567 -2.2608 -0.7385
 6421SOL     OW30895   4.069   2.895  14.229  0.6498 -0.3448  0.0822
 6421SOL    HW130896   4.040   2.945  14.153  0.4697  0.4879  0.6988
 6421SOL    HW230897   4.158   2.876  14.198  0.9947  0.7536  0.3824
 6422SOL     OW30898   0.305   4.485   3.169 -0.4492 -0.1040  0.6255
 6422SOL    HW130899   0.281   4.553   3.106 -4.2470 -0.8639  1.2689
 6422SOL    HW230900   0.391   4.515   3.199 -0.4160  1.2921 -0.8382
 6423SOL     OW30901   3.524   2.810   6.332 -0.5147  0.0993 -0.0614
 6423SOL    HW130902   3.510   2.824   6.426 -0.4240  0.3642 -0.0890
 6423SOL    HW230903   3.563   2.722   6.334 -0.0234  0.3062 -0.6389
 6424SOL     OW30904   0.648   2.891   6.795  0.1591 -0.5851 -0.1552
 6424SOL    HW130905   0.590   2.946   6.742 -0.1510 -1.3488 -0.6054
 6424SOL    HW230906   0.586   2.870   6.866  0.3567 -0.1337  0.1570
 6425SOL     OW30907   1.323   2.442  13.037  0.4129 -0.3045 -0.0248
 6425SOL    HW130908   1.291   2.490  13.114 -0.1342  0.9079 -1.0135
 6425SOL    HW230909   1.414   2.428  13.065  0.2491  0.4435  0.8897
 6426SOL     OW30910   1.676   4.619   1.723  0.4318 -0.4512  0.3247
 6426SOL    HW130911   1.624   4.671   1.662  2.3673  0.3437 -0.6615
 6426SOL    HW230912   1.759   4.608   1.677 -0.3176  2.4080 -1.7101
 6427SOL     OW30913   0.957   0.890   8.988  0.6034  0.1985  0.2028
 6427SOL    HW130914   0.898   0.950   8.942  1.2184  0.9773  0.4336
 6427SOL    HW230915   0.920   0.807   8.957 -0.4703  0.3463  1.0842
 6428SOL     OW30916   1.634   3.327   4.481 -0.7935 -0.0929 -0.7534
 6428SOL    HW130917   1.547   3.363   4.463 -0.4486 -0.0718 -2.3955
 6428SOL    HW230918   1.630   3.247   4.428  0.9589 -1.5772  1.3708
 6429SOL     OW30919   1.293   0.312   6.971 -0.1361  0.3543  0.4403
 6429SOL    HW130920   1.219   0.254   6.988 -0.3564 -0.0944 -2.1021
 6429SOL    HW230921   1.363   0.247   6.975  0.7528  1.1998 -1.2955
 6430SOL     OW30922   4.402   3.534   7.788  0.5234  0.1795  0.1170
 6430SOL    HW130923   4.440   3.446   7.789 -2.5105 -1.1015  1.7454
 6430SOL    HW230924   4.470   3.582   7.741 -1.7219  2.5024 -0.7325
 6431SOL     OW30925   3.748   1.254   4.501  0.4970 -0.0093 -0.0567
 6431SOL    HW130926   3.798   1.246   4.582  3.5619  0.1090 -1.9308
 6431SOL    HW230927   3.801   1.199   4.442 -0.6828 -1.6205  0.3971
 6432SOL     OW30928   4.599   2.684   9.103 -0.0965  0.3424  0.1251
 6432SOL    HW130929   4.620   2.694   9.196 -1.0674 -0.2929  0.4108
 6432SOL    HW230930   4.509   2.650   9.100 -0.6416  1.7780  0.3042
 6433SOL     OW30931   4.300   3.990  15.002 -0.2222 -0.5588  0.5515
 6433SOL    HW130932   4.224   3.988  14.944 -0.4712 -1.5643  0.8988
 6433SOL    HW230933   4.320   3.896  15.003  0.2799 -0.4569 -0.3635
 6434SOL     OW30934   3.284   1.385  12.616 -0.0680 -0.2044  0.2649
 6434SOL    HW130935   3.260   1.392  12.708  1.2981  1.2574  0.5068
 6434SOL    HW230936   3.301   1.475  12.590 -0.2887  0.0135  0.8829
 6435SOL     OW30937   0.107   3.284   6.051  0.1396  0.6466 -0.0444
 6435SOL    HW130938   0.189   3.312   6.011 -0.4176 -1.1560 -2.5459
 6435SOL    HW230939   0.056   3.364   6.063  0.4361  1.0622 -1.5099
 6436SOL     OW30940   4.081   0.290  11.689 -0.3775  0.3077 -0.1355
 6436SOL    HW130941   4.131   0.218  11.728 -3.4305 -0.9611  1.4274
 6436SOL    HW230942   4.030   0.330  11.760 -1.5572 -0.6690 -0.4389
 6437SOL     OW30943   1.514   3.685   4.234  0.1761  0.1133  0.1839
 6437SOL    HW130944   1.549   3.670   4.146  0.1047  0.4979  0.0907
 6437SOL    HW230945   1.524   3.602   4.281 -1.2954 -0.3478 -0.3229
 6438SOL     OW30946   2.500   1.802  11.208 -0.5508 -0.2594 -0.4347
 6438SOL    HW130947   2.518   1.748  11.285 -1.8607 -0.6946 -0.4335
 6438SOL    HW230948   2.406   1.815  11.217 -0.3523 -0.4578  1.8381
 6439SOL     OW30949   4.137   1.627  16.520  0.7436  0.6866 -0.2629
 6439SOL    HW130950   4.128   1.708  16.571 -1.4701 -0.2195  0.7925
 6439SOL    HW230951   4.045   1.603  16.508  0.6277  0.4831  1.0238
 6440SOL     OW30952   0.542   2.894  13.699 -0.1894  0.4058 -0.6301
 6440SOL    HW130953   0.509   2.911  13.787  0.4516  1.0663 -0.5159
 6440SOL    HW230954   0.553   2.984  13.669  3.2669 -0.3031 -1.5665
 6441SOL     OW30955   2.720   2.046   7.202  0.7547  0.0921 -0.4455
 6441SOL    HW130956   2.760   2.096   7.131  0.6651 -0.5390 -0.9381
 6441SOL    HW230957   2.663   2.116   7.234  1.5134  0.0976  0.9516
 6442SOL     OW30958   2.614   3.276   4.063 -0.0435 -0.3028 -0.1292
 6442SOL    HW130959   2.520   3.293   4.069  0.0123 -0.1945  0.4260
 6442SOL    HW230960   2.611   3.233   3.977  1.1530 -1.9424  0.6410
 6443SOL     OW30961   2.331   3.110  15.616  0.1258 -0.6001 -0.3290
 6443SOL    HW130962   2.299   3.020  15.609 -0.2985 -0.5608  1.1032
 6443SOL    HW230963   2.287   3.152  15.542 -1.4038  0.9667  1.4706
 6444SOL     OW30964   2.618   1.299   2.020 -0.5514 -0.1109  0.4360
 6444SOL    HW130965   2.613   1.204   2.006  1.1875  0.0164 -1.0302
 6444SOL    HW230966   2.689   1.319   1.960 -1.3715 -2.2141 -1.2645
 6445SOL     OW30967   4.474   2.631   5.640 -0.0596 -0.1654 -0.3754
 6445SOL    HW130968   4.522   2.648   5.721  1.1365 -0.4512 -1.0235
 6445SOL    HW230969   4.481   2.536   5.628 -3.8840 -0.5696  0.6152
 6446SOL     OW30970   3.711   0.621   4.251  0.0668 -0.3066 -0.1849
 6446SOL    HW130971   3.699   0.609   4.157  0.1168  0.7805 -0.3263
 6446SOL    HW230972   3.695   0.530   4.279  0.9520 -0.9901 -1.9015
 6447SOL     OW30973   0.179   0.766  10.873 -0.3553  0.4797 -0.0785
 6447SOL    HW130974   0.156   0.836  10.812 -0.6389  2.1994  2.0189
 6447SOL    HW230975   0.220   0.821  10.940  0.5443 -0.5174  0.1931
 6448SOL     OW30976   2.739   2.368   4.034  0.2356 -0.6144  0.2087
 6448SOL    HW130977   2.775   2.391   3.948  0.3615  4.4171  1.6128
 6448SOL    HW230978   2.762   2.276   4.041 -1.8026 -1.1897 -0.4458
 6449SOL     OW30979   3.237   0.742  16.826 -0.0439  0.5736 -0.5024
 6449SOL    HW130980   3.277   0.803  16.764  1.1889  1.6709  1.3750
 6449SOL    HW230981   3.313   0.707  16.873 -0.2778 -1.3506 -1.5377
 6450SOL     OW30982   1.735   0.584   2.750 -0.1575 -0.3274  0.2439
 6450SOL    HW130983   1.801   0.525   2.716  0.6451 -0.7865  2.6007
 6450SOL    HW230984   1.649   0.543   2.737 -1.3066  2.6300 -1.4972
 6451SOL     OW30985   1.008   4.546   8.399 -0.5382  0.4333 -0.0482
 6451SOL    HW130986   1.046   4.633   8.384  1.9427 -0.9855 -2.0305
 6451SOL    HW230987   1.003   4.510   8.311 -0.8005 -1.2995  0.6895
 6452SOL     OW30988   0.676   1.635   3.999 -0.3434 -0.2055 -0.3209
 6452SOL    HW130989   0.606   1.688   4.038 -0.4672  0.5284 -1.5342
 6452SOL    HW230990   0.712   1.707   3.948 -0.4736  0.7314  0.8984
 6453SOL     OW30991   2.680   3.566   8.073  0.1064 -0.2311  0.1766
 6453SOL    HW130992   2.769   3.541   8.099  1.4149  1.6047 -2.5839
 6453SOL    HW230993   2.649   3.607   8.154  0.2661  0.5167 -0.1466
 6454SOL     OW30994   0.247   1.875   8.219 -0.0073  0.5464  0.0041
 6454SOL    HW130995   0.231   1.840   8.306 -0.3298  0.2043 -0.1950
 6454SOL    HW230996   0.212   1.964   8.226 -0.5483  0.3255  0.1037
 6455SOL     OW30997   4.157   2.938   7.213  0.1142 -0.4972  0.2576
 6455SOL    HW130998   4.247   2.957   7.187  0.6523  0.0909  2.5478
 6455SOL    HW230999   4.152   2.973   7.302 -1.2785 -0.8217  0.3021
 6456SOL     OW31000   0.527   4.163  12.615 -0.2757 -0.1400  0.3036
 6456SOL    HW131001   0.461   4.168  12.547  0.4851  1.1164 -0.3568
 6456SOL    HW231002   0.595   4.126  12.559 -0.1807  2.7487 -1.4568
 6457SOL     OW31003   1.779   2.461  17.095 -0.4864 -0.3552  0.3073
 6457SOL    HW131004   1.875   2.457  17.091 -0.6643 -3.1388 -1.2819
 6457SOL    HW231005   1.764   2.555  17.103 -1.9775 -0.2962 -2.9728
 6458SOL     OW31006   2.425   1.633   1.044  0.0388  0.0423  0.2601
 6458SOL    HW131007   2.409   1.539   1.050 -0.1815 -0.0551 -1.7078
 6458SOL    HW231008   2.508   1.635   1.092  1.4698  2.3215 -2.3286
 6459SOL     OW31009   2.699   3.793   7.400 -0.1512 -0.0624  0.1747
 6459SOL    HW131010   2.604   3.778   7.405 -0.4358  1.7364  0.2829
 6459SOL    HW231011   2.701   3.889   7.396 -1.5786 -0.1271 -2.1655
 6460SOL     OW31012   1.120   3.903   4.787 -0.0800  0.3758  0.0563
 6460SOL    HW131013   1.163   3.857   4.714  1.0811  1.2833  0.1638
 6460SOL    HW231014   1.169   3.985   4.780  1.5714 -0.5977  0.1069
 6461SOL     OW31015   1.833   3.171   6.669 -0.1750  0.4037 -0.2903
 6461SOL    HW131016   1.882   3.209   6.596  0.2545 -5.3238 -3.0407
 6461SOL    HW231017   1.746   3.207   6.651 -0.3633  0.7706  1.4093
 6462SOL     OW31018   3.290   2.009   1.075 -0.3616  0.5154 -0.0247
 6462SOL    HW131019   3.339   2.027   1.155  2.2176 -0.2790 -1.4299
 6462SOL    HW231020   3.353   2.017   1.004 -1.5319 -0.9348 -1.2252
 6463SOL     OW31021   3.084   2.355   2.488  0.3193 -0.5210 -0.1156
 6463SOL    HW131022   3.138   2.277   2.498  1.4935 -0.0680 -3.1298
 6463SOL    HW231023   3.144   2.406   2.434  1.7214 -0.7451  1.2283
 6464SOL     OW31024   1.268   2.625   3.889 -0.3862 -0.0055  0.2557
 6464SOL    HW131025   1.319   2.551   3.921  1.0394  0.7313 -0.2730
 6464SOL    HW231026   1.275   2.685   3.964  2.2842 -0.2482  0.1942
 6465SOL     OW31027   0.700   0.815   0.835 -0.2915 -0.2066 -0.1028
 6465SOL    HW131028   0.746   0.796   0.916 -0.7377  1.6203  0.5723
 6465SOL    HW231029   0.764   0.811   0.765  0.4963  1.0110  0.5471
 6466SOL     OW31030   1.798   1.265  11.588  0.2552 -0.8141 -0.7572
 6466SOL    HW131031   1.829   1.271  11.498 -0.5217  0.7688 -0.9140
 6466SOL    HW231032   1.726   1.328  11.581  0.5398 -0.2995  1.0541
 6467SOL     OW31033   2.571   2.782   3.059 -0.6229  0.0385 -0.1087
 6467SOL    HW131034   2.612   2.696   3.069  0.7722  0.6351 -0.7677
 6467SOL    HW231035   2.579   2.818   3.147 -0.9312 -1.4673  0.5342
 6468SOL     OW31036   0.333   2.218   7.163  0.4505  0.3279  0.1519
 6468SOL    HW131037   0.266   2.284   7.143 -1.0560 -1.8386 -2.0781
 6468SOL    HW231038   0.390   2.282   7.205 -1.1227  1.8671 -0.0569
 6469SOL     OW31039   4.102   4.038   5.493 -0.0247 -0.5406 -0.3753
 6469SOL    HW131040   4.069   4.020   5.405 -0.3239  1.0119 -0.5796
 6469SOL    HW231041   4.047   3.987   5.552  0.1685  1.1398  1.2694
 6470SOL     OW31042   3.809   2.229  10.449 -0.0492 -0.1603 -0.2515
 6470SOL    HW131043   3.861   2.186  10.381  0.2974 -0.6780  0.3435
 6470SOL    HW231044   3.846   2.193  10.529 -0.1141 -0.4073 -0.3306
 6471SOL     OW31045   4.077   2.663   7.271  0.1833  0.0175  0.6822
 6471SOL    HW131046   4.005   2.645   7.211  0.0220  1.4539  0.4417
 6471SOL    HW231047   4.104   2.745   7.231 -0.9039 -0.4365 -0.9558
 6472SOL     OW31048   0.773   1.929   5.364  0.1807 -0.4880 -0.0891
 6472SOL    HW131049   0.753   1.921   5.271 -2.1615 -0.0360  0.3573
 6472SOL    HW231050   0.686   1.954   5.396  0.7395  0.8175  0.3786
 6473SOL     OW31051   2.397   1.101   5.738  0.1353  0.6726 -0.0139
 6473SOL    HW131052   2.487   1.106   5.770 -0.8895 -0.2978  3.0127
 6473SOL    HW231053   2.352   1.136   5.815  0.6210  0.2096  0.4777
 6474SOL     OW31054   4.245   3.681   5.298  0.0351  0.2854 -0.0241
 6474SOL    HW131055   4.216   3.619   5.365  2.4599 -1.2379 -0.3852
 6474SOL    HW231056   4.164   3.726   5.273 -0.2251 -0.4394 -0.4924
 6475SOL     OW31057   1.244   0.398   3.364  0.1053  0.1811 -0.1927
 6475SOL    HW131058   1.251   0.482   3.319  1.2234  0.3156  0.2330
 6475SOL    HW231059   1.273   0.331   3.302  1.6272  0.2826  0.4092
 6476SOL     OW31060   0.952   3.435  10.991 -0.5230 -0.2032  0.2552
 6476SOL    HW131061   1.041   3.471  11.000 -0.6037 -0.2627  1.3864
 6476SOL    HW231062   0.924   3.443  11.082 -2.4909  1.1574 -0.4832
 6477SOL     OW31063   4.036   0.130   2.489  0.0603  0.0126  0.0869
 6477SOL    HW131064   4.075   0.048   2.460  1.8480  0.3301  1.5650
 6477SOL    HW231065   4.107   0.172   2.537 -0.0087  2.1783 -1.6901
 6478SOL     OW31066   0.073   3.192  15.223 -0.0371 -0.2248 -0.3006
 6478SOL    HW131067   0.126   3.271  15.211  0.3127 -0.4509 -0.2314
 6478SOL    HW231068   0.107   3.140  15.296  0.8201 -0.3364 -0.7799
 6479SOL     OW31069   1.624   4.453   0.470  0.1338  0.1740  0.7812
 6479SOL    HW131070   1.612   4.548   0.462 -1.0811 -0.2485 -2.0820
 6479SOL    HW231071   1.582   4.417   0.393  3.0583  0.1889 -0.8404
 6480SOL     OW31072   0.967   1.118  11.420  0.2177  0.0346 -0.0383
 6480SOL    HW131073   1.019   1.050  11.377 -0.4307 -0.0586 -0.6825
 6480SOL    HW231074   0.986   1.096  11.511 -1.0444 -0.4608  0.1060
 6481SOL     OW31075   0.544   1.814   1.567 -0.2647  0.1976 -0.1422
 6481SOL    HW131076   0.608   1.859   1.622  0.6934  0.5619 -1.5705
 6481SOL    HW231077   0.601   1.763   1.510 -1.2632  0.4222 -1.3362
 6482SOL     OW31078   2.438   2.936   7.484  0.5887  0.8690  0.2536
 6482SOL    HW131079   2.353   2.964   7.450  1.0231 -0.2324 -1.7513
 6482SOL    HW231080   2.468   2.915   7.395 -2.0154 -1.0467 -0.1542
 6483SOL     OW31081   1.412   1.614   4.019  0.1906 -0.1244 -0.4928
 6483SOL    HW131082   1.334   1.584   3.973  0.5640  0.2044 -1.3446
 6483SOL    HW231083   1.425   1.538   4.076  0.8984  0.2514 -0.1473
 6484SOL     OW31084   4.656   1.736   2.862  0.2216  0.2079 -0.5039
 6484SOL    HW131085   4.717   1.751   2.934  0.5857  0.0909 -0.7890
 6484SOL    HW231086   4.646   1.641   2.870 -0.7096  0.0654 -3.2510
 6485SOL     OW31087   1.083   1.459  14.882 -0.4713 -0.1613 -0.7230
 6485SOL    HW131088   1.147   1.414  14.937 -0.1424  0.7026 -0.4076
 6485SOL    HW231089   1.131   1.538  14.857 -0.6487  0.2321  0.2031
 6486SOL     OW31090   3.946   2.079  16.462 -0.1079 -1.0152 -0.7874
 6486SOL    HW131091   3.983   2.162  16.492  0.9096 -1.2906 -1.2894
 6486SOL    HW231092   3.854   2.102  16.445  0.5570  1.4457 -1.0295
 6487SOL     OW31093   3.572   3.728   7.996  0.2042  0.0159 -0.2780
 6487SOL    HW131094   3.537   3.651   7.950  0.9910 -1.2405  1.2489
 6487SOL    HW231095   3.612   3.773   7.922 -0.1764 -0.8308 -1.0112
 6488SOL     OW31096   2.557   0.200   2.967  0.6036 -0.0526 -0.0435
 6488SOL    HW131097   2.467   0.213   2.937 -0.4615 -2.5250  2.1197
 6488SOL    HW231098   2.595   0.287   2.949  0.4141  0.3986  1.7907
 6489SOL     OW31099   2.072   1.598   5.494  0.0443  0.4280  0.1298
 6489SOL    HW131100   1.978   1.617   5.490  0.2781  2.0541  1.9856
 6489SOL    HW231101   2.099   1.565   5.408 -0.6243  0.9960 -0.2985
 6490SOL     OW31102   0.210   4.555   6.710  0.2213 -0.1132 -0.0725
 6490SOL    HW131103   0.160   4.493   6.762 -1.3866  2.1890  1.1275
 6490SOL    HW231104   0.231   4.619   6.777 -1.9563  0.4851  0.0545
 6491SOL     OW31105   3.129   3.653   4.119  0.0620 -0.9009 -0.4424
 6491SOL    HW131106   3.097   3.737   4.084 -0.1042 -0.6239  0.3682
 6491SOL    HW231107   3.224   3.657   4.113 -0.0013 -0.2047 -0.9887
 6492SOL     OW31108   1.388   0.935   1.522  0.3652  0.2281 -0.1382
 6492SOL    HW131109   1.395   0.849   1.564 -0.4612 -0.5702 -1.6531
 6492SOL    HW231110   1.473   0.973   1.545 -0.1776  1.0408  0.5258
 6493SOL     OW31111   3.816   3.590   5.086 -0.1277 -0.1403 -0.0837
 6493SOL    HW131112   3.768   3.672   5.095 -0.2816 -0.2334 -0.0634
 6493SOL    HW231113   3.903   3.623   5.109 -1.2995  2.7554  0.1837
 6494SOL     OW31114   3.075   3.910   8.918  0.4419  0.1532  0.5974
 6494SOL    HW131115   2.994   3.946   8.882 -0.1702  0.5053  2.3188
 6494SOL    HW231116   3.131   3.898   8.841 -2.0074 -1.4780 -0.9282
 6495SOL     OW31117   1.112   0.352  11.656 -0.2990  0.1688  0.1569
 6495SOL    HW131118   1.028   0.394  11.639 -0.2123  0.4111  0.3301
 6495SOL    HW231119   1.156   0.413  11.714  0.7030  1.9829 -2.5044
 6496SOL     OW31120   1.343   1.576   1.126  0.0243  0.3718 -0.4732
 6496SOL    HW131121   1.379   1.648   1.075  0.4715  1.3317  1.1900
 6496SOL    HW231122   1.281   1.553   1.057 -0.2389  0.0475 -0.1326
 6497SOL     OW31123   3.978   3.494  11.476 -0.1550 -0.3505 -0.1610
 6497SOL    HW131124   3.895   3.487  11.524 -0.6340  3.9590 -0.4198
 6497SOL    HW231125   3.964   3.575  11.428 -0.2287 -0.4271 -0.2700
 6498SOL     OW31126   3.639   0.214   0.223  0.2134  0.5210 -0.4390
 6498SOL    HW131127   3.578   0.266   0.170  0.6523  1.3172 -0.1574
 6498SOL    HW231128   3.592   0.132   0.237  3.5151 -0.9720  1.8173
 6499SOL     OW31129   4.147   4.169   5.799  0.0229 -0.0553  0.5839
 6499SOL    HW131130   4.083   4.186   5.868  0.2310 -0.1472  0.7988
 6499SOL    HW231131   4.093   4.208   5.731  3.4461  1.8666 -1.0364
 6500SOL     OW31132   3.260   0.410   9.855  0.5193  0.4933  0.7664
 6500SOL    HW131133   3.263   0.470   9.929 -1.5067  1.5016  0.0137
 6500SOL    HW231134   3.291   0.451   9.774  1.2663 -1.0163  0.2760
 6501SOL     OW31135   3.297   0.430   0.278 -0.3645 -0.2377  0.6968
 6501SOL    HW131136   3.275   0.471   0.362  1.2520  0.0682  0.9659
 6501SOL    HW231137   3.356   0.493   0.237  1.2519  0.2601  3.7879
 6502SOL     OW31138   4.098   2.861   5.801  0.0605  0.2854  0.7755
 6502SOL    HW131139   4.161   2.856   5.729 -1.4510  1.4860 -0.6275
 6502SOL    HW231140   4.141   2.797   5.858 -2.1811 -0.8296  1.1914
 6503SOL     OW31141   3.209   4.117  16.118 -0.5548 -0.2026 -0.4721
 6503SOL    HW131142   3.133   4.175  16.121 -1.3683 -1.3524  1.2769
 6503SOL    HW231143   3.177   4.050  16.058 -1.3853 -0.6530  0.4735
 6504SOL     OW31144   2.016   3.054   3.235  0.0700  0.4111 -0.0513
 6504SOL    HW131145   2.096   3.014   3.271 -0.1205  0.2584  0.1973
 6504SOL    HW231146   2.054   3.096   3.157  2.5044 -1.1156  0.3180
 6505SOL     OW31147   0.385   2.861   5.055  0.2486  0.2066  0.5363
 6505SOL    HW131148   0.441   2.808   4.998  0.1554  2.0564 -1.2586
 6505SOL    HW231149   0.311   2.880   4.998  0.1018 -1.3183  0.2306
 6506SOL     OW31150   3.470   4.373  11.300 -0.2631 -0.4236 -0.0667
 6506SOL    HW131151   3.541   4.328  11.346 -1.7750 -1.1101  1.5828
 6506SOL    HW231152   3.523   4.389  11.221  1.9837  3.1641  2.1690
 6507SOL     OW31153   0.612   2.573   9.705 -0.3690  0.0859  0.1332
 6507SOL    HW131154   0.555   2.649   9.717 -1.9827 -1.3618  1.6393
 6507SOL    HW231155   0.570   2.519   9.638  0.7737 -1.6234  0.7571
 6508SOL     OW31156   1.595   0.229  12.069 -0.0708  0.9882  0.0965
 6508SOL    HW131157   1.633   0.208  11.984 -0.8742  1.1398 -0.2985
 6508SOL    HW231158   1.538   0.303  12.048  1.2701  1.3356 -2.3584
 6509SOL     OW31159   2.271   1.919   0.693 -0.1374  0.5956 -0.0481
 6509SOL    HW131160   2.329   1.980   0.648  0.0780  0.6292  0.2740
 6509SOL    HW231161   2.227   1.981   0.751  1.6344  1.6693  0.1393
 6510SOL     OW31162   4.198   4.437   5.509  0.3080  0.0980  0.0263
 6510SOL    HW131163   4.121   4.415   5.560  2.4509 -2.1558  2.3096
 6510SOL    HW231164   4.206   4.356   5.458  0.0164  0.2711 -0.2916
 6511SOL     OW31165   1.319   0.044   0.178  0.1196 -0.3102 -0.2301
 6511SOL    HW131166   1.377   0.120   0.172 -0.3370  0.0659  0.1038
 6511SOL    HW231167   1.300   0.028   0.086 -3.3798  1.0054  0.2624
 6512SOL     OW31168   2.353   1.889  13.053  0.1820 -0.2403 -0.2794
 6512SOL    HW131169   2.403   1.811  13.077 -0.4371 -0.6006 -0.1498
 6512SOL    HW231170   2.351   1.930  13.139  0.9307  1.5155 -1.0990
 6513SOL     OW31171   3.490   3.137   3.380  0.2342  0.1685  0.4567
 6513SOL    HW131172   3.583   3.150   3.398  0.1535  1.6278 -0.1956
 6513SOL    HW231173   3.451   3.149   3.467  0.2644  3.0104  0.0624
 6514SOL     OW31174   1.029   1.258   0.680 -0.2547 -0.4469  0.3637
 6514SOL    HW131175   0.997   1.301   0.759  0.4147  0.6364  0.0415
 6514SOL    HW231176   1.109   1.307   0.661 -1.0963  1.2655  1.2676
 6515SOL     OW31177   0.176   0.338   9.229 -0.0791 -0.2621 -0.2427
 6515SOL    HW131178   0.162   0.329   9.324 -3.9985  1.2091 -0.6930
 6515SOL    HW231179   0.227   0.419   9.219  2.6886 -1.8139  1.2138
 6516SOL     OW31180   3.997   0.332   2.101  0.5248 -0.2058 -0.2975
 6516SOL    HW131181   4.017   0.389   2.176  1.3794  1.1254 -1.5429
 6516SOL    HW231182   3.944   0.266   2.145  0.3498  0.1381  0.0130
 6517SOL     OW31183   3.881   1.532   8.434 -0.0369 -0.0584 -0.3928
 6517SOL    HW131184   3.935   1.533   8.513  0.2474  1.7382 -0.6037
 6517SOL    HW231185   3.908   1.450   8.395 -0.0153 -0.0399 -0.4163
 6518SOL     OW31186   4.328   3.713  10.079 -0.0865  0.4944  0.9428
 6518SOL    HW131187   4.395   3.757  10.132  1.4953  0.7978 -1.3430
 6518SOL    HW231188   4.348   3.747   9.992 -0.9587 -0.4182  0.3901
 6519SOL     OW31189   2.080   3.131   9.224 -0.6181 -0.0571  0.3466
 6519SOL    HW131190   2.117   3.132   9.312 -0.1093 -1.4016  0.1457
 6519SOL    HW231191   2.076   3.036   9.214  0.3437 -0.1441  0.8561
 6520SOL     OW31192   4.240   3.773   4.216  0.4933  0.0417 -0.5109
 6520SOL    HW131193   4.236   3.678   4.229  0.3343 -0.0760 -1.4086
 6520SOL    HW231194   4.248   3.813   4.303 -0.0590  0.4210 -0.6359
 6521SOL     OW31195   0.063   2.794   4.202  0.2415  0.3066  0.9778
 6521SOL    HW131196   0.137   2.833   4.249  0.8781  0.6522 -0.3085
 6521SOL    HW231197   4.732   2.860   4.214 -0.2760  0.1891 -1.3649
 6522SOL     OW31198   0.805   1.012   4.190  0.0813  0.3717 -0.4196
 6522SOL    HW131199   0.711   1.030   4.184  0.3739  1.8656 -0.5558
 6522SOL    HW231200   0.834   1.006   4.099  0.6539  0.4455 -0.2383
 6523SOL     OW31201   0.479   3.056   6.102  0.1951  0.5939  0.7250
 6523SOL    HW131202   0.529   3.105   6.167  0.3342  2.4118 -0.7793
 6523SOL    HW231203   0.538   3.026   6.033 -0.3899  2.4833 -0.5870
 6524SOL     OW31204   3.998   0.987   8.107 -0.3454  1.2146  0.1061
 6524SOL    HW131205   3.943   0.971   8.184 -1.5642  1.2053 -0.7646
 6524SOL    HW231206   4.072   1.030   8.150  1.1785  1.1090 -2.4269
 6525SOL     OW31207   3.150   4.504  10.054  0.0439  0.7745  0.2766
 6525SOL    HW131208   3.091   4.564  10.101  0.3003  0.2768  1.2280
 6525SOL    HW231209   3.091   4.435  10.023  2.1251 -1.1537  0.6204
 6526SOL     OW31210   0.862   1.982  12.719  0.2293 -0.5049  0.1171
 6526SOL    HW131211   0.798   1.932  12.669 -0.3835  0.7751 -0.3770
 6526SOL    HW231212   0.939   1.973  12.662  1.0954 -0.1402  1.2178
 6527SOL     OW31213   2.382   0.709   8.530  0.1804  0.1638 -0.0937
 6527SOL    HW131214   2.448   0.658   8.483  1.1465  0.0983  1.3507
 6527SOL    HW231215   2.370   0.773   8.459 -1.4284  0.0342  0.0776
 6528SOL     OW31216   4.153   3.048   6.597 -0.0123  0.4851 -0.1285
 6528SOL    HW131217   4.216   2.995   6.646  0.9478  0.5649 -1.2788
 6528SOL    HW231218   4.161   3.134   6.637 -0.0886  0.2872  0.3070
 6529SOL     OW31219   4.034   3.328   4.463 -0.4899 -0.2254 -0.1145
 6529SOL    HW131220   4.029   3.360   4.553 -1.0289 -0.1071 -0.1851
 6529SOL    HW231221   4.048   3.234   4.476 -1.5219 -0.2431  0.8843
 6530SOL     OW31222   3.212   2.444   5.210 -0.6024  0.4797  0.3865
 6530SOL    HW131223   3.295   2.490   5.212  0.1650 -0.8969  0.2354
 6530SOL    HW231224   3.169   2.468   5.292  0.8662 -0.3980  1.4277
 6531SOL     OW31225   0.813   1.885   4.271 -0.0049  0.3659  0.2395
 6531SOL    HW131226   0.745   1.944   4.238 -0.4497 -1.2536 -1.7531
 6531SOL    HW231227   0.797   1.806   4.219 -2.3028  0.1190  1.3093
 6532SOL     OW31228   1.263   4.592   1.035  0.0793 -0.3525  0.5037
 6532SOL    HW131229   1.303   4.588   0.948 -3.4212  1.2091 -1.1838
 6532SOL    HW231230   1.291   4.508   1.071 -0.0500 -0.0761  1.2464
 6533SOL     OW31231   0.654   1.179  11.817  0.3431 -0.4602  0.9552
 6533SOL    HW131232   0.674   1.219  11.733  1.3754 -0.8557  1.0161
 6533SOL    HW231233   0.737   1.213  11.851  0.3788 -0.0396  0.4437
 6534SOL     OW31234   3.396   3.904   1.899  0.1172 -0.0521 -0.0540
 6534SOL    HW131235   3.374   3.909   1.806  0.0015 -3.4683 -0.2089
 6534SOL    HW231236   3.485   3.870   1.893  0.7753  1.5160  0.6736
 6535SOL     OW31237   3.594   4.427   5.576  0.2397  0.1849 -0.1826
 6535SOL    HW131238   3.522   4.368   5.550 -0.2127  0.4109  0.5542
 6535SOL    HW231239   3.665   4.363   5.581 -0.1698 -0.1724  1.0194
 6536SOL     OW31240   1.083   1.864   5.326 -0.3861 -0.4091  0.4535
 6536SOL    HW131241   1.044   1.842   5.242  2.0521 -1.4517 -0.4266
 6536SOL    HW231242   1.130   1.787   5.358  2.0782  1.3655  1.1223
 6537SOL     OW31243   0.786   3.460  11.839  0.6129  0.6231 -0.3366
 6537SOL    HW131244   0.818   3.370  11.843  2.6146  1.2586 -1.8274
 6537SOL    HW231245   0.843   3.498  11.907  2.3267 -0.1592 -1.3421
 6538SOL     OW31246   2.465   2.900   6.455  0.5180  0.6536 -0.1345
 6538SOL    HW131247   2.516   2.824   6.426 -0.7740  0.6905 -2.4998
 6538SOL    HW231248   2.509   2.941   6.530  0.1222 -0.5637  0.7729
 6539SOL     OW31249   0.511   0.888   2.005  0.2895 -0.4413  0.5047
 6539SOL    HW131250   0.465   0.963   2.042  2.8127  1.2417  0.2478
 6539SOL    HW231251   0.480   0.889   1.915 -1.0621 -0.0713  0.9680
 6540SOL     OW31252   1.247   4.036   7.611 -0.2627 -0.1895 -0.2486
 6540SOL    HW131253   1.336   4.055   7.642 -0.0307  0.3532 -1.2425
 6540SOL    HW231254   1.215   4.009   7.697 -0.2787 -0.3012 -0.2896
 6541SOL     OW31255   3.708   0.349   4.285  0.2165  0.1021  0.1063
 6541SOL    HW131256   3.664   0.268   4.258 -0.1788 -0.3480  2.0997
 6541SOL    HW231257   3.782   0.317   4.337  1.4859  0.4367 -1.4812
 6542SOL     OW31258   4.252   0.770   6.095  0.0039 -0.1640  0.5725
 6542SOL    HW131259   4.187   0.812   6.152 -0.1694 -0.9568  0.9480
 6542SOL    HW231260   4.314   0.732   6.156  2.3668  1.7956 -0.6001
 6543SOL     OW31261   0.043   3.985   7.947  0.1909 -0.4867  0.0636
 6543SOL    HW131262   4.730   4.047   8.001  1.8188  1.0157 -0.1506
 6543SOL    HW231263   0.107   3.952   8.010  0.4082  1.8603  1.0782
 6544SOL     OW31264   4.417   3.913   7.406 -0.1809 -0.1145 -0.1552
 6544SOL    HW131265   4.389   3.972   7.476 -0.5243 -0.3114 -0.1253
 6544SOL    HW231266   4.478   3.969   7.358 -1.8921  0.7761 -1.3019
 6545SOL     OW31267   1.437   4.599  10.655  0.2001 -0.0503 -0.1677
 6545SOL    HW131268   1.486   4.676  10.685 -1.9606  0.4051  2.1823
 6545SOL    HW231269   1.350   4.627  10.682  1.5207  0.5211  3.6001
 6546SOL     OW31270   2.681   2.339   6.341 -0.0704 -0.9304 -0.6302
 6546SOL    HW131271   2.649   2.430   6.340 -2.1988 -1.6829 -1.0039
 6546SOL    HW231272   2.607   2.302   6.389 -0.4448 -1.2711 -1.4634
 6547SOL     OW31273   2.691   0.048  16.511 -0.1678  0.6237  0.0523
 6547SOL    HW131274   2.712   4.691  16.511 -0.1655  0.6241 -0.0887
 6547SOL    HW231275   2.748   0.078  16.582  0.7455 -1.8832  0.4020
 6548SOL     OW31276   1.133   2.734   2.191  0.2041  0.0553  0.2934
 6548SOL    HW131277   1.151   2.648   2.153  0.8328 -0.9135  2.7906
 6548SOL    HW231278   1.190   2.734   2.268  0.2747  1.3800  0.2395
 6549SOL     OW31279   2.446   4.410   3.351  0.7797  0.1698  0.0389
 6549SOL    HW131280   2.396   4.333   3.323  2.0928 -0.7267  0.1672
 6549SOL    HW231281   2.436   4.465   3.273  0.5351 -1.1087 -0.8355
 6550SOL     OW31282   1.409   0.555   6.879 -0.1178 -0.0784 -0.4802
 6550SOL    HW131283   1.361   0.565   6.796  1.1586 -0.0116 -1.2177
 6550SOL    HW231284   1.354   0.483   6.909  1.6202 -0.7663  1.0267
 6551SOL     OW31285   3.630   2.715  15.443 -0.8769 -0.1349 -0.2113
 6551SOL    HW131286   3.683   2.793  15.427  0.1561 -0.4879  1.5245
 6551SOL    HW231287   3.553   2.721  15.387  0.0944  1.4169 -1.3760
 6552SOL     OW31288   3.443   1.441   8.617  0.3811  0.1034 -0.6919
 6552SOL    HW131289   3.516   1.411   8.671 -0.3694 -0.8304 -0.1903
 6552SOL    HW231290   3.431   1.369   8.555  2.0646  1.2501 -2.3867
 6553SOL     OW31291   4.045   0.244   2.843  0.0883  0.9247 -0.9094
 6553SOL    HW131292   3.952   0.232   2.825  0.1130 -1.0244  0.2649
 6553SOL    HW231293   4.048   0.275   2.934  0.3697  0.9236 -0.9191
 6554SOL     OW31294   3.133   1.235  16.167 -0.0236  0.2759  0.3152
 6554SOL    HW131295   3.204   1.199  16.220  3.8149  2.6401 -3.3040
 6554SOL    HW231296   3.185   1.299  16.119 -1.3484  1.3940  0.3613
 6555SOL     OW31297   4.732   0.097   4.284  1.1381  0.3950 -0.0700
 6555SOL    HW131298   0.009   0.028   4.220  0.4126 -1.1987  1.5025
 6555SOL    HW231299   4.647   0.138   4.267  1.7367  0.1658 -3.6383
 6556SOL     OW31300   0.952   1.456   0.875 -0.5724 -0.5906  0.8614
 6556SOL    HW131301   1.046   1.467   0.863 -0.7555  0.8348  0.8040
 6556SOL    HW231302   0.937   1.460   0.970  2.7989  0.2746  1.3552
 6557SOL     OW31303   4.631   4.164   7.337  0.1747  0.7175  0.0413
 6557SOL    HW131304   4.548   4.199   7.369 -0.8481  0.4810 -2.4174
 6557SOL    HW231305   4.667   4.240   7.292 -1.0475  0.3021 -1.6460
 6558SOL     OW31306   2.447   2.601   5.394 -0.1919  0.0447  0.2664
 6558SOL    HW131307   2.372   2.657   5.371  0.2859  0.1422 -1.0271
 6558SOL    HW231308   2.479   2.636   5.477 -0.2197 -1.4440  0.8932
 6559SOL     OW31309   4.461   1.704  15.389  0.9324 -0.5771 -0.1523
 6559SOL    HW131310   4.507   1.621  15.396  0.0289 -1.1670 -1.1947
 6559SOL    HW231311   4.390   1.687  15.451  0.9388  1.6756  0.4899
 6560SOL     OW31312   3.507   0.425   0.586  0.2508 -0.5844 -0.2124
 6560SOL    HW131313   3.427   0.377   0.566 -0.8380  1.1303  0.0320
 6560SOL    HW231314   3.479   0.513   0.561  1.9413  0.6972  2.3798
 6561SOL     OW31315   1.332   3.131   6.224  0.2620 -0.4684  0.0137
 6561SOL    HW131316   1.315   3.075   6.148 -0.2526  0.5645 -0.6254
 6561SOL    HW231317   1.398   3.074   6.263  0.7077  0.6800  0.9245
 6562SOL     OW31318   2.822   0.582   3.618  0.1055 -0.0285  0.8569
 6562SOL    HW131319   2.788   0.627   3.696  1.5782 -1.2769  2.2363
 6562SOL    HW231320   2.831   0.488   3.630  0.5687  0.0114  0.8083
 6563SOL     OW31321   2.048   3.423  13.517 -0.3730 -0.1087  0.7934
 6563SOL    HW131322   2.131   3.424  13.565  1.7319  1.2714 -2.9341
 6563SOL    HW231323   2.069   3.364  13.445  1.5993  1.7248 -0.0929
 6564SOL     OW31324   4.079   2.337   8.468 -0.1818 -0.1027  0.0135
 6564SOL    HW131325   3.997   2.386   8.476 -0.0059 -0.2767  2.9846
 6564SOL    HW231326   4.051   2.282   8.395 -0.0336  1.1406 -0.9814
 6565SOL     OW31327   0.175   0.660   4.177 -0.2649 -0.3789 -0.3161
 6565SOL    HW131328   0.086   0.685   4.202 -0.8903 -1.2565 -1.6424
 6565SOL    HW231329   0.190   0.598   4.249  1.0152  2.2900  1.7344
 6566SOL     OW31330   1.301   4.638   8.735  0.1213  0.5278 -0.0309
 6566SOL    HW131331   1.275   4.596   8.817 -2.6764 -0.2596 -1.2945
 6566SOL    HW231332   1.395   4.620   8.742 -0.4820 -2.1877  1.1966
 6567SOL     OW31333   4.092   3.248  11.462 -0.1876  0.3424 -0.1101
 6567SOL    HW131334   4.063   3.339  11.456 -2.3594 -0.2703  0.9241
 6567SOL    HW231335   4.013   3.195  11.475  1.2976 -2.1850 -1.4066
 6568SOL     OW31336   2.331   4.041   8.122  0.0201  0.2756  0.3408
 6568SOL    HW131337   2.333   4.067   8.214  1.6129 -0.7944  0.6078
 6568SOL    HW231338   2.394   4.103   8.085 -0.6432  0.0156 -1.2213
 6569SOL     OW31339   3.511   2.101   8.731 -0.1585 -0.3644 -0.6487
 6569SOL    HW131340   3.497   2.195   8.746 -0.2292 -0.3038 -1.0684
 6569SOL    HW231341   3.428   2.065   8.763 -0.2308 -0.4728 -0.9608
 6570SOL     OW31342   4.357   2.390  14.389 -0.4747 -0.0783 -0.0411
 6570SOL    HW131343   4.441   2.345  14.376 -0.9963 -0.3986 -2.2254
 6570SOL    HW231344   4.383   2.476  14.357 -1.2010  0.5978  1.1881
 6571SOL     OW31345   1.171   3.758   9.458  0.1226 -0.3222  0.7373
 6571SOL    HW131346   1.090   3.807   9.454 -0.4251 -0.9928  3.9403
 6571SOL    HW231347   1.179   3.743   9.552  3.0046  0.3111  0.6138
 6572SOL     OW31348   2.826   1.690   0.589 -0.5169 -0.2139 -0.2038
 6572SOL    HW131349   2.844   1.712   0.497 -0.7491 -0.0018 -0.1996
 6572SOL    HW231350   2.762   1.758   0.614 -0.0832  0.2595 -0.3756
 6573SOL     OW31351   2.369   2.905  14.475 -0.2897 -0.4671 -0.1307
 6573SOL    HW131352   2.396   2.979  14.528 -0.9391  0.2660 -0.8263
 6573SOL    HW231353   2.355   2.834  14.538  0.2622 -0.1950  0.2904
 6574SOL     OW31354   0.294   2.891   1.198 -0.1491 -0.0222  0.2688
 6574SOL    HW131355   0.322   2.864   1.285 -0.8393  2.9820  1.4210
 6574SOL    HW231356   0.376   2.917   1.156  0.9977 -1.2824  1.7845
 6575SOL     OW31357   3.577   4.426   9.446  0.2467 -0.0929 -0.3066
 6575SOL    HW131358   3.499   4.425   9.390  1.0327 -3.7990 -1.3711
 6575SOL    HW231359   3.543   4.411   9.534  0.4896 -0.9202 -0.3476
 6576SOL     OW31360   3.015   2.960   4.541  0.4563  0.6808  0.4194
 6576SOL    HW131361   3.068   2.882   4.525 -0.6526 -0.6282  3.1458
 6576SOL    HW231362   3.026   2.973   4.635  2.4882 -0.0492  0.2865
 6577SOL     OW31363   0.341   1.222   7.386  0.2610 -0.4668  0.2667
 6577SOL    HW131364   0.366   1.309   7.358  0.5836 -0.1158  1.6436
 6577SOL    HW231365   0.307   1.243   7.473  1.8980  3.3285 -0.0446
 6578SOL     OW31366   0.527   1.713   6.509 -0.2990  0.0847  0.3560
 6578SOL    HW131367   0.526   1.723   6.414  1.9061 -1.2859  0.1779
 6578SOL    HW231368   0.444   1.759   6.516  0.7863  2.1668 -0.3735
 6579SOL     OW31369   3.319   1.867  12.994 -0.0160 -0.2013  0.3843
 6579SOL    HW131370   3.287   1.874  12.904 -0.6071 -0.4699  0.5688
 6579SOL    HW231371   3.302   1.774  13.013 -0.8043 -0.0338  0.5073
 6580SOL     OW31372   0.696   4.650   2.375 -0.4719 -0.0855 -0.3391
 6580SOL    HW131373   0.726   4.614   2.458  0.4862  0.5771 -0.4027
 6580SOL    HW231374   0.655   4.570   2.341 -1.2829  1.0444 -2.0089
 6581SOL     OW31375   1.168   3.363   5.888  0.3626 -0.4094 -0.2855
 6581SOL    HW131376   1.214   3.313   5.821 -0.1282  0.0850 -0.9891
 6581SOL    HW231377   1.109   3.409   5.829 -0.5822 -1.3619 -0.1061
 6582SOL     OW31378   1.581   4.657   7.319  0.1165  0.4790  0.3760
 6582SOL    HW131379   1.532   4.681   7.240 -0.5239  0.0242  0.6349
 6582SOL    HW231380   1.602   4.570   7.285 -1.9670 -0.4809  1.5152
 6583SOL     OW31381   2.976   0.484   7.239 -0.4749  0.7222  0.7259
 6583SOL    HW131382   2.991   0.452   7.328 -1.3047 -0.3482  0.4921
 6583SOL    HW231383   2.988   0.576   7.262 -2.0888  1.0233  0.3922
 6584SOL     OW31384   2.475   1.698  15.324  0.1074  0.8102  0.4516
 6584SOL    HW131385   2.448   1.787  15.346  1.7374  1.3270  0.3553
 6584SOL    HW231386   2.553   1.693  15.379  0.7542 -0.0168 -0.5316
 6585SOL     OW31387   4.307   2.285   3.607 -0.0535 -0.6584 -0.8254
 6585SOL    HW131388   4.358   2.273   3.526 -0.7638  0.7446 -1.4684
 6585SOL    HW231389   4.224   2.256   3.571 -1.0419  0.9915  0.1432
 6586SOL     OW31390   1.487   4.284   3.718  0.5538 -0.3557 -0.3621
 6586SOL    HW131391   1.520   4.369   3.746 -1.1645 -0.0445  0.7725
 6586SOL    HW231392   1.395   4.304   3.739  1.3575  1.4897  1.3824
 6587SOL     OW31393   0.699   4.579   1.272 -0.2049 -0.5749 -0.0668
 6587SOL    HW131394   0.732   4.523   1.342  0.2529  2.1633  1.8815
 6587SOL    HW231395   0.780   4.627   1.254 -0.3754 -0.0663  0.5561
 6588SOL     OW31396   2.274   1.873   8.754  0.0395 -0.4178 -0.4020
 6588SOL    HW131397   2.213   1.813   8.797  0.4245 -1.0514 -0.7345
 6588SOL    HW231398   2.294   1.935   8.824  0.5258 -1.0125 -0.0174
 6589SOL     OW31399   4.190   2.977   3.840 -0.2284 -0.1438 -0.8427
 6589SOL    HW131400   4.148   3.015   3.763 -1.8709  0.2902  0.2703
 6589SOL    HW231401   4.276   2.975   3.797  0.0445  0.0215 -0.3069
 6590SOL     OW31402   1.266   0.370   2.211  0.3745 -0.0864  0.5134
 6590SOL    HW131403   1.221   0.371   2.127  0.6195  2.5973  0.4419
 6590SOL    HW231404   1.200   0.421   2.259  0.4801  0.8974 -0.4130
 6591SOL     OW31405   3.575   2.285  10.255 -0.6940 -0.6123 -0.0687
 6591SOL    HW131406   3.668   2.272  10.271 -0.4870 -0.5231 -1.1656
 6591SOL    HW231407   3.564   2.288  10.160 -0.8412  1.0300 -0.0058
 6592SOL     OW31408   1.273   3.562   7.791 -0.1022 -0.5875  0.1161
 6592SOL    HW131409   1.348   3.508   7.817  0.8805  1.6754  1.8930
 6592SOL    HW231410   1.311   3.605   7.715 -2.5884 -1.1876 -1.4686
 6593SOL     OW31411   3.939   1.948  10.498  0.3208  0.1599 -0.2999
 6593SOL    HW131412   3.962   1.985  10.583  2.7265 -1.3736 -0.2991
 6593SOL    HW231413   3.846   1.929  10.515  1.0088 -2.8799  0.1427
 6594SOL     OW31414   1.093   4.455   5.951  0.1481  0.6639 -0.6407
 6594SOL    HW131415   1.154   4.382   5.938 -0.5929 -0.5814  2.8376
 6594SOL    HW231416   1.083   4.471   6.045  0.9524  2.0988 -0.7985
 6595SOL     OW31417   2.635   0.035   4.993 -1.1169  0.4464 -0.4917
 6595SOL    HW131418   2.681   4.695   4.960 -1.8010 -0.1094 -0.1441
 6595SOL    HW231419   2.547   0.010   4.963 -1.1329 -0.8120  0.6227
 6596SOL     OW31420   3.862   1.788   1.341 -0.2115 -0.4539  0.5725
 6596SOL    HW131421   3.931   1.822   1.284  0.0560 -0.6211  0.7961
 6596SOL    HW231422   3.824   1.867   1.379 -1.6301 -1.1604  0.6614
 6597SOL     OW31423   1.669   2.222   2.383  0.5950 -0.3181  0.0717
 6597SOL    HW131424   1.710   2.181   2.307 -0.0229  0.2241 -0.5532
 6597SOL    HW231425   1.751   2.255   2.420  0.4829  0.5433 -0.4449
 6598SOL     OW31426   0.289   3.540   5.409  0.0240  0.9401 -0.0299
 6598SOL    HW131427   0.342   3.473   5.365  1.4876  2.2141 -0.2246
 6598SOL    HW231428   0.258   3.602   5.343 -2.7539  0.1384  0.5275
 6599SOL     OW31429   2.530   2.311   2.032 -0.2511  0.1960  0.3002
 6599SOL    HW131430   2.602   2.361   2.071 -1.0831  2.1852 -0.7030
 6599SOL    HW231431   2.575   2.252   1.972 -0.0756 -0.7405  1.3536
 6600SOL     OW31432   3.171   0.647   5.714 -0.0198 -0.0065  0.3509
 6600SOL    HW131433   3.093   0.702   5.705 -0.8655 -1.3046 -0.2589
 6600SOL    HW231434   3.130   0.567   5.681  0.2142  0.9657 -2.3101
 6601SOL     OW31435   1.893   3.224   5.578  0.1831  0.2231  0.4774
 6601SOL    HW131436   1.936   3.263   5.503 -0.8808 -0.4310 -0.4758
 6601SOL    HW231437   1.951   3.268   5.640 -1.3052  2.1552  0.4784
 6602SOL     OW31438   2.999   4.151   5.944 -0.0454 -0.0800 -0.0927
 6602SOL    HW131439   2.917   4.196   5.921  0.0576  0.3965  0.4661
 6602SOL    HW231440   3.054   4.229   5.932 -0.2949  0.2245  0.7259
 6603SOL     OW31441   3.622   1.204  12.900 -0.1902  0.4169  0.0484
 6603SOL    HW131442   3.669   1.191  12.982 -0.3919  0.4883  0.1757
 6603SOL    HW231443   3.580   1.118  12.911  1.5517 -0.5750 -0.9790
 6604SOL     OW31444   3.298   2.255  15.282  0.2999  0.0475  0.3614
 6604SOL    HW131445   3.360   2.317  15.321 -0.6527  0.7618  0.7493
 6604SOL    HW231446   3.230   2.315  15.252  1.2690  1.7214  1.5216
 6605SOL     OW31447   1.869   0.657   9.135  0.0775 -0.5166 -0.7950
 6605SOL    HW131448   1.925   0.583   9.108  0.2683 -1.0085  0.9043
 6605SOL    HW231449   1.933   0.728   9.144 -2.1643  1.1780  1.5669
 6606SOL     OW31450   0.247   1.963   9.807  0.3575 -0.5379  0.0209
 6606SOL    HW131451   0.340   1.943   9.817  0.9204  1.5985 -0.7592
 6606SOL    HW231452   0.210   1.901   9.870  0.9333  0.7441  1.6167
 6607SOL     OW31453   4.009   1.817  15.588  0.4860 -0.5815  0.5307
 6607SOL    HW131454   3.993   1.900  15.543  2.0725 -0.1022  0.8299
 6607SOL    HW231455   3.937   1.824  15.651 -0.7682  0.8672 -1.0830
 6608SOL     OW31456   2.053   1.966  15.578 -0.0156  0.1345 -0.0404
 6608SOL    HW131457   2.104   2.011  15.646  1.2367 -1.8386  0.3062
 6608SOL    HW231458   2.125   1.947  15.519 -0.0329 -0.8417  0.2648
 6609SOL     OW31459   4.507   2.480   2.304 -0.1458 -0.1875 -0.2794
 6609SOL    HW131460   4.543   2.553   2.353  3.0026 -1.2101 -1.0967
 6609SOL    HW231461   4.563   2.490   2.227 -2.4425  3.1215 -1.4881
 6610SOL     OW31462   0.968   2.931   2.545 -0.2725 -0.2884 -0.5902
 6610SOL    HW131463   0.939   2.934   2.454 -2.3059 -3.6966 -0.0880
 6610SOL    HW231464   1.044   2.987   2.535 -0.3122 -0.6374 -3.0286
 6611SOL     OW31465   4.450   2.951   7.091  0.4086  0.0452 -0.6861
 6611SOL    HW131466   4.427   2.859   7.078 -0.3214 -0.0214  1.0397
 6611SOL    HW231467   4.404   3.004   7.026  1.1470  1.6560  0.0856
 6612SOL     OW31468   1.128   2.140   4.783  0.1407  0.0357 -0.5652
 6612SOL    HW131469   1.086   2.057   4.804  0.2988  0.1956  0.3566
 6612SOL    HW231470   1.184   2.103   4.714  1.8071 -0.7574  1.2198
 6613SOL     OW31471   2.138   4.263  16.080 -0.1410 -0.4430  0.2678
 6613SOL    HW131472   2.170   4.173  16.091 -1.7168 -1.0715 -0.1796
 6613SOL    HW231473   2.224   4.295  16.054 -1.6274  2.1113 -1.4348
 6614SOL     OW31474   0.940   4.623   5.801 -0.1573  0.2890 -0.2891
 6614SOL    HW131475   0.986   4.574   5.869 -0.3435  0.3998 -0.0847
 6614SOL    HW231476   0.898   4.551   5.753  1.3327 -0.4211 -0.5219
 6615SOL     OW31477   2.333   1.008  13.013  0.1017  0.4685 -0.3898
 6615SOL    HW131478   2.298   0.962  13.090 -0.4679 -1.1856 -1.6354
 6615SOL    HW231479   2.359   0.936  12.955  2.0588  1.6119 -0.8867
 6616SOL     OW31480   2.619   0.800  14.003 -1.1869  0.7919  0.1874
 6616SOL    HW131481   2.697   0.826  13.955 -0.8000 -2.5851 -0.9400
 6616SOL    HW231482   2.637   0.719  14.050 -1.1259  0.9876  0.5091
 6617SOL     OW31483   2.654   3.376   6.879  0.6736 -0.1303 -0.2535
 6617SOL    HW131484   2.601   3.297   6.896 -0.3390  0.8868  1.2911
 6617SOL    HW231485   2.597   3.431   6.825  0.7495 -0.9890 -1.2346
 6618SOL     OW31486   0.410   2.515  17.733  0.3959 -0.1981 -0.3311
 6618SOL    HW131487   0.363   2.466   0.054  0.5035 -1.4611 -1.1840
 6618SOL    HW231488   0.345   2.584  17.721 -0.5202 -1.2174 -1.2252
 6619SOL     OW31489   3.474   3.024   6.809  0.2441 -0.0851  0.0852
 6619SOL    HW131490   3.561   3.064   6.807 -0.5188  1.7766  2.7522
 6619SOL    HW231491   3.413   3.088   6.773  2.8532  3.5545  2.0478
 6620SOL     OW31492   1.286   4.609   2.254 -0.6644  0.1216 -0.0084
 6620SOL    HW131493   1.314   4.693   2.218  1.9162 -0.3776  0.8113
 6620SOL    HW231494   1.291   4.553   2.177  0.3580  0.5218 -0.2366
 6621SOL     OW31495   0.691   2.188   5.900  0.3279 -0.5279  0.2008
 6621SOL    HW131496   0.741   2.263   5.933 -1.1417  0.6653 -0.2937
 6621SOL    HW231497   0.715   2.190   5.808  0.2695 -0.4714  0.1871
 6622SOL     OW31498   3.074   2.382  10.776 -0.4283 -0.0588  0.1291
 6622SOL    HW131499   3.154   2.329  10.764 -0.3550  0.0312  0.2258
 6622SOL    HW231500   3.009   2.312  10.784  0.1052 -0.5371  0.3298
 6623SOL     OW31501   4.168   2.879   5.163  0.5950 -0.6527  0.6334
 6623SOL    HW131502   4.121   2.954   5.128  0.5697 -0.9124  0.1130
 6623SOL    HW231503   4.134   2.878   5.253  0.1879  0.4549  0.4885
 6624SOL     OW31504   4.000   3.334   9.609  0.4249 -0.3320  0.3269
 6624SOL    HW131505   3.962   3.338   9.697 -0.3284  0.2705 -0.0252
 6624SOL    HW231506   3.949   3.268   9.563 -0.5555 -0.3216  1.3938
 6625SOL     OW31507   3.762   2.293   2.447  0.4320 -0.7826  0.0680
 6625SOL    HW131508   3.851   2.275   2.477  1.3620  0.1187 -2.1277
 6625SOL    HW231509   3.771   2.371   2.392  1.1542  0.3231  1.7726
 6626SOL     OW31510   0.850   2.968   5.581  0.5682  0.3040  0.2301
 6626SOL    HW131511   0.926   3.012   5.545  1.5411 -0.3885  1.4541
 6626SOL    HW231512   0.884   2.881   5.603 -1.5831 -0.9939 -1.4990
 6627SOL     OW31513   3.733   1.531   6.623  0.2114  0.6546 -0.0262
 6627SOL    HW131514   3.784   1.452   6.605  0.7892  1.4251 -1.8381
 6627SOL    HW231515   3.724   1.575   6.538 -2.9077 -0.1521 -0.1160
 6628SOL     OW31516   3.590   2.750  10.578  0.1791 -0.5156  0.0529
 6628SOL    HW131517   3.521   2.768  10.643 -0.4163  0.1384 -0.7535
 6628SOL    HW231518   3.540   2.692  10.521  1.3620 -2.1576  0.7032
 6629SOL     OW31519   4.317   2.988  11.924  0.0794  0.0560 -0.4879
 6629SOL    HW131520   4.327   2.926  11.851  0.1289  0.3888 -0.7663
 6629SOL    HW231521   4.257   2.943  11.983  1.1889 -2.1442 -1.0284
 6630SOL     OW31522   1.177   3.780   6.612  0.0279  0.1503 -0.0394
 6630SOL    HW131523   1.202   3.703   6.560 -1.3175 -1.9058  2.3500
 6630SOL    HW231524   1.082   3.784   6.605  0.0470  1.1007  0.3196
 6631SOL     OW31525   4.163   3.793   8.683  0.4435 -0.5182 -0.0055
 6631SOL    HW131526   4.074   3.767   8.658  0.6833  0.8904 -2.2853
 6631SOL    HW231527   4.190   3.720   8.739 -1.6671 -0.5706  0.9392
 6632SOL     OW31528   1.747   1.321   2.438  0.3218  0.4094 -0.4221
 6632SOL    HW131529   1.821   1.377   2.460  1.3380 -0.5505 -1.4090
 6632SOL    HW231530   1.760   1.258   2.509  1.7679  0.9405 -0.2071
 6633SOL     OW31531   0.201   4.540  10.148 -0.3698 -0.0879 -0.1253
 6633SOL    HW131532   0.165   4.606  10.089  3.0857  0.0834 -1.9867
 6633SOL    HW231533   0.294   4.548  10.131  0.0296 -0.4402  1.8807
 6634SOL     OW31534   4.424   3.449   5.549 -0.2741  0.5782  0.1769
 6634SOL    HW131535   4.474   3.452   5.467 -0.2971 -1.1916  0.1081
 6634SOL    HW231536   4.473   3.496   5.616 -0.4910  0.6936  0.2559
 6635SOL     OW31537   0.096   3.833   6.195  0.1429  0.5174 -0.1688
 6635SOL    HW131538   0.041   3.879   6.258 -0.2175 -1.0621  0.6740
 6635SOL    HW231539   0.106   3.894   6.122  2.0123  1.6065  1.0015
 6636SOL     OW31540   1.329   0.635   3.873  0.4632 -0.3210 -0.0879
 6636SOL    HW131541   1.273   0.573   3.919  0.2864 -1.2227 -1.5232
 6636SOL    HW231542   1.312   0.594   3.788  0.2244 -2.2981  0.9361
 6637SOL     OW31543   3.363   4.057   8.459 -0.3192 -0.1048 -0.1947
 6637SOL    HW131544   3.446   4.015   8.438 -0.4297 -0.7507  0.6538
 6637SOL    HW231545   3.380   4.102   8.542 -0.7640 -1.0295  0.3963
 6638SOL     OW31546   1.877   0.036   5.399  0.4798 -0.5155  0.4909
 6638SOL    HW131547   1.931   4.694   5.386  2.9246  1.4239 -1.2164
 6638SOL    HW231548   1.895   0.083   5.318  0.8807 -1.9011 -0.2289
 6639SOL     OW31549   1.712   1.891  13.353 -0.3715 -1.0274  0.4998
 6639SOL    HW131550   1.692   1.832  13.426 -0.2487 -1.0418  0.5218
 6639SOL    HW231551   1.797   1.853  13.331 -0.2790  1.2994 -2.9899
 6640SOL     OW31552   4.607   0.638  16.911  0.4291  0.0273 -0.2691
 6640SOL    HW131553   4.518   0.632  16.875  2.1344 -3.0412 -4.0001
 6640SOL    HW231554   4.664   0.614  16.838 -2.2129 -1.2928 -1.9125
 6641SOL     OW31555   1.627   2.036   0.623 -0.5371  0.4837  0.2264
 6641SOL    HW131556   1.564   2.031   0.551 -2.5940  0.8438  1.9713
 6641SOL    HW231557   1.698   2.083   0.581  1.8785 -4.1047 -0.8686
 6642SOL     OW31558   2.647   2.550   3.188 -0.0261  0.6683 -0.1493
 6642SOL    HW131559   2.672   2.458   3.194  0.4309  0.9658  2.1958
 6642SOL    HW231560   2.628   2.569   3.279 -0.6511 -2.9179  0.4800
 6643SOL     OW31561   4.273   4.507  12.473 -0.3000 -0.2290  0.3091
 6643SOL    HW131562   4.204   4.573  12.475 -1.5545 -1.4801 -1.2390
 6643SOL    HW231563   4.237   4.451  12.404 -3.2730  2.3773 -0.2580
 6644SOL     OW31564   1.931   3.760   1.205  0.6237 -0.8450  0.0873
 6644SOL    HW131565   1.958   3.730   1.118 -1.7349  0.8393 -1.2513
 6644SOL    HW231566   1.845   3.799   1.186 -0.5477 -3.4576 -0.0256
 6645SOL     OW31567   0.351   2.508   7.210  0.3050 -0.3149 -0.6562
 6645SOL    HW131568   0.261   2.515   7.178 -0.1971 -0.8617  0.6344
 6645SOL    HW231569   0.361   2.587   7.262 -1.5541 -0.0100 -0.7664
 6646SOL     OW31570   3.780   3.459  10.642  0.1634 -0.1388  0.0434
 6646SOL    HW131571   3.732   3.431  10.719  0.8378  2.1790  1.3214
 6646SOL    HW231572   3.721   3.517  10.595  0.5235  1.9216  2.1414
 6647SOL     OW31573   1.229   2.484   4.730 -0.0511  0.3244  0.2596
 6647SOL    HW131574   1.227   2.446   4.643  0.8847 -0.1630  0.4510
 6647SOL    HW231575   1.322   2.481   4.754  0.0469 -0.2455 -0.1841
 6648SOL     OW31576   2.905   2.773   3.344 -0.2262 -0.3010  0.0803
 6648SOL    HW131577   2.887   2.820   3.262  0.3075  1.1248  0.7853
 6648SOL    HW231578   2.830   2.795   3.399  1.1971  0.2699  1.7888
 6649SOL     OW31579   1.374   1.587   7.356  0.0420 -0.3386 -0.2931
 6649SOL    HW131580   1.315   1.512   7.367 -2.2302  1.3376 -1.0820
 6649SOL    HW231581   1.442   1.566   7.421 -1.4474 -1.7786  0.7949
 6650SOL     OW31582   0.753   1.104   3.536  0.1486 -0.2465  0.0154
 6650SOL    HW131583   0.733   1.023   3.583  0.0070 -0.1379  0.1384
 6650SOL    HW231584   0.665   1.138   3.520  0.2599  0.2793  0.5244
 6651SOL     OW31585   1.656   1.039  11.540 -0.6566  0.5427  0.2584
 6651SOL    HW131586   1.743   1.001  11.534 -1.2907 -0.7794 -0.6939
 6651SOL    HW231587   1.678   1.126  11.574 -0.6755  0.2375  1.0590
 6652SOL     OW31588   3.528   2.233   0.791  0.5289 -0.6223  0.4725
 6652SOL    HW131589   3.520   2.145   0.755 -0.9487 -0.8590  1.3967
 6652SOL    HW231590   3.621   2.228   0.812  0.7330 -1.4303 -0.6089
 6653SOL     OW31591   1.946   2.906   4.631 -0.2668 -0.1904 -0.2893
 6653SOL    HW131592   1.895   2.948   4.561 -0.2461 -0.3741 -0.4136
 6653SOL    HW231593   1.995   2.841   4.580 -1.7949  0.5707 -2.7539
 6654SOL     OW31594   0.812   1.443   2.180 -0.2514  0.1897 -0.5497
 6654SOL    HW131595   0.744   1.510   2.173 -0.1410  0.4190  0.6488
 6654SOL    HW231596   0.864   1.452   2.100  0.8357  0.9555  0.2443
 6655SOL     OW31597   0.401   4.162   3.457 -0.1883 -0.0451  0.2176
 6655SOL    HW131598   0.376   4.080   3.499 -1.5635  1.1898  1.7957
 6655SOL    HW231599   0.319   4.208   3.475  0.2385  0.9290 -0.3288
 6656SOL     OW31600   0.337   3.594   5.737 -0.2144  0.2817  0.0129
 6656SOL    HW131601   0.273   3.551   5.680 -2.1405  0.5960  1.9454
 6656SOL    HW231602   0.403   3.624   5.675 -0.0806 -0.0997 -0.0283
 6657SOL     OW31603   3.753   3.259   5.816  0.1199 -0.1844 -0.2447
 6657SOL    HW131604   3.739   3.175   5.773 -1.1368 -0.5000  0.7736
 6657SOL    HW231605   3.848   3.256   5.816  0.1403  0.4428 -0.8881
 6658SOL     OW31606   1.072   2.370   2.695 -0.3079 -0.1838 -0.0077
 6658SOL    HW131607   1.091   2.276   2.700  2.5858  0.4628  1.2358
 6658SOL    HW231608   0.979   2.369   2.717 -0.1665 -0.9395  0.5647
 6659SOL     OW31609   4.475   1.609   5.709  0.2512 -0.2150  0.7178
 6659SOL    HW131610   4.556   1.620   5.660  0.4555 -0.2309  1.0571
 6659SOL    HW231611   4.512   1.612   5.797 -0.1397  0.3702  0.8634
 6660SOL     OW31612   4.639   2.813  15.753 -0.0709 -0.1098  0.2261
 6660SOL    HW131613   4.593   2.841  15.833 -0.3016 -0.4509  0.2155
 6660SOL    HW231614   4.652   2.900  15.716  1.5345  1.0052  3.3398
 6661SOL     OW31615   0.878   2.598   3.970  0.6122  0.0957 -0.0513
 6661SOL    HW131616   0.909   2.608   3.880  1.0826  2.2711  0.3374
 6661SOL    HW231617   0.809   2.664   3.961 -3.5785 -4.1086  1.2126
 6662SOL     OW31618   3.110   4.609  17.608  0.2023  0.2852  0.2368
 6662SOL    HW131619   3.075   4.699  17.610 -0.4942  0.0761 -3.2243
 6662SOL    HW231620   3.169   4.599  17.683  0.9357  1.5572 -0.1773
 6663SOL     OW31621   0.518   3.046   1.490  0.4014  0.1185  0.4521
 6663SOL    HW131622   0.468   2.965   1.499  1.1476 -0.4097 -0.1743
 6663SOL    HW231623   0.492   3.076   1.403 -0.5766  1.5060  1.2170
 6664SOL     OW31624   3.223   4.258   7.201  0.1744  0.2973 -0.4125
 6664SOL    HW131625   3.188   4.332   7.151 -0.7167 -2.0099 -3.2648
 6664SOL    HW231626   3.141   4.211   7.217  0.6914  0.6685  3.2461
 6665SOL     OW31627   4.546   3.995   3.755  0.0020  0.0396  0.1439
 6665SOL    HW131628   4.570   3.954   3.672 -1.9586 -0.6039 -0.1037
 6665SOL    HW231629   4.623   4.051   3.758  0.3306 -0.4189  0.3664
 6666SOL     OW31630   0.204   2.838  11.914 -0.2195  0.1007  0.1977
 6666SOL    HW131631   0.157   2.904  11.965 -0.1834 -1.4146  2.2241
 6666SOL    HW231632   0.178   2.757  11.959  0.6989 -0.1617  0.2509
 6667SOL     OW31633   1.168   0.663   3.274  0.3141 -0.0824  0.8730
 6667SOL    HW131634   1.197   0.697   3.189  0.2275  0.0064  0.8791
 6667SOL    HW231635   1.083   0.699   3.297  0.7634 -0.6583  3.4963
 6668SOL     OW31636   3.077   4.047  14.555  0.0139 -0.0138  0.5035
 6668SOL    HW131637   2.981   4.055  14.558 -0.1158 -0.3057 -2.6737
 6668SOL    HW231638   3.086   4.001  14.472  0.0576  0.5947  0.1661
 6669SOL     OW31639   0.716   1.762   0.309 -0.3914 -0.8841 -0.1751
 6669SOL    HW131640   0.787   1.714   0.352 -1.3472  0.7534  3.2456
 6669SOL    HW231641   0.680   1.697   0.248  0.0693 -1.8434  0.5770
 6670SOL     OW31642   1.801   3.207   2.671  0.1031 -0.4656  0.5313
 6670SOL    HW131643   1.831   3.294   2.646 -0.6806 -0.4074 -0.1884
 6670SOL    HW231644   1.761   3.231   2.754  1.0039  1.6799  0.3295
 6671SOL     OW31645   2.346   2.540  15.970 -0.7405  0.1095 -0.5362
 6671SOL    HW131646   2.288   2.616  15.964 -2.0807 -1.1930 -3.7507
 6671SOL    HW231647   2.360   2.512  15.880 -1.2571  1.9426 -1.1963
 6672SOL     OW31648   3.198   2.439   7.006  0.3666  0.2824 -0.0028
 6672SOL    HW131649   3.171   2.487   6.927 -1.8009  1.4365  1.4405
 6672SOL    HW231650   3.143   2.484   7.070  1.9084  2.2636 -0.0834
 6673SOL     OW31651   2.005   1.337   6.489  0.1751  0.4869 -0.1762
 6673SOL    HW131652   2.059   1.280   6.545  0.3165  0.7215 -0.0727
 6673SOL    HW231653   1.960   1.269   6.438 -1.2036  1.4924 -0.2983
 6674SOL     OW31654   4.148   3.827   6.102  0.3125  0.0128  0.0180
 6674SOL    HW131655   4.196   3.904   6.129  0.4264  0.3058 -0.9938
 6674SOL    HW231656   4.130   3.777   6.182  0.0259 -1.9604 -1.2515
 6675SOL     OW31657   4.594   2.298   3.008  0.0079  0.3334  0.0951
 6675SOL    HW131658   4.509   2.263   3.036  0.1295  0.5069  0.6808
 6675SOL    HW231659   4.637   2.236   2.949  1.6988  0.4823  1.1978
 6676SOL     OW31660   1.895   0.301  11.198  0.3042 -0.9563 -0.0679
 6676SOL    HW131661   1.841   0.234  11.156  2.2123 -2.7093  0.2886
 6676SOL    HW231662   1.836   0.333  11.266  1.9871  0.0922  0.9238
 6677SOL     OW31663   2.650   0.098   7.554  0.7202  0.0119 -0.7462
 6677SOL    HW131664   2.636   0.103   7.459  1.8787 -0.3460 -0.9468
 6677SOL    HW231665   2.717   0.164   7.571 -2.0343  2.3601  0.8537
 6678SOL     OW31666   4.422   1.371   8.104  0.2275 -0.5339  0.4280
 6678SOL    HW131667   4.407   1.293   8.050 -1.5112 -0.7496  1.2121
 6678SOL    HW231668   4.414   1.330   8.190 -1.4812 -2.9061 -0.8564
 6679SOL     OW31669   3.738   0.746  12.172 -0.1187 -0.0487  0.1907
 6679SOL    HW131670   3.802   0.722  12.239  1.4703  0.5110 -1.1007
 6679SOL    HW231671   3.700   0.831  12.191  2.1391  0.7152  1.3354
 6680SOL     OW31672   1.934   4.522  14.525  0.7975 -0.1250 -0.3203
 6680SOL    HW131673   2.003   4.501  14.462  1.1551 -0.7894  0.2938
 6680SOL    HW231674   1.981   4.566  14.596 -1.5270 -0.0344  1.1453
 6681SOL     OW31675   3.438   1.724   5.659 -0.0781 -0.1424 -0.2478
 6681SOL    HW131676   3.447   1.750   5.567 -0.4180  1.6274  0.2299
 6681SOL    HW231677   3.398   1.802   5.697 -0.8518 -0.2712 -0.8004
 6682SOL     OW31678   0.281   0.702  15.132 -0.3278 -0.3260 -0.0791
 6682SOL    HW131679   0.261   0.688  15.039  0.3250  2.3149 -0.6275
 6682SOL    HW231680   0.376   0.708  15.128 -0.3200  0.1263  0.7932
 6683SOL     OW31681   2.762   1.199  16.782  0.1154 -0.0255 -0.8848
 6683SOL    HW131682   2.726   1.247  16.707  0.6806  0.9811 -0.5203
 6683SOL    HW231683   2.855   1.192  16.761  0.8681  0.4343  2.3801
 6684SOL     OW31684   2.718   3.373   4.961  0.1328 -0.1289  0.2426
 6684SOL    HW131685   2.771   3.313   4.909  1.4436  0.6766  0.6562
 6684SOL    HW231686   2.698   3.438   4.894  0.8263 -0.7950 -0.6093
 6685SOL     OW31687   4.125   2.623   2.842  0.0113 -0.5107  0.5977
 6685SOL    HW131688   4.070   2.549   2.815 -0.7574 -0.0637  0.9409
 6685SOL    HW231689   4.200   2.581   2.883  0.9124 -0.0318 -0.5793
 6686SOL     OW31690   4.156   0.158   3.895  0.1143 -0.0210  0.3012
 6686SOL    HW131691   4.110   0.160   3.811 -0.1962 -0.4227  0.4622
 6686SOL    HW231692   4.233   0.201   3.859 -1.3910  3.6603  1.4967
 6687SOL     OW31693   4.697   1.828   4.845  0.2564  0.3846  0.1430
 6687SOL    HW131694   0.018   1.894   4.807 -0.8363  3.2370  3.4352
 6687SOL    HW231695   4.613   1.860   4.813 -1.2620 -1.2906  2.4795
 6688SOL     OW31696   4.068   1.156   7.096  0.4516 -0.2279  0.0837
 6688SOL    HW131697   4.121   1.236   7.093 -0.0240  0.0945  0.2148
 6688SOL    HW231698   4.130   1.106   7.149 -0.2971  2.6286  3.7136
 6689SOL     OW31699   2.651   3.607   4.177 -0.1251 -0.0885 -0.1318
 6689SOL    HW131700   2.696   3.546   4.119 -2.1378  2.1453 -4.0501
 6689SOL    HW231701   2.613   3.543   4.237  0.4605  2.3336  2.7893
 6690SOL     OW31702   1.559   3.338   0.635  0.6484  0.4902  0.1251
 6690SOL    HW131703   1.508   3.311   0.712 -1.2449 -1.3255 -1.7782
 6690SOL    HW231704   1.651   3.335   0.664  1.0035  2.1276 -0.8377
 6691SOL     OW31705   2.904   4.473  15.225  0.3786 -0.2378  0.2257
 6691SOL    HW131706   2.879   4.562  15.252  0.3931  0.0331 -0.6272
 6691SOL    HW231707   2.815   4.438  15.223  0.1641  0.2056  2.1524
 6692SOL     OW31708   2.902   0.724   3.370  0.3906 -0.1970 -0.2002
 6692SOL    HW131709   2.878   0.702   3.460 -1.0124  1.0399 -0.2718
 6692SOL    HW231710   2.903   0.641   3.323 -0.7385 -0.5822  0.4652
 6693SOL     OW31711   3.645   3.421   7.534 -0.5600 -0.3327  0.0710
 6693SOL    HW131712   3.705   3.467   7.475 -0.7874 -1.2323 -0.8538
 6693SOL    HW231713   3.706   3.387   7.599  0.1597 -1.3396 -1.1464
 6694SOL     OW31714   4.296   2.543  10.150 -0.3171 -0.1690  0.4267
 6694SOL    HW131715   4.241   2.501  10.083  0.0081 -0.0278  0.0739
 6694SOL    HW231716   4.290   2.477  10.219  1.8083  0.1687  0.9135
 6695SOL     OW31717   0.055   2.173   9.906  0.2810 -0.2854 -0.0161
 6695SOL    HW131718   0.120   2.103   9.904  1.4178  0.8174 -2.0813
 6695SOL    HW231719   4.732   2.148   9.837 -0.0853 -0.0230  0.2048
 6696SOL     OW31720   2.625   2.543   7.307  0.0264  0.3174 -0.3243
 6696SOL    HW131721   2.612   2.580   7.220 -1.2123  0.8792  0.1049
 6696SOL    HW231722   2.639   2.449   7.291 -3.3417 -0.4213  1.1138
 6697SOL     OW31723   2.604   4.405  13.323 -0.4109 -0.5054 -0.0918
 6697SOL    HW131724   2.578   4.494  13.345  0.3803  0.7126 -4.0899
 6697SOL    HW231725   2.667   4.395  13.394 -1.3862  0.5008  0.9177
 6698SOL     OW31726   2.564   2.466  16.991  0.3370 -0.3081  0.1819
 6698SOL    HW131727   2.641   2.411  17.008 -0.5773 -0.9921  2.1447
 6698SOL    HW231728   2.520   2.437  17.072  0.6285 -1.6793 -0.1423
 6699SOL     OW31729   1.372   0.321   1.166 -0.1735 -0.8759 -0.1550
 6699SOL    HW131730   1.413   0.390   1.217  0.5189 -0.1860 -1.6393
 6699SOL    HW231731   1.369   0.358   1.078  1.0525  0.6168  0.4543
 6700SOL     OW31732   2.055   4.622   3.595 -0.3881  0.0166 -0.5981
 6700SOL    HW131733   1.976   4.653   3.550  1.2116  1.9210 -2.1210
 6700SOL    HW231734   2.016   4.641   3.681 -1.2703  0.5672 -1.1162
 6701SOL     OW31735   1.501   4.439   4.488 -0.0175 -0.0621  0.9819
 6701SOL    HW131736   1.547   4.398   4.415 -2.9353  0.1605 -0.9886
 6701SOL    HW231737   1.511   4.377   4.560 -2.6392 -3.3551 -1.4932
 6702SOL     OW31738   4.056   2.922   2.079 -0.7440 -0.1142 -0.0597
 6702SOL    HW131739   4.050   2.903   2.172 -0.6809  0.7988  0.1285
 6702SOL    HW231740   3.993   2.863   2.038 -1.0834  0.4556 -0.3599
 6703SOL     OW31741   2.244   0.585  17.467  0.0653 -0.6869  0.0858
 6703SOL    HW131742   2.228   0.618  17.378  0.7006 -2.0336 -0.5235
 6703SOL    HW231743   2.178   0.518  17.480  1.1176 -1.6595  0.4212
 6704SOL     OW31744   2.951   0.326   1.871  0.0362 -0.1283  0.0801
 6704SOL    HW131745   2.872   0.283   1.904  0.6022 -0.7848  0.5817
 6704SOL    HW231746   2.996   0.244   1.853 -0.6038 -0.7310  1.2085
 6705SOL     OW31747   1.723   0.870  14.337  0.6233  0.4906 -0.2346
 6705SOL    HW131748   1.753   0.803  14.275  0.2250  0.1007 -0.0018
 6705SOL    HW231749   1.805   0.888  14.384 -0.6375  1.8799  1.4136
 6706SOL     OW31750   1.706   2.135  11.762  0.5013  0.0456 -0.4514
 6706SOL    HW131751   1.624   2.085  11.759 -0.1437  0.9341  2.0688
 6706SOL    HW231752   1.735   2.165  11.676 -2.1301 -0.7432 -1.6186
 6707SOL     OW31753   3.200   0.565   6.688  0.4746  0.2187 -1.0571
 6707SOL    HW131754   3.281   0.514   6.689 -0.3790 -1.0880  2.4401
 6707SOL    HW231755   3.233   0.655   6.692  0.6996  0.0257  1.6463
 6708SOL     OW31756   2.289   0.504  13.568  0.1530  0.2565  0.0578
 6708SOL    HW131757   2.221   0.488  13.632  0.3775  1.2619  0.5458
 6708SOL    HW231758   2.248   0.479  13.485 -0.5687  0.8785  0.2237
 6709SOL     OW31759   0.270   2.897   2.245  0.1513 -0.0100 -0.7776
 6709SOL    HW131760   0.224   2.979   2.227 -0.8941 -0.6875 -1.2065
 6709SOL    HW231761   0.351   2.906   2.195  2.3211  0.5194  2.8026
 6710SOL     OW31762   4.112   1.465   4.858 -0.4890 -0.3400 -0.1463
 6710SOL    HW131763   4.115   1.560   4.866 -0.2030 -0.3356 -0.3013
 6710SOL    HW231764   4.204   1.449   4.838  0.1560  1.7246  1.1681
 6711SOL     OW31765   2.488   4.264  15.004 -1.1218  0.1937 -0.5287
 6711SOL    HW131766   2.559   4.215  14.963 -2.0851 -0.2257 -1.7002
 6711SOL    HW231767   2.415   4.208  14.980  0.5868 -1.4426 -1.8477
 6712SOL     OW31768   3.510   3.420   1.149 -0.1747 -0.0170  0.3396
 6712SOL    HW131769   3.465   3.336   1.136 -2.1982  1.1612 -0.2224
 6712SOL    HW231770   3.448   3.464   1.208  1.9930  2.0093  1.0965
 6713SOL     OW31771   1.690   3.966  14.781 -0.1872  0.5607 -0.3481
 6713SOL    HW131772   1.607   4.012  14.794  0.1348 -0.0935  3.9200
 6713SOL    HW231773   1.694   3.947  14.687 -0.1612 -0.7274 -0.0839
 6714SOL     OW31774   0.504   4.484   7.153 -0.0685  0.2281 -0.3190
 6714SOL    HW131775   0.501   4.576   7.127 -0.6513 -0.3614 -2.3018
 6714SOL    HW231776   0.587   4.482   7.200 -1.0832 -0.5930  1.4738
 6715SOL     OW31777   2.696   1.626   2.045  0.5668  0.1998 -0.2349
 6715SOL    HW131778   2.711   1.542   2.002 -1.3428 -0.2372 -0.0715
 6715SOL    HW231779   2.750   1.687   1.995 -0.4760  2.7198  1.7189
 6716SOL     OW31780   2.504   1.698  13.180 -0.2372  0.0651  0.3296
 6716SOL    HW131781   2.463   1.742  13.255  0.4029  1.1697  0.0244
 6716SOL    HW231782   2.595   1.725  13.184 -0.1617  0.1252 -2.0534
 6717SOL     OW31783   2.178   0.270   9.175 -0.1081  0.1906 -0.3275
 6717SOL    HW131784   2.201   0.226   9.257  0.4086  1.0486 -0.0032
 6717SOL    HW231785   2.262   0.265   9.131 -0.2712 -0.2653 -0.5780
 6718SOL     OW31786   3.443   3.077   6.328  0.0872 -0.0192  0.3743
 6718SOL    HW131787   3.468   2.985   6.338  2.4686  0.4715 -0.9279
 6718SOL    HW231788   3.499   3.106   6.255 -0.1647 -2.2385 -0.7119
 6719SOL     OW31789   0.496   0.035   7.751  0.1745  0.6325 -0.0309
 6719SOL    HW131790   0.569   0.097   7.746  0.3334  0.4895  0.5564
 6719SOL    HW231791   0.429   0.076   7.696  0.4380  0.7605 -0.2581
 6720SOL     OW31792   1.480   1.809   4.243 -0.3347 -1.1228  0.2203
 6720SOL    HW131793   1.543   1.769   4.303  1.6960 -0.7018 -1.6261
 6720SOL    HW231794   1.476   1.738   4.179 -0.4576  1.9647 -3.2173
 6721SOL     OW31795   2.552   3.860   4.056 -0.0356  0.0286 -0.0167
 6721SOL    HW131796   2.600   3.787   4.095  0.2654  0.2989  0.1130
 6721SOL    HW231797   2.545   3.837   3.963  0.0650  0.4040 -0.1186
 6722SOL     OW31798   0.054   4.608  11.546  0.0305  0.2774  0.6865
 6722SOL    HW131799   0.137   4.582  11.506 -1.0247  0.6016 -1.7129
 6722SOL    HW231800   4.731   4.641  11.479  0.3623 -1.2153 -0.3472
 6723SOL     OW31801   0.493   3.973  16.668  0.2032 -0.4024 -0.0408
 6723SOL    HW131802   0.437   4.047  16.645  1.6902  1.1452  1.2082
 6723SOL    HW231803   0.451   3.903  16.619  1.9586 -1.2924 -0.2992
 6724SOL     OW31804   0.135   4.716   9.972 -0.1329 -0.1197 -0.1287
 6724SOL    HW131805   0.185   0.038   9.916 -0.1695  1.0906  1.1199
 6724SOL    HW231806   0.071   4.670   9.917 -1.1766  0.8401  0.2792
 6725SOL     OW31807   1.276   0.051  12.148 -0.0324  0.4961  0.6187
 6725SOL    HW131808   1.260   0.031  12.240 -0.2303  2.3670  0.9957
 6725SOL    HW231809   1.277   0.146  12.135  0.1107  0.4805  0.5132
 6726SOL     OW31810   4.341   3.025   8.774  0.0034 -0.2583 -0.7291
 6726SOL    HW131811   4.416   2.965   8.776 -0.8756 -1.3988 -1.6170
 6726SOL    HW231812   4.298   2.993   8.695 -2.6063 -0.5328  0.7976
 6727SOL     OW31813   0.123   2.835   0.662  0.3753 -0.6078  0.4028
 6727SOL    HW131814   0.130   2.896   0.736 -0.7202  0.2343 -0.1862
 6727SOL    HW231815   0.147   2.891   0.589  0.1402 -1.2057 -0.1346
 6728SOL     OW31816   1.602   2.064   3.959 -0.4449  0.6277 -0.4482
 6728SOL    HW131817   1.514   2.083   3.990  0.0217 -0.0438  1.2836
 6728SOL    HW231818   1.609   1.968   3.956 -0.3056  0.6010  0.8436
 6729SOL     OW31819   0.557   3.106   4.199  0.1249 -0.0301  0.1232
 6729SOL    HW131820   0.528   3.114   4.108  0.2084  1.5283  0.2247
 6729SOL    HW231821   0.534   3.190   4.239  1.2796  0.2168  0.2694
 6730SOL     OW31822   0.130   1.028   2.334  0.8135  0.5968 -0.0616
 6730SOL    HW131823   0.055   1.077   2.370 -0.3639 -1.3285  0.1428
 6730SOL    HW231824   0.109   1.028   2.241  0.4485  0.8330  0.0187
 6731SOL     OW31825   1.255   3.508   0.240 -0.1125  0.3362 -0.5201
 6731SOL    HW131826   1.311   3.460   0.301 -1.5168 -2.1813 -1.2002
 6731SOL    HW231827   1.188   3.560   0.284  0.7341  0.7689  0.2504
 6732SOL     OW31828   3.256   4.044   1.048 -0.4613  0.2123  0.1490
 6732SOL    HW131829   3.284   3.953   1.053  1.6089  0.8795  0.7779
 6732SOL    HW231830   3.348   4.067   1.057 -0.5415 -0.8436  3.3460
 6733SOL     OW31831   1.771   2.076   4.392 -0.0658 -0.3680  0.0027
 6733SOL    HW131832   1.794   1.987   4.363  4.0796  0.8550 -0.3435
 6733SOL    HW231833   1.791   2.080   4.485 -0.0822 -2.1295  0.0895
 6734SOL     OW31834   3.498   3.805  11.212  0.5001  0.0853 -0.3885
 6734SOL    HW131835   3.458   3.760  11.286  0.0341  2.1927  0.6267
 6734SOL    HW231836   3.471   3.753  11.136 -0.2556  1.8032 -1.2896
 6735SOL     OW31837   3.284   2.494   4.467  0.5745  0.4193  0.1198
 6735SOL    HW131838   3.277   2.424   4.402  0.1746 -0.5684  1.2113
 6735SOL    HW231839   3.377   2.490   4.487  0.5378  0.4279  0.2956
 6736SOL     OW31840   0.852   2.703   3.135 -0.2987  0.0374 -0.3616
 6736SOL    HW131841   0.758   2.707   3.149 -0.7128  1.8292 -3.6285
 6736SOL    HW231842   0.865   2.637   3.067  1.3880  1.4624 -1.4390
 6737SOL     OW31843   2.831   4.322   8.376 -0.4677  0.1838  0.1064
 6737SOL    HW131844   2.762   4.274   8.421  1.0106 -2.2212 -0.1807
 6737SOL    HW231845   2.909   4.308   8.430 -0.1996 -3.5009 -1.2512
 6738SOL     OW31846   4.485   2.901  14.584 -0.5171  0.5235 -0.0898
 6738SOL    HW131847   4.410   2.943  14.542 -1.1117 -0.3526  0.0935
 6738SOL    HW231848   4.506   2.837  14.516 -0.6003  1.5399 -1.0693
 6739SOL     OW31849   2.285   3.328  10.949 -0.6679  0.0060  0.0658
 6739SOL    HW131850   2.211   3.350  11.005  0.1277  1.1567  0.6794
 6739SOL    HW231851   2.335   3.271  11.008 -0.3756  0.8319  0.6150
 6740SOL     OW31852   2.078   3.203   7.157 -0.3518  0.6074  0.1609
 6740SOL    HW131853   2.016   3.132   7.142  0.5376  0.1241 -1.2993
 6740SOL    HW231854   2.010   3.268   7.170  0.7041  1.5598  0.8881
 6741SOL     OW31855   4.603   1.038  14.161  0.3182  0.5568 -0.1937
 6741SOL    HW131856   4.620   0.944  14.174  1.2672  0.6184 -0.9804
 6741SOL    HW231857   4.677   1.061  14.105  2.5132 -1.2377  1.9959
 6742SOL     OW31858   0.632   3.103   1.924 -0.1987  0.2078 -0.2956
 6742SOL    HW131859   0.727   3.099   1.936 -0.1142 -0.1412 -1.1027
 6742SOL    HW231860   0.604   3.093   2.015  0.2039  1.1017 -0.0676
 6743SOL     OW31861   1.795   2.587   5.096 -0.7617 -0.1323  0.5059
 6743SOL    HW131862   1.842   2.571   5.178  1.2804  1.4762 -0.3528
 6743SOL    HW231863   1.856   2.541   5.038 -1.0345 -0.1101  0.2021
 6744SOL     OW31864   0.602   4.299   8.925  0.5997 -0.3207 -0.2031
 6744SOL    HW131865   0.506   4.298   8.924  0.6170 -1.0339 -0.5684
 6744SOL    HW231866   0.628   4.237   8.858  0.5391 -0.4221 -0.1324
 6745SOL     OW31867   2.498   1.617   2.228  0.2358  0.0582  0.2022
 6745SOL    HW131868   2.558   1.657   2.166 -0.5005 -0.5960 -0.9399
 6745SOL    HW231869   2.518   1.523   2.229 -0.3690 -0.0720  0.5594
 6746SOL     OW31870   1.163   1.569   9.190 -0.4497 -0.3201  0.3869
 6746SOL    HW131871   1.156   1.491   9.134  3.0995  0.3510 -1.0151
 6746SOL    HW231872   1.257   1.570   9.210 -0.1279  0.9852 -1.1954
 6747SOL     OW31873   1.216   0.791   4.833 -0.5880 -0.4072  0.1194
 6747SOL    HW131874   1.277   0.862   4.813 -1.3768  0.6622  1.5111
 6747SOL    HW231875   1.130   0.834   4.829 -0.6680 -0.6184 -0.5128
 6748SOL     OW31876   3.002   0.416   6.208  0.1956 -0.4926 -0.0411
 6748SOL    HW131877   2.945   0.428   6.284 -0.6470  0.5648 -0.8431
 6748SOL    HW231878   2.969   0.333   6.174  1.2415 -0.0320 -2.2084
 6749SOL     OW31879   3.531   4.578   8.303 -0.2537 -0.5910  0.2018
 6749SOL    HW131880   3.566   4.500   8.347  4.1371 -0.2055 -2.5391
 6749SOL    HW231881   3.499   4.625   8.380 -1.5322 -1.3873  0.1613
 6750SOL     OW31882   0.737   3.397   6.031  0.1983  0.4899 -0.1977
 6750SOL    HW131883   0.734   3.454   5.954 -0.4598  1.2822  0.4057
 6750SOL    HW231884   0.801   3.452   6.077  2.0647  0.3539 -2.6497
 6751SOL     OW31885   4.613   3.128   7.483  0.2587  0.3229 -0.3155
 6751SOL    HW131886   4.620   3.180   7.564  1.2454 -0.4150  0.0693
 6751SOL    HW231887   4.686   3.167   7.436  0.2563 -2.4217 -2.5571
 6752SOL     OW31888   0.337   0.329   6.264  0.2735  0.2805  0.1606
 6752SOL    HW131889   0.413   0.297   6.313 -0.2201 -1.8209 -0.4461
 6752SOL    HW231890   0.387   0.365   6.190 -1.6001  1.1070 -0.6906
 6753SOL     OW31891   2.339   1.569  10.963  0.4773  0.0537  0.2714
 6753SOL    HW131892   2.344   1.508  10.889  1.7588  2.0461 -1.2946
 6753SOL    HW231893   2.390   1.528  11.033 -0.4042  2.1498  2.1103
 6754SOL     OW31894   3.201   0.411   6.392 -0.4157  0.5435 -0.0926
 6754SOL    HW131895   3.136   0.421   6.322 -0.9844 -2.0193  0.0663
 6754SOL    HW231896   3.180   0.482   6.453  3.1836  0.5928  1.1059
 6755SOL     OW31897   3.221   0.255   6.650 -0.5092  0.0045  0.5697
 6755SOL    HW131898   3.206   0.259   6.555  1.3468  0.0064  0.2696
 6755SOL    HW231899   3.234   0.161   6.652 -0.6877  0.0289  2.2337
 6756SOL     OW31900   2.202   3.598   9.058  0.1864  0.1356  0.3879
 6756SOL    HW131901   2.179   3.505   9.049  0.5089 -0.1193  2.2297
 6756SOL    HW231902   2.219   3.608   9.151  0.7789  0.7872  0.2080
 6757SOL     OW31903   4.313   0.254   7.797  0.5764  0.0926 -0.1601
 6757SOL    HW131904   4.323   0.188   7.865 -1.3115  0.1754  0.1893
 6757SOL    HW231905   4.288   0.195   7.726 -1.9145 -0.5674  1.2813
 6758SOL     OW31906   3.252   1.797   3.297 -0.4242 -0.2398 -0.0744
 6758SOL    HW131907   3.328   1.745   3.322 -0.1473  0.7949  1.2520
 6758SOL    HW231908   3.258   1.864   3.366 -2.1316 -1.0802  0.8717
 6759SOL     OW31909   1.844   1.955   2.673  0.1516 -0.5199  0.1630
 6759SOL    HW131910   1.898   2.007   2.614  0.0825  0.0884  0.6376
 6759SOL    HW231911   1.762   1.966   2.626 -0.1788  2.0322  1.3391
 6760SOL     OW31912   3.395   1.319  14.374 -0.3330  0.4770  0.0808
 6760SOL    HW131913   3.328   1.386  14.391 -0.5625  1.1648 -3.3824
 6760SOL    HW231914   3.352   1.265  14.308 -0.0514  0.5949 -0.2071
 6761SOL     OW31915   0.881   2.691  12.065  0.1323  0.5223 -0.0034
 6761SOL    HW131916   0.845   2.666  11.980  1.8467  0.5859 -0.7388
 6761SOL    HW231917   0.926   2.608  12.085  0.4012  0.6937  0.1022
 6762SOL     OW31918   2.603   4.057   7.106  0.4370 -0.4708 -0.4168
 6762SOL    HW131919   2.676   4.045   7.167 -0.8682 -0.7754  1.0974
 6762SOL    HW231920   2.571   4.142   7.137 -2.1942 -0.8268 -2.1325
 6763SOL     OW31921   0.355   1.074   3.192 -0.3290 -0.6268  0.7350
 6763SOL    HW131922   0.323   1.163   3.200  0.8578 -0.3661  2.6423
 6763SOL    HW231923   0.449   1.085   3.174 -0.2244  0.7987  2.2202
 6764SOL     OW31924   4.462   2.889   3.782  0.2172 -0.4078  0.2696
 6764SOL    HW131925   4.530   2.856   3.840  0.8263  1.6884  0.7547
 6764SOL    HW231926   4.441   2.806   3.739  0.7150 -1.4300  1.9965
 6765SOL     OW31927   0.322   3.952  16.328  0.3478 -0.2646  0.0623
 6765SOL    HW131928   0.405   3.929  16.285  0.8200 -0.8425  1.2752
 6765SOL    HW231929   0.326   4.048  16.331 -1.5013 -0.2674  2.4655
 6766SOL     OW31930   1.396   2.732  16.685  0.4520  0.2509 -0.3070
 6766SOL    HW131931   1.387   2.827  16.685 -1.6240  0.0729  0.7368
 6766SOL    HW231932   1.474   2.724  16.741 -0.4200 -1.1010  0.7413
 6767SOL     OW31933   3.450   2.690   4.902  0.7881 -0.4109 -0.4270
 6767SOL    HW131934   3.457   2.742   4.822  0.6120  1.1012  0.5308
 6767SOL    HW231935   3.459   2.752   4.975 -0.0463 -1.1776  0.3326
 6768SOL     OW31936   2.671   4.379  15.270 -0.3797 -0.2766  0.3068
 6768SOL    HW131937   2.642   4.288  15.277 -0.6703 -0.0452  2.2186
 6768SOL    HW231938   2.593   4.424  15.237 -0.0053 -0.4249 -0.7639
 6769SOL     OW31939   1.843   0.824   6.126 -0.1789  0.3560  0.0730
 6769SOL    HW131940   1.817   0.903   6.079 -1.5258 -0.2947 -0.2500
 6769SOL    HW231941   1.911   0.798   6.063 -2.6731 -2.0451 -1.6062
 6770SOL     OW31942   2.304   1.253   8.673 -0.1315 -0.6231  0.5768
 6770SOL    HW131943   2.380   1.244   8.616  0.8087  1.8545  1.4744
 6770SOL    HW231944   2.241   1.200   8.624  0.5755 -1.6750  0.8090
 6771SOL     OW31945   4.319   2.303   2.803 -0.0531 -0.2575  0.0528
 6771SOL    HW131946   4.329   2.372   2.868 -0.6594 -1.5416  1.5258
 6771SOL    HW231947   4.230   2.322   2.772  0.3159  2.7981  0.9036
 6772SOL     OW31948   4.388   3.178   8.456  0.0981 -0.0294 -0.1946
 6772SOL    HW131949   4.453   3.161   8.387  1.5822  1.8542  0.7394
 6772SOL    HW231950   4.324   3.212   8.394  0.0174 -2.4055 -1.4356
 6773SOL     OW31951   0.646   1.837   7.443 -0.1781  0.3108  0.4846
 6773SOL    HW131952   0.724   1.853   7.496 -0.5071  1.6211  0.5952
 6773SOL    HW231953   0.605   1.923   7.457  1.3278  1.0537  0.3448
 6774SOL     OW31954   2.166   0.602  13.108 -0.0856  0.1969 -0.5706
 6774SOL    HW131955   2.079   0.639  13.127 -0.7048 -1.2261 -0.6321
 6774SOL    HW231956   2.212   0.665  13.163 -0.6736 -0.8987  1.1770
 6775SOL     OW31957   1.561   1.221  16.832 -0.0829 -0.0580 -0.6265
 6775SOL    HW131958   1.498   1.267  16.776 -0.8098  1.1781  1.2222
 6775SOL    HW231959   1.500   1.169  16.883 -0.7253  2.3801  1.1296
 6776SOL     OW31960   0.619   1.469   3.112 -0.3038 -0.3162  0.4515
 6776SOL    HW131961   0.661   1.552   3.090 -0.3875 -0.2088  0.6969
 6776SOL    HW231962   0.692   1.421   3.150 -0.4809 -2.2856 -1.6930
 6777SOL     OW31963   0.443   1.418   4.184 -0.2308 -0.1228  0.1934
 6777SOL    HW131964   0.478   1.331   4.164 -0.2264 -0.1747  0.4285
 6777SOL    HW231965   0.417   1.452   4.098  0.5734 -0.0560 -0.0242
 6778SOL     OW31966   1.168   4.406   7.639 -0.5344  0.4874  0.2374
 6778SOL    HW131967   1.170   4.325   7.587  1.7246  0.0581  1.0039
 6778SOL    HW231968   1.251   4.448   7.619 -0.6257  0.8767  0.6697
 6779SOL     OW31969   1.869   2.795  15.919 -0.3904  0.1625  0.3449
 6779SOL    HW131970   1.814   2.770  15.844 -1.7536  0.4748  1.2372
 6779SOL    HW231971   1.835   2.741  15.990 -0.6072  0.1847  0.2576
 6780SOL     OW31972   1.176   2.198  17.609  0.3724  0.3763 -0.0992
 6780SOL    HW131973   1.135   2.260  17.549  0.1195 -0.7866 -1.1317
 6780SOL    HW231974   1.101   2.171  17.661 -0.9898  1.1861 -1.6740
 6781SOL     OW31975   2.000   0.010   9.661  0.4838  0.1188 -0.0693
 6781SOL    HW131976   2.068   4.682   9.672 -0.9754 -1.4198 -0.2226
 6781SOL    HW231977   1.950   4.730   9.741  2.7761  1.0445  1.5485
 6782SOL     OW31978   2.024   2.147  11.502  0.0793  0.6179 -0.0401
 6782SOL    HW131979   2.075   2.086  11.448  1.3392  1.2633  0.4311
 6782SOL    HW231980   2.096   2.178  11.556  1.2156 -3.0155  0.5131
 6783SOL     OW31981   2.080   0.180   1.003 -0.1510  0.8322 -0.1958
 6783SOL    HW131982   2.145   0.250   1.011 -0.4491  1.1026 -0.1663
 6783SOL    HW231983   2.027   0.188   1.082  0.4986  0.2102  0.2987
 6784SOL     OW31984   4.204   2.827   4.065  0.2342  0.0454  0.1274
 6784SOL    HW131985   4.271   2.865   4.122 -0.6856  1.0554  0.5344
 6784SOL    HW231986   4.191   2.898   4.002  0.2753 -0.4565 -0.4511
 6785SOL     OW31987   3.899   0.489   6.495  0.0602  0.0898  0.7151
 6785SOL    HW131988   3.946   0.406   6.502  2.2735  1.2251 -0.6484
 6785SOL    HW231989   3.818   0.465   6.540  0.0653  1.5105  1.4783
 6786SOL     OW31990   0.080   1.649  14.818 -0.1988  0.2250 -0.7908
 6786SOL    HW131991   0.031   1.571  14.794  0.1272 -0.1890 -0.0871
 6786SOL    HW231992   0.035   1.714  14.763 -1.7986  1.6934  2.2466
 6787SOL     OW31993   4.019   1.075   3.317  0.1534 -0.1149  0.1176
 6787SOL    HW131994   3.980   1.148   3.365  0.9512  1.3523 -1.4551
 6787SOL    HW231995   4.073   1.126   3.256 -0.5987  0.7920  0.2127
 6788SOL     OW31996   3.233   2.512   0.908  0.3730  0.0309  0.2597
 6788SOL    HW131997   3.159   2.571   0.905  1.8977  1.8783 -0.9398
 6788SOL    HW231998   3.258   2.494   0.818 -0.7037 -0.5974  0.0991
 6789SOL     OW31999   0.725   0.370   6.687 -0.1339 -0.1052  0.4678
 6789SOL    HW132000   0.636   0.401   6.708  0.5405  1.0105  1.6702
 6789SOL    HW232001   0.761   0.444   6.638 -0.6718 -0.6752 -0.7705
 6790SOL     OW32002   0.530   1.403   6.872 -0.2372  0.1032  0.2816
 6790SOL    HW132003   0.534   1.369   6.961 -0.7095  0.5741  0.4824
 6790SOL    HW232004   0.615   1.386   6.831  0.3261  0.8130  1.1501
 6791SOL     OW32005   3.131   2.792   5.682  0.0582 -0.1397 -0.5253
 6791SOL    HW132006   3.200   2.848   5.647 -1.0861  0.3623 -1.9712
 6791SOL    HW232007   3.056   2.830   5.637 -0.0704 -1.9636 -1.8463
 6792SOL     OW32008   0.823   3.428  15.897 -0.0798 -0.0379  0.4756
 6792SOL    HW132009   0.791   3.510  15.857 -3.3778 -1.5513  0.0264
 6792SOL    HW232010   0.871   3.455  15.975 -0.1745  0.7821  0.2545
 6793SOL     OW32011   2.374   3.685   4.685  0.5420  0.0122 -0.2540
 6793SOL    HW132012   2.296   3.636   4.658  1.3164 -1.4255  0.0831
 6793SOL    HW232013   2.334   3.724   4.762 -1.0652 -0.5756 -0.7838
 6794SOL     OW32014   1.913   4.117   4.648  0.1570 -0.5222  0.5088
 6794SOL    HW132015   1.981   4.051   4.661 -0.6289 -1.5059 -0.4090
 6794SOL    HW232016   1.922   4.144   4.557  2.0057 -0.0216  0.8431
 6795SOL     OW32017   4.202   1.777   8.093  0.6109 -0.7703  0.0836
 6795SOL    HW132018   4.296   1.782   8.110  0.7239 -0.7170 -0.5465
 6795SOL    HW232019   4.176   1.771   8.185 -0.0468 -0.5148 -0.0840
 6796SOL     OW32020   0.778   3.513   4.809  0.2109 -0.5526  0.2634
 6796SOL    HW132021   0.796   3.504   4.903  1.0750  4.0659  0.5136
 6796SOL    HW232022   0.860   3.548   4.776 -0.1133  0.0766  0.1253
 6797SOL     OW32023   0.859   3.948   4.618 -0.1133 -0.2801  0.0431
 6797SOL    HW132024   0.929   3.887   4.599 -0.0600 -0.1665 -0.1200
 6797SOL    HW232025   0.782   3.897   4.591  0.6850 -1.3243 -0.2426
 6798SOL     OW32026   1.381   2.094   2.120 -0.0982 -0.0102  0.1207
 6798SOL    HW132027   1.456   2.149   2.096 -1.2898  1.7507  0.4168
 6798SOL    HW232028   1.327   2.151   2.174  0.4176 -0.3295  0.9832
 6799SOL     OW32029   3.021   0.476   2.083 -0.2662 -0.2201 -0.2630
 6799SOL    HW132030   3.100   0.520   2.052  0.4252 -1.0480  0.3427
 6799SOL    HW232031   3.004   0.419   2.008  1.9331 -0.6167 -0.4394
 6800SOL     OW32032   1.801   0.770   2.997 -0.2444  0.3721 -0.0420
 6800SOL    HW132033   1.809   0.686   2.952 -0.0732 -0.0990  0.8710
 6800SOL    HW232034   1.705   0.768   2.996 -0.2809  2.3253 -0.6445
 6801SOL     OW32035   3.041   2.705   5.986  0.0427  0.4529  0.0236
 6801SOL    HW132036   2.969   2.650   5.957  0.1962  0.0974  0.3255
 6801SOL    HW232037   3.048   2.755   5.904  0.0762 -1.6206 -1.2525
 6802SOL     OW32038   1.522   3.012   7.783 -0.5909  0.2828  0.2069
 6802SOL    HW132039   1.469   2.933   7.771 -1.6069  0.9780  0.0732
 6802SOL    HW232040   1.531   3.014   7.878 -1.0905  0.6449  0.2503
 6803SOL     OW32041   0.622   0.435   4.997 -0.3145 -0.6626 -0.1357
 6803SOL    HW132042   0.633   0.510   5.055  1.2803  0.4147 -1.8492
 6803SOL    HW232043   0.621   0.362   5.060 -0.7538 -1.1500 -0.7101
 6804SOL     OW32044   0.389   2.445  16.730  0.7142  0.0426 -0.1691
 6804SOL    HW132045   0.416   2.497  16.806 -0.5686 -1.0367  1.0307
 6804SOL    HW232046   0.329   2.508  16.689  3.1596  0.0656 -3.6500
 6805SOL     OW32047   4.213   0.608   3.116  0.0019  0.0047  0.0499
 6805SOL    HW132048   4.286   0.632   3.174 -0.4660  0.2626  0.5375
 6805SOL    HW232049   4.143   0.658   3.157  0.6573 -0.2671  1.5086
 6806SOL     OW32050   0.000   1.803  16.708 -0.1388  0.1533 -0.7011
 6806SOL    HW132051   0.006   1.823  16.801 -1.3109  0.6655 -0.7474
 6806SOL    HW232052   0.091   1.826  16.685 -0.0102  2.3674  2.0574
 6807SOL     OW32053   3.934   2.135   9.269  0.5349  0.0530 -0.1254
 6807SOL    HW132054   3.870   2.112   9.336  0.8941  0.9925  0.5625
 6807SOL    HW232055   3.973   2.054   9.237  0.5229 -0.0259  0.0574
 6808SOL     OW32056   0.015   3.742  10.581  0.0245  0.0614  0.5750
 6808SOL    HW132057   0.087   3.685  10.607  1.7212  0.8589 -2.4011
 6808SOL    HW232058   0.049   3.788  10.504  0.1569 -0.5193  0.2851
 6809SOL     OW32059   0.524   3.417  11.840 -0.2083  0.3801  0.3492
 6809SOL    HW132060   0.513   3.511  11.833 -0.3894  0.4524  1.6613
 6809SOL    HW232061   0.620   3.413  11.848 -0.1954  1.4605  0.7375
 6810SOL     OW32062   0.853   0.568   6.546  0.3069  0.5116 -0.1944
 6810SOL    HW132063   0.860   0.536   6.456 -2.2946  2.2059 -0.9883
 6810SOL    HW232064   0.941   0.555   6.583 -0.7652 -0.5376  1.9527
 6811SOL     OW32065   0.513   2.654   4.843  0.3379  0.3866  0.0240
 6811SOL    HW132066   0.606   2.644   4.826  0.1963  0.7718 -0.9612
 6811SOL    HW232067   0.464   2.626   4.765  1.2856  2.3627 -1.2576
 6812SOL     OW32068   1.472   4.703   4.373  0.0864  0.0645  0.2710
 6812SOL    HW132069   1.483   4.616   4.412  0.2353  0.1887  0.5121
 6812SOL    HW232070   1.487   4.675   4.283 -1.5931  0.2769 -0.0689
 6813SOL     OW32071   0.596   1.511   8.547  0.4798  0.1069 -0.3313
 6813SOL    HW132072   0.561   1.596   8.520  0.6224  0.4138  0.4517
 6813SOL    HW232073   0.690   1.521   8.538  0.3786 -1.8898 -3.3919
 6814SOL     OW32074   2.710   4.056   3.572  0.1137  0.4137 -0.3925
 6814SOL    HW132075   2.686   3.985   3.512 -0.7050 -0.2932  0.7600
 6814SOL    HW232076   2.670   4.121   3.514  0.8071  1.8406  0.7398
 6815SOL     OW32077   2.919   3.301   9.217 -0.1949  0.5327  0.4185
 6815SOL    HW132078   2.880   3.388   9.226 -0.6486  0.4365 -0.7354
 6815SOL    HW232079   3.001   3.310   9.267  0.7334  0.4350 -1.0954
 6816SOL     OW32080   2.552   0.196   1.181 -0.9665  0.4844  0.3613
 6816SOL    HW132081   2.595   0.225   1.100 -0.6284 -1.2736 -0.0912
 6816SOL    HW232082   2.517   0.109   1.157  1.3855 -0.1792 -0.6346
 6817SOL     OW32083   0.467   3.730   0.483 -0.1937  0.0347 -0.0413
 6817SOL    HW132084   0.555   3.743   0.519 -0.0314 -2.2137  0.3523
 6817SOL    HW232085   0.422   3.693   0.558  2.5546 -1.0940  1.0634
 6818SOL     OW32086   0.576   1.128   2.330  0.0318  0.1668 -0.3251
 6818SOL    HW132087   0.496   1.148   2.280  0.6976  1.7742 -0.7406
 6818SOL    HW232088   0.577   1.032   2.326  2.1080  0.2454 -1.8324
 6819SOL     OW32089   2.919   2.585   2.395 -0.3532  0.0873  0.4508
 6819SOL    HW132090   2.877   2.603   2.479 -2.5883  2.0491 -1.0851
 6819SOL    HW232091   3.002   2.542   2.416  0.6672  0.8344 -1.9659
 6820SOL     OW32092   3.841   3.202  15.374 -0.0092  0.2569 -0.0433
 6820SOL    HW132093   3.890   3.153  15.309 -2.1936 -2.3515  0.2825
 6820SOL    HW232094   3.906   3.226  15.440 -1.4776  0.3866  1.3703
 6821SOL     OW32095   4.657   2.592   2.102 -0.3428 -0.1422  0.3847
 6821SOL    HW132096   4.669   2.595   2.007  1.5502  0.8088  0.6479
 6821SOL    HW232097   0.010   2.608   2.131 -0.6758  0.5120  1.0760
 6822SOL     OW32098   2.637   2.946   2.408 -0.3955  0.3114  0.0176
 6822SOL    HW132099   2.563   2.888   2.388 -0.4245  0.4247 -0.1986
 6822SOL    HW232100   2.609   2.992   2.487  0.5748 -3.5652  2.6657
 6823SOL     OW32101   1.854   3.731   6.276  0.4237  0.2065  0.5373
 6823SOL    HW132102   1.775   3.764   6.321  0.5013 -0.1675  0.9504
 6823SOL    HW232103   1.893   3.664   6.332  1.1422 -0.4156 -0.7042
 6824SOL     OW32104   2.500   0.052   0.812  0.0866 -0.1327  0.2599
 6824SOL    HW132105   2.411   0.041   0.844  0.0515  0.0081  0.2084
 6824SOL    HW232106   2.485   0.039   0.718 -0.6199  0.7143  0.2531
 6825SOL     OW32107   2.633   2.070   8.485 -0.7998  0.0243  0.1729
 6825SOL    HW132108   2.539   2.076   8.502 -0.9413  1.3319 -1.1126
 6825SOL    HW232109   2.646   1.977   8.506  0.6592  0.3294  0.6689
 6826SOL     OW32110   0.845   0.978   9.474 -0.0820 -0.4177 -0.4572
 6826SOL    HW132111   0.820   1.061   9.435 -1.5421 -0.9079 -0.5880
 6826SOL    HW232112   0.852   0.999   9.567 -0.5787 -2.5343  0.0610
 6827SOL     OW32113   0.587   2.216  12.233 -0.4448 -0.2127 -0.4137
 6827SOL    HW132114   0.508   2.265  12.211  0.3709  1.9307  1.4051
 6827SOL    HW232115   0.560   2.160  12.306  1.2354  1.0967  1.2060
 6828SOL     OW32116   2.087   1.403  16.796 -0.2166  0.5577  0.1481
 6828SOL    HW132117   1.994   1.421  16.802 -0.8186 -2.5348  0.2898
 6828SOL    HW232118   2.109   1.388  16.889 -1.5542 -2.4593 -0.0234
 6829SOL     OW32119   2.640   2.458   3.757 -0.4018 -0.2351  0.2165
 6829SOL    HW132120   2.664   2.544   3.792  0.3373 -0.4456  0.2260
 6829SOL    HW232121   2.545   2.456   3.773 -0.4871 -0.1169 -0.2782
 6830SOL     OW32122   0.733   0.555   2.827 -0.0249 -0.0998  0.4031
 6830SOL    HW132123   0.652   0.503   2.826 -0.7145  0.9555  1.1718
 6830SOL    HW232124   0.792   0.492   2.869 -0.0666 -0.2652  0.2119
 6831SOL     OW32125   1.865   0.174  17.070 -0.1417 -0.0361  0.3851
 6831SOL    HW132126   1.914   0.210  17.145 -1.8641  0.4655  1.2580
 6831SOL    HW232127   1.936   0.135  17.019  0.1352 -0.2032  0.8914
 6832SOL     OW32128   4.231   0.050   5.079 -0.5387  0.3339  0.5478
 6832SOL    HW132129   4.197   4.717   5.135 -0.4353  0.5320  0.8591
 6832SOL    HW232130   4.286   0.084   5.151  2.2052 -2.4978 -0.2233
 6833SOL     OW32131   4.080   0.494   2.334  0.7446  0.0248  0.3005
 6833SOL    HW132132   4.029   0.512   2.413  1.0396  0.2577  0.4367
 6833SOL    HW232133   4.144   0.432   2.369 -0.4011 -1.3689 -0.1108
 6834SOL     OW32134   2.658   4.046   7.403  0.1546  0.0721  0.5804
 6834SOL    HW132135   2.582   4.008   7.448  0.8563 -0.0100  1.7118
 6834SOL    HW232136   2.657   4.140   7.418  0.0862  0.0513  0.7129
 6835SOL     OW32137   1.351   1.136   0.341 -0.4415 -0.4051  0.0431
 6835SOL    HW132138   1.427   1.192   0.355 -0.4229 -0.6049  0.7210
 6835SOL    HW232139   1.401   1.055   0.355 -1.2678 -0.9112  0.0681
 6836SOL     OW32140   0.149   2.312  17.573 -0.0988 -0.2531  0.1080
 6836SOL    HW132141   0.187   2.343  17.655 -2.0079  2.4155 -0.0059
 6836SOL    HW232142   0.058   2.296  17.600 -1.5986  3.9677 -2.4536
 6837SOL     OW32143   3.473   3.772  13.780 -0.6931 -0.0542 -0.1061
 6837SOL    HW132144   3.499   3.692  13.826  0.4665 -0.4901 -1.5151
 6837SOL    HW232145   3.546   3.829  13.805 -1.7452  0.3321  2.1010
 6838SOL     OW32146   0.587   1.521   4.871  0.1479  0.0133  0.1321
 6838SOL    HW132147   0.559   1.454   4.934 -0.8491  1.1333  0.8863
 6838SOL    HW232148   0.510   1.577   4.862  0.3540  0.2937  0.1161
 6839SOL     OW32149   2.051   1.415   0.907  0.2408  0.1413 -0.7940
 6839SOL    HW132150   2.019   1.329   0.878  3.0931 -1.7439  1.5612
 6839SOL    HW232151   2.116   1.380   0.969  0.3816  2.6237  0.4505
 6840SOL     OW32152   0.173   1.541   4.716  0.0037 -0.5018  0.2574
 6840SOL    HW132153   0.235   1.598   4.762  0.0264 -0.8852  0.6999
 6840SOL    HW232154   0.207   1.456   4.743  1.9762 -0.0797 -0.9645
 6841SOL     OW32155   3.612   4.227   5.115  0.5608 -0.5251  0.7311
 6841SOL    HW132156   3.683   4.240   5.053  1.4700 -1.7007  1.5271
 6841SOL    HW232157   3.556   4.303   5.098  2.1662  0.7009  0.9992
 6842SOL     OW32158   0.810   0.167   6.951 -0.1350 -0.0892  0.2694
 6842SOL    HW132159   0.760   0.217   7.016  1.4066  0.9893  0.6157
 6842SOL    HW232160   0.771   0.180   6.865  0.3567  0.0168  0.0670
 6843SOL     OW32161   2.761   0.608   7.746  0.1432 -0.8573 -0.0383
 6843SOL    HW132162   2.821   0.658   7.692  0.4938 -0.4704  0.7161
 6843SOL    HW232163   2.686   0.665   7.730 -0.2923 -1.0577  1.2580
 6844SOL     OW32164   3.340   0.192   7.315 -0.1218 -0.5093 -0.0513
 6844SOL    HW132165   3.399   0.156   7.248  1.0292 -1.8171  1.6773
 6844SOL    HW232166   3.411   0.245   7.352 -1.6680  1.5334  0.0256
 6845SOL     OW32167   4.073   3.676   8.117  0.2503 -0.0794 -0.1481
 6845SOL    HW132168   3.986   3.638   8.115  0.8259 -1.4513  0.9460
 6845SOL    HW232169   4.120   3.617   8.057 -1.3800 -2.1236  0.6162
 6846SOL     OW32170   2.385   2.545   1.909 -0.2675 -0.4134  0.4091
 6846SOL    HW132171   2.461   2.574   1.859 -1.1978 -1.0062 -1.3422
 6846SOL    HW232172   2.420   2.471   1.958 -0.9424 -2.5453 -2.3169
 6847SOL     OW32173   1.469   1.306   6.779  0.1536 -0.0359 -0.0280
 6847SOL    HW132174   1.509   1.259   6.852  1.0985 -0.6721 -0.9590
 6847SOL    HW232175   1.386   1.258   6.777  0.4033 -0.4716  0.0671
 6848SOL     OW32176   0.166   2.139   7.844 -0.0358  0.1483 -0.1013
 6848SOL    HW132177   0.218   2.138   7.925  1.2215  0.6360 -0.9012
 6848SOL    HW232178   0.081   2.113   7.880  0.1266  0.3379  0.4207
 6849SOL     OW32179   0.453   0.489   6.723  0.0975 -0.4699 -0.0898
 6849SOL    HW132180   0.492   0.562   6.771 -1.0228 -0.9784  1.5915
 6849SOL    HW232181   0.402   0.532   6.654 -1.5904 -0.9547  0.8538
 6850SOL     OW32182   0.691   2.491   7.085  0.5694  0.0712  0.6036
 6850SOL    HW132183   0.602   2.473   7.054  1.6838  0.8494 -2.9473
 6850SOL    HW232184   0.682   2.554   7.157 -0.5768 -1.8127  2.1400
 6851SOL     OW32185   2.653   3.886  12.309  0.4430 -0.0449 -0.5198
 6851SOL    HW132186   2.711   3.960  12.326 -0.9808  0.8300  0.4757
 6851SOL    HW232187   2.667   3.857  12.219 -0.1315 -1.0817 -0.2740
 6852SOL     OW32188   1.337   1.504   0.269  0.1953  0.1538 -0.5047
 6852SOL    HW132189   1.257   1.542   0.233  0.9535  2.1891 -0.0409
 6852SOL    HW232190   1.394   1.508   0.193  1.3528 -1.7628  0.2519
 6853SOL     OW32191   3.975   0.217  12.294 -0.5574  0.2210 -0.2982
 6853SOL    HW132192   3.923   0.225  12.374 -1.8927  0.6959 -1.2162
 6853SOL    HW232193   3.930   0.283  12.241 -1.4081 -3.1516 -3.7853
 6854SOL     OW32194   1.819   0.921   7.263 -0.6639  0.2451 -0.4584
 6854SOL    HW132195   1.734   0.877   7.253  0.8901 -2.7193 -0.4937
 6854SOL    HW232196   1.817   0.923   7.359  0.3318 -1.7754 -0.3941
 6855SOL     OW32197   4.089   1.590   3.947  0.1358 -0.0908 -0.3961
 6855SOL    HW132198   4.057   1.544   4.025  0.4028 -3.2452 -2.1353
 6855SOL    HW232199   4.118   1.508   3.908  0.6034  1.4505 -3.2615
 6856SOL     OW32200   0.952   2.214   9.456  0.3726  0.7332  0.0955
 6856SOL    HW132201   1.026   2.159   9.430  0.5133  1.5500 -1.1913
 6856SOL    HW232202   0.996   2.291   9.492  1.2468  1.2615 -2.1443
 6857SOL     OW32203   0.045   0.503   5.332  0.1745  0.3888 -0.0381
 6857SOL    HW132204   4.714   0.534   5.272 -0.8619  1.0764  1.5042
 6857SOL    HW232205   0.037   0.408   5.319 -1.4004  0.5679 -0.3729
 6858SOL     OW32206   0.125   1.946   6.163  0.7325 -0.5030 -0.5579
 6858SOL    HW132207   0.106   1.911   6.076 -0.1020  0.0166 -0.5867
 6858SOL    HW232208   0.193   2.010   6.141 -0.6203  1.1210 -0.0772
 6859SOL     OW32209   3.131   4.527   7.320  0.0092  0.0161 -0.0929
 6859SOL    HW132210   3.220   4.561   7.334  0.4480 -1.1169 -0.0919
 6859SOL    HW232211   3.127   4.507   7.227 -0.0480  1.5698 -0.4272
 6860SOL     OW32212   4.494   3.903   7.113 -0.2435 -0.4186  0.1189
 6860SOL    HW132213   4.575   3.920   7.064 -1.6479  2.5464 -1.1311
 6860SOL    HW232214   4.519   3.851   7.190  0.3206 -0.3078  0.0165
 6861SOL     OW32215   2.137   2.733   9.872 -0.5815  0.4093 -0.0882
 6861SOL    HW132216   2.142   2.786   9.951 -1.9305  0.5607 -0.0982
 6861SOL    HW232217   2.083   2.657   9.895 -0.7418  0.3172 -0.7537
 6862SOL     OW32218   3.052   4.570   3.669  0.3418  0.1366  0.3322
 6862SOL    HW132219   3.073   4.512   3.596 -0.7601  0.2648 -0.0796
 6862SOL    HW232220   3.077   4.507   3.737  0.7333 -0.5924 -0.4928
 6863SOL     OW32221   3.045   1.582  10.090  0.0727  0.4768 -0.2132
 6863SOL    HW132222   3.083   1.662  10.052  2.4338  0.4441  2.0849
 6863SOL    HW232223   3.120   1.531  10.061 -0.6186 -1.1766  0.9230
 6864SOL     OW32224   4.029   4.129   2.515  0.4475 -0.1263 -1.0362
 6864SOL    HW132225   4.027   4.037   2.488  0.3808 -0.0423 -1.3135
 6864SOL    HW232226   4.062   4.170   2.436  0.1850  0.0035 -1.0764
 6865SOL     OW32227   4.234   1.933  14.263  0.0571 -0.5197 -0.1321
 6865SOL    HW132228   4.168   1.873  14.297 -0.2165 -0.5964 -0.8119
 6865SOL    HW232229   4.191   1.969  14.185 -0.5193  0.0314  0.4378
 6866SOL     OW32230   4.462   0.622  15.610  0.1154  0.1626  0.9548
 6866SOL    HW132231   4.367   0.622  15.601  0.0666  0.4074  1.4956
 6866SOL    HW232232   4.486   0.712  15.587  0.5304 -0.0260  0.6476
 6867SOL     OW32233   4.626   3.685   6.596 -0.3131  0.4239  0.2257
 6867SOL    HW132234   4.710   3.696   6.640 -0.3582 -0.6851  0.5879
 6867SOL    HW232235   4.576   3.765   6.608 -1.9934 -0.3769 -1.2588
 6868SOL     OW32236   2.920   2.941   2.646  0.1431 -0.2863 -0.7651
 6868SOL    HW132237   2.881   3.017   2.603 -1.0180  0.0863  0.9413
 6868SOL    HW232238   2.868   2.869   2.609  0.2865  0.0602 -1.6332
 6869SOL     OW32239   0.318   2.795  15.110  0.3641  0.4419  0.2586
 6869SOL    HW132240   0.237   2.805  15.161 -0.1970  3.6272 -1.2924
 6869SOL    HW232241   0.292   2.823  15.022  1.1951  2.6589  0.7251
 6870SOL     OW32242   0.843   1.962  14.643  1.0712  0.3748 -0.1744
 6870SOL    HW132243   0.846   2.033  14.578 -3.0167  1.6949  1.0862
 6870SOL    HW232244   0.790   2.004  14.711  0.2567 -1.6737  0.4468
 6871SOL     OW32245   0.893   4.179  16.423  0.3189  0.0726  0.3409
 6871SOL    HW132246   0.833   4.170  16.497  0.8112  1.6987  0.9471
 6871SOL    HW232247   0.933   4.263  16.446 -0.9307  1.2527 -1.7070
 6872SOL     OW32248   2.926   2.743   3.836 -0.4409  0.1990  0.0272
 6872SOL    HW132249   2.996   2.770   3.776 -1.3065 -1.0273 -1.5522
 6872SOL    HW232250   2.956   2.653   3.845 -0.3549  0.3089  0.8687
 6873SOL     OW32251   0.565   2.406   4.436  0.5320 -0.7051 -0.2953
 6873SOL    HW132252   0.562   2.322   4.482 -1.2689 -0.0216  0.8457
 6873SOL    HW232253   0.654   2.441   4.445  0.5282 -0.3341 -1.6413
 6874SOL     OW32254   4.007   2.633   9.914  0.3113 -0.4106 -0.3340
 6874SOL    HW132255   4.092   2.676   9.925  0.1747  0.2032 -1.6445
 6874SOL    HW232256   3.971   2.694   9.850 -0.5891 -1.3725 -0.7603
 6875SOL     OW32257   2.305   0.931  17.458  0.5414  0.1824  0.0487
 6875SOL    HW132258   2.264   0.999  17.405 -1.7969 -0.5028  0.9849
 6875SOL    HW232259   2.391   0.974  17.461  1.0956 -0.8521 -0.6772
 6876SOL     OW32260   4.042   3.547   9.390 -0.4704 -0.0850 -0.2284
 6876SOL    HW132261   4.022   3.496   9.312 -1.7023  1.3534 -0.8549
 6876SOL    HW232262   3.960   3.552   9.439 -0.2978  0.2060  0.0277
 6877SOL     OW32263   0.249   4.180   5.561 -0.1236  0.1665  0.0812
 6877SOL    HW132264   0.263   4.252   5.500 -1.7734  0.1640 -0.2959
 6877SOL    HW232265   0.171   4.154   5.513 -0.5323  1.5128  0.0211
 6878SOL     OW32266   4.622   1.242  17.722 -0.2384  0.1353  0.0723
 6878SOL    HW132267   4.689   1.270  17.659 -0.0388  0.0088  0.2268
 6878SOL    HW232268   4.670   1.177   0.027  1.9316  1.7512  0.1065
 6879SOL     OW32269   2.011   3.045   2.580  0.5649  0.4556 -0.7733
 6879SOL    HW132270   1.934   3.091   2.612  1.0131 -0.7340  2.0390
 6879SOL    HW232271   2.034   2.994   2.658  0.3890  0.8229 -0.4801
 6880SOL     OW32272   3.232   0.808  13.639  0.1234 -0.3775  0.4238
 6880SOL    HW132273   3.236   0.892  13.594  1.6171 -0.4657  0.4159
 6880SOL    HW232274   3.289   0.748  13.591 -0.1409 -0.9611  0.8356
 6881SOL     OW32275   2.131   3.177  16.574 -0.1761 -0.5705  0.2318
 6881SOL    HW132276   2.143   3.132  16.658  2.0863  1.2859  0.9049
 6881SOL    HW232277   2.222   3.201  16.557 -0.4879  1.1421  1.0118
 6882SOL     OW32278   1.596   0.560   4.394 -0.2042  0.1825 -0.0932
 6882SOL    HW132279   1.500   0.558   4.384 -0.2794  1.7083  0.4439
 6882SOL    HW232280   1.584   0.558   4.489  0.9024 -3.0863 -0.0123
 6883SOL     OW32281   1.630   4.460   3.216  0.0228  0.3816  0.2373
 6883SOL    HW132282   1.563   4.396   3.193 -1.2424  1.6150  0.4304
 6883SOL    HW232283   1.658   4.419   3.298 -0.8708  2.0843  1.4092
 6884SOL     OW32284   3.945   3.082   9.488 -0.1045 -0.3546  0.1876
 6884SOL    HW132285   3.995   3.068   9.408  0.1656  1.4113  0.0456
 6884SOL    HW232286   3.974   3.010   9.543  0.3655 -1.4622 -1.5070
 6885SOL     OW32287   3.424   4.439   2.469 -0.4735  0.0457 -0.2877
 6885SOL    HW132288   3.503   4.398   2.505 -2.0640 -1.9474  0.9466
 6885SOL    HW232289   3.356   4.417   2.533  0.3001 -0.1324  0.4641
 6886SOL     OW32290   1.183   3.422   9.692 -0.1535 -0.3894 -0.3012
 6886SOL    HW132291   1.091   3.446   9.706 -0.4249 -1.5099 -0.2086
 6886SOL    HW232292   1.173   3.388   9.603  0.6652 -1.9119  0.2009
 6887SOL     OW32293   2.109   0.388  12.946 -0.3314  0.1321  0.0036
 6887SOL    HW132294   2.033   0.345  12.907 -1.8652  1.9630  0.9578
 6887SOL    HW232295   2.078   0.417  13.032  1.6522 -0.1379  0.8090
 6888SOL     OW32296   4.044   2.727   6.185  0.8348 -0.5504 -0.5010
 6888SOL    HW132297   4.082   2.807   6.220 -0.6221  0.5008 -1.3262
 6888SOL    HW232298   4.020   2.683   6.267 -0.5463 -0.3655 -0.8036
 6889SOL     OW32299   2.057   0.412   8.574  0.4357  0.2754 -0.4131
 6889SOL    HW132300   1.990   0.345   8.568  0.6565  0.0614 -0.5079
 6889SOL    HW232301   2.094   0.404   8.486 -1.3842  0.1064 -1.1493
 6890SOL     OW32302   4.448   2.607  13.252  0.2285  0.0990  0.1319
 6890SOL    HW132303   4.519   2.671  13.252 -0.2953  0.6902 -1.5197
 6890SOL    HW232304   4.496   2.531  13.286  0.5574  0.3761  0.2730
 6891SOL     OW32305   2.359   2.618   7.402 -0.0354  0.4970  0.3744
 6891SOL    HW132306   2.447   2.581   7.404 -0.4862 -0.6695 -1.0659
 6891SOL    HW232307   2.368   2.712   7.416 -1.2570  0.5614  0.7519
 6892SOL     OW32308   0.450   2.048   0.564  0.1986 -0.1501 -0.3827
 6892SOL    HW132309   0.496   2.103   0.627 -0.4043  1.5262 -1.3907
 6892SOL    HW232310   0.369   2.099   0.558  1.3346  1.3490 -2.7812
 6893SOL     OW32311   1.700   4.686   0.825 -0.4826 -0.0066  0.0464
 6893SOL    HW132312   1.634   0.000   0.779 -1.2643  0.5997  1.8286
 6893SOL    HW232313   1.642   4.615   0.853  0.5015 -0.3347  1.2267
 6894SOL     OW32314   0.179   4.371   5.338  0.1407 -0.1340 -0.1013
 6894SOL    HW132315   0.150   4.289   5.297  0.7297 -0.4117  0.0267
 6894SOL    HW232316   0.102   4.410   5.378 -0.4550 -1.0535 -0.3609
 6895SOL     OW32317   1.698   3.824   5.768 -0.4088  0.2239  0.6408
 6895SOL    HW132318   1.709   3.750   5.828 -3.0477 -1.1633 -0.5871
 6895SOL    HW232319   1.776   3.816   5.714 -1.7250  0.9975 -1.4042
 6896SOL     OW32320   0.260   1.240   4.434  0.4778  0.4742 -0.1141
 6896SOL    HW132321   0.295   1.327   4.414  1.2968 -0.0124 -0.8064
 6896SOL    HW232322   0.342   1.192   4.426 -0.6689 -1.2936 -1.2964
 6897SOL     OW32323   1.682   1.180   3.319  0.1731  0.0138  0.1187
 6897SOL    HW132324   1.633   1.099   3.306  2.4910 -1.1308 -1.5549
 6897SOL    HW232325   1.751   1.174   3.253 -0.2154  2.3230 -0.4834
 6898SOL     OW32326   4.277   3.532   6.022  0.0516 -0.7842 -0.3185
 6898SOL    HW132327   4.286   3.561   6.113 -1.5548  0.0058 -0.4098
 6898SOL    HW232328   4.182   3.536   6.019  0.0852  0.1579 -0.2464
 6899SOL     OW32329   3.338   0.473  12.706 -0.0416  0.4233  0.3571
 6899SOL    HW132330   3.353   0.483  12.800 -0.8051  2.0984  0.2961
 6899SOL    HW232331   3.420   0.509  12.672 -0.4953 -1.8103 -3.1480
 6900SOL     OW32332   2.190   0.740   8.699  0.1076 -0.0115  0.1632
 6900SOL    HW132333   2.196   0.681   8.775 -0.0132  0.9193  0.8901
 6900SOL    HW232334   2.259   0.715   8.637 -0.6905 -0.7962 -0.4171
 6901SOL     OW32335   2.988   3.589   9.594  0.1780 -0.1394 -0.0907
 6901SOL    HW132336   3.063   3.531   9.579  0.2098 -0.0136 -0.4357
 6901SOL    HW232337   2.975   3.618   9.503 -1.6800 -2.3671 -0.5289
 6902SOL     OW32338   3.247   3.040  13.521  0.3070  0.2189 -0.2543
 6902SOL    HW132339   3.219   3.114  13.468  0.0082  0.3498  0.0886
 6902SOL    HW232340   3.316   3.023  13.457 -0.6551  1.4025 -1.6017
 6903SOL     OW32341   2.044   3.754   8.854  0.0420 -0.3256 -0.0804
 6903SOL    HW132342   2.085   3.715   8.776  1.1901 -3.2250  1.9570
 6903SOL    HW232343   2.084   3.706   8.927  2.3453 -0.6793 -1.5690
 6904SOL     OW32344   2.966   0.565  16.508 -0.2437  0.4375 -0.3064
 6904SOL    HW132345   3.035   0.537  16.568 -1.0789  1.4110  1.0882
 6904SOL    HW232346   2.998   0.519  16.430  0.3738  1.2061 -0.5090
 6905SOL     OW32347   4.364   1.888  10.166  0.4218 -0.4038 -0.1308
 6905SOL    HW132348   4.459   1.894  10.154  0.5743 -1.9536  0.4017
 6905SOL    HW232349   4.335   1.941  10.091 -0.3050  0.4539  0.7535
 6906SOL     OW32350   2.179   1.559  15.863 -0.0045 -0.2122 -0.3767
 6906SOL    HW132351   2.210   1.474  15.896  0.8340  0.4941  0.6160
 6906SOL    HW232352   2.255   1.615  15.871 -0.0787 -0.1831  0.0861
 6907SOL     OW32353   2.815   0.727   3.882 -0.8387 -0.4095 -0.3236
 6907SOL    HW132354   2.860   0.803   3.846  0.5965 -0.4024  1.5168
 6907SOL    HW232355   2.892   0.694   3.928 -0.0688  1.5107 -0.2501
 6908SOL     OW32356   2.345   0.665  15.830  0.0417 -0.6031 -0.5130
 6908SOL    HW132357   2.322   0.733  15.893  0.6277 -1.1967  0.3378
 6908SOL    HW232358   2.312   0.589  15.879  0.3944  0.3828  1.2327
 6909SOL     OW32359   3.847   4.371   8.749  0.2811 -0.5076  0.1773
 6909SOL    HW132360   3.924   4.347   8.799  2.9235  0.7305 -3.2704
 6909SOL    HW232361   3.802   4.287   8.744  1.0046 -0.9006  0.3214
 6910SOL     OW32362   3.941   2.557  16.378 -0.1906  0.2768  0.4855
 6910SOL    HW132363   3.861   2.503  16.375  0.5956 -0.8589 -0.0347
 6910SOL    HW232364   4.017   2.502  16.360 -0.2265 -0.3849  2.2740
 6911SOL     OW32365   4.232   0.412   8.407 -0.0681  0.4864 -0.2243
 6911SOL    HW132366   4.221   0.463   8.327 -1.6150 -0.6868 -0.7800
 6911SOL    HW232367   4.176   0.334   8.397 -0.4067  0.8042 -0.7957
 6912SOL     OW32368   1.582   3.595   3.979 -0.5530  0.4016 -0.3156
 6912SOL    HW132369   1.574   3.559   3.890 -3.6418 -1.5031  0.7264
 6912SOL    HW232370   1.667   3.638   3.969 -0.4859  0.0750 -1.1799
 6913SOL     OW32371   3.881   4.211   4.976 -0.2961 -0.8377  0.2583
 6913SOL    HW132372   3.924   4.281   4.927 -4.2896  0.3208 -1.5848
 6913SOL    HW232373   3.953   4.185   5.033 -0.0373 -3.5130 -1.2930
 6914SOL     OW32374   3.598   3.614   6.921 -0.1289 -0.3364  0.7388
 6914SOL    HW132375   3.642   3.699   6.931  1.5649 -1.0493 -0.8845
 6914SOL    HW232376   3.649   3.565   6.857 -0.7309  0.4776 -0.3786
 6915SOL     OW32377   4.617   4.063   4.776  0.5609  0.1272  0.6681
 6915SOL    HW132378   4.538   4.070   4.828 -1.7187  1.3168 -2.9222
 6915SOL    HW232379   4.690   4.074   4.836  0.5015  0.9727  0.5906
 6916SOL     OW32380   0.386   2.008   1.378 -0.2354 -0.0787 -0.1837
 6916SOL    HW132381   0.316   1.946   1.401 -0.2085  0.4576  1.3622
 6916SOL    HW232382   0.454   1.979   1.438 -0.0268 -0.4642 -0.6082
 6917SOL     OW32383   1.996   1.353   7.295  0.1210 -0.2480  0.2163
 6917SOL    HW132384   1.949   1.361   7.211  2.4582  1.7412 -0.8982
 6917SOL    HW232385   1.950   1.432   7.324  0.4199  0.4293 -1.1220
 6918SOL     OW32386   2.734   3.982  12.033  0.1438  0.0608 -0.8997
 6918SOL    HW132387   2.724   3.935  11.950 -0.4026 -0.8537 -0.3151
 6918SOL    HW232388   2.691   4.065  12.012 -0.4199  0.2819  1.1737
 6919SOL     OW32389   1.343   4.042  16.323 -0.5043  0.5917 -0.0466
 6919SOL    HW132390   1.402   4.061  16.250 -0.0621  1.1455  0.4487
 6919SOL    HW232391   1.348   4.120  16.379 -0.0902  0.4940  0.0570
 6920SOL     OW32392   1.428   0.412   1.586  0.4851  0.5459 -0.4848
 6920SOL    HW132393   1.347   0.448   1.550  0.9259  2.1116  0.0765
 6920SOL    HW232394   1.410   0.415   1.680 -0.6172  0.7982 -0.7014
 6921SOL     OW32395   3.044   3.820  17.263  0.2158 -0.4915  0.2620
 6921SOL    HW132396   2.990   3.786  17.333 -0.9430  0.7783 -0.0311
 6921SOL    HW232397   3.044   3.752  17.195 -1.9776 -0.0357 -0.1690
 6922SOL     OW32398   2.489   1.313  11.901  0.3911 -0.2711 -0.3516
 6922SOL    HW132399   2.426   1.384  11.891  1.5926  1.0589  1.5975
 6922SOL    HW232400   2.550   1.349  11.965 -1.3294 -0.6766  1.5430
 6923SOL     OW32401   2.026   4.616   1.278 -0.1555  0.5574  0.1366
 6923SOL    HW132402   2.014   4.595   1.185  2.2311 -0.6809  0.0905
 6923SOL    HW232403   1.947   4.668   1.288 -1.5518 -1.1074 -2.1246
 6924SOL     OW32404   0.890   1.310  11.796 -0.9608  0.3125  0.2690
 6924SOL    HW132405   0.923   1.331  11.708  2.4767  0.4137  1.6098
 6924SOL    HW232406   0.961   1.337  11.853 -0.7260  0.2405  0.0125
 6925SOL     OW32407   2.748   2.276   8.036 -0.4589 -0.1077  0.3288
 6925SOL    HW132408   2.720   2.201   8.088  1.7201 -0.3450  1.1586
 6925SOL    HW232409   2.668   2.328   8.036  1.0202  2.1722 -0.9415
 6926SOL     OW32410   2.038   3.649  15.506 -0.1105 -0.1392 -0.2057
 6926SOL    HW132411   1.984   3.722  15.475 -0.1211 -0.1143 -0.1292
 6926SOL    HW232412   1.994   3.620  15.586  1.7688 -1.6195  0.2882
 6927SOL     OW32413   2.666   4.346  17.534  0.0272 -0.2163 -0.0294
 6927SOL    HW132414   2.738   4.307  17.484  1.5949  0.3997  1.7144
 6927SOL    HW232415   2.626   4.264  17.564 -0.6179  0.0372 -0.2114
 6928SOL     OW32416   4.340   3.141  11.475 -0.8771  0.0931 -0.0270
 6928SOL    HW132417   4.250   3.158  11.446 -0.5349  2.4538  0.3266
 6928SOL    HW232418   4.323   3.185  11.558 -1.9517  0.2974 -0.3584
 6929SOL     OW32419   4.715   1.638   5.556  0.2861 -0.1658  1.1934
 6929SOL    HW132420   4.733   1.641   5.462  0.0583  0.1200  1.1580
 6929SOL    HW232421   4.731   1.545   5.574  2.7209 -0.4056 -2.2947
 6930SOL     OW32422   2.947   3.864  10.835  0.3133 -0.6229  0.0652
 6930SOL    HW132423   2.945   3.860  10.930 -0.2298  0.1343  0.0866
 6930SOL    HW232424   2.899   3.944  10.816 -0.4589 -1.1038 -0.0026
 6931SOL     OW32425   3.295   0.692   9.135  0.2243  0.3010  0.4359
 6931SOL    HW132426   3.295   0.782   9.169 -0.5989  0.3839  0.2163
 6931SOL    HW232427   3.380   0.659   9.166 -0.3334 -0.4204  1.1722
 6932SOL     OW32428   3.689   2.578   7.441 -0.1850 -0.4558  0.2233
 6932SOL    HW132429   3.659   2.648   7.499 -1.2034  0.0475 -0.9395
 6932SOL    HW232430   3.766   2.546   7.489  0.4296  3.0513  1.6196
 6933SOL     OW32431   2.032   0.959   2.459  0.1828  0.1686  0.5212
 6933SOL    HW132432   2.085   0.976   2.537  2.0060 -0.8709 -0.5102
 6933SOL    HW232433   2.010   1.051   2.445 -2.4533 -0.4284  0.6920
 6934SOL     OW32434   4.414   2.669   3.617 -0.1427  0.2948  0.2299
 6934SOL    HW132435   4.379   2.606   3.553  0.2263  0.9287 -0.5967
 6934SOL    HW232436   4.507   2.663   3.593 -0.5780 -2.9760 -0.6481
 6935SOL     OW32437   2.545   2.124  10.327  0.2573  0.5561  0.5098
 6935SOL    HW132438   2.597   2.195  10.366 -1.2453  1.1880  1.3719
 6935SOL    HW232439   2.616   2.059  10.332  1.1644  1.6022  1.5286
 6936SOL     OW32440   0.712   3.109   3.378  0.3046 -0.2268  0.3493
 6936SOL    HW132441   0.793   3.080   3.420  1.0660  0.9262 -0.3228
 6936SOL    HW232442   0.747   3.120   3.289 -1.7394 -1.6060 -0.6105
 6937SOL     OW32443   1.662   0.072   2.390  0.1308  0.1052 -0.1439
 6937SOL    HW132444   1.641   4.715   2.397  2.6187 -0.4611 -0.2957
 6937SOL    HW232445   1.609   0.094   2.313  0.7335  0.6019 -0.4099
 6938SOL     OW32446   2.614   0.544   2.208  0.6780  0.5370  0.0924
 6938SOL    HW132447   2.606   0.564   2.114 -1.3411 -1.0957 -0.0739
 6938SOL    HW232448   2.555   0.610   2.243  0.6438  0.8001 -0.4616
 6939SOL     OW32449   3.788   2.770   7.207  0.0128 -0.2892 -0.3402
 6939SOL    HW132450   3.707   2.816   7.231 -1.3136 -3.3022  0.8997
 6939SOL    HW232451   3.832   2.768   7.292 -3.8592  1.1383  1.7134
 6940SOL     OW32452   1.005   0.118   2.394  0.6467 -0.5458  0.5567
 6940SOL    HW132453   0.988   0.174   2.318  1.6127 -0.1736  0.6163
 6940SOL    HW232454   0.958   0.162   2.465 -0.7781  0.5477 -1.0458
 6941SOL     OW32455   3.016   2.123   7.730  0.9514 -0.0973  0.4158
 6941SOL    HW132456   2.970   2.164   7.657  1.8027  1.6665  0.8774
 6941SOL    HW232457   3.093   2.090   7.683  0.4004 -0.0641 -0.5163
 6942SOL     OW32458   4.372   0.477   7.222  0.5183 -0.2942 -0.1150
 6942SOL    HW132459   4.329   0.393   7.204 -1.1606  0.5570  0.0124
 6942SOL    HW232460   4.438   0.453   7.287  1.0513 -0.4909 -0.7318
 6943SOL     OW32461   1.688   2.227   8.727  0.7026  0.2811 -0.2631
 6943SOL    HW132462   1.621   2.296   8.722 -2.5037 -2.9611 -1.9606
 6943SOL    HW232463   1.761   2.287   8.745 -0.2887  0.8232  1.9463
 6944SOL     OW32464   3.798   4.344   5.854 -0.4344 -0.0118 -0.0448
 6944SOL    HW132465   3.721   4.385   5.894  0.2420  0.5255  0.6982
 6944SOL    HW232466   3.775   4.253   5.832  0.3978 -0.5435  1.2314
 6945SOL     OW32467   0.240   1.127   7.140  0.0962  0.3802  0.5154
 6945SOL    HW132468   0.289   1.184   7.199 -3.1437  2.4412  1.1634
 6945SOL    HW232469   0.148   1.146   7.158 -0.6255  0.2897 -2.9608
 6946SOL     OW32470   2.136   3.444   2.988 -0.2369  0.3599 -0.3257
 6946SOL    HW132471   2.213   3.400   2.953 -1.3884 -2.8599  1.1590
 6946SOL    HW232472   2.063   3.419   2.931 -0.6171  3.2513 -1.0883
 6947SOL     OW32473   2.412   4.673   7.607 -0.4607 -0.2605  0.1306
 6947SOL    HW132474   2.503   4.692   7.583 -1.5694  1.5489 -2.6783
 6947SOL    HW232475   2.396   4.589   7.562 -0.8674 -0.4215  0.5784
 6948SOL     OW32476   3.130   2.861   6.258  0.2476 -0.0940  0.1728
 6948SOL    HW132477   3.146   2.866   6.353  0.7530  1.9474 -0.0200
 6948SOL    HW232478   3.041   2.828   6.257  0.5183 -0.8390  0.5071
 6949SOL     OW32479   3.209   4.498   4.301  0.5386 -0.4487 -0.2192
 6949SOL    HW132480   3.181   4.407   4.308 -1.0195  0.2439  3.0790
 6949SOL    HW232481   3.222   4.525   4.392  0.0484 -2.5342  0.4734
 6950SOL     OW32482   3.794   2.104   5.516  0.1407 -0.5811 -0.4160
 6950SOL    HW132483   3.761   2.150   5.439  1.1370 -0.8602 -1.0021
 6950SOL    HW232484   3.889   2.109   5.508 -0.0143  0.7989 -1.4831
 6951SOL     OW32485   2.347   1.900   2.188  0.5478  0.5146  0.2245
 6951SOL    HW132486   2.429   1.871   2.230 -1.5237 -1.4793  2.9364
 6951SOL    HW232487   2.352   1.847   2.109  1.0321  0.8257  0.0469
 6952SOL     OW32488   2.776   2.785   8.566 -0.1258 -0.6326 -0.7550
 6952SOL    HW132489   2.776   2.808   8.659  0.2706  1.9625 -1.3920
 6952SOL    HW232490   2.816   2.868   8.539  1.6726 -0.6309  2.0266
 6953SOL     OW32491   2.539   1.896   0.121  0.2947 -0.1031  0.3670
 6953SOL    HW132492   2.492   1.873   0.202 -1.0010  1.3253  0.0016
 6953SOL    HW232493   2.506   1.986   0.120 -1.3219 -0.7088 -0.5465
 6954SOL     OW32494   0.065   0.611   7.694  0.3789 -0.4489 -0.0570
 6954SOL    HW132495   0.047   0.543   7.630 -1.2770  0.6046 -0.7376
 6954SOL    HW232496   0.150   0.583   7.727  0.6665  0.9292  0.3580
 6955SOL     OW32497   2.811   1.805   7.051  0.8953  0.9989 -0.4550
 6955SOL    HW132498   2.897   1.845   7.037  0.4417  1.7079 -1.1881
 6955SOL    HW232499   2.767   1.877   7.096  0.4525 -0.6603  1.7153
 6956SOL     OW32500   0.077   4.108   2.946 -0.2807  0.3117 -0.0301
 6956SOL    HW132501   4.719   4.107   2.959 -0.2640  0.2161  0.0901
 6956SOL    HW232502   0.071   4.158   2.865  2.4753  1.1566  0.3051
 6957SOL     OW32503   3.961   3.056   8.730  0.2492 -0.5532 -0.2016
 6957SOL    HW132504   3.907   2.984   8.697  0.6928 -0.7085 -0.5874
 6957SOL    HW232505   4.049   3.024   8.710  0.9019 -0.5078  2.6986
 6958SOL     OW32506   4.075   2.967  16.091  0.1935  0.2997  0.0235
 6958SOL    HW132507   4.030   3.013  16.162  0.1439  1.1655 -0.5637
 6958SOL    HW232508   4.041   2.879  16.106 -0.8669  1.0710  2.1488
 6959SOL     OW32509   2.187   2.757   7.733 -0.2820 -0.1942 -0.0185
 6959SOL    HW132510   2.180   2.675   7.782  1.5744 -0.5044 -0.2673
 6959SOL    HW232511   2.281   2.775   7.732 -0.1000 -0.9887  2.6993
 6960SOL     OW32512   2.205   0.527   1.157  0.1650  0.0675 -0.7630
 6960SOL    HW132513   2.138   0.481   1.208  0.2053 -0.5202 -1.2359
 6960SOL    HW232514   2.183   0.612   1.193 -1.0720  0.7335 -3.0663
 6961SOL     OW32515   1.011   0.939   2.452 -0.1579  0.2054  0.5340
 6961SOL    HW132516   1.099   0.926   2.418 -1.0016  2.3565 -2.5170
 6961SOL    HW232517   1.006   0.871   2.519 -1.1361 -3.4130 -3.2074
 6962SOL     OW32518   2.551   0.491   3.220  0.3442 -0.1794 -0.0778
 6962SOL    HW132519   2.458   0.513   3.210  0.6280  0.9190 -0.3033
 6962SOL    HW232520   2.570   0.469   3.129 -1.8798  0.1007 -0.6228
 6963SOL     OW32521   4.317   3.125   2.483  0.3556  0.5416  0.6897
 6963SOL    HW132522   4.253   3.185   2.445  1.4464  0.6878 -0.9153
 6963SOL    HW232523   4.308   3.051   2.423  0.2177 -0.9840  2.5991
 6964SOL     OW32524   1.423   3.815   9.309  0.4778 -0.5184  0.6318
 6964SOL    HW132525   1.359   3.800   9.379 -0.6611 -1.6640 -0.6713
 6964SOL    HW232526   1.444   3.907   9.324 -1.4443  0.3639 -2.2191
 6965SOL     OW32527   4.183   3.000   2.975  0.2839 -0.4505  0.1160
 6965SOL    HW132528   4.109   2.990   3.036  0.3852 -0.6043  0.2148
 6965SOL    HW232529   4.151   3.055   2.903  0.8383  1.0824  1.0349
 6966SOL     OW32530   1.733   4.490   1.184  0.4320  0.3060 -0.0110
 6966SOL    HW132531   1.773   4.560   1.133 -0.6567  0.7672 -0.2430
 6966SOL    HW232532   1.648   4.479   1.141  0.8038  1.0496 -0.9169
 6967SOL     OW32533   2.698   0.212   5.639 -0.3585 -0.3477 -0.1814
 6967SOL    HW132534   2.717   0.288   5.585  0.2845 -0.3359  0.0658
 6967SOL    HW232535   2.756   0.213   5.715 -0.9882 -3.1210  0.3475
 6968SOL     OW32536   3.830   2.291  13.148  0.3975  0.3445  0.8934
 6968SOL    HW132537   3.806   2.224  13.212 -1.5391 -0.3096 -0.5192
 6968SOL    HW232538   3.746   2.337  13.142  1.5350  2.2702  0.1139
 6969SOL     OW32539   4.230   1.755   9.711  0.0700 -0.3111  0.4334
 6969SOL    HW132540   4.141   1.734   9.680  0.2324 -0.7075  0.2360
 6969SOL    HW232541   4.219   1.732   9.803 -0.7136  1.7082  0.8471
 6970SOL     OW32542   0.871   1.900   7.596 -0.0550 -0.0796  0.4209
 6970SOL    HW132543   0.964   1.879   7.590 -0.3224 -1.2310  0.1371
 6970SOL    HW232544   0.866   1.995   7.586 -0.5093  0.1941  3.2583
 6971SOL     OW32545   0.951   4.442   3.760 -0.2277 -0.0560  0.1673
 6971SOL    HW132546   0.910   4.389   3.828  0.8861  0.5383  1.2843
 6971SOL    HW232547   0.932   4.533   3.785  1.9725  0.7089 -0.9340
 6972SOL     OW32548   3.355   1.116   7.149  0.5850  0.1580 -0.0065
 6972SOL    HW132549   3.409   1.088   7.075  2.2198  3.0763  0.0790
 6972SOL    HW232550   3.272   1.115   7.100  1.6033 -0.7108 -1.6860
 6973SOL     OW32551   0.571   3.822   4.570 -0.2737 -0.2957 -0.2060
 6973SOL    HW132552   0.577   3.740   4.520  0.0458  0.9701 -2.2589
 6973SOL    HW232553   0.508   3.873   4.520  0.9790  0.4996 -0.9925
 6974SOL     OW32554   1.452   4.006   6.074  0.0338 -0.0958 -0.4396
 6974SOL    HW132555   1.453   4.026   5.981 -0.2395  0.0313 -0.4164
 6974SOL    HW232556   1.506   3.928   6.078  1.1369  0.6734 -0.2192
 6975SOL     OW32557   2.596   4.250   4.240 -0.8585  0.1090 -0.1275
 6975SOL    HW132558   2.542   4.222   4.166  0.6018 -1.4586 -0.6032
 6975SOL    HW232559   2.570   4.177   4.296  0.6483  1.5557  2.4483
 6976SOL     OW32560   4.190   3.838   7.922 -0.1324  0.0990  0.3519
 6976SOL    HW132561   4.122   3.823   7.987 -1.3000 -0.3659 -0.9919
 6976SOL    HW232562   4.160   3.821   7.833  0.5127 -0.4792  0.2468
 6977SOL     OW32563   2.258   1.380  17.493 -0.3825 -0.3052  0.0678
 6977SOL    HW132564   2.220   1.294  17.475 -3.9787  1.0735  1.0238
 6977SOL    HW232565   2.344   1.346  17.515 -0.2739 -0.5035 -0.6452
 6978SOL     OW32566   0.520   1.855  12.774  0.3146  0.2910 -0.0352
 6978SOL    HW132567   0.463   1.779  12.762  0.3858  0.2897 -0.3681
 6978SOL    HW232568   0.603   1.825  12.736  0.1069 -0.2417 -0.0759
 6979SOL     OW32569   3.003   2.981  11.971 -0.2219 -0.7184  0.2888
 6979SOL    HW132570   3.022   3.070  12.001  0.2328 -1.4078  2.0251
 6979SOL    HW232571   2.917   2.989  11.929  0.3235 -2.9720 -1.2847
 6980SOL     OW32572   2.162   4.245  14.734 -0.2823  0.6238 -0.6962
 6980SOL    HW132573   2.162   4.266  14.641 -0.3190  2.2975 -0.3270
 6980SOL    HW232574   2.219   4.168  14.736 -0.5586  0.4956  1.6800
 6981SOL     OW32575   0.008   0.750   8.464 -0.7029  0.2902  0.4302
 6981SOL    HW132576   4.680   0.688   8.499  0.7251 -2.2824 -1.4334
 6981SOL    HW232577   0.015   0.803   8.543  0.6991 -0.3654  0.7394
 6982SOL     OW32578   2.502   4.284   1.337 -0.4312 -0.9667 -0.3469
 6982SOL    HW132579   2.550   4.210   1.300  1.0964  0.3448 -0.9838
 6982SOL    HW232580   2.519   4.352   1.271 -1.1479  0.3728  0.8550
 6983SOL     OW32581   3.954   3.909  13.760  0.6175  0.5089 -0.6630
 6983SOL    HW132582   3.896   3.897  13.836  2.3168 -0.5304  0.4469
 6983SOL    HW232583   4.023   3.962  13.800 -0.2743  0.3796  1.0818
 6984SOL     OW32584   3.138   0.631   8.624  0.0927  0.0941  0.4403
 6984SOL    HW132585   3.139   0.544   8.665 -0.3301  0.2664  0.8091
 6984SOL    HW232586   3.194   0.672   8.689  0.0189  0.4434  0.2838
 6985SOL     OW32587   4.648   2.536   9.934 -0.0247 -0.2575  0.1415
 6985SOL    HW132588   4.617   2.449   9.961 -0.9585  0.0924  0.1988
 6985SOL    HW232589   4.696   2.575  10.006  1.6478  1.1488 -1.7378
 6986SOL     OW32590   2.450   4.413   5.752 -0.7257  0.6512 -0.7689
 6986SOL    HW132591   2.368   4.364   5.752 -0.4919  0.2578 -0.1874
 6986SOL    HW232592   2.434   4.451   5.666 -2.9660  2.3625  0.3978
 6987SOL     OW32593   0.890   4.033  13.237  0.8136  0.1147 -0.3115
 6987SOL    HW132594   0.879   4.116  13.191 -0.5423  0.4162  0.5646
 6987SOL    HW232595   0.853   3.974  13.171 -1.0666 -0.1202  0.9627
 6988SOL     OW32596   3.465   3.811   0.035  0.3407  0.0878 -0.0820
 6988SOL    HW132597   3.395   3.748   0.014  0.3552  1.2329 -3.4921
 6988SOL    HW232598   3.535   3.763  17.737  2.2187  0.1586  2.7666
 6989SOL     OW32599   1.149   4.649   5.088  0.2693 -0.7232 -0.0333
 6989SOL    HW132600   1.161   4.606   5.004 -2.1605 -2.0955  0.3227
 6989SOL    HW232601   1.208   4.724   5.080 -1.1907  0.4745  0.2463
 6990SOL     OW32602   3.410   2.310   1.971 -0.3831  0.4672  0.1390
 6990SOL    HW132603   3.386   2.218   1.986  0.5056 -0.1797 -2.3075
 6990SOL    HW232604   3.453   2.335   2.052 -0.9692  1.2709  0.1993
 6991SOL     OW32605   4.448   4.135  15.948 -0.3107  0.4313 -1.1033
 6991SOL    HW132606   4.507   4.158  16.019 -1.0141 -0.9204 -0.0808
 6991SOL    HW232607   4.419   4.046  15.969 -2.7586  0.5022 -4.1521
 6992SOL     OW32608   2.272   3.891  14.179  0.4471 -0.2520  0.0981
 6992SOL    HW132609   2.248   3.965  14.123 -0.9151 -0.4877  0.3788
 6992SOL    HW232610   2.220   3.820  14.141  2.0034 -2.0247  1.3201
 6993SOL     OW32611   0.263   0.291   6.572 -0.5568 -0.2203  0.0642
 6993SOL    HW132612   0.233   0.263   6.485  0.9920 -0.8009 -0.2787
 6993SOL    HW232613   0.336   0.345   6.541  1.1707 -2.4201  0.2943
 6994SOL     OW32614   4.205   0.564   2.849 -0.0321 -0.1511  0.1919
 6994SOL    HW132615   4.240   0.579   2.937  1.5375 -0.7423 -0.3288
 6994SOL    HW232616   4.111   0.566   2.865  0.1683  0.3481  1.3219
 6995SOL     OW32617   1.787   1.322  12.963  0.0988  0.1394 -0.1796
 6995SOL    HW132618   1.809   1.377  12.887  1.0935  0.7717  0.5745
 6995SOL    HW232619   1.867   1.333  13.015  0.4460 -1.1044 -0.4496
 6996SOL     OW32620   3.256   0.480   4.769 -0.1233 -0.1632  0.0882
 6996SOL    HW132621   3.323   0.488   4.701 -1.5299 -2.8150 -1.6163
 6996SOL    HW232622   3.225   0.570   4.778  0.0986 -0.0885  0.0982
 6997SOL     OW32623   2.364   4.423   2.437 -0.3878  0.5912  0.1120
 6997SOL    HW132624   2.441   4.478   2.452  0.0638 -0.1502  0.5076
 6997SOL    HW232625   2.297   4.490   2.424 -0.1857  1.0324  1.3334
 6998SOL     OW32626   1.803   2.526   4.430  0.2032 -0.0720  0.4831
 6998SOL    HW132627   1.730   2.567   4.475 -0.1051 -0.6910  0.5500
 6998SOL    HW232628   1.757   2.449   4.397 -1.3657  1.1121 -0.0526
 6999SOL     OW32629   2.928   4.613   3.260 -0.0588  0.2243 -0.3318
 6999SOL    HW132630   2.863   4.575   3.200 -2.3323 -0.2456  2.4627
 6999SOL    HW232631   2.919   4.698   3.216 -2.4855  0.1101 -0.0563
 7000SOL     OW32632   0.202   0.688   6.399 -0.1362  0.4949 -0.0210
 7000SOL    HW132633   0.113   0.655   6.384 -0.0224  0.5907 -0.8576
 7000SOL    HW232634   0.186   0.777   6.368 -1.4827  0.7044  1.2426
 7001SOL     OW32635   3.951   1.272   5.766 -0.5907 -0.6056  0.0029
 7001SOL    HW132636   3.941   1.328   5.689 -1.0254 -2.4167 -1.2620
 7001SOL    HW232637   3.933   1.187   5.725 -3.2273  1.1569 -2.4519
 7002SOL     OW32638   2.997   3.945   7.226 -0.1852 -0.2562  0.5379
 7002SOL    HW132639   3.043   3.876   7.275 -2.7140 -2.4581 -0.2425
 7002SOL    HW232640   2.985   4.002   7.301  0.8540  1.2358 -0.4297
 7003SOL     OW32641   3.640   0.691   3.658 -0.6215  0.2702 -0.2142
 7003SOL    HW132642   3.692   0.770   3.639  1.2274 -1.1099 -0.8467
 7003SOL    HW232643   3.617   0.665   3.569  0.0522 -0.4655 -0.1753
 7004SOL     OW32644   4.610   4.461   7.038 -0.0453  0.5397  0.2836
 7004SOL    HW132645   4.586   4.379   7.081 -0.9374  0.6597  0.0104
 7004SOL    HW232646   4.590   4.518   7.112 -0.6368 -0.0656  0.5928
 7005SOL     OW32647   2.267   0.599   6.037  0.2986 -0.3386 -0.1679
 7005SOL    HW132648   2.331   0.541   5.995  0.0295 -0.8946  0.1893
 7005SOL    HW232649   2.311   0.684   6.039 -3.7052  1.7964 -2.7102
 7006SOL     OW32650   3.505   4.268   7.423  0.1230  0.7259 -0.2262
 7006SOL    HW132651   3.413   4.249   7.401 -0.0006  0.9569  0.0935
 7006SOL    HW232652   3.501   4.359   7.452 -0.9714  0.0116  1.8914
 7007SOL     OW32653   2.675   3.348  12.461  0.1459 -0.3623  0.0830
 7007SOL    HW132654   2.733   3.324  12.389  0.2437 -0.0639  0.0629
 7007SOL    HW232655   2.686   3.443  12.465  0.8588 -0.4288 -0.3025
 7008SOL     OW32656   1.924   1.536  15.821 -0.0483 -0.2676 -0.0861
 7008SOL    HW132657   2.016   1.532  15.846  0.7583 -0.1232 -3.1331
 7008SOL    HW232658   1.929   1.609  15.761  0.8738 -0.3980 -0.1749
 7009SOL     OW32659   1.068   4.328  11.783 -0.0498  0.1160  0.3625
 7009SOL    HW132660   1.096   4.399  11.726  1.6145  1.1832  2.5286
 7009SOL    HW232661   0.972   4.326  11.783  0.0091 -2.7820  0.0680
 7010SOL     OW32662   1.414   4.492   7.678  0.1533 -0.2661  0.9707
 7010SOL    HW132663   1.362   4.525   7.751 -1.8975  0.4083 -0.7994
 7010SOL    HW232664   1.468   4.432   7.730  1.2976  0.6972  0.9009
 7011SOL     OW32665   3.085   2.601   2.708  0.1029 -0.2036  0.3950
 7011SOL    HW132666   3.112   2.650   2.630 -1.3362 -0.0521 -0.0075
 7011SOL    HW232667   3.158   2.554   2.749  1.7663  1.2053 -0.9398
 7012SOL     OW32668   0.745   2.927  10.329 -0.1036 -0.0809 -0.1452
 7012SOL    HW132669   0.778   3.017  10.334  2.2759 -1.0945  2.2916
 7012SOL    HW232670   0.781   2.916  10.241  0.1195 -0.1871 -0.0387
 7013SOL     OW32671   1.338   0.660   0.562  0.8400  0.4021 -0.4813
 7013SOL    HW132672   1.245   0.661   0.584  1.0333 -2.5174  0.5328
 7013SOL    HW232673   1.375   0.666   0.650  0.4894  0.6253 -0.3513
 7014SOL     OW32674   3.870   2.432  15.295  0.5232 -0.6923  0.0178
 7014SOL    HW132675   3.804   2.458  15.231  2.2764 -1.9642 -2.3695
 7014SOL    HW232676   3.853   2.338  15.294  1.4274 -0.8498 -0.6351
 7015SOL     OW32677   0.796   2.497  10.570 -0.5083  0.4963  0.1389
 7015SOL    HW132678   0.822   2.554  10.642  1.2100  0.0526 -0.1507
 7015SOL    HW232679   0.798   2.561  10.499  1.5118  1.9448  1.5031
 7016SOL     OW32680   2.796   1.463   8.015 -0.6811 -0.4553  0.0042
 7016SOL    HW132681   2.874   1.433   8.063 -0.4731 -0.4533 -0.3304
 7016SOL    HW232682   2.773   1.546   8.055  2.0177 -0.8447  2.3828
 7017SOL     OW32683   0.312   4.450   5.930 -0.0046 -0.5126 -0.1856
 7017SOL    HW132684   0.353   4.366   5.946 -0.0892 -0.2285  1.5856
 7017SOL    HW232685   0.243   4.457   5.996  0.1814  0.7640 -0.1129
 7018SOL     OW32686   1.995   3.921   6.147 -0.0058 -0.4940  0.1268
 7018SOL    HW132687   1.928   3.975   6.107  0.9710  1.5927  1.2865
 7018SOL    HW232688   1.939   3.852   6.181  2.2074 -2.1442  0.4656
 7019SOL     OW32689   2.565   0.464   4.786 -0.3780 -0.1559 -0.6071
 7019SOL    HW132690   2.600   0.491   4.702 -1.2712  1.4437 -0.4597
 7019SOL    HW232691   2.602   0.530   4.845  0.5525  0.1678 -1.5659
 7020SOL     OW32692   2.034   2.890   7.187 -0.0212 -0.3816 -0.0532
 7020SOL    HW132693   1.947   2.930   7.188 -0.1778 -0.7179 -0.0165
 7020SOL    HW232694   2.020   2.821   7.252 -2.3591  0.3808  0.2636
 7021SOL     OW32695   0.422   3.265   5.595 -0.3044 -0.1517 -0.1205
 7021SOL    HW132696   0.493   3.286   5.656 -0.9037 -2.2297  1.2823
 7021SOL    HW232697   0.452   3.328   5.529 -0.1506  1.2021  1.2567
 7022SOL     OW32698   0.832   1.339   8.591 -0.3413  0.1898 -0.0679
 7022SOL    HW132699   0.851   1.247   8.575 -0.4861  0.0499  0.5714
 7022SOL    HW232700   0.832   1.338   8.687  2.8309 -1.0191 -0.1035
 7023SOL     OW32701   2.883   1.937   4.782  0.2601  0.2625  0.1156
 7023SOL    HW132702   2.872   2.019   4.831  1.8971  0.3562  0.3389
 7023SOL    HW232703   2.861   1.862   4.837  0.4241  0.8008  0.9185
 7024SOL     OW32704   2.052   2.277   2.700  0.0299  0.2535  0.2593
 7024SOL    HW132705   2.036   2.208   2.636  2.2179  0.5145 -0.5547
 7024SOL    HW232706   1.962   2.304   2.720 -0.1578 -1.4714  1.6765
 7025SOL     OW32707   2.202   3.030   7.397  0.5248  0.4822 -0.4996
 7025SOL    HW132708   2.185   3.109   7.447 -0.4933 -0.0068 -0.0700
 7025SOL    HW232709   2.153   3.032   7.315  2.8642 -0.3229 -1.9202
 7026SOL     OW32710   0.850   1.938   8.330 -0.0959 -0.3350 -0.5774
 7026SOL    HW132711   0.815   1.851   8.313 -1.0200 -0.4463  1.9131
 7026SOL    HW232712   0.874   1.975   8.245 -1.5006  0.6520 -0.5370
 7027SOL     OW32713   0.394   3.527   3.216 -0.0421  0.3171  0.0024
 7027SOL    HW132714   0.350   3.603   3.254  0.5104 -0.1803  1.6521
 7027SOL    HW232715   0.485   3.539   3.241  0.0899 -2.1282  0.6883
 7028SOL     OW32716   4.429   1.198   2.126 -0.2093 -0.7132 -0.9821
 7028SOL    HW132717   4.403   1.287   2.148  1.2117  0.1252 -2.7504
 7028SOL    HW232718   4.383   1.192   2.042  0.2103  1.6355 -1.3577
 7029SOL     OW32719   2.088   0.096  15.358  0.1438 -0.1793  0.2020
 7029SOL    HW132720   2.073   0.005  15.332 -1.6146  0.7366 -2.0000
 7029SOL    HW232721   2.179   0.098  15.328  0.1810 -0.5259  0.2873
 7030SOL     OW32722   1.688   4.192  11.044  0.2891 -0.5601 -0.6037
 7030SOL    HW132723   1.645   4.230  10.967 -0.4079 -2.2896 -1.0748
 7030SOL    HW232724   1.644   4.223  11.123 -0.9457  0.1056 -1.5433
 7031SOL     OW32725   4.068   4.601   4.713 -0.6443 -0.3989 -0.0476
 7031SOL    HW132726   4.130   4.630   4.646  0.9642 -1.4301  0.9873
 7031SOL    HW232727   4.063   4.684   4.760  1.2623  0.6583 -1.6972
 7032SOL     OW32728   4.553   2.727   8.263 -0.6442  0.1805  0.7379
 7032SOL    HW132729   4.493   2.653   8.259 -0.7542  0.3413 -0.7416
 7032SOL    HW232730   4.605   2.692   8.335  0.0115  1.8376  1.0665
 7033SOL     OW32731   0.325   1.925   6.565 -0.2985 -0.6168 -0.0864
 7033SOL    HW132732   0.293   1.882   6.486  0.9201  1.3159 -1.6418
 7033SOL    HW232733   0.266   2.001   6.562 -1.1551 -1.2791  0.0298
 7034SOL     OW32734   2.866   2.003   6.038 -0.0511  0.1047  0.3275
 7034SOL    HW132735   2.904   2.080   6.082  0.4793 -1.2694  2.2592
 7034SOL    HW232736   2.908   1.930   6.083 -2.1514 -0.6025  1.1223
 7035SOL     OW32737   4.170   0.839  15.045 -0.8524  0.1015  0.1296
 7035SOL    HW132738   4.246   0.863  14.993 -2.3606  2.5298 -0.9150
 7035SOL    HW232739   4.099   0.861  14.985 -0.0551  0.4695 -0.6745
 7036SOL     OW32740   3.945   1.945   6.896 -0.5294 -0.0007  0.4120
 7036SOL    HW132741   3.882   2.001   6.852  0.0015 -1.1562 -1.8347
 7036SOL    HW232742   3.936   1.864   6.846  3.1128  1.5481 -2.7580
 7037SOL     OW32743   1.534   0.431  14.766  0.0539 -0.4641 -0.0327
 7037SOL    HW132744   1.470   0.453  14.698  1.8337 -1.5650 -2.0543
 7037SOL    HW232745   1.482   0.364  14.809  0.3422 -0.1601  0.7872
 7038SOL     OW32746   3.206   4.565  14.774  0.0337  0.1495  0.4529
 7038SOL    HW132747   3.284   4.619  14.759  1.7382 -1.8577  1.9749
 7038SOL    HW232748   3.197   4.556  14.869 -0.1228 -2.1816  0.2144
 7039SOL     OW32749   0.937   1.562   6.866  0.3267 -0.7763  0.0096
 7039SOL    HW132750   0.851   1.552   6.823  0.0265 -0.9108  0.6501
 7039SOL    HW232751   0.942   1.653   6.894 -0.6614 -0.6566 -0.2022
 7040SOL     OW32752   0.712   0.515  16.213 -0.2400 -0.1190  0.2760
 7040SOL    HW132753   0.773   0.582  16.183 -1.4005  0.2097 -1.3468
 7040SOL    HW232754   0.769   0.448  16.251 -0.7790 -1.4515 -1.2667
 7041SOL     OW32755   1.914   1.873   4.264 -0.1937 -0.1427 -0.3611
 7041SOL    HW132756   1.998   1.904   4.299  0.6560 -3.7914  0.8317
 7041SOL    HW232757   1.932   1.867   4.170  1.8925 -1.9547  0.1714
 7042SOL     OW32758   2.458   4.530  15.201 -0.3457  0.1255 -0.4270
 7042SOL    HW132759   2.399   4.480  15.145 -1.5876  1.4939 -0.3750
 7042SOL    HW232760   2.465   4.608  15.145  1.6594 -0.7445 -1.3682
 7043SOL     OW32761   3.939   2.941   3.051 -0.2319  0.2303  0.1066
 7043SOL    HW132762   3.855   2.952   3.007 -0.1235 -2.2992 -0.7652
 7043SOL    HW232763   3.912   2.924   3.141 -1.7728 -0.7140 -0.5419
 7044SOL     OW32764   0.714   4.299   4.209  0.2618  0.1828  0.2249
 7044SOL    HW132765   0.664   4.241   4.152  2.6534 -0.6886 -0.9577
 7044SOL    HW232766   0.697   4.256   4.293 -1.8437 -0.1073 -0.3315
 7045SOL     OW32767   1.823   0.153   6.976  0.4699  0.1894  0.2513
 7045SOL    HW132768   1.784   0.131   6.891 -0.5928  1.6540  0.3614
 7045SOL    HW232769   1.744   0.152   7.029  0.6360 -2.6657  0.4425
 7046SOL     OW32770   1.433   2.291  16.152  0.5957  0.4964  0.3512
 7046SOL    HW132771   1.359   2.235  16.174 -0.2235  0.8225 -1.6398
 7046SOL    HW232772   1.415   2.317  16.062 -2.2239 -0.2148  0.7229
 7047SOL     OW32773   4.684   2.050   7.981  0.1133  0.3620 -0.5928
 7047SOL    HW132774   4.664   2.024   8.070 -1.9444  0.7531 -0.9556
 7047SOL    HW232775   4.610   2.022   7.927  0.1699 -1.3938  0.2386
 7048SOL     OW32776   1.650   0.925   5.062  0.3672 -0.3413 -0.0274
 7048SOL    HW132777   1.711   0.961   5.126 -0.1517 -0.3030  0.4401
 7048SOL    HW232778   1.566   0.948   5.101 -1.0984 -3.9036 -1.1028
 7049SOL     OW32779   2.754   3.306  16.176 -0.5884  0.1351 -0.2223
 7049SOL    HW132780   2.660   3.326  16.173 -0.1068  2.5473  1.4648
 7049SOL    HW232781   2.764   3.219  16.215  1.1641 -0.1475 -1.2936
 7050SOL     OW32782   2.946   1.220   0.474 -0.4426  0.2625  0.2853
 7050SOL    HW132783   2.884   1.148   0.471 -1.5183  1.0583  2.9482
 7050SOL    HW232784   2.907   1.266   0.549  3.0285  0.4780  1.9507
 7051SOL     OW32785   0.259   2.490   9.655  0.2347  0.3294 -0.5793
 7051SOL    HW132786   0.297   2.486   9.743 -1.4439  1.2010  0.1776
 7051SOL    HW232787   0.256   2.396   9.634  1.8957  0.3721 -1.0241
 7052SOL     OW32788   3.993   3.599   1.208  0.1811 -0.2191  0.1863
 7052SOL    HW132789   3.919   3.538   1.204  0.6921 -0.8058 -0.2761
 7052SOL    HW232790   3.944   3.679   1.229 -1.1031 -0.8840 -0.2568
 7053SOL     OW32791   1.175   2.579   3.160 -0.1842  0.3446  0.3225
 7053SOL    HW132792   1.238   2.508   3.152 -0.2021  0.5272 -1.6011
 7053SOL    HW232793   1.236   2.648   3.186 -0.2273  1.3368 -2.2090
 7054SOL     OW32794   1.596   4.434  16.035 -0.3583 -0.0447 -0.2907
 7054SOL    HW132795   1.681   4.422  15.993  0.7079  0.6459  1.7043
 7054SOL    HW232796   1.622   4.451  16.126 -1.6463 -0.6427  0.1917
 7055SOL     OW32797   2.496   0.082   3.921 -0.3566 -0.0316  0.3516
 7055SOL    HW132798   2.435   0.061   3.851 -1.2588  0.4832  0.9780
 7055SOL    HW232799   2.539   4.735   3.938  0.5660  0.2152 -0.7513
 7056SOL     OW32800   2.017   0.394   6.031  0.0228 -0.1791 -0.0524
 7056SOL    HW132801   2.041   0.424   5.943 -1.0479 -0.3744 -0.4147
 7056SOL    HW232802   2.083   0.327   6.049 -2.4330 -2.7277 -0.5099
 7057SOL     OW32803   4.113   0.804   7.926  0.2808 -0.2780  0.6536
 7057SOL    HW132804   4.051   0.823   7.854  1.5017 -3.5917 -1.2560
 7057SOL    HW232805   4.052   0.844   7.989  0.8823  0.1437  0.9613
 7058SOL     OW32806   4.131   1.659   8.817 -0.5478  0.3856 -0.1656
 7058SOL    HW132807   4.053   1.715   8.818 -1.4065 -0.8254  0.7239
 7058SOL    HW232808   4.095   1.574   8.795  0.7600 -0.0988 -0.4189
 7059SOL     OW32809   3.590   1.478   5.058  0.3136 -0.1352  0.0793
 7059SOL    HW132810   3.518   1.454   4.999 -1.3349  1.6385  1.3522
 7059SOL    HW232811   3.552   1.541   5.119  1.8329  1.1861 -0.3449
 7060SOL     OW32812   4.092   2.161   4.760 -0.8955 -0.4964  0.0473
 7060SOL    HW132813   4.034   2.225   4.800 -0.6470  0.5932 -1.3543
 7060SOL    HW232814   4.165   2.215   4.789 -0.6044 -0.1781 -1.2544
 7061SOL     OW32815   0.293   1.760   7.667  0.0492  0.4651  0.4811
 7061SOL    HW132816   0.282   1.787   7.758 -0.6159 -1.0260  0.8497
 7061SOL    HW232817   0.367   1.701   7.681  0.9615  1.0060 -1.9900
 7062SOL     OW32818   1.231   1.265   6.042 -0.1707 -0.0848 -0.1250
 7062SOL    HW132819   1.198   1.238   6.128 -0.9176  1.4668  0.0799
 7062SOL    HW232820   1.234   1.181   5.997  1.8352 -0.5233  0.8261
 7063SOL     OW32821   0.745   1.862   1.744 -0.6065  0.2137 -0.3980
 7063SOL    HW132822   0.755   1.936   1.805  2.8320  1.2776 -2.2315
 7063SOL    HW232823   0.830   1.819   1.754 -0.0410  1.4426  0.0990
 7064SOL     OW32824   2.229   4.725   2.120  0.2208 -0.3679  0.5570
 7064SOL    HW132825   2.225   0.031   2.205 -1.0957  0.6532 -0.0249
 7064SOL    HW232826   2.138   4.706   2.099  1.1266 -3.5377 -0.5555
 7065SOL     OW32827   0.675   3.001   2.679  0.0959  0.3875  0.2311
 7065SOL    HW132828   0.675   3.096   2.691  1.0253  0.3342  0.7046
 7065SOL    HW232829   0.765   2.971   2.695 -0.3794 -0.4474  1.2960
 7066SOL     OW32830   4.616   1.566   5.947  0.1465 -0.1701  0.3206
 7066SOL    HW132831   4.637   1.477   5.920 -1.0759 -1.1016  2.4021
 7066SOL    HW232832   4.566   1.548   6.027  0.2123  0.3266  0.4805
 7067SOL     OW32833   3.303   4.169  10.076  0.3236 -0.3325 -0.0975
 7067SOL    HW132834   3.392   4.135  10.072  0.6046  0.4925 -0.9025
 7067SOL    HW232835   3.320   4.237  10.011  0.3473  0.0780  0.3370
 7068SOL     OW32836   1.031   2.228   7.845 -0.2819 -0.2687  0.5794
 7068SOL    HW132837   1.024   2.303   7.786 -1.9067 -0.3496  0.6720
 7068SOL    HW232838   0.942   2.197   7.860 -0.2262 -1.6952 -1.9254
 7069SOL     OW32839   2.080   0.509  13.760 -0.0961 -0.5741 -0.5915
 7069SOL    HW132840   2.055   0.548  13.843  0.1560 -1.7627  0.0539
 7069SOL    HW232841   2.058   0.423  13.798 -1.5823  0.5292  1.0218
 7070SOL     OW32842   1.797   4.493   0.278 -0.4672  0.0280 -0.3001
 7070SOL    HW132843   1.805   4.413   0.226 -0.1311 -1.0580  1.4289
 7070SOL    HW232844   1.804   4.458   0.367 -1.6622 -0.2156 -0.3107
 7071SOL     OW32845   3.659   2.753   7.645  0.4106 -0.2490 -0.7428
 7071SOL    HW132846   3.608   2.775   7.723  0.6826  1.0604 -0.9382
 7071SOL    HW232847   3.681   2.845   7.635  0.3907  0.1102  2.3849
 7072SOL     OW32848   0.834   4.515   9.887  0.2862  0.3640  0.0063
 7072SOL    HW132849   0.746   4.479   9.898 -0.3398  1.4295 -1.5427
 7072SOL    HW232850   0.829   4.570   9.809 -1.4976  0.8993  0.4823
 7073SOL     OW32851   4.270   4.609  10.187  0.3161  0.3898 -0.1312
 7073SOL    HW132852   4.308   4.606  10.275 -0.6794  2.0485  0.3451
 7073SOL    HW232853   4.176   4.622  10.202  0.2080  1.2150 -1.4966
 7074SOL     OW32854   3.706   3.113   9.612  0.1989  0.4663  0.1682
 7074SOL    HW132855   3.793   3.103   9.575  0.8895  1.2338  1.6121
 7074SOL    HW232856   3.654   3.134   9.534  2.0864  1.9463 -0.6883
 7075SOL     OW32857   3.830   1.240   8.862 -0.2277  0.1508 -0.5876
 7075SOL    HW132858   3.769   1.230   8.935 -1.3966 -1.7654 -1.8078
 7075SOL    HW232859   3.888   1.166   8.881 -2.1414 -1.4782 -1.0233
 7076SOL     OW32860   1.774   2.168  17.551  0.3134 -0.5673  0.2641
 7076SOL    HW132861   1.799   2.241  17.608 -1.6837 -0.2345  0.7073
 7076SOL    HW232862   1.753   2.221  17.475  0.3990 -1.5324 -0.4247
 7077SOL     OW32863   0.715   0.619   3.809 -0.0790 -0.0269  0.2143
 7077SOL    HW132864   0.626   0.589   3.826  0.5401  0.0347  3.5895
 7077SOL    HW232865   0.754   0.557   3.748  0.2801 -0.8073  1.2236
 7078SOL     OW32866   1.973   2.088   2.480 -0.2496  0.2902  0.7532
 7078SOL    HW132867   2.059   2.047   2.474  0.8528  2.6320  0.4726
 7078SOL    HW232868   1.962   2.129   2.394  0.9135  2.5669  1.6756
 7079SOL     OW32869   4.374   1.149   7.986 -0.1551  0.0756  0.3154
 7079SOL    HW132870   4.412   1.063   8.007 -1.8598 -0.3099  1.8942
 7079SOL    HW232871   4.324   1.143   7.905  2.3653 -2.9431 -1.0034
 7080SOL     OW32872   1.338   0.113   2.153  0.0830  0.0051  0.3284
 7080SOL    HW132873   1.424   0.138   2.119 -1.6043  2.5701 -1.9993
 7080SOL    HW232874   1.304   0.194   2.191  0.8558  0.4205  0.1240
 7081SOL     OW32875   3.752   2.309  10.030  0.2652 -0.0360  0.2711
 7081SOL    HW132876   3.802   2.345  10.102 -0.6649  2.0246 -0.1038
 7081SOL    HW232877   3.722   2.385   9.980 -3.1829 -1.9500 -0.5943
 7082SOL     OW32878   0.562   4.069   1.333  0.2467  0.1528  0.0493
 7082SOL    HW132879   0.619   4.019   1.392  0.0457  0.1848  0.2725
 7082SOL    HW232880   0.478   4.024   1.344  0.7332 -1.2696 -2.1252
 7083SOL     OW32881   4.274   3.936   1.232 -0.0337  0.1301 -0.9326
 7083SOL    HW132882   4.205   3.992   1.196  0.7427 -0.1896 -2.9609
 7083SOL    HW232883   4.302   3.888   1.153  2.3452 -1.8445  1.1196
 7084SOL     OW32884   0.155   0.303   7.784 -0.2704 -0.0410  0.1723
 7084SOL    HW132885   0.144   0.236   7.716  2.2759 -0.4550  0.1572
 7084SOL    HW232886   0.061   0.313   7.799 -0.0884 -0.2160  1.4621
 7085SOL     OW32887   3.127   3.068   5.461  0.2046  0.1737  0.4221
 7085SOL    HW132888   3.074   2.988   5.457 -1.6591  1.4177  0.0265
 7085SOL    HW232889   3.061   3.124   5.501 -0.3819 -0.1042 -0.1525
 7086SOL     OW32890   0.187   3.795   6.947 -0.6986 -0.0596 -0.1126
 7086SOL    HW132891   0.262   3.833   6.992 -0.7508  0.1670 -0.2184
 7086SOL    HW232892   0.209   3.807   6.855 -0.6796  0.5551 -0.0274
 7087SOL     OW32893   3.397   4.235   4.789 -0.3076  0.2792 -0.3700
 7087SOL    HW132894   3.377   4.328   4.793 -0.5337  0.2159  0.0154
 7087SOL    HW232895   3.389   4.221   4.695  1.5045  0.0890 -0.4924
 7088SOL     OW32896   1.064   3.892  16.509 -0.2950  0.0012 -0.4814
 7088SOL    HW132897   1.103   3.871  16.424  3.1584  1.9756  0.6149
 7088SOL    HW232898   0.996   3.956  16.487 -1.7128 -0.3214  2.9953
 7089SOL     OW32899   0.662   3.800   9.912 -0.4291 -0.2305 -0.0503
 7089SOL    HW132900   0.609   3.761   9.982  0.3319 -1.9709 -0.4655
 7089SOL    HW232901   0.747   3.763   9.932 -0.7276 -0.9028 -0.0215
 7090SOL     OW32902   0.081   3.015  14.469  0.0501  0.1697 -0.0879
 7090SOL    HW132903   0.047   3.051  14.551 -0.0008  1.9658 -0.9077
 7090SOL    HW232904   0.100   2.925  14.497  1.1294 -0.7755 -3.8252
 7091SOL     OW32905   1.899   0.900  11.460  0.2969  0.1138 -0.6273
 7091SOL    HW132906   1.838   0.836  11.423  0.9917 -0.8658 -0.0682
 7091SOL    HW232907   1.941   0.833  11.515  0.5302 -0.6000 -1.6752
 7092SOL     OW32908   2.498   1.624   5.718 -0.4663  0.2038  0.3994
 7092SOL    HW132909   2.416   1.662   5.688  0.1048  0.0290 -1.3861
 7092SOL    HW232910   2.528   1.586   5.635  1.3469 -0.4746  1.3576
 7093SOL     OW32911   2.880   1.881   4.129  0.1970 -0.1597  0.1057
 7093SOL    HW132912   2.948   1.912   4.189 -0.1392  1.9075 -0.5895
 7093SOL    HW232913   2.834   1.818   4.184  0.2472  1.4167  1.9589
 7094SOL     OW32914   2.249   0.639   8.255 -0.3876 -0.5946  0.0724
 7094SOL    HW132915   2.277   0.570   8.315  0.1917 -0.6762 -0.2857
 7094SOL    HW232916   2.234   0.583   8.179 -2.0394  0.2259 -0.1944
 7095SOL     OW32917   0.366   2.796   3.547 -0.2380  0.4855  0.3300
 7095SOL    HW132918   0.291   2.855   3.560 -2.5301 -1.5185 -3.6401
 7095SOL    HW232919   0.394   2.841   3.467 -2.0596  0.7279 -0.1833
 7096SOL     OW32920   1.668   1.680  15.034 -0.6053  0.5432  0.6940
 7096SOL    HW132921   1.593   1.673  15.093 -3.3170  0.5499 -2.7468
 7096SOL    HW232922   1.734   1.624  15.075 -2.4297 -0.9081  1.6807
 7097SOL     OW32923   1.212   2.602   8.704 -0.6515 -0.6307 -0.1980
 7097SOL    HW132924   1.213   2.676   8.764 -1.0176 -0.2991 -0.5984
 7097SOL    HW232925   1.124   2.571   8.728 -0.9320  0.6838  0.4568
 7098SOL     OW32926   0.452   0.412   1.339  0.4529  0.1387 -0.7415
 7098SOL    HW132927   0.458   0.329   1.386  1.2120  0.7238  0.2082
 7098SOL    HW232928   0.511   0.400   1.265 -0.1573 -0.8972 -1.0479
 7099SOL     OW32929   3.860   1.811   4.468  0.1218  0.2247 -0.1237
 7099SOL    HW132930   3.891   1.899   4.490 -1.8277  1.4608 -2.2807
 7099SOL    HW232931   3.905   1.800   4.384  0.5859 -2.4197  0.4727
 7100SOL     OW32932   1.548   2.400   5.298 -0.0903 -0.0756 -0.4428
 7100SOL    HW132933   1.500   2.374   5.377 -0.6411 -0.4459 -0.8975
 7100SOL    HW232934   1.479   2.406   5.232  0.8373  3.9841 -1.0422
 7101SOL     OW32935   1.185   2.528   1.525 -0.0366  0.6974  0.2317
 7101SOL    HW132936   1.260   2.561   1.475 -0.3553  1.1812  0.0686
 7101SOL    HW232937   1.219   2.565   1.606  0.8701  1.9817 -0.7163
 7102SOL     OW32938   0.591   3.254   5.853  0.8303 -0.3385 -0.6828
 7102SOL    HW132939   0.632   3.289   5.932 -0.5027 -1.0965  0.3451
 7102SOL    HW232940   0.607   3.162   5.874  1.1892  0.2557  1.6788
 7103SOL     OW32941   4.404   2.506   9.648  0.5478  0.1112 -0.1493
 7103SOL    HW132942   4.379   2.574   9.586 -0.1434  0.9101  1.0112
 7103SOL    HW232943   4.443   2.559   9.718  0.4599 -1.3708  1.0342
 7104SOL     OW32944   0.526   1.450   5.413 -0.7419  0.4342 -0.3289
 7104SOL    HW132945   0.445   1.480   5.453 -0.1515  0.3199  0.9557
 7104SOL    HW232946   0.534   1.510   5.339  0.2322  0.2034 -0.4103
 7105SOL     OW32947   2.752   3.965  10.473 -0.0824  0.2770  0.3826
 7105SOL    HW132948   2.700   4.029  10.425 -0.8840  0.1437  1.0725
 7105SOL    HW232949   2.679   3.925  10.521 -0.3723  0.8735  0.4385
 7106SOL     OW32950   2.209   1.580   3.519  0.1755  0.3589  0.1159
 7106SOL    HW132951   2.205   1.485   3.526  0.2838  0.1500 -2.6881
 7106SOL    HW232952   2.300   1.591   3.491  0.0515  1.1552  0.0341
 7107SOL     OW32953   0.237   2.991   6.530 -0.7880 -0.1395  0.3599
 7107SOL    HW132954   0.151   2.962   6.561 -0.4133  0.5408  2.0454
 7107SOL    HW232955   0.285   2.914   6.561  0.6021 -0.9170 -3.7621
 7108SOL     OW32956   0.923   0.473   5.946 -0.4631 -0.2394  0.3378
 7108SOL    HW132957   0.929   0.461   5.852  1.7136  1.1318  0.3151
 7108SOL    HW232958   1.013   0.471   5.978  0.3476  0.2615 -1.9151
 7109SOL     OW32959   4.203   2.723   8.970 -0.0240 -0.6397 -0.4642
 7109SOL    HW132960   4.247   2.691   8.891  1.5788  2.7396 -0.9181
 7109SOL    HW232961   4.126   2.769   8.935  0.9198  0.1511 -1.4823
 7110SOL     OW32962   2.088   4.415   5.882  0.2735  0.0405  0.3398
 7110SOL    HW132963   2.075   4.434   5.975 -1.2418 -0.6160  0.2503
 7110SOL    HW232964   1.998   4.410   5.850  0.3353 -0.0161  0.1756
 7111SOL     OW32965   3.530   0.150  11.939 -0.0426 -0.3854  0.1467
 7111SOL    HW132966   3.549   0.058  11.956 -0.6678 -0.3066  1.2470
 7111SOL    HW232967   3.577   0.167  11.857 -2.7918 -2.1891 -1.8016
 7112SOL     OW32968   1.969   3.774  10.866  0.3546  0.3097  0.0601
 7112SOL    HW132969   2.062   3.775  10.887  0.0531  0.8012  1.3570
 7112SOL    HW232970   1.938   3.763  10.956 -1.2946  0.8807 -0.4256
 7113SOL     OW32971   3.084   3.988  15.877 -0.4249 -0.3686  0.3969
 7113SOL    HW132972   3.171   3.956  15.855 -1.3644  0.1742 -4.1062
 7113SOL    HW232973   3.076   4.046  15.802  0.3814 -3.1573 -1.8258
 7114SOL     OW32974   3.112   3.262  17.278  0.6158  0.0227  0.4940
 7114SOL    HW132975   3.170   3.272  17.202 -1.3335  0.7949 -0.8968
 7114SOL    HW232976   3.134   3.174  17.310  3.3958  0.1385 -1.0380
 7115SOL     OW32977   3.029   3.596   9.949  0.1113 -0.3665  0.4944
 7115SOL    HW132978   3.054   3.661   9.884 -2.3211 -1.4336 -1.5504
 7115SOL    HW232979   2.949   3.557   9.911 -0.0323  1.4080 -1.0243
 7116SOL     OW32980   0.002   1.264   4.728  0.0108  0.3563 -0.1268
 7116SOL    HW132981   4.716   1.354   4.754  0.9524  0.0836  1.6831
 7116SOL    HW232982   0.010   1.216   4.810 -1.3290 -0.4715 -0.4834
 7117SOL     OW32983   1.601   1.269  12.530  0.6464 -0.8974 -0.3016
 7117SOL    HW132984   1.645   1.251  12.613 -0.9070  0.4541  0.8404
 7117SOL    HW232985   1.597   1.365  12.530 -2.6964 -1.0100 -1.0976
 7118SOL     OW32986   1.651   4.615   0.026  0.5052 -0.4506 -0.3304
 7118SOL    HW132987   1.727   4.629   0.082 -1.4862 -1.6437  2.6455
 7118SOL    HW232988   1.657   4.686  17.708  3.3565 -1.0808 -0.7388
 7119SOL     OW32989   0.419   2.715   0.930 -0.2362  0.5988 -0.4222
 7119SOL    HW132990   0.331   2.698   0.896 -0.3320  1.9243 -0.8604
 7119SOL    HW232991   0.418   2.652   1.003  0.3195  1.3840  0.2709
 7120SOL     OW32992   3.222   2.612   7.844 -0.2398  0.6892 -0.1427
 7120SOL    HW132993   3.238   2.638   7.935 -2.7114 -2.9090  1.2992
 7120SOL    HW232994   3.277   2.535   7.833  0.4333  0.9071  1.6005
 7121SOL     OW32995   0.442   3.020  13.900 -0.1583 -0.5315 -0.2306
 7121SOL    HW132996   0.490   3.022  13.982  0.6728  0.2221 -0.7384
 7121SOL    HW232997   0.396   3.104  13.905 -1.7765 -1.4732  0.8523
 7122SOL     OW32998   3.084   4.673   1.655 -0.9904 -0.2104 -0.0149
 7122SOL    HW132999   3.063   4.719   1.574  0.2054 -1.3052 -0.9484
 7122SOL    HW233000   3.089   4.584   1.619  0.7924  0.6294 -1.8266
 7123SOL     OW33001   0.029   2.214   8.728  0.1499 -0.6985  0.3904
 7123SOL    HW133002   0.040   2.174   8.641 -0.8020 -2.9097  1.2771
 7123SOL    HW233003   0.084   2.157   8.781  1.6275  0.6174  0.2676
 7124SOL     OW33004   2.354   0.911  16.338 -0.2436  0.1728 -0.7124
 7124SOL    HW133005   2.294   0.855  16.388 -0.7749  1.2734 -0.1072
 7124SOL    HW233006   2.409   0.847  16.294 -2.3363 -1.6375 -0.7141
 7125SOL     OW33007   1.899   0.177   3.712 -0.0931  0.4443  0.7066
 7125SOL    HW133008   1.850   0.100   3.683  1.0408 -0.2105  0.5440
 7125SOL    HW233009   1.832   0.245   3.703  0.9164  1.3857  0.2428
 7126SOL     OW33010   2.443   2.267   8.818  0.4739  0.1849 -0.2565
 7126SOL    HW133011   2.429   2.289   8.726  0.3912  2.0294  0.2018
 7126SOL    HW233012   2.521   2.313   8.849  1.3108  0.3117 -2.5501
 7127SOL     OW33013   3.283   0.758   4.822 -0.1994 -0.0255  0.0089
 7127SOL    HW133014   3.244   0.821   4.883  1.9838 -0.1351  1.5103
 7127SOL    HW233015   3.339   0.811   4.766 -0.4145  0.5013  0.2860
 7128SOL     OW33016   3.957   4.247   9.091 -0.4194 -0.4564  0.3478
 7128SOL    HW133017   3.891   4.266   9.158  0.5118  0.7297  0.9342
 7128SOL    HW233018   4.021   4.318   9.101  0.1649 -0.8231 -0.7399
 7129SOL     OW33019   2.236   0.629   5.365 -0.1411  0.3037  0.6022
 7129SOL    HW133020   2.174   0.599   5.298  1.0280  0.7323 -0.6599
 7129SOL    HW233021   2.310   0.575   5.337 -1.1725 -0.8717  0.0815
 7130SOL     OW33022   0.671   3.628   8.618 -0.4436 -0.1469  0.7515
 7130SOL    HW133023   0.600   3.564   8.620 -0.2715 -0.2944  2.5374
 7130SOL    HW233024   0.735   3.577   8.668  2.3618  0.9631 -1.6721
 7131SOL     OW33025   4.699   3.696   7.063  0.1687 -0.2754  0.7425
 7131SOL    HW133026   4.672   3.630   6.999  0.2146 -1.0723  1.5614
 7131SOL    HW233027   0.029   3.744   7.013  0.9899 -0.0730  2.0476
 7132SOL     OW33028   0.073   0.264  14.614  0.5814  0.3087 -0.3351
 7132SOL    HW133029   4.715   0.265  14.601  0.8415  3.7698 -1.9715
 7132SOL    HW233030   0.073   0.196  14.681  2.5132  0.9810  0.3531
 7133SOL     OW33031   2.014   4.325   3.772 -0.1210 -0.3955 -0.4930
 7133SOL    HW133032   2.106   4.309   3.748  0.2165 -1.7404  1.6704
 7133SOL    HW233033   2.020   4.397   3.834  1.8355 -0.9211 -0.0529
 7134SOL     OW33034   3.249   0.780   8.832  0.3396 -1.3670  0.2888
 7134SOL    HW133035   3.271   0.707   8.890 -1.9541 -2.8658 -0.7267
 7134SOL    HW233036   3.158   0.787   8.860 -0.3569  2.3313 -3.0035
 7135SOL     OW33037   4.042   1.090   1.828 -0.2455 -0.1757 -0.1589
 7135SOL    HW133038   4.020   1.003   1.861 -1.4222 -0.2073 -1.0423
 7135SOL    HW233039   3.954   1.119   1.804  0.1173  1.6274  0.6939
 7136SOL     OW33040   0.980   3.605   4.662  0.7926  0.5272 -0.2612
 7136SOL    HW133041   1.065   3.606   4.706 -0.4029 -0.7929  2.0288
 7136SOL    HW233042   1.003   3.622   4.570 -1.9012 -0.0490 -1.0545
 7137SOL     OW33043   4.449   3.298  12.279 -0.0481  0.2523 -0.3564
 7137SOL    HW133044   4.403   3.283  12.196  0.9198  0.0659 -0.8569
 7137SOL    HW233045   4.520   3.239  12.254 -1.3905 -1.9164  0.9710
 7138SOL     OW33046   2.226   1.968   5.427  0.0831  0.3067  0.2623
 7138SOL    HW133047   2.133   1.979   5.408 -0.0639  0.3936  1.0358
 7138SOL    HW233048   2.248   2.052   5.387 -1.1030  1.0521  1.1425
 7139SOL     OW33049   3.180   0.044  10.602 -0.3737 -0.2082 -0.0857
 7139SOL    HW133050   3.163   4.727  10.524  1.4977 -1.0114  0.0592
 7139SOL    HW233051   3.203   0.131  10.570  1.3917 -0.8966 -0.7085
 7140SOL     OW33052   3.803   2.535   1.849 -0.1065  0.3302  0.1648
 7140SOL    HW133053   3.776   2.445   1.868  1.2458 -0.3621 -1.1953
 7140SOL    HW233054   3.768   2.557   1.763 -0.5766 -1.7649 -0.1637
 7141SOL     OW33055   2.400   3.535   3.144 -0.3799  0.3476 -0.3421
 7141SOL    HW133056   2.348   3.602   3.100  2.5632  1.7842 -1.6356
 7141SOL    HW233057   2.377   3.461   3.089 -1.0453  0.0454  0.3532
 7142SOL     OW33058   4.688   1.474   3.232 -0.0646 -0.8290  0.2211
 7142SOL    HW133059   4.707   1.424   3.311 -3.1669 -1.9728  0.2412
 7142SOL    HW233060   4.725   1.559   3.257  0.1571 -0.6347 -0.7822
 7143SOL     OW33061   3.111   4.210   6.256 -0.2241  0.0861  0.2501
 7143SOL    HW133062   3.099   4.190   6.348 -1.1583  2.0063  0.5468
 7143SOL    HW233063   3.178   4.150   6.224 -1.4173 -1.3840  0.5494
 7144SOL     OW33064   3.801   3.082   5.490  0.1882  0.1103 -0.4030
 7144SOL    HW133065   3.791   2.988   5.479 -2.0121  0.2800  0.0821
 7144SOL    HW233066   3.890   3.104   5.517  0.0463 -0.0229  0.1698
 7145SOL     OW33067   1.513   0.217   0.103  0.4350 -0.2175  0.2104
 7145SOL    HW133068   1.571   0.287   0.133 -0.1516  1.1503 -1.8347
 7145SOL    HW233069   1.561   0.164   0.040 -0.7221 -1.4251  0.3332
 7146SOL     OW33070   1.781   3.902   2.472  0.3850 -0.3705  0.1729
 7146SOL    HW133071   1.688   3.892   2.454  0.8128 -1.7653 -1.1708
 7146SOL    HW233072   1.821   3.825   2.432 -2.0822  0.7989 -4.4918
 7147SOL     OW33073   4.719   4.690   7.839  0.2253  0.4874  0.0665
 7147SOL    HW133074   4.649   4.695   7.773  1.4346  0.0972 -1.2524
 7147SOL    HW233075   0.057   4.724   7.789 -1.9597 -2.4779 -5.2998
 7148SOL     OW33076   2.540   4.576   4.031 -0.2434 -0.1425  0.3711
 7148SOL    HW133077   2.616   4.548   4.083  0.2435  2.3894  0.9989
 7148SOL    HW233078   2.467   4.575   4.093 -1.3324  1.0198 -0.8972
 7149SOL     OW33079   3.618   4.174  15.963  0.1145 -0.0086  0.6190
 7149SOL    HW133080   3.622   4.106  16.030  0.7892  0.6202  1.2224
 7149SOL    HW233081   3.685   4.144  15.902 -0.9238  0.7110 -0.8632
 7150SOL     OW33082   2.456   0.227   9.198 -0.0041 -0.1071 -0.3251
 7150SOL    HW133083   2.447   0.166   9.271 -1.4476 -1.4555 -1.6247
 7150SOL    HW233084   2.549   0.214   9.181 -0.0536  1.0292 -1.4617
 7151SOL     OW33085   2.153   4.659  14.690 -0.2111 -0.3370 -0.2446
 7151SOL    HW133086   2.195   4.732  14.736  0.3624 -0.6422 -0.2944
 7151SOL    HW233087   2.165   4.589  14.755  2.4099 -2.0181 -2.5538
 7152SOL     OW33088   3.880   3.375   7.125 -0.0242 -0.5439  0.3252
 7152SOL    HW133089   3.913   3.308   7.184  0.8255  0.0458  0.5104
 7152SOL    HW233090   3.793   3.335   7.114  0.3261 -0.6989 -1.9638
 7153SOL     OW33091   3.374   1.598  12.826 -0.1467  0.3929 -0.4807
 7153SOL    HW133092   3.457   1.629  12.788  0.4670 -3.6251 -2.4928
 7153SOL    HW233093   3.396   1.538  12.898 -0.9322 -0.7948 -1.2231
 7154SOL     OW33094   0.932   4.694  10.781  0.2994  0.2926  0.3915
 7154SOL    HW133095   0.874   0.030  10.762  1.1687  0.2862 -2.3577
 7154SOL    HW233096   0.973   4.722  10.862  2.5311 -2.5454  0.2539
 7155SOL     OW33097   0.813   2.344   2.766 -0.3940  0.3722  0.1126
 7155SOL    HW133098   0.784   2.343   2.675 -1.6504  1.1138  0.5142
 7155SOL    HW233099   0.762   2.271   2.799 -0.8526 -0.3150 -2.1035
 7156SOL     OW33100   2.838   4.436  17.141  0.2943 -0.4355  0.1422
 7156SOL    HW133101   2.815   4.478  17.223  2.7647 -0.2709  0.7234
 7156SOL    HW233102   2.817   4.496  17.069  0.6156 -1.0615 -0.4826
 7157SOL     OW33103   3.077   4.345   3.481 -0.7851 -0.4388  0.1298
 7157SOL    HW133104   3.051   4.253   3.487 -0.1705 -0.5271  1.5298
 7157SOL    HW233105   3.167   4.337   3.449  0.0924  1.2740  2.1520
 7158SOL     OW33106   1.232   1.327   4.170  0.5112  0.5873  0.2316
 7158SOL    HW133107   1.266   1.240   4.185 -1.2467 -0.1413  0.0501
 7158SOL    HW233108   1.139   1.316   4.190  0.3460 -1.0139 -1.4669
 7159SOL     OW33109   4.281   2.483   7.120 -0.4732 -0.0912  0.2287
 7159SOL    HW133110   4.343   2.411   7.126 -3.5394 -2.7435  0.3053
 7159SOL    HW233111   4.208   2.436   7.079  0.5557 -0.7347 -0.8896
 7160SOL     OW33112   0.233   0.499  14.336  0.2618  0.2060 -0.5374
 7160SOL    HW133113   0.315   0.541  14.310  1.4821 -1.0693  1.2024
 7160SOL    HW233114   0.222   0.460  14.250 -2.9694 -0.9342  0.4118
 7161SOL     OW33115   4.656   2.382  17.373 -0.1861  0.2533 -0.6991
 7161SOL    HW133116   4.573   2.347  17.342  0.2139 -0.5993 -0.8027
 7161SOL    HW233117   4.686   2.308  17.426 -1.2975 -0.2909 -0.8377
 7162SOL     OW33118   4.180   2.721   3.123 -0.3076 -0.0406 -0.0352
 7162SOL    HW133119   4.139   2.690   3.043  0.9270 -1.7264 -0.0107
 7162SOL    HW233120   4.220   2.804   3.094 -2.4192  0.1069 -2.4382
 7163SOL     OW33121   4.334   2.606   1.992  0.2434  0.2121 -0.6496
 7163SOL    HW133122   4.254   2.582   2.039  0.3555 -0.3557 -0.7525
 7163SOL    HW233123   4.372   2.523   1.965  0.6124  0.4152 -0.7594
 7164SOL     OW33124   3.327   3.133   9.024  0.0464 -0.3490  0.6964
 7164SOL    HW133125   3.402   3.152   8.968  0.2863 -0.3394  1.0226
 7164SOL    HW233126   3.255   3.118   8.963 -0.7387  0.2573  1.4656
 7165SOL     OW33127   4.660   3.281   5.335  0.1943  0.4249 -0.4398
 7165SOL    HW133128   0.013   3.274   5.304  0.4201 -1.9650  0.7358
 7165SOL    HW233129   4.661   3.222   5.410 -3.8122  0.6099 -0.2261
 7166SOL     OW33130   0.632   3.838   2.879 -0.0833 -0.1194 -0.4822
 7166SOL    HW133131   0.537   3.842   2.865 -0.2738 -1.3678  0.4193
 7166SOL    HW233132   0.637   3.919   2.929 -1.0029 -1.7161  2.1605
 7167SOL     OW33133   0.893   2.310   6.275  0.1964 -0.2971  0.6408
 7167SOL    HW133134   0.906   2.222   6.312 -0.8804  0.0276  1.7854
 7167SOL    HW233135   0.928   2.367   6.343  0.6524 -0.5286  0.6069
 7168SOL     OW33136   1.303   0.018   0.577  0.2200 -0.2364 -0.2012
 7168SOL    HW133137   1.261   4.669   0.580 -0.0630 -0.1018 -0.3252
 7168SOL    HW233138   1.350   0.005   0.495 -0.0992  0.4486 -0.4929
 7169SOL     OW33139   3.009   4.733   2.257  0.1374  0.4848 -0.1144
 7169SOL    HW133140   3.007   0.092   2.249  0.8732  0.5324  0.2411
 7169SOL    HW233141   2.936   4.721   2.317  0.1562 -1.5536 -0.5282
 7170SOL     OW33142   3.908   3.772  13.164 -0.8088 -0.2554 -0.4024
 7170SOL    HW133143   3.940   3.713  13.233 -0.5512 -1.2075 -1.3483
 7170SOL    HW233144   3.991   3.800  13.125 -0.2379  1.3260  1.9108
 7171SOL     OW33145   0.401   1.043  11.817 -0.4192 -0.4986  0.4038
 7171SOL    HW133146   0.362   1.053  11.730 -0.2387 -0.2025  0.3564
 7171SOL    HW233147   0.479   1.099  11.819  0.3953 -1.6829  1.6408
 7172SOL     OW33148   2.337   2.738  16.835 -0.0258 -0.7865 -0.0268
 7172SOL    HW133149   2.248   2.768  16.818  0.1029 -0.0433  0.6810
 7172SOL    HW233150   2.378   2.771  16.755  0.1536 -1.2127 -0.1146
 7173SOL     OW33151   1.283   2.044   3.224 -0.8763  0.2798 -0.3782
 7173SOL    HW133152   1.285   2.022   3.131  0.2017  0.4971 -0.4044
 7173SOL    HW233153   1.264   1.956   3.258 -2.7708  0.5728 -0.6695
 7174SOL     OW33154   0.251   1.245   5.296  0.1244  0.0288  0.4185
 7174SOL    HW133155   0.321   1.181   5.300 -0.1645 -0.3881 -1.1667
 7174SOL    HW233156   0.184   1.213   5.357  0.3162 -2.1987 -0.5316
 7175SOL     OW33157   4.644   2.603   9.382  0.4680  0.1416 -0.0572
 7175SOL    HW133158   4.551   2.625   9.385  0.6415  0.9140 -0.4132
 7175SOL    HW233159   4.662   2.603   9.476  3.3491  1.0070 -0.6069
 7176SOL     OW33160   4.168   1.564   9.893  0.4035  0.2207  0.3107
 7176SOL    HW133161   4.247   1.527   9.932  0.8060  1.2290  0.4455
 7176SOL    HW233162   4.161   1.517   9.810  1.7121  1.2057 -0.3596
 7177SOL     OW33163   0.652   2.136   4.230 -0.5301 -0.1790 -0.0897
 7177SOL    HW133164   0.726   2.181   4.273 -0.1316 -0.3207 -0.6343
 7177SOL    HW233165   0.630   2.198   4.161 -1.3352  0.8401  1.0686
 7178SOL     OW33166   1.452   4.729  11.590 -0.0115  0.3890  0.1517
 7178SOL    HW133167   1.369   4.688  11.612  0.6791 -0.1359  1.7817
 7178SOL    HW233168   1.507   4.661  11.627 -1.4728 -0.4468  0.7814
 7179SOL     OW33169   1.471   4.122   0.695 -0.1616  0.0636 -0.3863
 7179SOL    HW133170   1.411   4.048   0.703 -1.5539  1.1649 -0.6414
 7179SOL    HW233171   1.414   4.171   0.635 -0.4215 -0.4467 -0.5562
 7180SOL     OW33172   2.372   1.887   3.632 -0.5084 -0.1244  0.0846
 7180SOL    HW133173   2.445   1.945   3.614 -1.0208  0.1081 -1.2255
 7180SOL    HW233174   2.328   1.875   3.548  1.2956  0.6549 -0.9683
 7181SOL     OW33175   0.525   2.074   8.077  0.4691 -0.2506 -0.3094
 7181SOL    HW133176   0.447   2.020   8.090  1.1852 -0.9713  0.9940
 7181SOL    HW233177   0.480   2.156   8.059 -0.8177 -0.4572  1.9668
 7182SOL     OW33178   0.102   3.090   2.199  0.1319 -1.1474  0.7262
 7182SOL    HW133179   0.014   3.088   2.161  0.4372 -2.5775  0.1119
 7182SOL    HW233180   0.110   3.171   2.250  0.1067 -0.4852 -0.3215
 7183SOL     OW33181   2.083   4.162   1.932 -0.0237 -0.3056  0.6713
 7183SOL    HW133182   2.146   4.217   1.979  0.6074 -0.3277 -0.1443
 7183SOL    HW233183   2.040   4.124   2.008 -1.3006  0.5480  0.3701
 7184SOL     OW33184   0.771   0.175   1.970  0.1662 -0.2106 -0.2960
 7184SOL    HW133185   0.721   0.094   1.979 -0.2001 -0.0379 -0.7380
 7184SOL    HW233186   0.694   0.232   1.968  0.9185  0.8602  1.9036
 7185SOL     OW33187   4.252   4.691  15.132  0.9562  0.4187  0.5755
 7185SOL    HW133188   4.215   4.683  15.220  0.4532  0.5633  0.3789
 7185SOL    HW233189   4.221   4.611  15.088  0.0838  2.1074 -1.8414
 7186SOL     OW33190   0.656   1.112  16.920 -0.4133  0.4651 -0.1620
 7186SOL    HW133191   0.718   1.184  16.904  2.0461 -1.7042 -0.4871
 7186SOL    HW233192   0.645   1.125  17.014 -2.9425  1.1941 -0.5842
 7187SOL     OW33193   0.097   4.093  15.699 -0.7891  0.2051  0.0162
 7187SOL    HW133194   0.027   4.157  15.703  0.2383  1.3322 -0.1400
 7187SOL    HW233195   0.177   4.143  15.683  0.0800 -1.7059 -1.6343
 7188SOL     OW33196   3.333   4.018   6.266  0.2386  0.2174 -0.1604
 7188SOL    HW133197   3.362   4.040   6.178  0.8441  1.3259  0.3029
 7188SOL    HW233198   3.286   3.936   6.252  0.3424  0.5542 -2.5072
 7189SOL     OW33199   2.218   1.272   2.665  0.4997  0.1709  0.0347
 7189SOL    HW133200   2.289   1.224   2.707  0.1971 -0.9261 -0.6919
 7189SOL    HW233201   2.257   1.345   2.617  1.0160 -1.0194 -1.3842
 7190SOL     OW33202   0.995   4.690   6.452  0.3073  0.0622  0.0740
 7190SOL    HW133203   1.036   0.003   6.381  2.1682  0.3741  1.3549
 7190SOL    HW233204   1.032   4.728   6.532  3.1154 -0.5221 -0.9548
 7191SOL     OW33205   1.625   1.942   1.413 -0.7619  0.4090 -0.6414
 7191SOL    HW133206   1.615   2.029   1.452  0.3616 -0.6198  1.9454
 7191SOL    HW233207   1.626   1.889   1.493  1.0362 -4.6108 -4.0192
 7192SOL     OW33208   0.399   1.016   4.817  0.2364 -0.5045  0.1610
 7192SOL    HW133209   0.412   0.982   4.906 -1.1153  1.1313  0.9986
 7192SOL    HW233210   0.311   0.984   4.796  0.0937  0.7228 -1.1458
 7193SOL     OW33211   1.207   0.563   1.516 -0.1079  0.3923  0.8283
 7193SOL    HW133212   1.166   0.522   1.440 -0.1333  0.8182  0.6176
 7193SOL    HW233213   1.126   0.573   1.567  0.6175  1.3756  1.8079
 7194SOL     OW33214   3.738   3.872   3.257 -0.6984 -0.6491  0.3599
 7194SOL    HW133215   3.762   3.780   3.244  0.6771 -0.3963  1.1099
 7194SOL    HW233216   3.656   3.863   3.209 -1.0396 -3.1159  1.4132
 7195SOL     OW33217   1.224   0.534   3.638 -0.4358 -0.1222 -0.7499
 7195SOL    HW133218   1.221   0.479   3.560  0.2977  0.0911 -0.9285
 7195SOL    HW233219   1.133   0.565   3.638 -0.2276  0.5011 -0.9672
 7196SOL     OW33220   0.547   2.374   6.808  0.0299 -0.1790  0.5813
 7196SOL    HW133221   0.554   2.301   6.870  0.0818 -2.3486 -1.9560
 7196SOL    HW233222   0.616   2.343   6.748 -2.2226 -1.1602 -1.5009
 7197SOL     OW33223   4.111   4.325  17.446  0.4171  0.2381  0.0659
 7197SOL    HW133224   4.179   4.385  17.416 -0.9293  1.5604 -0.3351
 7197SOL    HW233225   4.033   4.353  17.398 -0.2610 -1.9136 -0.1314
 7198SOL     OW33226   4.254   0.392  15.874  0.0849  0.3937 -0.0988
 7198SOL    HW133227   4.225   0.478  15.904  0.1806  0.8770 -1.3959
 7198SOL    HW233228   4.339   0.415  15.837  0.8480  1.0382  2.0820
 7199SOL     OW33229   1.197   1.020  13.129  0.7438  0.1364  0.7691
 7199SOL    HW133230   1.139   1.024  13.205 -0.8298  0.2035 -0.4299
 7199SOL    HW233231   1.223   0.928  13.135 -1.1754 -0.5106 -0.6063
 7200SOL     OW33232   2.945   0.750   7.576 -0.0537  0.6155  0.4668
 7200SOL    HW133233   2.982   0.819   7.630 -0.2740  0.7523  0.4391
 7200SOL    HW233234   2.982   0.780   7.493 -1.3654 -0.5852 -0.5622
 7201SOL     OW33235   4.057   2.100  13.474 -0.2233 -0.5842 -0.1498
 7201SOL    HW133236   4.098   2.148  13.546  0.2118  0.3449 -1.0154
 7201SOL    HW233237   4.079   2.008  13.490  4.3381  0.5527  0.0556
 7202SOL     OW33238   0.671   3.025   8.245 -0.1585 -0.0810 -0.1068
 7202SOL    HW133239   0.755   3.014   8.199  0.3886  0.0172  0.8778
 7202SOL    HW233240   0.682   3.086   8.318 -0.2828  0.4285 -0.5133
 7203SOL     OW33241   0.861   0.696  12.438  0.1521 -0.1355 -0.2078
 7203SOL    HW133242   0.954   0.684  12.457  0.0075 -0.2792  0.4143
 7203SOL    HW233243   0.874   0.756  12.364 -1.3604  1.6562  0.9675
 7204SOL     OW33244   3.502   1.623   7.886  0.5925 -0.3923  0.3405
 7204SOL    HW133245   3.454   1.697   7.921  0.4438  0.7308 -2.2229
 7204SOL    HW233246   3.587   1.667   7.885  0.5853 -0.3915 -0.2314
 7205SOL     OW33247   4.670   2.517  15.822 -0.2966  0.5494 -0.4258
 7205SOL    HW133248   4.704   2.555  15.902 -1.6002  2.1369 -0.6357
 7205SOL    HW233249   4.683   2.596  15.769  0.1370 -0.4227 -1.7944
 7206SOL     OW33250   2.154   2.760   8.507 -0.1610 -0.4805  0.0666
 7206SOL    HW133251   2.073   2.804   8.483  1.0930  2.3829  0.9837
 7206SOL    HW233252   2.123   2.721   8.589  0.4453 -1.2777 -0.0884
 7207SOL     OW33253   0.700   2.271  15.370 -0.1879 -0.4059 -0.3506
 7207SOL    HW133254   0.697   2.277  15.466 -1.7830 -0.3492 -0.3968
 7207SOL    HW233255   0.777   2.217  15.356 -0.0827  0.1504 -1.8572
 7208SOL     OW33256   3.999   4.549   0.975 -0.1836 -0.3069  0.0095
 7208SOL    HW133257   4.041   4.623   1.020 -1.2097  0.0012  0.4573
 7208SOL    HW233258   4.069   4.483   0.971  2.8264  2.6968  2.5372
 7209SOL     OW33259   1.952   1.890   8.502  0.3468  0.2313 -0.3173
 7209SOL    HW133260   1.912   1.882   8.588 -1.3719  0.5135 -1.0880
 7209SOL    HW233261   2.043   1.866   8.522  0.2968 -0.8554 -1.3135
 7210SOL     OW33262   0.729   3.939   3.356 -0.5225 -0.3723  0.0277
 7210SOL    HW133263   0.769   4.003   3.414 -2.3845  1.5670 -0.8216
 7210SOL    HW233264   0.807   3.930   3.302 -0.4421 -0.3426  0.1395
 7211SOL     OW33265   3.604   4.314   2.730 -0.0319  0.0478 -0.2010
 7211SOL    HW133266   3.560   4.393   2.761  1.2274  0.6073  0.1501
 7211SOL    HW233267   3.662   4.350   2.663  1.2322 -0.3066  0.7154
 7212SOL     OW33268   0.840   0.107   8.411 -0.3635  0.4630 -0.3348
 7212SOL    HW133269   0.841   0.202   8.400  0.0357  0.7058  1.9423
 7212SOL    HW233270   0.811   0.095   8.501  1.0792  0.7773  0.1681
 7213SOL     OW33271   1.620   3.116   5.047  0.2519  0.1018  0.4252
 7213SOL    HW133272   1.648   3.033   5.008 -0.6935  0.0962 -0.2198
 7213SOL    HW233273   1.602   3.168   4.969 -3.0951  0.6083  1.5368
 7214SOL     OW33274   0.278   3.604   7.961 -0.3883  0.3217 -0.2663
 7214SOL    HW133275   0.292   3.527   7.906  0.5614  1.5551 -1.7482
 7214SOL    HW233276   0.182   3.607   7.964 -0.3844  0.6079 -0.4290
 7215SOL     OW33277   2.232   4.043   7.762 -0.8890  0.1777 -0.3701
 7215SOL    HW133278   2.314   4.089   7.776 -0.6886  0.1740 -1.5349
 7215SOL    HW233279   2.261   3.952   7.759  2.3496  1.2082  0.6247
 7216SOL     OW33280   3.907   0.424   5.179  0.2310 -0.7456  0.0381
 7216SOL    HW133281   3.906   0.488   5.250 -1.7056  0.3268 -0.9614
 7216SOL    HW233282   3.977   0.459   5.124 -1.1428  0.8989 -0.6425
 7217SOL     OW33283   2.134   3.026  17.041 -0.5073  0.1118  0.0103
 7217SOL    HW133284   2.135   3.064  17.129  0.3535  1.2244 -0.4774
 7217SOL    HW233285   2.158   2.936  17.060  1.4765  0.9366  1.4510
 7218SOL     OW33286   3.729   1.810   7.843  0.4863 -0.9121  0.2377
 7218SOL    HW133287   3.753   1.858   7.764 -1.7036  0.7426  0.5737
 7218SOL    HW233288   3.791   1.843   7.909 -0.5775  0.4107  0.5767
 7219SOL     OW33289   3.910   4.145   3.792  0.4287  0.6676 -0.5841
 7219SOL    HW133290   3.868   4.136   3.706 -0.6828  1.1090 -0.0884
 7219SOL    HW233291   3.918   4.240   3.791 -2.3131  0.9125 -0.1223
 7220SOL     OW33292   4.642   2.990   4.709 -0.1710  0.6983  0.1442
 7220SOL    HW133293   4.722   2.950   4.675 -0.6866  0.2465 -0.5601
 7220SOL    HW233294   4.645   3.077   4.670  1.9748  0.9403  0.8717
 7221SOL     OW33295   4.491   0.714   2.684 -0.5675 -0.9649  0.4415
 7221SOL    HW133296   4.415   0.754   2.726 -2.5539 -1.4532 -2.6951
 7221SOL    HW233297   4.456   0.717   2.595 -0.2004  0.7623  0.3636
 7222SOL     OW33298   3.585   2.515   9.536 -0.1088 -0.0032  0.0696
 7222SOL    HW133299   3.493   2.537   9.548  1.0099  3.5185  1.9473
 7222SOL    HW233300   3.623   2.567   9.606  0.4173 -1.3498  0.7807
 7223SOL     OW33301   0.780   3.153   7.562 -0.2152  0.2487  0.1217
 7223SOL    HW133302   0.788   3.175   7.469 -1.4486  1.3696  0.2915
 7223SOL    HW233303   0.772   3.241   7.599 -1.5921 -0.2131  0.9230
 7224SOL     OW33304   3.851   4.700   0.429  0.3795  0.1697 -0.1585
 7224SOL    HW133305   3.859   0.056   0.450  1.3193 -0.3026  1.5805
 7224SOL    HW233306   3.775   4.674   0.481  0.0547 -0.3301 -0.8788
 7225SOL     OW33307   2.110   0.939   4.649  0.0536  0.3930 -0.0376
 7225SOL    HW133308   2.160   1.013   4.615  0.4172  0.1351 -0.0642
 7225SOL    HW233309   2.182   0.885   4.681 -0.7587 -0.9218 -0.4561
 7226SOL     OW33310   2.012   4.056  16.792 -0.4848  0.3660  0.0065
 7226SOL    HW133311   1.921   4.025  16.784 -0.1913  0.2728 -3.0704
 7226SOL    HW233312   2.052   4.051  16.706 -0.0374  0.8752  0.1835
 7227SOL     OW33313   4.604   0.700   2.183 -0.0828 -0.4604 -0.0540
 7227SOL    HW133314   4.536   0.691   2.116  1.3812 -0.1276 -1.5661
 7227SOL    HW233315   4.586   0.791   2.207 -0.8230 -0.4286 -0.7103
 7228SOL     OW33316   0.252   4.323  16.011 -0.0939 -0.1057  0.1682
 7228SOL    HW133317   0.337   4.338  15.971  0.4549  1.8109  2.0242
 7228SOL    HW233318   0.203   4.373  15.946  0.3726 -0.1923 -0.2440
 7229SOL     OW33319   4.221   3.508   2.839 -0.3836 -0.4024 -0.1136
 7229SOL    HW133320   4.297   3.551   2.800  0.3484  0.8635  2.6845
 7229SOL    HW233321   4.150   3.570   2.826 -0.6099 -0.8677 -1.0350
 7230SOL     OW33322   2.685   3.543  15.659  1.3434  0.1860 -0.0090
 7230SOL    HW133323   2.624   3.474  15.634  0.7882 -0.6993  3.7770
 7230SOL    HW233324   2.621   3.612  15.670  0.6364 -0.0432 -2.6972
 7231SOL     OW33325   0.537   0.109   8.227 -0.3843  0.7177  0.4175
 7231SOL    HW133326   0.609   0.138   8.170 -0.7593  0.7398 -0.0477
 7231SOL    HW233327   0.495   0.058   8.158  0.9255  1.6628 -1.0835
 7232SOL     OW33328   0.241   1.583  15.042 -0.8014 -0.0992  0.6368
 7232SOL    HW133329   0.312   1.587  14.978 -1.2145  0.2102  0.2029
 7232SOL    HW233330   0.171   1.624  14.991  0.4166  1.7222  0.3920
 7233SOL     OW33331   3.639   3.698   8.921 -0.0134 -0.0414  0.3974
 7233SOL    HW133332   3.584   3.648   8.982 -0.0490 -0.0507  0.3578
 7233SOL    HW233333   3.724   3.670   8.954 -0.0628  0.0846  0.6310
 7234SOL     OW33334   4.053   4.482   9.452 -0.6569 -0.2470  0.4980
 7234SOL    HW133335   4.094   4.398   9.435 -1.6889  0.0590 -3.5728
 7234SOL    HW233336   4.092   4.501   9.537  2.1644 -3.2047 -0.1650
 7235SOL     OW33337   3.516   1.058   5.368  0.8258  0.3860  0.4032
 7235SOL    HW133338   3.582   1.127   5.374 -0.0599  1.6815 -4.0210
 7235SOL    HW233339   3.435   1.103   5.391  0.0153 -1.2760  0.8335
 7236SOL     OW33340   2.822   3.482   8.603  0.2259  0.7347 -0.8410
 7236SOL    HW133341   2.910   3.504   8.634  0.5736  0.5432 -1.6855
 7236SOL    HW233342   2.781   3.567   8.622  0.1679  0.0643  2.0461
 7237SOL     OW33343   3.462   2.335  11.313  0.2399 -0.8225  0.0589
 7237SOL    HW133344   3.401   2.325  11.240 -0.1722  0.9804  0.1369
 7237SOL    HW233345   3.406   2.366  11.384  0.5308 -3.0056  1.2130
 7238SOL     OW33346   2.351   3.400   7.741 -0.5252  0.2692 -0.5354
 7238SOL    HW133347   2.264   3.380   7.776 -1.5838 -0.4826 -3.5716
 7238SOL    HW233348   2.398   3.456   7.802 -1.5256 -0.2931  0.7292
 7239SOL     OW33349   4.008   2.519  15.967 -0.6773 -0.0429  0.1071
 7239SOL    HW133350   3.939   2.505  15.903  0.0952  1.5133 -1.0469
 7239SOL    HW233351   4.085   2.477  15.930 -2.3123 -0.0023 -3.2996
 7240SOL     OW33352   3.444   1.008   6.149  0.4003  0.5198  0.3239
 7240SOL    HW133353   3.527   0.965   6.171 -0.3083 -0.9903  0.0355
 7240SOL    HW233354   3.446   1.084   6.209 -3.0799  2.2442 -1.7533
 7241SOL     OW33355   2.390   4.708   4.690  0.1332  0.0990 -0.4027
 7241SOL    HW133356   2.476   4.720   4.652  0.6245 -0.4407  0.5431
 7241SOL    HW233357   2.351   4.643   4.631 -1.2510  0.5163  0.0410
 7242SOL     OW33358   2.307   0.767  12.535  0.0523  0.0221 -0.1282
 7242SOL    HW133359   2.250   0.841  12.555  0.8131  1.1068 -1.9249
 7242SOL    HW233360   2.260   0.693  12.574  1.9787 -2.1891 -2.0396
 7243SOL     OW33361   3.745   1.396  13.485  0.0191  0.0118 -0.2036
 7243SOL    HW133362   3.791   1.478  13.503  1.0285 -0.4479 -0.6607
 7243SOL    HW233363   3.687   1.378  13.559 -2.1057  0.0524 -1.8536
 7244SOL     OW33364   1.004   0.923  12.664 -0.3012  0.2587 -0.3914
 7244SOL    HW133365   1.062   0.916  12.740 -1.2765  1.7171  0.4804
 7244SOL    HW233366   1.025   0.847  12.609  0.8424 -0.8904  1.6044
 7245SOL     OW33367   2.513   3.133   8.173 -0.0425  0.2579 -0.0892
 7245SOL    HW133368   2.555   3.185   8.104  1.3314 -3.6154 -2.1505
 7245SOL    HW233369   2.461   3.071   8.122  1.8487 -0.5028 -1.0750
 7246SOL     OW33370   4.045   4.154   4.410 -0.7468  0.3488  0.2801
 7246SOL    HW133371   3.954   4.126   4.401 -0.4058 -0.7228  0.2064
 7246SOL    HW233372   4.017   4.244   4.429  2.6882  1.0842  2.0723
 7247SOL     OW33373   0.220   4.536   9.189  0.1165 -0.1138  0.1065
 7247SOL    HW133374   0.268   4.576   9.117  1.0125 -0.8254  0.3216
 7247SOL    HW233375   0.171   4.616   9.212  0.1574  0.0815 -0.4936
 7248SOL     OW33376   0.120   1.893   5.453  0.1740 -0.2354  0.1428
 7248SOL    HW133377   0.101   1.966   5.395  0.4012  2.3207  3.2638
 7248SOL    HW233378   0.188   1.839   5.412  1.9542  2.3198 -0.2595
 7249SOL     OW33379   3.027   2.967   7.235 -0.2391 -0.2595 -0.2341
 7249SOL    HW133380   2.949   3.015   7.206 -0.2599 -0.5633 -0.6908
 7249SOL    HW233381   2.980   2.918   7.302  2.0263 -1.0155  0.7849
 7250SOL     OW33382   4.495   2.388   8.500 -0.5545 -0.4691 -0.1274
 7250SOL    HW133383   4.511   2.385   8.594 -0.4253  1.7983 -0.0849
 7250SOL    HW233384   4.540   2.469   8.475 -1.6606  0.6603  1.4756
 7251SOL     OW33385   3.788   0.762  14.605  0.2527 -0.2345  0.0459
 7251SOL    HW133386   3.770   0.853  14.580 -0.2725 -0.4758 -0.4484
 7251SOL    HW233387   3.703   0.733  14.638  0.5212 -0.8377  0.2100
 7252SOL     OW33388   0.559   1.705   6.248 -0.2333 -0.3493 -0.3526
 7252SOL    HW133389   0.565   1.773   6.182  2.8259  0.4345  0.7749
 7252SOL    HW233390   0.496   1.657   6.193 -2.4112  0.8924  1.0307
 7253SOL     OW33391   0.258   1.796   6.333  0.5621 -0.0605 -0.6302
 7253SOL    HW133392   0.330   1.779   6.273 -1.6079 -2.3865 -2.5976
 7253SOL    HW233393   0.201   1.839   6.269  0.6515 -1.0645 -1.3855
 7254SOL     OW33394   2.941   4.628  14.054  0.5566 -0.2321 -0.0530
 7254SOL    HW133395   2.979   4.626  13.966  0.5983 -1.5641 -0.0159
 7254SOL    HW233396   3.002   4.567  14.095 -0.9221 -0.0053  2.4589
 7255SOL     OW33397   3.151   2.752   8.649  0.4883 -0.3580 -0.3617
 7255SOL    HW133398   3.111   2.749   8.562  0.3578  1.9559 -0.3872
 7255SOL    HW233399   3.091   2.695   8.696  0.0827 -0.1242 -0.5975
 7256SOL     OW33400   0.231   4.043   3.902  0.2869  0.0768 -0.0976
 7256SOL    HW133401   0.218   3.968   3.960 -0.7647 -0.5633 -1.1566
 7256SOL    HW233402   0.156   4.046   3.843  0.3589 -0.4604 -0.2211
 7257SOL     OW33403   4.363   3.008   5.625  0.2780 -0.3240 -0.0142
 7257SOL    HW133404   4.419   3.021   5.701 -0.4377  5.6979 -0.5177
 7257SOL    HW233405   4.335   3.097   5.603  0.3103 -0.2689  0.1712
 7258SOL     OW33406   0.201   1.685  11.032  0.4171 -0.3420 -0.5028
 7258SOL    HW133407   0.146   1.757  11.001  0.4304  0.1355  0.5732
 7258SOL    HW233408   0.153   1.661  11.112  0.3538  1.5002  0.0156
 7259SOL     OW33409   1.474   4.486   2.653 -0.0600  0.1499  0.2774
 7259SOL    HW133410   1.525   4.515   2.578 -2.7634  0.2139 -1.5613
 7259SOL    HW233411   1.392   4.465   2.607 -1.0227  2.6285  0.8302
 7260SOL     OW33412   1.805   2.831   2.450 -0.3234  0.2623  1.3778
 7260SOL    HW133413   1.880   2.883   2.421  1.5617 -1.9962  2.2646
 7260SOL    HW233414   1.851   2.763   2.498  1.1653 -0.5637 -1.2511
 7261SOL     OW33415   1.318   4.368   5.594 -0.3284 -0.3032  0.2355
 7261SOL    HW133416   1.384   4.430   5.561 -0.4122  0.8860  2.3318
 7261SOL    HW233417   1.241   4.413   5.560 -0.8431 -2.1847 -1.0660
 7262SOL     OW33418   1.817   1.676   4.993 -0.0173 -0.0535  0.0924
 7262SOL    HW133419   1.904   1.635   5.000 -0.5110 -0.7245  2.4726
 7262SOL    HW233420   1.778   1.610   4.937  1.4166 -0.9199  0.1025
 7263SOL     OW33421   0.357   1.687   4.843  0.1637 -0.5909 -0.0642
 7263SOL    HW133422   0.331   1.753   4.907 -0.1273 -0.3792 -0.4045
 7263SOL    HW233423   0.377   1.739   4.766  0.3931 -1.3626 -0.5327
 7264SOL     OW33424   4.399   4.032   4.418 -0.0054  0.2074  0.6347
 7264SOL    HW133425   4.375   3.954   4.468 -0.4281 -1.4447 -2.1444
 7264SOL    HW233426   4.341   4.100   4.450  1.5423  1.2237  1.3129
 7265SOL     OW33427   4.423   0.574  16.710  0.1554  0.5741  0.4123
 7265SOL    HW133428   4.341   0.586  16.661  1.5332  0.8676 -1.8289
 7265SOL    HW233429   4.459   0.495  16.672  0.8220  0.7355  0.7140
 7266SOL     OW33430   2.263   3.977   7.277  0.0333  0.5825 -0.1938
 7266SOL    HW133431   2.314   3.921   7.218 -1.8763 -1.3143 -0.0271
 7266SOL    HW233432   2.311   3.965   7.358 -1.5392  3.0336  1.0994
 7267SOL     OW33433   3.756   2.068   6.740 -0.2218  0.2079  0.1749
 7267SOL    HW133434   3.752   2.088   6.647 -2.4922  0.3168  0.3038
 7267SOL    HW233435   3.740   2.153   6.780  0.5140  1.0925 -1.4020
 7268SOL     OW33436   2.565   0.409   7.552 -0.1791  0.0616 -0.4834
 7268SOL    HW133437   2.476   0.396   7.585  0.2208 -0.1606  0.5149
 7268SOL    HW233438   2.617   0.418   7.632 -1.1131 -0.6053  0.1937
 7269SOL     OW33439   3.069   3.707   3.698 -0.4739  0.0562  0.1295
 7269SOL    HW133440   2.990   3.734   3.651 -0.0602  0.7039 -0.1987
 7269SOL    HW233441   3.037   3.647   3.765 -1.1078  1.6025  1.2157
 7270SOL     OW33442   4.059   4.132   8.468 -0.7295  0.4173 -0.0198
 7270SOL    HW133443   4.062   4.147   8.562 -1.0503  2.2710 -0.3153
 7270SOL    HW233444   4.153   4.112   8.459 -1.0044 -0.6189 -0.5937
 7271SOL     OW33445   3.614   1.282   9.232  0.5295 -0.2627  0.0327
 7271SOL    HW133446   3.555   1.357   9.232  0.8671  0.0080  0.3926
 7271SOL    HW233447   3.675   1.297   9.304  0.5494 -2.0944  0.4033
 7272SOL     OW33448   2.022   0.503  14.950  0.1830  0.1301  0.5010
 7272SOL    HW133449   1.975   0.566  14.895  0.8994  1.0109  0.8886
 7272SOL    HW233450   1.949   0.452  14.983  0.2981 -0.0778  0.4321
 7273SOL     OW33451   2.479   4.139   2.903 -0.1537  0.1697  0.3350
 7273SOL    HW133452   2.475   4.174   2.814  0.9816 -0.4479  0.0370
 7273SOL    HW233453   2.413   4.196   2.942 -0.5196  0.1885 -0.3088
 7274SOL     OW33454   1.243   4.676   4.015  0.3240  0.3111  0.0900
 7274SOL    HW133455   1.202   4.590   4.016  1.7435 -0.3798 -0.3042
 7274SOL    HW233456   1.325   4.655   4.061  0.0324  0.2529  0.5807
 7275SOL     OW33457   3.766   2.171   4.835  0.1158 -0.1429 -0.5144
 7275SOL    HW133458   3.695   2.145   4.894 -0.4584 -2.2549 -2.1493
 7275SOL    HW233459   3.765   2.258   4.876 -0.6774 -0.3067 -0.1844
 7276SOL     OW33460   1.497   3.353   2.258 -0.3430  0.0447 -0.2970
 7276SOL    HW133461   1.461   3.428   2.305 -2.6247 -1.5752  0.5523
 7276SOL    HW233462   1.440   3.290   2.302  0.5882 -0.5832  0.0062
 7277SOL     OW33463   3.057   2.264   1.167 -0.1562 -0.2400  0.3618
 7277SOL    HW133464   3.107   2.342   1.191  0.1400 -0.5888  0.8690
 7277SOL    HW233465   3.062   2.216   1.250 -0.8443 -1.7184 -0.4383
 7278SOL     OW33466   1.575   2.082  12.895  0.1818  0.0211  0.1146
 7278SOL    HW133467   1.481   2.073  12.884  0.2539 -1.7368  1.0114
 7278SOL    HW233468   1.589   2.030  12.974 -0.7008 -0.9319 -0.3699
 7279SOL     OW33469   0.132   0.144  11.652 -0.5423 -0.2222 -0.3322
 7279SOL    HW133470   0.067   0.205  11.615 -0.5725 -0.7956 -1.2368
 7279SOL    HW233471   0.094   0.057  11.637  2.5851 -1.5040 -0.7886
 7280SOL     OW33472   2.452   4.074   5.102  0.1727  0.2269  0.1501
 7280SOL    HW133473   2.426   4.059   5.011 -0.3298  3.1385 -0.1737
 7280SOL    HW233474   2.423   3.991   5.141  0.9597  0.3034  0.9117
 7281SOL     OW33475   3.164   2.742   4.373  0.5032  0.2031 -0.6278
 7281SOL    HW133476   3.174   2.653   4.405  0.1018 -0.3263 -1.9673
 7281SOL    HW233477   3.230   2.738   4.304 -1.9678  0.5959 -3.0478
 7282SOL     OW33478   2.765   0.707   2.521 -0.8155 -0.2542 -0.7726
 7282SOL    HW133479   2.838   0.716   2.461  0.8814 -0.8267  1.2212
 7282SOL    HW233480   2.788   0.767   2.592 -1.7761 -4.1722  2.9181
 7283SOL     OW33481   1.985   0.908   7.853 -0.6673  0.0394 -0.8688
 7283SOL    HW133482   2.065   0.949   7.885 -0.2507 -2.0575  0.7698
 7283SOL    HW233483   1.964   0.963   7.778 -0.8246  0.6765 -0.3603
 7284SOL     OW33484   3.278   0.293   5.334 -0.0673 -0.1339  0.3939
 7284SOL    HW133485   3.366   0.257   5.346  0.1038 -0.4937 -1.8388
 7284SOL    HW233486   3.257   0.326   5.421  2.9434  2.6975  0.0302
 7285SOL     OW33487   2.767   0.165   5.242  0.0649 -0.2611 -0.2414
 7285SOL    HW133488   2.722   0.081   5.253 -0.4641 -0.1733 -1.6675
 7285SOL    HW233489   2.763   0.184   5.148  0.0168  0.1735 -0.1482
 7286SOL     OW33490   3.514   1.236   6.277 -0.3896 -0.0370  0.2100
 7286SOL    HW133491   3.607   1.212   6.283 -0.0717  0.2944 -3.1281
 7286SOL    HW233492   3.522   1.322   6.318 -2.4935  0.2965 -0.0793
 7287SOL     OW33493   1.068   1.898   6.670 -0.1936 -0.1122 -0.3568
 7287SOL    HW133494   1.082   1.849   6.751  0.9046  0.3446 -0.2692
 7287SOL    HW233495   1.044   1.830   6.607 -0.5504  0.0510 -0.3988
 7288SOL     OW33496   3.076   1.479  12.898 -0.4634  0.2630  0.6226
 7288SOL    HW133497   3.020   1.422  12.951  1.5889 -0.9531  1.4830
 7288SOL    HW233498   3.035   1.565  12.894 -2.4812 -0.8110 -1.8373
 7289SOL     OW33499   0.821   1.397  14.322 -0.2883  0.4249 -0.2936
 7289SOL    HW133500   0.910   1.369  14.343 -0.3406 -0.5730 -1.3658
 7289SOL    HW233501   0.782   1.310  14.313 -0.1004  0.2911  0.1856
 7290SOL     OW33502   4.598   2.362   4.515 -0.1065  0.0328  0.2942
 7290SOL    HW133503   4.650   2.393   4.440 -0.3904 -0.1533  0.0216
 7290SOL    HW233504   4.513   2.393   4.483  0.3395  1.0489  0.1028
 7291SOL     OW33505   3.683   4.233  11.425  0.6151  0.1460  0.1198
 7291SOL    HW133506   3.697   4.143  11.454  0.6723 -0.7049 -2.5756
 7291SOL    HW233507   3.711   4.289  11.498 -0.8066 -0.7802  1.3735
 7292SOL     OW33508   0.952   3.934   6.209 -0.3780  0.3889 -0.1044
 7292SOL    HW133509   1.040   3.969   6.221 -0.0293  0.0028 -1.5754
 7292SOL    HW233510   0.899   4.006   6.242  1.1313  1.3758  0.1684
 7293SOL     OW33511   3.162   0.138   3.988  0.3566 -0.0054  0.2842
 7293SOL    HW133512   3.106   0.064   4.012  1.1493 -1.4530 -2.3398
 7293SOL    HW233513   3.242   0.099   3.952  1.7812  2.5302  0.7535
 7294SOL     OW33514   0.625   4.056   4.076  0.2350  0.0730 -0.6131
 7294SOL    HW133515   0.650   4.004   3.999 -1.9402 -0.0394 -1.2498
 7294SOL    HW233516   0.589   3.979   4.121 -0.3000  0.4091 -0.4693
 7295SOL     OW33517   3.831   3.646   7.734 -0.1289 -0.0481 -0.3274
 7295SOL    HW133518   3.741   3.670   7.756 -0.3904  0.3576 -1.8492
 7295SOL    HW233519   3.871   3.732   7.722  0.3814 -0.2777 -0.2670
 7296SOL     OW33520   4.551   3.297   1.911 -0.0913  0.6748  0.5230
 7296SOL    HW133521   4.567   3.390   1.903  0.6263  0.4194 -0.9895
 7296SOL    HW233522   4.525   3.286   2.003 -0.2972  0.4981  0.4455
 7297SOL     OW33523   2.602   4.103  15.319 -0.0450  0.3754 -0.1190
 7297SOL    HW133524   2.646   4.116  15.403 -2.3269  0.9879  0.9592
 7297SOL    HW233525   2.669   4.054  15.271 -1.1129 -1.3153  0.1236
 7298SOL     OW33526   4.113   0.311   3.111 -0.2710 -0.1476  0.9879
 7298SOL    HW133527   4.118   0.404   3.090  0.0343  0.0259  1.8200
 7298SOL    HW233528   4.204   0.295   3.137 -0.3375 -1.4788  0.4132
 7299SOL     OW33529   4.710   0.461   2.122  0.0151 -0.4459  0.8207
 7299SOL    HW133530   0.002   0.482   2.033 -0.6977 -2.9732 -0.0130
 7299SOL    HW233531   4.709   0.551   2.155 -0.3377  0.2161 -0.9613
 7300SOL     OW33532   3.877   3.027  14.069  0.2016  0.3195  0.1523
 7300SOL    HW133533   3.787   2.995  14.076 -0.6297  2.3324 -1.3455
 7300SOL    HW233534   3.880   3.064  13.981 -2.6905 -0.6741 -0.3613
 7301SOL     OW33535   3.622   3.567   4.423  1.0156 -0.1661 -0.0057
 7301SOL    HW133536   3.691   3.631   4.406 -0.0853  0.6041 -1.5914
 7301SOL    HW233537   3.637   3.506   4.351  0.7433 -1.3793  0.9538
 7302SOL     OW33538   2.329   0.355  15.393 -0.2141 -0.5033 -0.2864
 7302SOL    HW133539   2.351   0.440  15.432  0.7113 -0.4873 -0.8453
 7302SOL    HW233540   2.257   0.380  15.335 -0.8250 -0.3369  0.5412
 7303SOL     OW33541   1.287   2.578   6.738 -0.7901  0.4310  0.2121
 7303SOL    HW133542   1.281   2.490   6.700 -1.8319  0.5172  0.1727
 7303SOL    HW233543   1.204   2.613   6.705  0.3569  2.9480  0.0454
 7304SOL     OW33544   0.706   0.725   9.677  0.3959  0.1361  0.4044
 7304SOL    HW133545   0.744   0.740   9.764 -0.5614  0.2441  0.8052
 7304SOL    HW233546   0.778   0.747   9.617 -0.1594 -1.8151 -0.9702
 7305SOL     OW33547   1.310   2.057   3.931  0.0487 -0.0025  0.2266
 7305SOL    HW133548   1.334   1.997   3.860  0.1359 -1.9482  1.8945
 7305SOL    HW233549   1.247   1.998   3.975 -1.4789  1.5707  0.1455
 7306SOL     OW33550   2.194   4.225  14.438  0.3149  0.5565  0.0611
 7306SOL    HW133551   2.146   4.292  14.389 -0.3455  1.4913  1.9835
 7306SOL    HW233552   2.280   4.259  14.410  1.5445 -0.1473  3.0091
 7307SOL     OW33553   1.299   0.564   4.691 -0.1074 -0.6119 -0.2635
 7307SOL    HW133554   1.392   0.584   4.682 -0.0988 -0.0529  1.1558
 7307SOL    HW233555   1.273   0.644   4.735 -1.0614 -0.3405 -1.3004
 7308SOL     OW33556   4.331   0.775   2.461 -0.0236 -0.3309 -0.1814
 7308SOL    HW133557   4.285   0.745   2.383 -3.7049  2.4019  0.9622
 7308SOL    HW233558   4.403   0.827   2.426 -0.6924  0.7321  0.0092
 7309SOL     OW33559   1.031   2.676   6.705  0.3250  0.0484  0.2243
 7309SOL    HW133560   0.960   2.614   6.722 -0.3069  1.3370  2.2379
 7309SOL    HW233561   1.019   2.739   6.775  1.7867 -0.2172  0.7223
 7310SOL     OW33562   2.006   3.452  10.374  0.1933  0.1563  0.0471
 7310SOL    HW133563   2.004   3.438  10.279  1.4543 -1.2302  0.2222
 7310SOL    HW233564   2.012   3.361  10.404  0.5125 -0.5389 -2.1457
 7311SOL     OW33565   0.225   0.210   8.758 -0.0160 -0.5761 -1.3149
 7311SOL    HW133566   0.178   0.197   8.840 -0.6527  2.9555 -1.1148
 7311SOL    HW233567   0.151   0.251   8.714 -1.2079 -2.3726 -0.9588
 7312SOL     OW33568   2.727   2.629   1.182 -0.1355 -0.0167 -0.3833
 7312SOL    HW133569   2.700   2.538   1.194 -2.5042  0.3008 -3.4323
 7312SOL    HW233570   2.822   2.620   1.189 -0.4706  0.2965  4.8103
 7313SOL     OW33571   0.706   2.778   1.240  0.2853  0.2199 -0.1625
 7313SOL    HW133572   0.680   2.716   1.308  1.0770 -2.0470 -1.8962
 7313SOL    HW233573   0.731   2.857   1.286  1.2349 -1.8421  2.8661
 7314SOL     OW33574   0.687   3.833  16.295  0.0868  0.4031 -0.5028
 7314SOL    HW133575   0.770   3.788  16.312  0.1278  0.6711 -0.0089
 7314SOL    HW233576   0.637   3.819  16.375  0.7527 -1.7593 -0.4707
 7315SOL     OW33577   1.491   4.495   9.247 -0.1693 -0.6016  0.2374
 7315SOL    HW133578   1.430   4.554   9.292  2.3119  0.7042  1.8843
 7315SOL    HW233579   1.573   4.544   9.244 -0.8174  0.5228  1.0344
 7316SOL     OW33580   1.267   2.832   1.600 -0.2474  0.2728  0.0992
 7316SOL    HW133581   1.273   2.747   1.644 -0.1810 -0.6967 -1.7732
 7316SOL    HW233582   1.349   2.823   1.551 -1.5719 -3.5472 -1.4256
 7317SOL     OW33583   0.118   2.891   3.557  0.6116 -0.2843  0.6152
 7317SOL    HW133584   0.043   2.917   3.609 -0.7171  0.7771 -1.8832
 7317SOL    HW233585   0.078   2.895   3.471 -1.6221 -1.1149  1.6090
 7318SOL     OW33586   0.098   3.323   2.352  0.0770  0.9346  0.5828
 7318SOL    HW133587   0.054   3.269   2.417  1.5020 -0.0391  0.7278
 7318SOL    HW233588   0.031   3.391   2.346  0.0578  0.9457  0.9187
 7319SOL     OW33589   2.900   3.463   8.176 -0.0277  0.8869  0.7028
 7319SOL    HW133590   2.948   3.445   8.257  1.0033 -2.1740 -0.5990
 7319SOL    HW233591   2.938   3.408   8.108 -1.3505 -2.0486  2.3136
 7320SOL     OW33592   2.439   1.010   2.456  0.2629  0.9090  0.3303
 7320SOL    HW133593   2.409   1.053   2.536 -1.9288  0.8668 -0.4825
 7320SOL    HW233594   2.394   1.063   2.391 -1.4961 -1.6934 -0.5646
 7321SOL     OW33595   1.288   2.006   5.203  0.0062 -0.0503  0.1191
 7321SOL    HW133596   1.218   1.942   5.214 -0.7886  0.6929 -0.6131
 7321SOL    HW233597   1.333   1.999   5.287 -2.1593  1.1317  1.3641
 7322SOL     OW33598   2.075   3.898   4.686 -0.0180 -0.0569  0.2209
 7322SOL    HW133599   2.082   3.854   4.771 -1.2185  1.2425  0.9857
 7322SOL    HW233600   2.012   3.842   4.641  1.4174 -0.7908 -0.8805
 7323SOL     OW33601   3.144   4.229   4.335  0.2894 -0.3647 -0.4246
 7323SOL    HW133602   3.153   4.153   4.394 -0.3177 -0.0639  0.0529
 7323SOL    HW233603   3.050   4.229   4.320  0.2806 -1.0206 -0.4053
 7324SOL     OW33604   0.591   1.913   7.151 -0.0520  0.5427  0.0799
 7324SOL    HW133605   0.641   1.891   7.230 -1.2206 -2.0133  0.0836
 7324SOL    HW233606   0.503   1.922   7.186 -0.1525 -1.1170  0.2253
 7325SOL     OW33607   3.429   2.342   1.016  0.0641 -0.0694  0.8374
 7325SOL    HW133608   3.385   2.407   0.962  0.8019  1.1926  1.7472
 7325SOL    HW233609   3.459   2.283   0.947  0.8926  2.6562 -1.1248
 7326SOL     OW33610   3.068   3.489   8.723  0.0026  0.1690  0.3578
 7326SOL    HW133611   3.159   3.467   8.743 -0.1072  1.0926  1.8729
 7326SOL    HW233612   3.045   3.538   8.802 -0.5091  0.1521  0.2199
 7327SOL     OW33613   1.134   0.031  15.822  0.1093  0.0058  0.2710
 7327SOL    HW133614   1.188   4.709  15.769 -2.2034 -0.0758 -1.9871
 7327SOL    HW233615   1.074   0.061  15.753  0.2280  0.8729  0.5539
 7328SOL     OW33616   0.899   4.713   3.826  0.4400 -0.2797 -0.7596
 7328SOL    HW133617   0.942   0.037   3.767 -0.0913  0.4878 -0.3476
 7328SOL    HW233618   0.883   0.028   3.905 -0.4065  0.3957 -1.3830
 7329SOL     OW33619   2.270   0.739  14.641  0.3196 -0.8685  0.2764
 7329SOL    HW133620   2.199   0.680  14.615 -0.1762 -0.4025  0.5716
 7329SOL    HW233621   2.232   0.778  14.721 -1.3210 -1.4018 -0.2492
 7330SOL     OW33622   4.478   3.064   4.394  0.5473 -0.0601 -0.3276
 7330SOL    HW133623   4.414   3.029   4.456 -1.9078  0.9123 -2.3116
 7330SOL    HW233624   4.539   3.105   4.456 -1.8155  1.1469  1.2162
 7331SOL     OW33625   0.208   2.648   8.305 -0.5223 -0.8874  0.8040
 7331SOL    HW133626   0.220   2.701   8.383 -0.2306 -1.3000  1.0426
 7331SOL    HW233627   0.129   2.688   8.270  0.2733 -1.2918 -1.4605
 7332SOL     OW33628   4.439   4.266   7.892  1.1281  0.0559 -0.2974
 7332SOL    HW133629   4.348   4.276   7.863  0.7793 -3.9324 -0.5919
 7332SOL    HW233630   4.488   4.226   7.820 -0.9088 -1.6278 -0.7461
 7333SOL     OW33631   2.164   2.964   6.452  0.5290  0.6518  0.1970
 7333SOL    HW133632   2.165   2.875   6.417  2.1313  0.2354  1.3077
 7333SOL    HW233633   2.257   2.983   6.458  0.7888 -1.1131  1.6715
 7334SOL     OW33634   2.826   2.784   8.839 -0.6269  0.0616 -0.7886
 7334SOL    HW133635   2.855   2.695   8.820 -0.4852 -0.1807  0.5778
 7334SOL    HW233636   2.802   2.773   8.931  0.7130 -0.2532 -0.4768
 7335SOL     OW33637   0.450   2.934   7.686 -0.2948 -0.2154  0.0807
 7335SOL    HW133638   0.358   2.911   7.698 -0.6066  0.7571 -0.4909
 7335SOL    HW233639   0.436   3.017   7.729  2.3043  0.3035 -0.0639
 7336SOL     OW33640   4.551   3.545   7.372 -0.3621  0.3709 -0.2914
 7336SOL    HW133641   4.640   3.575   7.356  0.3482 -1.2640  0.6069
 7336SOL    HW233642   4.525   3.599   7.447  0.7845 -0.2307  0.5408
 7337SOL     OW33643   2.215   4.226   6.607  0.3802  0.5577  0.1762
 7337SOL    HW133644   2.158   4.253   6.679 -0.7788  1.1263 -0.9633
 7337SOL    HW233645   2.297   4.244   6.654  0.4920 -1.0605  0.6158
 7338SOL     OW33646   1.640   0.763   0.981  0.1302  0.8605 -0.1440
 7338SOL    HW133647   1.707   0.785   1.045 -1.1278  1.5409  0.9245
 7338SOL    HW233648   1.606   0.850   0.960 -1.5521 -0.0162 -1.0622
 7339SOL     OW33649   0.015   4.263   2.736  0.0385 -0.1455 -0.1446
 7339SOL    HW133650   0.006   4.289   2.644  1.1878 -1.8539 -0.7334
 7339SOL    HW233651   0.094   4.315   2.755  0.5392 -1.3859  1.1312
 7340SOL     OW33652   0.844   3.983   9.058  0.1514  0.2636  0.7477
 7340SOL    HW133653   0.864   3.991   8.965 -2.9986  0.5986  0.0946
 7340SOL    HW233654   0.771   3.922   9.048 -0.0895  0.8356 -1.0117
 7341SOL     OW33655   1.442   1.986  16.197 -0.2514  0.4916 -0.1428
 7341SOL    HW133656   1.391   1.925  16.144 -0.7423  0.8190 -0.0451
 7341SOL    HW233657   1.367   2.042  16.217  1.0141  0.7557  3.9365
 7342SOL     OW33658   1.560   2.247   9.095  0.0983 -0.1348 -0.0069
 7342SOL    HW133659   1.551   2.159   9.058 -0.3882  0.4399 -1.2398
 7342SOL    HW233660   1.472   2.272   9.122 -0.8790 -1.9149 -1.4804
 7343SOL     OW33661   2.650   2.037  10.678  0.2504 -0.1179  0.0623
 7343SOL    HW133662   2.691   2.086  10.607 -0.2152  0.0902 -0.0618
 7343SOL    HW233663   2.560   2.068  10.668 -0.0384 -0.7097  0.7414
 7344SOL     OW33664   2.496   4.184   3.975  0.2753  0.0611  0.0912
 7344SOL    HW133665   2.577   4.144   3.943  0.0667 -1.3224  1.2668
 7344SOL    HW233666   2.439   4.113   3.942 -0.1392  1.3207 -1.8985
 7345SOL     OW33667   3.235   1.472   7.282  0.1388 -0.0094 -0.2411
 7345SOL    HW133668   3.272   1.556   7.252 -0.8784  0.0680 -1.3127
 7345SOL    HW233669   3.307   1.412   7.265 -0.4293 -1.1702  1.4279
 7346SOL     OW33670   0.329   0.488   2.902  0.2709 -0.2862  0.5289
 7346SOL    HW133671   0.246   0.491   2.950  0.8207 -1.4144  1.5330
 7346SOL    HW233672   0.385   0.533   2.965  0.6570 -2.6456  1.8710
 7347SOL     OW33673   3.007   2.650  15.841 -0.1797 -0.0768  0.0195
 7347SOL    HW133674   2.996   2.668  15.934  3.3801 -1.2193  0.6785
 7347SOL    HW233675   3.015   2.555  15.826 -3.2543 -0.1624 -0.9700
 7348SOL     OW33676   0.694   1.959   6.061  0.3100  1.0353  0.0185
 7348SOL    HW133677   0.744   1.966   6.142  0.4407  0.8015 -0.0387
 7348SOL    HW233678   0.726   2.035   6.013  2.1212 -2.8755 -5.0610
 7349SOL     OW33679   2.098   0.509   0.663  0.2559  0.2126 -0.0634
 7349SOL    HW133680   2.186   0.524   0.629  0.8163  0.4216  1.4817
 7349SOL    HW233681   2.124   0.467   0.745 -0.8556 -0.9176 -0.2939
 7350SOL     OW33682   1.911   2.171   1.600 -0.5092  0.3515 -0.4360
 7350SOL    HW133683   1.947   2.122   1.674 -1.8586  0.2294  0.1230
 7350SOL    HW233684   1.893   2.107   1.531 -1.0691  0.1973 -0.1426
 7351SOL     OW33685   1.019   4.427   1.213  0.2342  0.0055 -0.0707
 7351SOL    HW133686   1.002   4.412   1.120 -2.2784 -0.4872  0.4905
 7351SOL    HW233687   0.987   4.517   1.221 -1.8860 -0.7117 -0.5739
 7352SOL     OW33688   4.558   1.949   6.061 -0.1676  0.3667  0.6693
 7352SOL    HW133689   4.618   2.015   6.025 -0.9569  0.8608  0.2635
 7352SOL    HW233690   4.616   1.874   6.056 -0.1850  0.4540 -0.7847
 7353SOL     OW33691   2.138   0.808   7.122  0.1270  0.3791  0.7360
 7353SOL    HW133692   2.146   0.748   7.047  0.8466  1.8517 -0.3695
 7353SOL    HW233693   2.062   0.771   7.167  0.6566  0.3239  1.5856
 7354SOL     OW33694   3.581   2.563   2.324  0.2763  0.2712  0.0623
 7354SOL    HW133695   3.516   2.620   2.283  2.3645  2.9849  0.5491
 7354SOL    HW233696   3.584   2.611   2.407 -1.8699  0.2047  0.1921
 7355SOL     OW33697   2.023   0.195   7.893 -0.6739 -0.6275 -0.0604
 7355SOL    HW133698   1.961   0.186   7.966 -2.2854  0.4076 -1.3047
 7355SOL    HW233699   1.980   0.266   7.845 -1.0578 -2.4569 -2.3718
 7356SOL     OW33700   3.683   1.470  14.597  0.1987  0.7578 -0.2089
 7356SOL    HW133701   3.673   1.395  14.655 -1.1686 -0.6186 -2.1861
 7356SOL    HW233702   3.645   1.540  14.650 -0.3382 -0.1143  0.5470
 7357SOL     OW33703   0.605   1.768  17.683  0.4703 -0.5638 -0.0767
 7357SOL    HW133704   0.579   1.860  17.683 -0.2367 -0.7703 -1.4426
 7357SOL    HW233705   0.694   1.791  17.710  1.2175  0.2268 -3.2759
 7358SOL     OW33706   0.030   2.264  15.668 -0.1446  0.6088 -0.2173
 7358SOL    HW133707   4.701   2.302  15.726  0.5013  2.9264 -1.0237
 7358SOL    HW233708   0.104   2.325  15.673  0.1990  0.0352  2.0477
 7359SOL     OW33709   0.392   0.265   7.566  0.0937  0.3480  0.4197
 7359SOL    HW133710   0.394   0.337   7.503 -0.9250 -0.0402 -0.0673
 7359SOL    HW233711   0.308   0.285   7.608  1.9854  4.2680  2.3447
 7360SOL     OW33712   2.940   4.709   7.257  0.1190 -0.0761 -0.2834
 7360SOL    HW133713   2.918   4.679   7.169 -0.2850  0.7909 -0.4828
 7360SOL    HW233714   2.999   4.639   7.284  1.0413 -0.1253 -2.4286
 7361SOL     OW33715   2.772   1.313   8.361 -0.8677  0.2920  0.0342
 7361SOL    HW133716   2.851   1.270   8.329 -0.4515  1.7170 -0.8572
 7361SOL    HW233717   2.812   1.398   8.379  2.1921 -1.3963  1.1621
 7362SOL     OW33718   3.798   0.153  16.183 -0.0328 -0.4923 -0.2462
 7362SOL    HW133719   3.892   0.154  16.165  0.1982 -0.1046  1.0269
 7362SOL    HW233720   3.772   0.061  16.189 -0.8306 -0.1467  1.5433
 7363SOL     OW33721   0.134   2.696   9.075  0.0340 -0.3189 -0.0361
 7363SOL    HW133722   0.152   2.755   9.148  1.1882  2.1193 -2.3198
 7363SOL    HW233723   0.042   2.717   9.060 -0.3750 -1.7186  0.4393
 7364SOL     OW33724   4.324   0.685   7.977 -0.4690  0.3130  0.3784
 7364SOL    HW133725   4.381   0.745   7.930  2.3613 -0.9040  2.2929
 7364SOL    HW233726   4.246   0.734   7.952 -2.5816 -3.2718 -0.0920
 7365SOL     OW33727   0.451   4.594  16.139  0.1046 -0.0166  0.1306
 7365SOL    HW133728   0.511   4.659  16.176 -0.9661  0.8901  0.2561
 7365SOL    HW233729   0.510   4.523  16.111  1.4870  1.1912 -0.0049
 7366SOL     OW33730   1.937   2.455   9.238  0.2448  0.2822  0.7738
 7366SOL    HW133731   1.857   2.416   9.272  0.9418  0.1082  2.2012
 7366SOL    HW233732   1.985   2.480   9.317 -2.7482 -1.2602  3.0875
 7367SOL     OW33733   0.695   1.598   1.384  0.7540  0.2010  0.4632
 7367SOL    HW133734   0.702   1.504   1.399 -2.1763  0.0062  0.5385
 7367SOL    HW233735   0.640   1.590   1.306 -0.3058  0.1363  1.2205
 7368SOL     OW33736   4.547   1.839   7.078 -0.2439  0.1224 -0.0723
 7368SOL    HW133737   4.534   1.914   7.019  2.2308 -0.4142 -1.3081
 7368SOL    HW233738   4.557   1.887   7.160 -0.6335  1.0020 -0.5346
 7369SOL     OW33739   2.389   4.401   8.201 -0.4308  0.1250 -0.1862
 7369SOL    HW133740   2.401   4.492   8.173  1.3916  0.6887  2.3955
 7369SOL    HW233741   2.392   4.407   8.297  2.6367  1.5689 -0.3886
 7370SOL     OW33742   2.233   0.841   0.574  0.1037 -0.5043 -0.6935
 7370SOL    HW133743   2.243   0.936   0.579  0.1661 -0.5519  0.0818
 7370SOL    HW233744   2.140   0.842   0.552 -0.1765  1.5585  0.6055
 7371SOL     OW33745   1.776   2.322   2.772 -0.6806  0.0585  0.2366
 7371SOL    HW133746   1.689   2.289   2.793 -0.6336  1.6543  2.9166
 7371SOL    HW233747   1.803   2.338   2.862  0.8493  1.1398 -0.4078
 7372SOL     OW33748   3.469   0.496  13.789 -0.0238  0.0498  0.0839
 7372SOL    HW133749   3.510   0.420  13.831 -3.2068 -1.2023  0.9270
 7372SOL    HW233750   3.515   0.482  13.706 -1.0153 -1.8229 -0.1651
 7373SOL     OW33751   0.742   0.210   9.002  0.0584  0.1852  0.2546
 7373SOL    HW133752   0.776   0.298   9.017 -0.5612  0.3661  0.6036
 7373SOL    HW233753   0.650   0.228   8.983  0.0869  2.5809  2.5210
 7374SOL     OW33754   1.574   1.072  17.744 -0.1881 -0.2249 -0.1604
 7374SOL    HW133755   1.532   0.986  17.739 -0.4348 -0.0732 -0.7268
 7374SOL    HW233756   1.505   1.132  17.713 -0.4437 -0.7295 -0.5601
 7375SOL     OW33757   0.280   2.108   6.018  0.3587  0.2169  0.2668
 7375SOL    HW133758   0.302   2.153   5.936  0.3390 -0.4888 -0.1273
 7375SOL    HW233759   0.327   2.166   6.077 -0.0946 -1.3316  2.1510
 7376SOL     OW33760   2.457   2.204   1.302 -0.2664  0.1324  0.4364
 7376SOL    HW133761   2.407   2.189   1.382 -0.5750 -2.7582 -0.2907
 7376SOL    HW233762   2.395   2.212   1.229  1.0315 -1.8026 -0.8930
 7377SOL     OW33763   0.651   3.361   3.991  0.4202  1.0537  0.3412
 7377SOL    HW133764   0.621   3.380   4.079 -0.8419 -0.3219  0.2245
 7377SOL    HW233765   0.573   3.320   3.953  1.5571  0.1987 -1.0696
 7378SOL     OW33766   1.822   1.900   2.076 -0.4179  0.3965  0.2442
 7378SOL    HW133767   1.915   1.878   2.073  0.1687  3.0504 -1.6568
 7378SOL    HW233768   1.826   1.992   2.104  0.6266  0.7167 -0.9590
 7379SOL     OW33769   3.207   4.153   8.777  0.2557  0.1796 -0.0515
 7379SOL    HW133770   3.300   4.170   8.762  0.2520  1.8370  1.8245
 7379SOL    HW233771   3.192   4.065   8.742 -1.0902 -0.2652  1.6695
 7380SOL     OW33772   2.293   3.573   5.458 -0.4619  0.0312  0.5315
 7380SOL    HW133773   2.386   3.582   5.479 -0.8257  1.7166  1.4173
 7380SOL    HW233774   2.280   3.479   5.470  1.6704 -0.3192 -0.0258
 7381SOL     OW33775   1.170   2.315   3.918 -0.1438 -0.2147  0.2919
 7381SOL    HW133776   1.223   2.248   3.876 -0.7336 -1.1084  0.9817
 7381SOL    HW233777   1.203   2.311   4.008  0.6964 -0.9174 -0.0496
 7382SOL     OW33778   0.470   3.813   2.518 -0.1906  0.2049  0.5735
 7382SOL    HW133779   0.476   3.718   2.510  0.8297  0.1295  2.3480
 7382SOL    HW233780   0.487   3.839   2.427  2.4379 -0.9586  0.7212
 7383SOL     OW33781   1.536   2.487   4.537  0.0036  0.0958 -0.1189
 7383SOL    HW133782   1.552   2.465   4.629 -2.8144 -0.2210  0.2834
 7383SOL    HW233783   1.501   2.576   4.540 -2.7031 -0.9996  0.2663
 7384SOL     OW33784   3.472   4.197   5.476  0.0208  0.5169  0.5793
 7384SOL    HW133785   3.440   4.145   5.403  0.9471  1.4577 -0.4843
 7384SOL    HW233786   3.477   4.135   5.549 -2.5647  0.2256  0.5035
 7385SOL     OW33787   1.179   3.307   7.527  0.0231  0.5249  0.3250
 7385SOL    HW133788   1.217   3.286   7.612  1.5163 -1.8025 -0.9010
 7385SOL    HW233789   1.144   3.221   7.504  0.7686  0.5024 -0.7365
 7386SOL     OW33790   0.152   3.247   8.939  0.5345  0.2250 -0.5262
 7386SOL    HW133791   0.069   3.281   8.905  2.1198  2.4226 -2.2252
 7386SOL    HW233792   0.120   3.187   9.006  1.2833 -1.0209 -1.2978
 7387SOL     OW33793   2.501   4.634  15.440 -0.2271  0.1171 -0.7808
 7387SOL    HW133794   2.492   4.729  15.432 -0.8099 -0.1369 -3.1715
 7387SOL    HW233795   2.470   4.600  15.357 -0.3231  0.8788 -1.0638
 7388SOL     OW33796   1.778   1.101   0.720  0.0485  0.0941  0.0927
 7388SOL    HW133797   1.725   1.071   0.794  1.1107 -2.7517 -0.2801
 7388SOL    HW233798   1.745   1.187   0.695  2.2822  1.0473  0.3809
 7389SOL     OW33799   0.793   1.473   4.174 -0.2247  0.8874  0.3738
 7389SOL    HW133800   0.704   1.454   4.202  1.0176 -3.5836  1.3288
 7389SOL    HW233801   0.773   1.514   4.091 -0.3745  0.6709  0.3036
 7390SOL     OW33802   3.709   3.352   2.915  0.6423 -0.3518 -0.4383
 7390SOL    HW133803   3.674   3.318   2.997  3.3204  1.6707  1.5657
 7390SOL    HW233804   3.797   3.378   2.943  0.4715  0.7954 -0.9653
 7391SOL     OW33805   2.539   4.491  14.599  0.0126  0.0694 -0.0452
 7391SOL    HW133806   2.496   4.515  14.682 -0.3343  0.7664 -0.4260
 7391SOL    HW233807   2.479   4.425  14.564  0.1026 -0.6616  1.1542
 7392SOL     OW33808   1.749   1.567   5.629 -0.5648  0.2039 -0.1872
 7392SOL    HW133809   1.769   1.641   5.573  1.1386  0.5216  0.8140
 7392SOL    HW233810   1.707   1.608   5.705  0.3690  1.5792 -0.4249
 7393SOL     OW33811   1.977   2.255   7.833 -0.3715  0.4019  0.3347
 7393SOL    HW133812   2.073   2.254   7.839 -0.3011  0.9988 -0.7972
 7393SOL    HW233813   1.959   2.245   7.927 -1.0090  1.8624  0.3782
 7394SOL     OW33814   0.232   3.273   1.117  0.1748  0.5673  0.1089
 7394SOL    HW133815   0.229   3.281   1.022  1.3772 -0.7584 -0.0399
 7394SOL    HW233816   0.138   3.282   1.130  0.1045  1.3729 -0.9838
 7395SOL     OW33817   1.910   0.280  15.064  0.4523  0.2283  0.4780
 7395SOL    HW133818   1.841   0.281  15.130 -0.5760 -1.9275 -0.5560
 7395SOL    HW233819   1.914   0.188  15.039  1.5664  1.4003 -3.6642
 7396SOL     OW33820   0.509   2.820   8.751 -0.7323  0.1722  0.0594
 7396SOL    HW133821   0.417   2.807   8.727 -0.9186 -0.7202  1.2456
 7396SOL    HW233822   0.547   2.746   8.705 -0.8501  0.8660 -1.1612
 7397SOL     OW33823   1.630   0.215   1.562  0.9088  0.5973  0.6646
 7397SOL    HW133824   1.600   0.306   1.568  0.3157  0.3386  1.6460
 7397SOL    HW233825   1.554   0.171   1.600  0.9424 -1.6432 -1.8638
 7398SOL     OW33826   3.629   0.156   7.615 -0.2483 -0.7111 -0.8716
 7398SOL    HW133827   3.544   0.127   7.647  0.0900  0.1562  0.8309
 7398SOL    HW233828   3.627   0.237   7.665 -0.4073 -1.4580  0.3221
 7399SOL     OW33829   2.871   1.005   4.440  0.2213  0.5481  0.1057
 7399SOL    HW133830   2.958   0.992   4.478 -0.0262  0.3835  0.6186
 7399SOL    HW233831   2.889   1.055   4.360 -0.1402 -0.8112 -0.8250
 7400SOL     OW33832   0.069   3.510   2.092  0.3323 -0.3500 -0.1253
 7400SOL    HW133833   4.719   3.534   2.059  1.6982  0.7895 -2.9274
 7400SOL    HW233834   0.112   3.488   2.009  0.9235  1.0510 -0.1870
 7401SOL     OW33835   0.223   3.267  17.236  0.1798 -0.0478 -0.3824
 7401SOL    HW133836   0.283   3.316  17.179  0.3947  1.4698  1.1752
 7401SOL    HW233837   0.147   3.263  17.177  0.3792  2.2876 -0.7768
 7402SOL     OW33838   3.894   2.796   9.721 -0.6327 -0.3571 -0.2691
 7402SOL    HW133839   3.805   2.760   9.721 -1.1656  0.9382 -0.8703
 7402SOL    HW233840   3.885   2.875   9.775  1.7503  1.0798 -2.0131
 7403SOL     OW33841   0.605   0.695   5.201  0.3477  0.2705 -0.5775
 7403SOL    HW133842   0.562   0.665   5.281  0.9244  0.3813 -0.2285
 7403SOL    HW233843   0.696   0.674   5.222 -0.3015 -3.0599 -1.0322
 7404SOL     OW33844   0.156   3.981   3.266 -0.0836  0.1592  0.2502
 7404SOL    HW133845   0.162   3.902   3.213 -0.1981 -0.5471  1.2918
 7404SOL    HW233846   0.206   4.048   3.219 -0.2084 -0.5024 -0.8351
 7405SOL     OW33847   1.927   1.363   8.600  0.1540  0.3310  0.3710
 7405SOL    HW133848   1.916   1.429   8.532  1.6665  2.1344  1.8885
 7405SOL    HW233849   1.949   1.414   8.678 -0.5279  0.3248  0.5721
 7406SOL     OW33850   4.027   3.443  10.552 -0.0185  0.3740 -0.1417
 7406SOL    HW133851   3.937   3.453  10.582  0.2808  0.4793  0.7370
 7406SOL    HW233852   4.034   3.518  10.492  1.1324  0.5967  0.2717
 7407SOL     OW33853   0.717   0.202   7.742  0.0754 -0.0587  0.9751
 7407SOL    HW133854   0.742   0.230   7.654  2.3652  0.3335  1.7551
 7407SOL    HW233855   0.801   0.221   7.783  1.6474 -1.2036 -1.7393
 7408SOL     OW33856   4.398   0.987   0.622  0.2683 -0.3665  0.5174
 7408SOL    HW133857   4.385   1.020   0.711  1.6826 -0.1916  0.6516
 7408SOL    HW233858   4.425   0.896   0.633 -1.5735 -0.9506  0.2710
 7409SOL     OW33859   0.459   1.733  10.653  0.0588 -0.4584 -0.2389
 7409SOL    HW133860   0.415   1.816  10.673  0.6083  0.1700 -1.6001
 7409SOL    HW233861   0.463   1.698  10.742  0.6317 -2.0447 -0.8811
 7410SOL     OW33862   1.708   3.401   7.702  0.3770 -0.3349  0.3124
 7410SOL    HW133863   1.755   3.470   7.654 -0.6559  1.2552  1.6190
 7410SOL    HW233864   1.675   3.339   7.636  1.0173 -1.5984  1.1856
 7411SOL     OW33865   1.677   0.083  12.760  0.8467  0.5870 -0.3270
 7411SOL    HW133866   1.641   4.736  12.786  0.7890  0.9435  0.7304
 7411SOL    HW233867   1.596   0.121  12.725  0.8596  1.1479  0.2553
 7412SOL     OW33868   0.378   1.090   8.309 -0.1013 -0.1049  0.1290
 7412SOL    HW133869   0.330   1.077   8.390 -2.7018 -0.1554 -1.4086
 7412SOL    HW233870   0.399   1.184   8.310 -0.0467 -0.1305  1.5554
 7413SOL     OW33871   1.069   1.408   3.452  0.5975 -0.1998  0.0637
 7413SOL    HW133872   1.092   1.418   3.360 -0.9277 -1.1707 -0.4232
 7413SOL    HW233873   1.156   1.406   3.493  0.5354 -1.9103  0.1100
 7414SOL     OW33874   1.163   3.942   2.400 -0.7744 -0.1536 -0.1256
 7414SOL    HW133875   1.226   3.983   2.459 -0.8542  1.2419 -1.0030
 7414SOL    HW233876   1.083   3.958   2.450 -1.0655 -1.6788 -0.1293
 7415SOL     OW33877   4.622   0.797   6.963 -0.2085 -0.6083  0.1321
 7415SOL    HW133878   4.548   0.765   7.016 -1.0331  2.1244  0.6289
 7415SOL    HW233879   4.602   0.888   6.944 -1.2940 -1.1494 -1.3179
 7416SOL     OW33880   1.329   0.926   1.060 -0.3272  0.1620 -0.3051
 7416SOL    HW133881   1.371   0.954   1.141 -0.1601 -1.4118  0.1392
 7416SOL    HW233882   1.308   1.011   1.020 -0.1623  0.9573  1.2914
 7417SOL     OW33883   4.299   3.679   5.676 -0.0435 -0.2799  0.1216
 7417SOL    HW133884   4.280   3.762   5.719  0.4050  0.5360 -1.2373
 7417SOL    HW233885   4.387   3.663   5.711 -0.6088 -0.4680  1.4326
 7418SOL     OW33886   0.170   3.837   3.500  0.3566  0.5261 -0.1599
 7418SOL    HW133887   0.265   3.850   3.501  0.1481  1.9937 -0.0819
 7418SOL    HW233888   0.144   3.870   3.414 -0.9600  0.6998  0.3148
 7419SOL     OW33889   0.872   2.790   2.777  0.3319 -0.1712 -0.1986
 7419SOL    HW133890   0.916   2.809   2.694  2.2040 -0.4841  0.7294
 7419SOL    HW233891   0.936   2.771   2.845  0.8872 -2.2458 -1.2741
 7420SOL     OW33892   0.040   2.754  10.137 -0.3464 -0.0302  0.6700
 7420SOL    HW133893   0.073   2.825  10.191 -0.2968 -0.4262  1.1634
 7420SOL    HW233894   4.682   2.769  10.139 -0.3987 -0.3674  0.7217
 7421SOL     OW33895   0.593   2.401   5.291  0.2860 -0.4020 -0.5945
 7421SOL    HW133896   0.675   2.447   5.275 -0.3824  0.8037 -0.6108
 7421SOL    HW233897   0.533   2.473   5.310 -0.1082 -1.1000  0.7727
 7422SOL     OW33898   0.355   2.150   2.987 -0.6732  0.4900 -0.1687
 7422SOL    HW133899   0.328   2.216   2.923 -1.7504 -0.8335 -1.0870
 7422SOL    HW233900   0.409   2.213   3.035 -1.6658 -1.9019  4.0123
 7423SOL     OW33901   3.393   0.352   5.845 -0.3654  0.2479  0.1237
 7423SOL    HW133902   3.442   0.383   5.922 -0.7613 -0.1254  0.5256
 7423SOL    HW233903   3.450   0.281   5.814  0.6366  0.8567  0.5398
 7424SOL     OW33904   1.956   0.943   0.543 -0.0154 -0.5203  0.3880
 7424SOL    HW133905   1.923   1.002   0.475  0.9067  0.9710  1.2515
 7424SOL    HW233906   1.880   0.950   0.602  0.2365  0.1053  0.6358
 7425SOL     OW33907   1.310   1.381  15.452 -0.2670  0.3809  0.1956
 7425SOL    HW133908   1.345   1.301  15.490 -1.7101 -0.8371 -1.0484
 7425SOL    HW233909   1.386   1.439  15.463 -0.8678  1.0865  0.6633
 7426SOL     OW33910   1.479   2.222  15.372  0.0956  0.4402 -0.1654
 7426SOL    HW133911   1.572   2.241  15.361  0.4921 -0.5746  1.3621
 7426SOL    HW233912   1.446   2.310  15.388  1.5150  1.3143 -2.0596
 7427SOL     OW33913   0.658   0.351   9.388 -0.3111 -0.7298 -0.1338
 7427SOL    HW133914   0.701   0.391   9.464 -0.0399  0.0670 -0.7055
 7427SOL    HW233915   0.646   0.258   9.409  0.3855 -0.5519  1.0450
 7428SOL     OW33916   1.605   3.844   6.361 -0.1413  0.0343 -0.3330
 7428SOL    HW133917   1.637   3.913   6.304  1.6589 -0.9064 -0.4594
 7428SOL    HW233918   1.514   3.839   6.333  0.0370 -1.1462 -0.7007
 7429SOL     OW33919   3.934   0.929   7.313 -1.0366  0.8586  0.2229
 7429SOL    HW133920   3.952   0.978   7.394  1.3867 -0.7744  0.6724
 7429SOL    HW233921   3.902   1.004   7.262  1.2510  0.9052 -1.1745
 7430SOL     OW33922   3.219   2.057   8.741 -0.6219  0.5019  0.0035
 7430SOL    HW133923   3.200   2.129   8.681 -1.7062  0.4098  0.2529
 7430SOL    HW233924   3.156   2.085   8.806 -1.1050  0.2851 -0.3728
 7431SOL     OW33925   3.662   2.119  16.041 -0.4360  0.7014  0.6957
 7431SOL    HW133926   3.670   2.051  16.108 -1.2035 -0.5384 -0.4610
 7431SOL    HW233927   3.740   2.101  15.989 -0.4274 -0.4533  1.1108
 7432SOL     OW33928   2.386   4.102   1.903 -0.2992  0.4640 -0.0799
 7432SOL    HW133929   2.324   4.149   1.959 -1.0451 -0.3361 -0.2494
 7432SOL    HW233930   2.376   4.013   1.937 -0.0048  0.3484 -0.2932
 7433SOL     OW33931   4.418   0.398   2.747 -0.2518 -0.0915 -0.4936
 7433SOL    HW133932   4.474   0.469   2.781  0.8333 -0.6394 -1.1313
 7433SOL    HW233933   4.336   0.448   2.751 -0.0317  0.0923  2.0439
 7434SOL     OW33934   3.753   2.612   3.022 -0.4127  0.0280  0.3824
 7434SOL    HW133935   3.724   2.638   3.109  0.3701  2.8482 -0.1888
 7434SOL    HW233936   3.830   2.561   3.050 -0.1804  0.8479  1.2506
 7435SOL     OW33937   2.589   0.053   7.310 -0.4922 -0.1554 -0.0199
 7435SOL    HW133938   2.651   4.728   7.271  0.7835  0.0038  1.7502
 7435SOL    HW233939   2.561   0.102   7.233 -0.0770 -1.1967 -0.8450
 7436SOL     OW33940   0.485   2.278   5.498 -0.2194 -0.8653  0.1988
 7436SOL    HW133941   0.517   2.313   5.415 -1.2658  0.6461  0.4399
 7436SOL    HW233942   0.391   2.297   5.497  0.4886  2.6204  0.8819
 7437SOL     OW33943   1.075   3.135   7.340 -0.2663  0.0831 -0.1797
 7437SOL    HW133944   0.982   3.139   7.319  0.2602 -0.0148 -2.5700
 7437SOL    HW233945   1.102   3.206   7.283  3.7241  0.0179  1.5948
 7438SOL     OW33946   3.016   4.297   2.120  0.3124 -0.4266 -0.0084
 7438SOL    HW133947   3.020   4.390   2.098  1.1554 -0.4128  0.2206
 7438SOL    HW233948   2.966   4.310   2.201 -2.4780 -1.1207 -1.5995
 7439SOL     OW33949   3.974   4.422   3.831  0.1633 -0.0462  0.2934
 7439SOL    HW133950   4.058   4.413   3.786 -0.1698  1.5578 -0.6836
 7439SOL    HW233951   3.952   4.500   3.780 -2.3521 -0.5595  0.5990
 7440SOL     OW33952   1.178   1.843   9.051  0.2614 -0.1930 -0.0624
 7440SOL    HW133953   1.134   1.767   9.090  1.5601 -1.2419 -0.6684
 7440SOL    HW233954   1.251   1.857   9.111 -1.3518 -0.7078  2.0622
 7441SOL     OW33955   0.611   4.319   5.333 -0.8017 -0.2061  0.2630
 7441SOL    HW133956   0.574   4.283   5.253  1.5037 -1.0283 -0.4458
 7441SOL    HW233957   0.563   4.400   5.345  1.6906  1.3495 -0.2794
 7442SOL     OW33958   1.395   3.946  12.270 -0.2147 -0.1464 -0.3939
 7442SOL    HW133959   1.394   4.035  12.235 -0.2598  0.9036  2.2892
 7442SOL    HW233960   1.488   3.933  12.290 -0.3288 -1.1751 -0.5168
 7443SOL     OW33961   2.653   0.464   6.455  0.1392 -0.6961 -0.0790
 7443SOL    HW133962   2.694   0.397   6.509 -1.1203 -1.1922  0.2692
 7443SOL    HW233963   2.708   0.535   6.488 -2.4218  1.3164 -0.1201
 7444SOL     OW33964   4.528   0.991   2.325  0.5372  0.2668 -0.7495
 7444SOL    HW133965   4.528   1.033   2.239  0.5821 -0.2720 -1.0128
 7444SOL    HW233966   4.503   1.061   2.385 -0.1576 -0.1153 -0.5975
 7445SOL     OW33967   4.037   1.609   6.326  0.2820  0.1218 -0.9170
 7445SOL    HW133968   4.050   1.555   6.404  0.2887  0.4484 -0.6921
 7445SOL    HW233969   4.101   1.561   6.274 -0.5154 -0.7442 -1.1167
 7446SOL     OW33970   3.368   4.683   8.506 -0.0620  0.1901  0.2287
 7446SOL    HW133971   3.384   0.015   8.570  0.3197  0.6501 -0.3670
 7446SOL    HW233972   3.277   4.705   8.485 -0.4390 -1.8804 -0.2390
 7447SOL     OW33973   1.226   0.942   6.314 -0.0839 -0.2851 -0.5893
 7447SOL    HW133974   1.274   0.879   6.259 -0.5925 -1.6061  0.4811
 7447SOL    HW233975   1.148   0.962   6.262  1.0891  0.0993 -2.2026
 7448SOL     OW33976   0.759   1.733   2.794  0.2934  0.5601  0.4240
 7448SOL    HW133977   0.675   1.769   2.768 -0.1107 -0.1732  0.7009
 7448SOL    HW233978   0.740   1.639   2.784  2.7568  0.2130 -1.1640
 7449SOL     OW33979   1.458   4.459  17.685 -0.0067 -0.4266  0.0530
 7449SOL    HW133980   1.531   4.514  17.715  0.0004 -0.4735  0.1222
 7449SOL    HW233981   1.388   4.524  17.680 -0.4851 -0.9440  0.0494
 7450SOL     OW33982   1.562   3.449   2.027 -0.1424  0.1003  0.0569
 7450SOL    HW133983   1.536   3.398   2.104  1.0065 -3.2928 -1.8328
 7450SOL    HW233984   1.592   3.533   2.063 -0.1633 -0.1466  0.6548
 7451SOL     OW33985   1.499   1.946   1.020  0.5848 -0.2004  0.5203
 7451SOL    HW133986   1.434   2.008   1.054 -0.6098 -0.6140 -0.9972
 7451SOL    HW233987   1.573   2.006   1.022  0.2314  0.2802 -1.3986
 7452SOL     OW33988   3.435   3.251  10.747 -0.0996  0.1110  0.5402
 7452SOL    HW133989   3.503   3.220  10.688 -0.0723 -0.9539  1.1216
 7452SOL    HW233990   3.357   3.195  10.736 -0.3708  0.4092  0.9322
 7453SOL     OW33991   1.190   2.743  13.923  0.5927 -1.0207  0.1664
 7453SOL    HW133992   1.119   2.683  13.946 -0.4836  0.4985  0.8789
 7453SOL    HW233993   1.175   2.825  13.971 -0.0905 -1.5920  0.9228
 7454SOL     OW33994   0.535   3.506   6.864  0.3063 -0.4526 -0.3293
 7454SOL    HW133995   0.444   3.506   6.896  0.7241 -1.4541  0.8833
 7454SOL    HW233996   0.573   3.508   6.952 -2.9491 -0.4370  1.0976
 7455SOL     OW33997   4.459   0.847   6.574 -0.2751  0.2196  0.1525
 7455SOL    HW133998   4.451   0.772   6.633 -0.4021  1.7592  2.0566
 7455SOL    HW233999   4.473   0.917   6.637  1.5116 -1.6176  1.7853
 7456SOL     OW34000   4.247   2.262   7.381  0.0376 -0.3286 -0.3281
 7456SOL    HW134001   4.157   2.290   7.369  0.1306 -0.7014 -1.9115
 7456SOL    HW234002   4.252   2.169   7.401 -0.8098 -0.4971 -0.9137
 7457SOL     OW34003   2.443   3.785  11.770  0.2560  0.0753  0.2332
 7457SOL    HW134004   2.441   3.880  11.760  4.3644  0.2671  1.2308
 7457SOL    HW234005   2.453   3.776  11.865  3.2459  0.8255  0.0079
 7458SOL     OW34006   0.813   0.452   9.117  0.6144  0.0396  0.2064
 7458SOL    HW134007   0.896   0.412   9.141  0.6225  1.0969  1.9039
 7458SOL    HW234008   0.764   0.436   9.198 -1.3384 -0.2605 -1.0269
 7459SOL     OW34009   2.075   1.732  17.573 -0.4236  0.3245  0.5511
 7459SOL    HW134010   2.080   1.800  17.506 -0.5288 -0.7821 -0.5926
 7459SOL    HW234011   2.159   1.724  17.618 -0.4963  0.9179  0.7858
 7460SOL     OW34012   0.894   4.303  16.170  0.2542  0.1160 -0.0840
 7460SOL    HW134013   0.811   4.315  16.124 -0.3806  0.4287  1.1351
 7460SOL    HW234014   0.893   4.236  16.238  0.1431 -1.4409 -1.5972
 7461SOL     OW34015   2.350   3.234   4.309  0.1296  1.2502  0.2988
 7461SOL    HW134016   2.302   3.160   4.270  1.4535  0.4026  0.2716
 7461SOL    HW234017   2.323   3.219   4.400  6.4477  0.5274  2.0183
 7462SOL     OW34018   4.691   3.566   6.349  0.4821 -0.3952 -0.7398
 7462SOL    HW134019   4.717   3.647   6.305 -1.5632 -0.3462 -1.8521
 7462SOL    HW234020   4.664   3.602   6.434 -2.0238 -0.4667 -1.5002
 7463SOL     OW34021   2.550   4.478   5.985  0.3550 -0.0156 -0.3661
 7463SOL    HW134022   2.508   4.407   6.034  0.4638  2.2662  3.0722
 7463SOL    HW234023   2.509   4.461   5.901  3.3602 -2.3174 -1.3572
 7464SOL     OW34024   2.302   2.340   5.552 -0.3522 -0.5302 -0.3310
 7464SOL    HW134025   2.384   2.386   5.537  0.0716 -1.6976 -1.5443
 7464SOL    HW234026   2.264   2.344   5.464 -1.3875 -4.0991 -0.0345
 7465SOL     OW34027   1.363   3.957   9.590 -0.0958  0.1339 -0.3961
 7465SOL    HW134028   1.280   3.925   9.556  0.6738 -0.4472 -1.7376
 7465SOL    HW234029   1.346   3.919   9.676 -0.8225 -2.9068 -1.8867
 7466SOL     OW34030   3.502   4.735   0.296 -0.0005 -0.4110  0.2349
 7466SOL    HW134031   3.423   4.694   0.328 -0.3334 -2.0756 -2.7134
 7466SOL    HW234032   3.563   4.662   0.283 -0.2067 -0.2040 -1.9786
 7467SOL     OW34033   1.302   4.504   2.009  0.2814  0.2149 -0.2240
 7467SOL    HW134034   1.228   4.550   1.969  0.1778  0.0865 -0.1780
 7467SOL    HW234035   1.379   4.556   1.988  1.4785 -1.5699 -0.1759
 7468SOL     OW34036   3.529   4.104   1.024  0.1090  0.1389 -0.0896
 7468SOL    HW134037   3.552   4.136   1.111  1.5929 -0.8450 -0.1189
 7468SOL    HW234038   3.613   4.095   0.979  0.2179 -0.7303  0.2887
 7469SOL     OW34039   1.884   3.734   4.605  0.2494 -0.7516  0.4628
 7469SOL    HW134040   1.870   3.658   4.548 -1.1813 -0.8584  0.9397
 7469SOL    HW234041   1.812   3.795   4.586  2.7645  0.2729 -5.4963
 7470SOL     OW34042   4.220   1.728   6.591  0.1794 -0.0013 -0.6620
 7470SOL    HW134043   4.304   1.772   6.602  1.2333 -2.3344  0.4828
 7470SOL    HW234044   4.180   1.799   6.541  2.1338  1.6085  0.0696
 7471SOL     OW34045   0.008   1.022   0.116  0.1051 -0.0138  0.4545
 7471SOL    HW134046   4.689   0.958   0.072 -0.9868  0.6624  0.8619
 7471SOL    HW234047   0.022   0.972   0.197 -2.4993 -1.8106 -0.2093
 7472SOL     OW34048   3.289   1.079  12.629  0.4276 -0.0697  0.5563
 7472SOL    HW134049   3.326   1.167  12.622  2.5133 -1.0151 -0.4902
 7472SOL    HW234050   3.218   1.072  12.565  0.4828  1.5041  0.3106
 7473SOL     OW34051   1.067   4.274  17.233  0.4498  0.8938  0.0299
 7473SOL    HW134052   1.029   4.190  17.209  1.6392  0.6314 -0.9177
 7473SOL    HW234053   1.144   4.270  17.177 -0.0990 -1.7305 -0.5273
 7474SOL     OW34054   4.237   0.558   9.834  0.2167 -0.5823  0.2163
 7474SOL    HW134055   4.266   0.607   9.757 -2.2946  0.2350 -0.2218
 7474SOL    HW234056   4.187   0.632   9.868 -1.1181 -1.1807 -0.4385
 7475SOL     OW34057   0.896   1.151   2.604  0.1772  0.7112  0.6208
 7475SOL    HW134058   0.866   1.091   2.673 -0.1683  0.3357  0.1383
 7475SOL    HW234059   0.942   1.094   2.542 -0.9764  0.1921  0.2520
 7476SOL     OW34060   2.254   2.874   3.064  0.4958  0.4287 -0.4302
 7476SOL    HW134061   2.212   2.950   3.023  1.8941  2.0869  1.2271
 7476SOL    HW234062   2.266   2.904   3.154 -0.8401 -1.8487  0.5079
 7477SOL     OW34063   3.314   2.849   2.665 -0.1927  0.3634  0.0784
 7477SOL    HW134064   3.250   2.835   2.596 -0.7428 -0.6879  0.7974
 7477SOL    HW234065   3.267   2.901   2.730 -0.8332  0.1182 -0.1891
 7478SOL     OW34066   4.180   2.520  13.287  0.2697  0.1283  0.1707
 7478SOL    HW134067   4.199   2.427  13.275  1.0023  0.2983  0.0518
 7478SOL    HW234068   4.266   2.562  13.281  0.3888 -0.4715 -2.0221
 7479SOL     OW34069   2.706   0.246   0.154 -0.1976  0.0000 -0.3685
 7479SOL    HW134070   2.707   0.179   0.222 -1.4938 -0.9126 -1.2556
 7479SOL    HW234071   2.633   0.305   0.172 -0.0478 -0.1600  0.7414
 7480SOL     OW34072   1.835   4.286   3.323 -0.1889 -0.1566 -0.1719
 7480SOL    HW134073   1.790   4.284   3.408  0.5655 -1.1608  0.2108
 7480SOL    HW234074   1.917   4.317   3.362 -0.7611 -1.0727  1.7638
 7481SOL     OW34075   4.442   4.469   5.664  0.0521 -0.1517  0.4368
 7481SOL    HW134076   4.508   4.538   5.654 -1.7736  1.3391 -1.1780
 7481SOL    HW234077   4.370   4.495   5.607  1.8560  3.1781 -0.2949
 7482SOL     OW34078   1.963   4.728   0.389  0.4767  0.2101 -0.6129
 7482SOL    HW134079   1.975   4.674   0.311  0.3960  0.0561 -0.5183
 7482SOL    HW234080   1.908   4.676   0.447  0.5653  0.3622 -0.3921
 7483SOL     OW34081   3.547   2.002   8.222  0.0464 -0.4481  0.1032
 7483SOL    HW134082   3.492   1.937   8.264  0.1982  0.9476  2.4367
 7483SOL    HW234083   3.542   2.072   8.287  0.6113 -1.4500  1.2119
 7484SOL     OW34084   1.050   0.380  13.024  0.1382  0.4836 -0.0029
 7484SOL    HW134085   1.091   0.448  12.970 -0.3062  1.3291  0.7194
 7484SOL    HW234086   0.988   0.339  12.963  0.7523 -1.8242  0.9539
 7485SOL     OW34087   3.192   3.795  13.228 -0.4298 -0.4875 -0.1939
 7485SOL    HW134088   3.280   3.810  13.193 -0.2277  0.8139  0.8658
 7485SOL    HW234089   3.142   3.828  13.154 -1.2354 -0.2054  0.4761
 7486SOL     OW34090   2.214   3.664  15.290  0.0850  0.1126  0.2443
 7486SOL    HW134091   2.149   3.665  15.360 -0.0634 -2.2293  0.1633
 7486SOL    HW234092   2.205   3.749  15.248  0.5362 -0.4553 -1.0221
 7487SOL     OW34093   1.146   2.758   4.830 -0.4304 -0.5381 -0.3165
 7487SOL    HW134094   1.166   2.819   4.759 -0.5791  0.6833  0.6908
 7487SOL    HW234095   1.182   2.680   4.788  2.3900  1.0556 -0.8483
 7488SOL     OW34096   1.952   3.676  13.594  0.2625  0.4016  0.4475
 7488SOL    HW134097   1.964   3.588  13.559 -1.8486  0.0421  0.6261
 7488SOL    HW234098   1.987   3.664  13.683 -0.7374  0.1873  0.8064
 7489SOL     OW34099   0.286   4.484   8.028 -0.0730 -0.3026  0.6795
 7489SOL    HW134100   0.199   4.468   7.992 -0.0503 -3.1448  1.8930
 7489SOL    HW234101   0.323   4.396   8.030  2.5432  0.8006  0.0297
 7490SOL     OW34102   4.000   3.084   7.969  0.2592  0.1805  0.0316
 7490SOL    HW134103   4.016   3.157   7.909 -0.5105  1.3194  1.2011
 7490SOL    HW234104   3.908   3.065   7.952  0.1057 -0.3380  1.4221
 7491SOL     OW34105   0.730   4.350   2.009 -0.5122  0.0839 -0.6366
 7491SOL    HW134106   0.825   4.340   2.005 -0.4830 -1.3801  4.0314
 7491SOL    HW234107   0.693   4.271   1.969 -0.4040  0.1987 -0.9715
 7492SOL     OW34108   2.353   1.400   3.924  0.5004  0.8988 -0.0736
 7492SOL    HW134109   2.398   1.480   3.899  0.3919  0.7609 -0.7401
 7492SOL    HW234110   2.396   1.344   3.860  0.3392 -0.0239  0.6266
 7493SOL     OW34111   0.533   2.683   3.753  0.4153 -0.5044  0.1828
 7493SOL    HW134112   0.615   2.635   3.739  0.5966 -0.4787  1.1496
 7493SOL    HW234113   0.485   2.677   3.671  2.4347 -1.3651 -0.9524
 7494SOL     OW34114   4.727   3.678   2.505 -0.2230  0.1590 -0.3357
 7494SOL    HW134115   4.669   3.604   2.490 -0.0795 -0.5244  2.4150
 7494SOL    HW234116   4.678   3.747   2.461 -0.4157 -1.7914 -3.1802
 7495SOL     OW34117   4.389   0.462   3.945 -0.0342 -0.2919 -0.1010
 7495SOL    HW134118   4.378   0.377   3.903  0.3678  0.3651 -1.5376
 7495SOL    HW234119   4.484   0.459   3.945 -0.0106 -0.0290  1.5400
 7496SOL     OW34120   2.625   0.891   8.262  0.2556 -0.3012  0.2844
 7496SOL    HW134121   2.701   0.839   8.288  1.7037  1.0053 -1.3910
 7496SOL    HW234122   2.594   0.845   8.184  1.4096  0.3461 -0.5416
 7497SOL     OW34123   3.438   2.429   7.567  0.1598 -0.1802  0.1428
 7497SOL    HW134124   3.531   2.419   7.586  0.2715 -0.5571 -0.6212
 7497SOL    HW234125   3.403   2.390   7.647 -1.3096  0.8149 -0.0003
 7498SOL     OW34126   1.002   4.302   0.455  0.0575  0.2226  0.2548
 7498SOL    HW134127   0.911   4.274   0.461 -0.0972  0.2759 -1.6802
 7498SOL    HW234128   1.018   4.310   0.360  0.9031 -2.6030  0.1742
 7499SOL     OW34129   2.787   3.860   3.762 -0.3579 -0.3044  0.0915
 7499SOL    HW134130   2.764   3.777   3.719  0.3031 -1.6821  2.3935
 7499SOL    HW234131   2.756   3.924   3.697  1.1385  0.4590  0.1279
 7500SOL     OW34132   0.072   4.476  10.879  0.6790 -0.1195  0.6492
 7500SOL    HW134133   0.113   4.500  10.796 -1.4678  0.2324 -0.3275
 7500SOL    HW234134   0.024   4.397  10.855  1.0689 -1.2718  3.5835
 7501SOL     OW34135   2.876   4.344   0.274  0.2148 -0.6573 -0.5365
 7501SOL    HW134136   2.867   4.372   0.183  0.0420  1.3871  0.0924
 7501SOL    HW234137   2.860   4.250   0.266  0.5197 -0.7702  0.2093
 7502SOL     OW34138   0.387   2.510   8.162 -0.0247 -0.2001  0.2514
 7502SOL    HW134139   0.321   2.573   8.191  1.0610  0.7007  0.7501
 7502SOL    HW234140   0.462   2.567   8.147 -0.6301  0.3226 -0.8311
 7503SOL     OW34141   4.087   3.233  12.027 -0.4284 -0.0784  0.2822
 7503SOL    HW134142   4.032   3.161  11.994 -1.1441  0.0908  1.0869
 7503SOL    HW234143   4.169   3.186  12.040 -1.2304 -1.6686 -0.4122
 7504SOL     OW34144   4.680   3.950   4.501  0.5839  0.1504  0.3510
 7504SOL    HW134145   4.670   3.964   4.595 -0.0758  1.0285  0.1566
 7504SOL    HW234146   4.591   3.956   4.466  0.1236  0.2489  1.5492
 7505SOL     OW34147   3.974   2.428   4.819 -0.8299 -0.5358 -0.6447
 7505SOL    HW134148   3.890   2.464   4.848 -0.6678 -0.5169 -0.1994
 7505SOL    HW234149   3.987   2.471   4.735 -0.2964  0.9565  0.2027
 7506SOL     OW34150   1.861   2.526   6.024 -0.0093 -0.4443  0.2418
 7506SOL    HW134151   1.779   2.532   5.974 -0.3076 -0.1354  0.7741
 7506SOL    HW234152   1.856   2.436   6.056  0.0657 -1.0198 -1.3724
 7507SOL     OW34153   0.566   3.290  13.003 -0.0283  0.2861 -0.5044
 7507SOL    HW134154   0.502   3.237  13.051 -0.5019  0.6360 -0.7463
 7507SOL    HW234155   0.560   3.249  12.916 -0.5488  1.0549 -0.8310
 7508SOL     OW34156   0.344   1.507   7.210 -0.0281  0.0006 -0.1364
 7508SOL    HW134157   0.311   1.578   7.266 -2.2410 -1.3434  0.2806
 7508SOL    HW234158   0.403   1.551   7.150 -0.6333  2.1790  0.8343
 7509SOL     OW34159   0.426   0.989   5.314  0.3082  0.2376 -0.2144
 7509SOL    HW134160   0.507   1.038   5.326  0.5081  0.0067 -0.6219
 7509SOL    HW234161   0.437   0.924   5.384  2.0957 -0.6272 -1.2797
 7510SOL     OW34162   3.549   3.992   4.936  0.0352 -0.0118  0.1812
 7510SOL    HW134163   3.502   3.920   4.977  1.5110 -1.2470 -0.3275
 7510SOL    HW234164   3.537   4.061   5.001  0.3189  1.8061 -1.7037
 7511SOL     OW34165   3.329   2.902   7.278 -0.1682  0.0916  0.7909
 7511SOL    HW134166   3.253   2.930   7.329 -1.5589  1.0115 -1.7541
 7511SOL    HW234167   3.369   2.829   7.324 -1.1991 -1.3525 -0.5687
 7512SOL     OW34168   3.709   3.341   8.369  0.1232  0.7783 -0.2273
 7512SOL    HW134169   3.685   3.286   8.444 -1.2922  0.7122 -0.7418
 7512SOL    HW234170   3.793   3.379   8.396  1.9858 -2.9305 -0.6908
 7513SOL     OW34171   4.354   3.159   2.766 -0.3829 -0.1814 -0.7060
 7513SOL    HW134172   4.346   3.141   2.672 -1.8729 -0.0236 -0.6128
 7513SOL    HW234173   4.272   3.196   2.797  0.4837  1.0392  0.1119
 7514SOL     OW34174   3.519   2.935  10.986 -0.9229 -0.2457 -0.3364
 7514SOL    HW134175   3.454   2.963  11.051  2.5298  0.7511  2.6572
 7514SOL    HW234176   3.463   2.882  10.929  0.7563 -0.0217 -2.1920
 7515SOL     OW34177   0.784   4.706  10.280 -0.4041 -0.0935  0.2241
 7515SOL    HW134178   0.717   0.032  10.255 -2.4137 -2.5858 -0.7247
 7515SOL    HW234179   0.862   0.024  10.274 -2.3552  2.7484  0.8012
 7516SOL     OW34180   1.917   1.951   1.409  0.4920 -0.5404  0.4380
 7516SOL    HW134181   1.900   1.896   1.486 -2.0362 -0.3050  0.0387
 7516SOL    HW234182   1.837   1.939   1.359  1.0837 -2.1210 -0.1066
 7517SOL     OW34183   2.644   2.084  14.630 -0.0714 -0.2091  0.2836
 7517SOL    HW134184   2.652   2.171  14.667 -0.8143 -0.1997  0.4111
 7517SOL    HW234185   2.685   2.115  14.549  1.1525  2.8704  2.1013
 7518SOL     OW34186   1.046   2.123  12.260  0.5440 -0.1680  0.0397
 7518SOL    HW134187   1.104   2.128  12.184 -0.3170  0.8081 -0.5677
 7518SOL    HW234188   1.112   2.125  12.329  0.1052 -0.7638  0.4730
 7519SOL     OW34189   3.181   2.060   8.412 -0.0473 -0.6181  0.3378
 7519SOL    HW134190   3.276   2.058   8.421 -0.1537 -0.4416  1.4379
 7519SOL    HW234191   3.151   2.135   8.464  1.6897 -0.1691  0.6670
 7520SOL     OW34192   0.883   0.559   4.026  0.6441  0.2271  0.3405
 7520SOL    HW134193   0.828   0.608   3.965 -0.4266  1.3344  2.2079
 7520SOL    HW234194   0.900   0.483   3.970 -2.5269  0.3781 -0.8667
 7521SOL     OW34195   0.301   1.375   3.443  0.5222 -0.0832  0.1512
 7521SOL    HW134196   0.263   1.349   3.359  1.3332  1.2696 -0.6449
 7521SOL    HW234197   0.223   1.409   3.487  0.3190  0.0303 -0.2961
 7522SOL     OW34198   1.722   2.148   1.004  0.1187  0.2081  0.0999
 7522SOL    HW134199   1.786   2.082   1.030 -1.7475 -1.7161 -0.1869
 7522SOL    HW234200   1.780   2.198   0.947 -0.1923 -2.3318 -2.4460
 7523SOL     OW34201   0.368   1.887   4.638 -0.1354  0.2824 -0.2233
 7523SOL    HW134202   0.396   1.860   4.550  4.2116 -1.0469  1.5212
 7523SOL    HW234203   0.451   1.916   4.676 -0.6519 -1.0256  1.9164
 7524SOL     OW34204   4.670   4.459  16.471 -0.2130  0.0079  0.3879
 7524SOL    HW134205   4.675   4.554  16.481 -2.7378  0.4280 -2.3536
 7524SOL    HW234206   4.636   4.454  16.381  1.3578  4.1114 -0.4593
 7525SOL     OW34207   1.637   3.919   3.574  0.6341 -0.0365 -0.4937
 7525SOL    HW134208   1.595   3.835   3.556 -0.8340  0.0706  2.4372
 7525SOL    HW234209   1.718   3.882   3.538  1.5863  0.5784  1.0137
 7526SOL     OW34210   2.353   2.122   8.422 -0.0995  0.5163 -0.5431
 7526SOL    HW134211   2.295   2.052   8.454  1.1068 -1.1094 -1.9394
 7526SOL    HW234212   2.290   2.191   8.402 -1.4468 -0.6881 -0.4603
 7527SOL     OW34213   0.910   4.484   0.945  0.1039 -0.1257  0.0326
 7527SOL    HW134214   0.929   4.561   0.891 -2.6495 -1.3121 -2.6227
 7527SOL    HW234215   0.940   4.413   0.889  1.0611 -0.4371  0.9383
 7528SOL     OW34216   3.517   0.796   5.432  0.3305  0.4312 -0.0534
 7528SOL    HW134217   3.510   0.801   5.527 -0.0335  0.7586 -0.0947
 7528SOL    HW234218   3.555   0.881   5.410  1.4905  0.3619  1.7657
 7529SOL     OW34219   4.048   2.110  15.167 -0.2316  0.0760 -1.2469
 7529SOL    HW134220   4.057   2.146  15.079  0.1329 -1.9314 -2.0479
 7529SOL    HW234221   4.127   2.131  15.216 -0.2968  0.7988 -1.4566
 7530SOL     OW34222   4.377   2.233  17.668  0.5575  1.0699  0.0043
 7530SOL    HW134223   4.287   2.209  17.692  0.8947 -0.0582  0.1483
 7530SOL    HW234224   4.415   2.166  17.725  1.2930  0.2173 -1.4801
 7531SOL     OW34225   1.058   1.355   1.378  0.3355  0.5677 -0.1658
 7531SOL    HW134226   1.098   1.442   1.382  1.1704  0.2371 -1.3306
 7531SOL    HW234227   0.970   1.373   1.411  0.1105  0.6462 -0.8093
 7532SOL     OW34228   2.678   1.372   6.321  0.4616 -0.1180 -0.2621
 7532SOL    HW134229   2.635   1.416   6.394 -0.8713 -0.7822 -0.6493
 7532SOL    HW234230   2.724   1.301   6.366 -0.3342  0.4381  1.4420
 7533SOL     OW34231   4.270   3.879   5.866 -0.2812  0.3272  0.5042
 7533SOL    HW134232   4.213   3.853   5.938 -0.3775 -1.2327 -0.1273
 7533SOL    HW234233   4.353   3.880   5.915 -0.0911  0.9319  0.1611
 7534SOL     OW34234   3.297   4.422   2.187  0.6523  0.0952 -0.1591
 7534SOL    HW134235   3.296   4.326   2.185  0.4917  0.2043 -4.7224
 7534SOL    HW234236   3.360   4.433   2.258  0.0369  1.3375  0.1797
 7535SOL     OW34237   0.478   1.339   8.382  0.1102  0.1596  0.1960
 7535SOL    HW134238   0.532   1.381   8.315 -0.7044 -0.6730 -0.9827
 7535SOL    HW234239   0.519   1.376   8.460 -0.0991 -1.7464  1.1927
 7536SOL     OW34240   3.214   2.802  15.661  0.5776 -0.2354  0.1239
 7536SOL    HW134241   3.203   2.897  15.663 -1.0019 -0.4018 -0.7100
 7536SOL    HW234242   3.182   2.770  15.577  0.6456  0.8220 -0.3049
 7537SOL     OW34243   2.317   1.719  17.710 -0.0401  0.1897  0.0677
 7537SOL    HW134244   2.331   1.803   0.008  0.7694 -0.1064  0.3790
 7537SOL    HW234245   2.371   1.659   0.015  1.0779  1.1677  0.0327
 7538SOL     OW34246   1.139   2.758   4.383 -0.3875  0.3320  0.8028
 7538SOL    HW134247   1.099   2.684   4.338  1.0382  1.0054 -1.5373
 7538SOL    HW234248   1.062   2.805   4.414  1.1405  1.9316  2.1549
 7539SOL     OW34249   1.093   3.717   5.598 -0.2776 -0.0837 -0.2395
 7539SOL    HW134250   1.163   3.776   5.568  1.2573 -1.4973  0.5894
 7539SOL    HW234251   1.141   3.638   5.576 -0.3224 -0.2825  0.3807
 7540SOL     OW34252   1.098   3.578   1.053  0.1296  0.8450 -0.3317
 7540SOL    HW134253   1.005   3.575   1.031  0.1113 -1.6108  0.0827
 7540SOL    HW234254   1.132   3.559   0.966  3.2027 -0.3234  1.1251
 7541SOL     OW34255   2.401   4.191  13.940  0.6958 -0.0355  0.0778
 7541SOL    HW134256   2.378   4.275  13.899 -0.9959 -0.6789 -0.3076
 7541SOL    HW234257   2.484   4.220  13.978 -0.0659  3.1275 -0.6847
 7542SOL     OW34258   3.418   1.449  12.332 -0.2472 -0.1659 -0.1198
 7542SOL    HW134259   3.323   1.441  12.333 -0.4074  1.7173 -0.9161
 7542SOL    HW234260   3.441   1.380  12.394  0.0338 -0.0982 -0.1485
 7543SOL     OW34261   3.370   2.829   0.385  0.3543  0.4672 -0.6601
 7543SOL    HW134262   3.338   2.763   0.323 -0.1007  0.4315 -0.3833
 7543SOL    HW234263   3.295   2.888   0.387  0.3022  0.3445  0.7610
 7544SOL     OW34264   0.486   2.424   8.738 -0.0473 -0.1994  0.0491
 7544SOL    HW134265   0.510   2.455   8.651 -3.0580  1.1436 -0.3132
 7544SOL    HW234266   0.402   2.469   8.742  0.0511 -0.0566  0.5009
 7545SOL     OW34267   4.452   2.492   4.201 -0.4167  0.4567  0.5773
 7545SOL    HW134268   4.414   2.415   4.243 -1.8957 -0.8438 -3.2162
 7545SOL    HW234269   4.498   2.452   4.127  1.1086  1.0760  1.1844
 7546SOL     OW34270   4.514   2.313   8.804  0.4612 -0.0394 -0.2104
 7546SOL    HW134271   4.545   2.304   8.894 -0.3371 -0.6732 -0.0005
 7546SOL    HW234272   4.591   2.265   8.772  0.0363 -1.2252  0.5360
 7547SOL     OW34273   0.408   0.808   3.885 -0.0310  0.7777 -0.0112
 7547SOL    HW134274   0.347   0.808   3.958 -0.2690  1.2637 -0.2134
 7547SOL    HW234275   0.400   0.721   3.846  3.6856  0.5855 -0.3357
 7548SOL     OW34276   2.384   1.808   0.312  0.0813  0.0534 -0.3533
 7548SOL    HW134277   2.362   1.866   0.385 -1.2876 -2.0724  0.9259
 7548SOL    HW234278   2.392   1.721   0.352  1.2926  0.3710  0.1162
 7549SOL     OW34279   3.965   3.942   9.565 -0.0716  0.0712  0.1155
 7549SOL    HW134280   3.935   3.957   9.476  0.4164  1.0144  0.1186
 7549SOL    HW234281   3.888   3.974   9.613  0.9325  2.1714  0.2867
 7550SOL     OW34282   3.955   0.220   7.925 -0.1200 -0.5493  0.2356
 7550SOL    HW134283   4.017   0.177   7.985  1.1727 -2.2919 -2.3311
 7550SOL    HW234284   3.986   0.310   7.918 -1.0324 -0.3191 -0.7644
 7551SOL     OW34285   3.673   4.665  12.683 -0.0877  0.4148 -0.4003
 7551SOL    HW134286   3.647   4.580  12.647  0.6632  0.5842 -1.3393
 7551SOL    HW234287   3.657   4.636  12.773 -0.3913 -1.1051 -0.9427
 7552SOL     OW34288   3.777   1.640   9.900 -0.0628  0.2669  0.5113
 7552SOL    HW134289   3.697   1.673   9.941 -0.5233  0.1475 -0.3043
 7552SOL    HW234290   3.786   1.547   9.923 -0.2424  0.8929  3.1123
 7553SOL     OW34291   3.683   1.690   6.393 -0.4909 -0.1671 -0.5727
 7553SOL    HW134292   3.704   1.654   6.307  0.1435  0.3348 -0.6252
 7553SOL    HW234293   3.589   1.701   6.384 -0.6655 -0.8334  0.4987
 7554SOL     OW34294   3.656   3.700   8.245 -0.0343  1.0553 -0.5277
 7554SOL    HW134295   3.590   3.631   8.255  1.8286 -0.4794  1.1434
 7554SOL    HW234296   3.644   3.721   8.153 -0.1938  0.9488 -0.5312
 7555SOL     OW34297   1.342   2.343   3.094  0.3613 -0.2592  0.2818
 7555SOL    HW134298   1.307   2.257   3.068  2.4193 -0.8029 -0.7126
 7555SOL    HW234299   1.430   2.317   3.122  0.6572  1.8805  1.3248
 7556SOL     OW34300   1.297   0.443   8.632  0.3194 -0.3870 -0.2540
 7556SOL    HW134301   1.321   0.536   8.629 -1.5311  0.0748 -0.5762
 7556SOL    HW234302   1.203   0.459   8.644  0.4742  1.2137 -1.1530
 7557SOL     OW34303   3.081   0.474   1.668  0.0310 -0.4276  0.0127
 7557SOL    HW134304   3.008   0.431   1.711  0.0423  1.9095  2.4270
 7557SOL    HW234305   3.155   0.456   1.726 -0.2815  0.3333  0.6536
 7558SOL     OW34306   2.023   3.990   7.101 -0.1399  0.8345 -0.4256
 7558SOL    HW134307   2.031   3.953   7.013 -1.1787  3.6337 -1.6888
 7558SOL    HW234308   2.094   3.949   7.149 -1.9264  0.0365  1.5057
 7559SOL     OW34309   3.411   1.917  12.307  0.0067  0.1930  0.6489
 7559SOL    HW134310   3.453   1.847  12.357 -2.5451  0.5267  3.3118
 7559SOL    HW234311   3.358   1.968  12.369  1.2773  1.4597  0.6934
 7560SOL     OW34312   0.824   1.223   9.365  0.1363  0.1447 -0.3379
 7560SOL    HW134313   0.831   1.266   9.280  0.5377  2.0578  0.6543
 7560SOL    HW234314   0.813   1.293   9.430 -0.5050  0.0763 -0.3715
 7561SOL     OW34315   3.727   0.407  16.259 -0.0034 -0.3480  0.7467
 7561SOL    HW134316   3.749   0.320  16.225  2.1143  0.9679 -1.2904
 7561SOL    HW234317   3.803   0.461  16.238 -0.9843  0.8435  0.2839
 7562SOL     OW34318   4.132   3.477   5.669  0.0483  0.5185 -0.2472
 7562SOL    HW134319   4.062   3.529   5.707  0.6472  0.4819  0.9158
 7562SOL    HW234320   4.208   3.536   5.675 -0.3734  1.1977 -1.6515
 7563SOL     OW34321   0.176   2.896   9.275 -0.3294  0.4102  0.2642
 7563SOL    HW134322   0.207   2.967   9.331 -2.4290  3.2590 -2.1612
 7563SOL    HW234323   0.163   2.831   9.345 -1.0245  0.1514 -0.1028
 7564SOL     OW34324   1.267   1.103   7.653 -0.3598 -0.2036 -0.2347
 7564SOL    HW134325   1.199   1.133   7.593 -0.9873  1.1728  1.1760
 7564SOL    HW234326   1.282   1.011   7.630 -1.1480 -0.8084  1.6136
 7565SOL     OW34327   2.129   1.762   4.552 -0.7184  0.2579  0.1556
 7565SOL    HW134328   2.047   1.714   4.561 -0.2571 -0.6836 -0.7843
 7565SOL    HW234329   2.179   1.705   4.494  0.4808  1.7942 -0.3430
 7566SOL     OW34330   3.694   0.005   5.346  0.0529  0.0950 -0.8312
 7566SOL    HW134331   3.681   4.651   5.318  2.0330 -0.1315 -1.0016
 7566SOL    HW234332   3.776   0.028   5.302  1.3659 -0.5549  1.2976
 7567SOL     OW34333   1.060   1.248  13.558 -0.2767  0.1611  0.0356
 7567SOL    HW134334   1.124   1.316  13.536 -0.2377  0.0938 -0.0542
 7567SOL    HW234335   1.058   1.199  13.476 -0.3888 -0.2589  0.2874
 7568SOL     OW34336   2.029   4.149  12.616  0.6032  0.3512  0.7698
 7568SOL    HW134337   2.089   4.215  12.652  0.3961  0.2306  1.3284
 7568SOL    HW234338   2.083   4.073  12.596 -1.1449 -1.3565  2.6130
 7569SOL     OW34339   2.923   2.930  13.215  0.2206 -0.5492 -0.3852
 7569SOL    HW134340   2.833   2.920  13.247  0.2140  2.6894  0.5977
 7569SOL    HW234341   2.955   2.839  13.215  0.7244 -0.3717 -0.1791
 7570SOL     OW34342   2.116   0.855   7.508  0.4639 -0.3321  0.3244
 7570SOL    HW134343   2.132   0.761   7.514 -1.6966 -0.7518 -0.4462
 7570SOL    HW234344   2.191   0.875   7.452  0.4196 -0.5109  0.2018
 7571SOL     OW34345   0.726   3.771  10.347  0.7637 -0.2145  0.5075
 7571SOL    HW134346   0.769   3.838  10.400  0.7812 -1.4007  1.9780
 7571SOL    HW234347   0.722   3.702  10.413  0.2100  0.1171  0.8217
 7572SOL     OW34348   2.628   0.283  11.595  0.3813  0.0886  1.0310
 7572SOL    HW134349   2.607   0.193  11.572 -2.1995  0.7252  0.8740
 7572SOL    HW234350   2.719   0.277  11.626  0.3673  1.7335  1.3988
 7573SOL     OW34351   3.503   3.523   7.839  0.2713 -0.5045  0.0794
 7573SOL    HW134352   3.472   3.478   7.760 -0.5852 -0.2385  0.2610
 7573SOL    HW234353   3.431   3.501   7.898 -0.6023  0.8248 -0.4883
 7574SOL     OW34354   1.252   3.835   5.432 -0.1310  0.4686  0.7697
 7574SOL    HW134355   1.344   3.808   5.424 -0.3777 -0.4564  1.0681
 7574SOL    HW234356   1.229   3.884   5.353 -0.9449 -2.4102 -0.7930
 7575SOL     OW34357   2.791   0.716   8.375 -0.5589 -0.6879  0.3314
 7575SOL    HW134358   2.846   0.769   8.433 -0.2763 -1.2299  0.5527
 7575SOL    HW234359   2.859   0.675   8.322  1.9034  0.0771  2.9554
 7576SOL     OW34360   4.226   3.295   1.284  0.4650  0.4310 -0.5217
 7576SOL    HW134361   4.281   3.218   1.300 -0.3211 -0.0099  0.0672
 7576SOL    HW234362   4.154   3.280   1.345  1.7764 -0.5882  0.8026
 7577SOL     OW34363   3.455   3.197   5.617  0.6970  0.3703 -0.3252
 7577SOL    HW134364   3.523   3.240   5.565  0.7235  2.3640  1.3317
 7577SOL    HW234365   3.459   3.238   5.704  2.1048 -0.7592  0.1415
 7578SOL     OW34366   1.276   3.969  10.644  1.1089 -0.3212  0.4329
 7578SOL    HW134367   1.316   4.029  10.581  1.0639  0.9368  1.5999
 7578SOL    HW234368   1.189   4.009  10.643  0.9110 -0.7351  0.9107
 7579SOL     OW34369   1.336   1.812   6.400  0.4276  0.5351  0.1181
 7579SOL    HW134370   1.424   1.814   6.363  0.2038 -0.4326 -0.4802
 7579SOL    HW234371   1.354   1.861   6.480 -0.3833  0.5709  0.2773
 7580SOL     OW34372   0.993   2.674   7.127  0.0730 -0.6656 -0.0210
 7580SOL    HW134373   1.027   2.598   7.080 -0.6143 -0.9699 -0.0217
 7580SOL    HW234374   0.962   2.730   7.055 -2.2086  1.4651  2.6060
 7581SOL     OW34375   3.998   2.122   7.121  0.5888  0.0151 -0.3556
 7581SOL    HW134376   3.946   2.076   7.187 -0.5889  0.2678 -1.1127
 7581SOL    HW234377   3.978   2.081   7.037  3.6189 -0.6418 -0.7421
 7582SOL     OW34378   2.790   2.285   5.419  0.4644  0.1861 -0.4190
 7582SOL    HW134379   2.767   2.216   5.481  3.9126 -2.4758 -2.0396
 7582SOL    HW234380   2.753   2.363   5.460 -0.8371  0.0290 -1.2761
 7583SOL     OW34381   3.279   0.010   3.620 -0.1517  0.9436 -0.0395
 7583SOL    HW134382   3.195   4.700   3.620 -1.2542  2.9480 -2.2748
 7583SOL    HW234383   3.340   4.694   3.671 -0.1034  0.7927 -0.2527
 7584SOL     OW34384   2.163   0.708  17.241 -0.3301 -0.1312  0.4569
 7584SOL    HW134385   2.208   0.786  17.208  1.1615 -0.8577  0.7579
 7584SOL    HW234386   2.091   0.746  17.290  0.3380 -0.6948  1.8634
 7585SOL     OW34387   4.483   1.760  11.613 -0.1628  0.6847 -0.8690
 7585SOL    HW134388   4.565   1.796  11.648  0.3692 -2.0758  0.7762
 7585SOL    HW234389   4.474   1.686  11.673  0.1407  0.3392 -1.2501
 7586SOL     OW34390   4.613   1.444   2.886  0.5557 -0.4766  0.6175
 7586SOL    HW134391   4.661   1.371   2.847  1.3354  0.0047  0.6839
 7586SOL    HW234392   4.660   1.458   2.968  0.1045  0.2370  0.7566
 7587SOL     OW34393   2.076   4.284   8.524 -0.4462  0.3105  0.4047
 7587SOL    HW134394   2.115   4.231   8.593  0.2686 -0.4547 -0.5766
 7587SOL    HW234395   2.067   4.226   8.448  0.0699  1.3755 -0.4648
 7588SOL     OW34396   3.535   3.874   2.866 -0.3494  0.4764 -0.2718
 7588SOL    HW134397   3.500   3.856   2.778  0.7012  1.4318 -0.8966
 7588SOL    HW234398   3.629   3.854   2.862 -0.4182  0.0294  0.3667
 7589SOL     OW34399   4.112   3.088  13.913  0.0223  0.2940 -0.0220
 7589SOL    HW134400   4.180   3.027  13.939 -0.1645  0.0112 -0.2003
 7589SOL    HW234401   4.063   3.028  13.858 -0.7610  0.7948  0.1299
 7590SOL     OW34402   1.303   3.793   1.017 -0.2463  0.2240  0.6711
 7590SOL    HW134403   1.309   3.853   1.092 -0.5870  1.8542 -0.5994
 7590SOL    HW234404   1.233   3.732   1.041 -0.5434  0.4661  0.4352
 7591SOL     OW34405   1.952   2.495   0.287  0.3868 -0.0243  0.0000
 7591SOL    HW134406   1.900   2.565   0.327  0.1506 -0.7114  0.8926
 7591SOL    HW234407   2.032   2.541   0.263  0.3485  0.1356  0.1789
 7592SOL     OW34408   2.361   2.544   2.739  0.2379  0.3161 -0.0027
 7592SOL    HW134409   2.300   2.496   2.683  0.3443 -0.4197  0.5105
 7592SOL    HW234410   2.437   2.486   2.743  1.4500  2.0012  0.8769
 7593SOL     OW34411   0.842   2.370   6.003 -0.2140  0.5450  0.3580
 7593SOL    HW134412   0.851   2.374   6.098 -4.5921 -2.9206  0.9376
 7593SOL    HW234413   0.927   2.331   5.984 -1.0702 -1.4135  0.6438
 7594SOL     OW34414   0.368   1.810   6.820 -0.3366  0.0066 -0.5782
 7594SOL    HW134415   0.461   1.831   6.810 -0.3517 -0.5820 -1.9907
 7594SOL    HW234416   0.342   1.817   6.729  1.1228 -0.5953 -1.0484
 7595SOL     OW34417   0.167   0.838   7.060  0.1240 -0.5917 -0.1984
 7595SOL    HW134418   0.161   0.932   7.042  1.2245 -0.6366 -0.8362
 7595SOL    HW234419   0.077   0.808   7.067 -0.3605  1.2624  1.6602
 7596SOL     OW34420   2.642   0.119   7.044  0.4741  0.3983 -0.2331
 7596SOL    HW134421   2.694   0.198   7.054  2.0727 -0.7401  0.5066
 7596SOL    HW234422   2.693   0.073   6.977 -1.2573 -2.8357  0.6457
 7597SOL     OW34423   1.456   3.426   4.332 -0.1366 -0.1033  0.2754
 7597SOL    HW134424   1.413   3.457   4.252 -0.7630 -0.0224  0.6510
 7597SOL    HW234425   1.378   3.400   4.381  1.5997 -1.5441  2.2576
 7598SOL     OW34426   4.567   2.162   4.737  0.2158  0.0973 -0.8165
 7598SOL    HW134427   4.616   2.211   4.671  1.1055  2.7909  1.8644
 7598SOL    HW234428   4.480   2.202   4.728  0.1900  0.0643 -0.7038
 7599SOL     OW34429   2.353   2.658  17.677 -0.0228  0.1108 -0.4787
 7599SOL    HW134430   2.347   2.706  17.595  0.0496 -1.2165 -1.2649
 7599SOL    HW234431   2.389   2.721  17.740  0.0095 -0.8699  0.5029
 7600SOL     OW34432   2.922   4.042  17.214 -0.7184 -0.3085 -0.0165
 7600SOL    HW134433   2.971   4.116  17.177  0.8616 -2.5681 -2.3801
 7600SOL    HW234434   2.980   3.968  17.230 -1.0724  0.2794  4.0926
 7601SOL     OW34435   1.085   1.590   0.216  0.3873 -0.2737 -0.0894
 7601SOL    HW134436   1.026   1.575   0.289 -0.1724 -1.7679 -0.8434
 7601SOL    HW234437   1.051   1.673   0.181 -2.5001 -0.9042  1.1968
 7602SOL     OW34438   1.335   3.806  12.535  0.1209  0.2171  0.0173
 7602SOL    HW134439   1.310   3.718  12.509  1.2020 -0.5899  1.6942
 7602SOL    HW234440   1.353   3.849  12.451  1.2180 -1.1505 -0.4372
 7603SOL     OW34441   3.891   0.098  12.690 -0.5562  0.5721  0.4433
 7603SOL    HW134442   3.942   0.037  12.637 -1.7535 -2.7206  3.0722
 7603SOL    HW234443   3.806   0.056  12.707 -0.7648  1.3720  1.4020
 7604SOL     OW34444   4.659   4.648   6.559 -0.5142 -0.4655 -0.1917
 7604SOL    HW134445   0.012   4.616   6.554 -0.2480  0.4782 -1.5092
 7604SOL    HW234446   4.640   4.675   6.469  0.4844 -0.4207 -0.3938
 7605SOL     OW34447   0.360   3.283   2.517 -0.7283 -0.2640  0.4302
 7605SOL    HW134448   0.332   3.249   2.602  0.0725  1.3626  1.3366
 7605SOL    HW234449   0.272   3.312   2.491  0.2209  1.2343 -1.1118
 7606SOL     OW34450   3.378   1.811   4.317 -0.1641  0.8045  0.2966
 7606SOL    HW134451   3.343   1.900   4.316 -1.0203  0.4621 -0.2724
 7606SOL    HW234452   3.432   1.826   4.239  1.0226 -4.3178  0.1082
 7607SOL     OW34453   1.356   2.158   6.442  0.1856 -0.5366  0.4940
 7607SOL    HW134454   1.417   2.232   6.438  0.5592 -0.8888 -0.2211
 7607SOL    HW234455   1.422   2.090   6.428 -0.6289 -1.0186 -1.0225
 7608SOL     OW34456   4.584   0.069  10.149 -0.1683  0.8379  0.1576
 7608SOL    HW134457   4.492   0.087  10.169 -0.5744 -0.2694 -0.6734
 7608SOL    HW234458   4.581   4.715  10.119  1.1367  0.7132  0.4078
 7609SOL     OW34459   4.023   4.604   5.294 -0.2923  0.4168 -0.0353
 7609SOL    HW134460   3.998   4.694   5.315 -0.1707  0.5778 -0.5816
 7609SOL    HW234461   4.107   4.592   5.339 -0.4538 -0.8463 -0.0823
 7610SOL     OW34462   3.272   0.983   7.887 -0.2696 -0.2962  0.3758
 7610SOL    HW134463   3.354   1.011   7.846 -1.6325 -0.3173 -2.3992
 7610SOL    HW234464   3.206   1.024   7.830 -1.6792 -0.8874  1.5864
 7611SOL     OW34465   1.765   1.847  15.875 -0.2268  0.0203 -0.4097
 7611SOL    HW134466   1.720   1.929  15.895 -1.5340 -0.3630 -1.7993
 7611SOL    HW234467   1.857   1.873  15.864 -0.3286  0.4898 -0.1549
 7612SOL     OW34468   0.435   2.550  12.649  0.6515  0.0118 -0.5235
 7612SOL    HW134469   0.433   2.621  12.584 -1.8229  0.4426  0.0294
 7612SOL    HW234470   0.529   2.535  12.635  1.3119  2.3946  1.1538
 7613SOL     OW34471   1.114   4.614  15.418  0.3414 -0.3282 -0.0287
 7613SOL    HW134472   1.176   4.686  15.422 -0.7481  0.5727  0.6420
 7613SOL    HW234473   1.127   4.582  15.507  0.7489 -0.2763 -0.0684
 7614SOL     OW34474   0.888   1.739   5.560 -0.3744  0.0560  0.4149
 7614SOL    HW134475   0.863   1.792   5.484 -0.2737  1.7468  1.5779
 7614SOL    HW234476   0.830   1.767   5.630 -1.1596  1.1497 -0.6593
 7615SOL     OW34477   4.522   2.561  17.065  0.0358 -0.7778 -0.0831
 7615SOL    HW134478   4.592   2.549  17.001 -0.8337  3.0188 -1.7561
 7615SOL    HW234479   4.570   2.589  17.142  0.3475 -2.0891  0.1944
 7616SOL     OW34480   1.719   2.439   8.458 -0.2608  0.0722 -0.2944
 7616SOL    HW134481   1.761   2.431   8.373 -3.3093 -0.2075 -1.7931
 7616SOL    HW234482   1.671   2.356   8.454 -0.4166  0.2272 -1.6424
 7617SOL     OW34483   2.054   0.634   3.473  0.6042 -0.2102  0.0868
 7617SOL    HW134484   2.045   0.672   3.385  0.7304 -0.6876 -0.1325
 7617SOL    HW234485   2.055   0.711   3.530 -2.4539  1.2293 -1.7777
 7618SOL     OW34486   0.226   1.012  10.394 -0.2866 -0.4142 -0.4071
 7618SOL    HW134487   0.316   1.034  10.420 -0.5718 -1.6319  1.5301
 7618SOL    HW234488   0.227   1.076  10.323  0.9449 -2.4866 -2.2889
 7619SOL     OW34489   3.387   2.416   7.838 -0.7061 -0.1340  0.1301
 7619SOL    HW134490   3.413   2.327   7.862 -2.8497 -1.1280 -1.3221
 7619SOL    HW234491   3.459   2.466   7.878 -1.0583 -0.4105  1.1021
 7620SOL     OW34492   1.398   0.969   3.109  0.2568  0.3874 -0.2403
 7620SOL    HW134493   1.376   1.029   3.179  0.2753 -0.3587  0.4042
 7620SOL    HW234494   1.476   1.012   3.074  1.1857 -0.4341  0.8472
 7621SOL     OW34495   3.479   0.212   3.569 -0.1681 -0.1798  0.1996
 7621SOL    HW134496   3.569   0.211   3.602 -0.3618 -0.4324  0.7266
 7621SOL    HW234497   3.457   0.119   3.578  1.0213 -0.6299 -1.4566
 7622SOL     OW34498   1.926   2.923   6.595 -0.0736 -0.3947 -0.1686
 7622SOL    HW134499   1.912   3.005   6.642 -2.7880 -0.6149 -0.6282
 7622SOL    HW234500   1.994   2.945   6.531 -0.1320 -1.2342 -0.5226
 7623SOL     OW34501   2.423   1.257   6.669  0.2426 -0.2180 -0.2525
 7623SOL    HW134502   2.446   1.235   6.579  0.0160 -0.9615 -0.1262
 7623SOL    HW234503   2.486   1.327   6.689 -0.1251  0.4981 -1.6357
 7624SOL     OW34504   3.376   3.483   7.509  0.3573  0.1677 -0.8352
 7624SOL    HW134505   3.470   3.465   7.509  0.6243  1.5689  1.5511
 7624SOL    HW234506   3.369   3.554   7.446  0.4369  0.7080 -0.2328
 7625SOL     OW34507   3.416   3.855  13.130 -0.2333 -0.2499  0.7939
 7625SOL    HW134508   3.466   3.881  13.208 -0.0599  1.7802  0.0032
 7625SOL    HW234509   3.462   3.914  13.070 -1.3025  0.4630  0.6813
 7626SOL     OW34510   3.592   2.236  12.657  0.0952 -0.1730 -0.7286
 7626SOL    HW134511   3.500   2.221  12.634  0.6660 -2.4695 -1.5556
 7626SOL    HW234512   3.587   2.229  12.752 -3.0057 -0.4302 -0.8994
 7627SOL     OW34513   1.076   1.890   4.316 -0.4402 -0.1308 -0.2692
 7627SOL    HW134514   1.092   1.798   4.295 -1.5273 -0.7788  1.7344
 7627SOL    HW234515   0.982   1.896   4.296 -0.0780  2.9671 -1.1363
 7628SOL     OW34516   3.545   4.315   4.099  0.2226 -0.2567 -0.2411
 7628SOL    HW134517   3.484   4.294   4.170  0.3674 -0.6442 -0.2304
 7628SOL    HW234518   3.626   4.289   4.144 -0.7142 -2.1564  0.3702
 7629SOL     OW34519   2.564   0.575   5.673  0.5960  0.0053  0.5114
 7629SOL    HW134520   2.538   0.538   5.589  0.3816  1.8079 -0.2160
 7629SOL    HW234521   2.494   0.637   5.694  2.3844  2.6835 -1.3023
 7630SOL     OW34522   1.661   0.564   6.736 -0.0540  0.1320 -0.4264
 7630SOL    HW134523   1.579   0.571   6.785  0.3788 -2.3493  0.6544
 7630SOL    HW234524   1.733   0.520   6.783 -0.0588  0.2004 -0.3544
 7631SOL     OW34525   1.218   1.504   6.857 -0.3480 -0.1657  0.2532
 7631SOL    HW134526   1.218   1.598   6.845 -0.1049 -0.2691 -0.5271
 7631SOL    HW234527   1.128   1.482   6.834 -0.7395  0.1894  1.4435
 7632SOL     OW34528   1.553   4.059  16.112  0.4502 -0.1000  0.2665
 7632SOL    HW134529   1.616   3.991  16.088 -1.3804 -1.6378 -0.2243
 7632SOL    HW234530   1.592   4.097  16.190 -0.3150 -0.1083  0.6580
 7633SOL     OW34531   4.562   4.401   7.608  0.5682 -0.3996 -0.3225
 7633SOL    HW134532   4.535   4.390   7.517 -1.5111 -2.0418  0.5049
 7633SOL    HW234533   4.658   4.397   7.613  0.5592 -2.9643 -2.0565
 7634SOL     OW34534   3.368   1.539   1.779  0.6121 -0.3356 -0.1978
 7634SOL    HW134535   3.458   1.512   1.762  0.6569  1.0215 -2.1183
 7634SOL    HW234536   3.322   1.456   1.773  0.4462 -0.0383 -3.0776
 7635SOL     OW34537   2.136   0.662   1.843  0.3764 -0.0283 -0.4157
 7635SOL    HW134538   2.174   0.683   1.928  1.2847 -1.2480 -0.5245
 7635SOL    HW234539   2.108   0.572   1.858  0.5339  0.0251  0.2325
 7636SOL     OW34540   0.861   2.273   4.326  0.0975 -0.4322  0.2581
 7636SOL    HW134541   0.858   2.365   4.349 -2.2632 -0.1024 -1.3239
 7636SOL    HW234542   0.890   2.233   4.408 -2.5980  0.5392  1.6589
 7637SOL     OW34543   1.139   1.036   8.638 -0.5333 -0.3287  0.1030
 7637SOL    HW134544   1.214   0.982   8.661  0.9828  1.1513 -1.3032
 7637SOL    HW234545   1.170   1.079   8.558 -2.6777  0.9474 -0.0439
 7638SOL     OW34546   1.362   2.058   2.912  0.3883  0.1027 -0.4800
 7638SOL    HW134547   1.382   1.977   2.865 -0.7212 -0.9877  0.9047
 7638SOL    HW234548   1.277   2.075   2.871  1.2194 -0.4903 -2.4713
 7639SOL     OW34549   1.925   2.118   6.809  0.2224 -0.9724  0.1737
 7639SOL    HW134550   1.894   2.048   6.866  3.4785 -1.0564  1.8747
 7639SOL    HW234551   1.862   2.122   6.737 -0.3487 -1.5970  0.6441
 7640SOL     OW34552   0.424   2.143   9.034 -0.4314  0.0061  0.3188
 7640SOL    HW134553   0.496   2.185   8.987  0.1575 -2.2256 -0.7666
 7640SOL    HW234554   0.480   2.120   9.108  1.6248  2.2588 -0.5517
 7641SOL     OW34555   3.958   3.025   4.193 -0.1316  0.8176  0.4738
 7641SOL    HW134556   3.872   2.989   4.214 -0.1804  0.6845  0.0489
 7641SOL    HW234557   4.006   2.944   4.175  0.3092  1.2583 -0.3160
 7642SOL     OW34558   1.863   0.492   3.807 -0.2333  0.1369  0.1127
 7642SOL    HW134559   1.848   0.444   3.889 -1.1596  1.8590  0.9383
 7642SOL    HW234560   1.942   0.542   3.829  0.3254  0.1620 -1.9410
 7643SOL     OW34561   3.177   0.795   3.658  0.0363  0.2170 -0.1231
 7643SOL    HW134562   3.202   0.817   3.568  1.6142 -0.1047  0.2356
 7643SOL    HW234563   3.258   0.797   3.709  0.1857 -0.4839 -0.3406
 7644SOL     OW34564   2.115   1.126   6.151  0.2374 -0.2360 -0.2229
 7644SOL    HW134565   2.147   1.039   6.129  2.1247  0.0511  1.4410
 7644SOL    HW234566   2.024   1.112   6.176  0.8036 -0.9740  1.3641
 7645SOL     OW34567   3.441   0.063  17.688  0.4356  0.5555 -0.6903
 7645SOL    HW134568   3.491   0.131  17.734  0.4020 -0.7743  1.2840
 7645SOL    HW234569   3.388   0.032   0.015  1.8990  3.1946  1.4795
 7646SOL     OW34570   1.410   3.944   4.893 -0.0708 -0.1369 -0.1726
 7646SOL    HW134571   1.353   3.962   4.967 -0.4470 -0.3300 -0.4165
 7646SOL    HW234572   1.386   4.018   4.836 -2.3172 -1.6039 -1.1132
 7647SOL     OW34573   3.112   4.686   7.629  0.1031 -0.3947  0.1033
 7647SOL    HW134574   3.096   4.715   7.540  2.4548 -2.4761 -0.9817
 7647SOL    HW234575   3.203   4.713   7.640 -0.0931  0.3251 -0.0681
 7648SOL     OW34576   0.655   2.631   2.687  0.8906  0.1075  0.8779
 7648SOL    HW134577   0.738   2.665   2.721  0.6084  0.0613  1.6009
 7648SOL    HW234578   0.646   2.684   2.608  0.3981  0.9755  1.5235
 7649SOL     OW34579   4.519   0.033  14.425  0.1762 -0.2981  0.3243
 7649SOL    HW134580   4.445   0.094  14.422  1.1826  0.9137  0.4120
 7649SOL    HW234581   4.546   0.028  14.334 -1.3185  1.4324 -0.2322
 7650SOL     OW34582   0.693   2.805  17.427 -0.3319  0.0987  0.1879
 7650SOL    HW134583   0.683   2.755  17.508  0.5569  0.0570  0.2798
 7650SOL    HW234584   0.681   2.740  17.357  0.5065 -0.9314  0.9990
 7651SOL     OW34585   3.739   1.693   1.666  0.3317 -0.0599 -0.1457
 7651SOL    HW134586   3.773   1.632   1.601 -2.1139  0.0314 -1.5373
 7651SOL    HW234587   3.647   1.700   1.640  1.0172 -1.5865 -3.0206
 7652SOL     OW34588   1.062   2.891  12.129  0.2066  0.8131 -0.4685
 7652SOL    HW134589   0.995   2.824  12.113  0.7621 -0.1091  1.0476
 7652SOL    HW234590   1.103   2.845  12.202 -0.1503 -1.6847 -1.8631
 7653SOL     OW34591   1.720   1.289   4.150 -0.6870  0.0114 -0.0217
 7653SOL    HW134592   1.716   1.202   4.109 -1.9896 -0.4177  0.9833
 7653SOL    HW234593   1.698   1.345   4.076 -2.8258 -0.1151  0.4954
 7654SOL     OW34594   1.140   0.635   7.151 -0.1041 -0.5040  0.2388
 7654SOL    HW134595   1.123   0.716   7.198  0.2013  0.5007 -1.3927
 7654SOL    HW234596   1.213   0.604   7.205  0.3106 -1.0870 -0.6558
 7655SOL     OW34597   2.436   1.711   1.627 -0.0324 -0.3525  0.7020
 7655SOL    HW134598   2.496   1.769   1.674  1.1645  1.2074 -2.8021
 7655SOL    HW234599   2.456   1.626   1.666 -0.5190 -0.6483  0.3088
 7656SOL     OW34600   0.494   0.586   5.425 -0.0206  0.4108 -0.4569
 7656SOL    HW134601   0.555   0.568   5.497 -0.2642 -2.2861 -0.9288
 7656SOL    HW234602   0.411   0.557   5.462  0.1641 -0.0926 -0.4312
 7657SOL     OW34603   2.503   2.436  17.634  0.3380  0.3744 -0.2058
 7657SOL    HW134604   2.443   2.507  17.656 -0.1835 -0.1189 -0.0376
 7657SOL    HW234605   2.588   2.480  17.628  0.2912  0.7773  2.0639
 7658SOL     OW34606   0.677   4.485  16.310  0.4856 -0.3419  0.4560
 7658SOL    HW134607   0.746   4.537  16.270 -1.0843  1.1781 -0.2662
 7658SOL    HW234608   0.678   4.405  16.257 -3.0485  1.6823 -2.7007
 7659SOL     OW34609   3.923   4.122   6.461 -0.1462  0.4948 -0.1474
 7659SOL    HW134610   3.870   4.132   6.540 -1.2792 -1.9220 -0.6261
 7659SOL    HW234611   3.968   4.040   6.482  1.5546  1.4160 -0.1585
 7660SOL     OW34612   1.289   0.738   2.191  0.5847 -0.0123 -0.1425
 7660SOL    HW134613   1.212   0.686   2.214  0.2920  0.9373  1.0400
 7660SOL    HW234614   1.352   0.667   2.204 -0.1931 -1.0628 -2.1584
 7661SOL     OW34615   1.422   4.143  15.872  0.1581 -0.0917  0.0929
 7661SOL    HW134616   1.480   4.106  15.939 -0.9873  0.2537  1.2708
 7661SOL    HW234617   1.340   4.144  15.922  1.2398  0.6625  1.8596
 7662SOL     OW34618   0.959   0.913  17.072 -0.0963  0.4010  0.2421
 7662SOL    HW134619   0.977   0.987  17.129  1.3864  0.8214 -0.7743
 7662SOL    HW234620   1.024   0.931  17.004 -1.7319  1.3191 -1.0684
 7663SOL     OW34621   1.120   4.549   9.152  0.2628 -0.4412  0.2843
 7663SOL    HW134622   1.091   4.463   9.182  0.8258 -0.4191  0.8873
 7663SOL    HW234623   1.040   4.601   9.147  0.1380 -0.6241  0.3890
 7664SOL     OW34624   0.050   0.634  16.431  0.5524 -0.1494 -0.3858
 7664SOL    HW134625   0.054   0.570  16.361  1.2627  1.4099 -1.7684
 7664SOL    HW234626   4.715   0.686  16.396 -0.7747 -2.2365 -0.7182
 7665SOL     OW34627   2.497   0.190  12.545 -0.4121  0.0459 -0.2771
 7665SOL    HW134628   2.477   0.172  12.636  0.6220  2.1324  0.3586
 7665SOL    HW234629   2.592   0.183  12.539 -0.6637 -1.1474 -3.1311
 7666SOL     OW34630   4.425   2.948   7.351 -0.3161 -0.1250  0.2758
 7666SOL    HW134631   4.496   2.991   7.399  0.1546 -0.2049 -0.3437
 7666SOL    HW234632   4.465   2.955   7.265  1.8500 -0.7851  1.2156
 7667SOL     OW34633   3.496   4.009   5.234 -0.7007 -0.4643  0.1874
 7667SOL    HW134634   3.546   4.085   5.204 -1.9531  0.0765 -0.5099
 7667SOL    HW234635   3.411   4.052   5.227  0.0730  1.1471  0.4427
 7668SOL     OW34636   2.292   0.074   3.711 -0.0388 -0.3600 -0.0871
 7668SOL    HW134637   2.246   0.004   3.664 -2.3002  2.1081 -1.5045
 7668SOL    HW234638   2.225   0.109   3.769  0.9381  1.4989 -0.0944
 7669SOL     OW34639   4.653   3.580   8.333  0.1545  0.1860  0.1651
 7669SOL    HW134640   4.735   3.545   8.298  0.1074 -0.2799  0.5275
 7669SOL    HW234641   4.645   3.669   8.298  1.8157  0.2701 -0.0233
 7670SOL     OW34642   1.608   1.298   1.002 -0.1951 -0.5417 -0.6742
 7670SOL    HW134643   1.594   1.358   0.928 -1.3950 -0.7419 -0.6154
 7670SOL    HW234644   1.642   1.351   1.073  0.0058 -1.4152 -0.1262
 7671SOL     OW34645   2.281   3.544   5.051 -0.1600  0.1470  0.6139
 7671SOL    HW134646   2.200   3.511   5.089 -1.1132  1.7212 -0.0492
 7671SOL    HW234647   2.309   3.466   5.003  0.6674  0.4905  0.5326
 7672SOL     OW34648   1.730   3.091   7.414 -0.0585 -0.1803  0.1037
 7672SOL    HW134649   1.642   3.126   7.402 -0.4692 -2.2579 -2.8992
 7672SOL    HW234650   1.714   3.019   7.475 -0.4025 -0.5684 -0.4369
 7673SOL     OW34651   2.599   0.695  15.124  0.1771 -0.2967 -0.7020
 7673SOL    HW134652   2.568   0.710  15.034  0.8311 -0.6577 -0.9882
 7673SOL    HW234653   2.529   0.631  15.136 -0.7648  0.7775 -0.4386
 7674SOL     OW34654   3.070   0.223   4.862  0.3343 -0.1537 -0.3331
 7674SOL    HW134655   3.003   0.262   4.806 -0.0321 -0.0936  0.1508
 7674SOL    HW234656   3.144   0.279   4.839  1.4629 -1.7313 -0.5832
 7675SOL     OW34657   1.946   1.795   0.442  0.2108  0.7522 -0.0982
 7675SOL    HW134658   1.977   1.885   0.443  0.1699  0.7836 -1.1936
 7675SOL    HW234659   1.855   1.808   0.412 -0.7614 -2.8864  1.2736
 7676SOL     OW34660   3.174   3.597   8.448 -0.0311 -0.2845 -0.0491
 7676SOL    HW134661   3.115   3.573   8.520 -0.7879 -0.1232 -0.6302
 7676SOL    HW234662   3.191   3.690   8.464 -0.5560 -0.1962 -0.0113
 7677SOL     OW34663   3.085   2.400   5.808  0.1966 -0.0367  0.3998
 7677SOL    HW134664   3.128   2.397   5.722 -0.2172  1.6131  0.1424
 7677SOL    HW234665   3.104   2.315   5.847 -1.2438 -0.1388  0.8952
 7678SOL     OW34666   2.193   0.910   5.378 -0.1418  0.2267 -0.2059
 7678SOL    HW134667   2.234   0.938   5.296  1.7843  1.4078  1.1621
 7678SOL    HW234668   2.245   0.834   5.402  1.6402  1.7111  0.6640
 7679SOL     OW34669   3.620   2.110  13.563  0.4203 -0.6635 -0.2849
 7679SOL    HW134670   3.544   2.108  13.505  0.7990  0.4820 -0.8273
 7679SOL    HW234671   3.608   2.190  13.614 -1.4352 -1.1192 -0.0161
 7680SOL     OW34672   3.459   4.154   8.691  0.2322  0.3639  0.2457
 7680SOL    HW134673   3.537   4.202   8.665 -0.7348  3.0035  2.2580
 7680SOL    HW234674   3.491   4.117   8.773  0.4594  1.0364  0.4541
 7681SOL     OW34675   1.617   3.609   3.066 -1.0761  0.0884 -0.3594
 7681SOL    HW134676   1.651   3.626   3.154  1.8067  2.1358 -1.8654
 7681SOL    HW234677   1.581   3.523   3.084  0.1448  0.0869  2.1921
 7682SOL     OW34678   3.242   4.681   0.088  0.2608 -0.0400  0.4440
 7682SOL    HW134679   3.232   0.038   0.100 -1.5917 -0.4189  1.8278
 7682SOL    HW234680   3.243   4.652   0.179  0.0806 -1.7983 -0.1210
 7683SOL     OW34681   1.075   0.240   3.036  0.1359 -0.2946 -0.0312
 7683SOL    HW134682   1.154   0.217   3.085 -1.2121  0.5032  2.4777
 7683SOL    HW234683   1.021   0.254   3.113 -0.7143 -1.1350 -0.4758
 7684SOL     OW34684   3.126   1.773   7.848  0.6542  0.2943  0.9690
 7684SOL    HW134685   3.091   1.689   7.821 -0.2590  0.1691  2.5777
 7684SOL    HW234686   3.126   1.757   7.943 -1.1042 -1.9133  0.5830
 7685SOL     OW34687   3.839   4.173   5.308 -0.1280  0.1953  0.5584
 7685SOL    HW134688   3.783   4.200   5.236  2.5578  1.5267 -1.0696
 7685SOL    HW234689   3.909   4.231   5.278 -0.2263  0.2250  0.3870
 7686SOL     OW34690   4.264   0.105   6.484 -0.0054  0.3748 -0.0572
 7686SOL    HW134691   4.230   0.038   6.543  0.3197 -1.1073 -1.5682
 7686SOL    HW234692   4.338   0.060   6.444 -1.3390 -1.4298 -0.4930
 7687SOL     OW34693   1.265   0.533   7.784 -0.4088  0.3508 -0.5469
 7687SOL    HW134694   1.172   0.521   7.765 -0.6267  0.2308  0.5372
 7687SOL    HW234695   1.299   0.575   7.706  0.5802 -0.7472 -0.7180
 7688SOL     OW34696   3.168   0.413   3.929  0.0479 -0.1430 -0.0765
 7688SOL    HW134697   3.159   0.399   3.835 -1.0738  3.0247 -0.4415
 7688SOL    HW234698   3.186   0.323   3.957 -0.1237 -0.3031 -0.4897
 7689SOL     OW34699   3.842   0.563  12.605  0.4269  0.0064  0.3689
 7689SOL    HW134700   3.819   0.474  12.579  0.6221  0.8584 -2.7751
 7689SOL    HW234701   3.917   0.543  12.661  0.8609  0.2303 -0.1314
 7690SOL     OW34702   3.594   3.571   6.137  0.4502 -0.8166 -0.5216
 7690SOL    HW134703   3.500   3.565   6.156  0.2932  0.1093 -0.9986
 7690SOL    HW234704   3.606   3.657   6.179 -0.0051 -0.9274 -0.1594
 7691SOL     OW34705   1.251   0.227   8.442  0.2707 -0.1204  0.4717
 7691SOL    HW134706   1.195   0.293   8.483  1.4227  1.3212 -0.2834
 7691SOL    HW234707   1.260   0.164   8.513  1.4386  1.6823  1.9362
 7692SOL     OW34708   2.744   1.157   0.950 -0.4959  0.0095  0.0108
 7692SOL    HW134709   2.799   1.123   0.880  3.2295  2.4890  1.7245
 7692SOL    HW234710   2.730   1.243   0.911  2.0988  0.5265  0.2207
 7693SOL     OW34711   4.262   4.486  17.297 -0.5145 -0.2896 -0.9559
 7693SOL    HW134712   4.341   4.462  17.248  2.1288 -2.2745  4.2553
 7693SOL    HW234713   4.238   4.563  17.247 -2.2324 -1.2135 -1.5404
 7694SOL     OW34714   2.468   2.185   4.794 -0.4782 -0.4211 -0.0446
 7694SOL    HW134715   2.490   2.095   4.771  0.8461 -0.1774  0.2516
 7694SOL    HW234716   2.439   2.177   4.885 -0.1688  0.9384  0.1713
 7695SOL     OW34717   3.043   0.376   8.778  0.2338  0.3739 -0.3925
 7695SOL    HW134718   2.996   0.361   8.860  1.7452 -1.3001  0.1774
 7695SOL    HW234719   3.134   0.390   8.802  0.2647  0.4450 -0.5561
 7696SOL     OW34720   1.739   0.398   0.599  0.3683  0.0722  0.0909
 7696SOL    HW134721   1.804   0.338   0.634 -2.1298 -2.5182  0.1892
 7696SOL    HW234722   1.683   0.434   0.668 -2.1977 -0.6697 -1.6175
 7697SOL     OW34723   1.995   1.196  12.536  0.0882  0.3147  0.4076
 7697SOL    HW134724   1.900   1.200  12.548  0.0281 -0.6190  0.2075
 7697SOL    HW234725   2.009   1.188  12.442 -1.6644  0.4448  0.1452
 7698SOL     OW34726   0.254   4.483   7.083  0.1579  0.3519  0.4745
 7698SOL    HW134727   0.338   4.467   7.128  1.4778 -1.1283 -2.5159
 7698SOL    HW234728   0.272   4.568   7.042  1.3171 -0.2153 -0.2142
 7699SOL     OW34729   3.132   3.419   9.341  0.1710 -0.3816 -0.4804
 7699SOL    HW134730   3.180   3.417   9.423  0.5977  0.1679 -0.7214
 7699SOL    HW234731   3.177   3.492   9.300 -0.5259  0.2543 -0.1173
 7700SOL     OW34732   4.038   0.935   9.589  0.0641  0.2859 -0.1401
 7700SOL    HW134733   4.082   1.013   9.621  0.1952  0.2982 -0.3537
 7700SOL    HW234734   3.950   0.972   9.575 -1.1711 -2.9664 -1.1184
 7701SOL     OW34735   2.762   3.912  15.696  0.0517 -0.1686 -0.1719
 7701SOL    HW134736   2.743   3.975  15.626 -0.3135 -0.1410 -0.0472
 7701SOL    HW234737   2.820   3.851  15.649 -1.2367 -3.1818  2.1615
 7702SOL     OW34738   2.854   3.751   2.871  0.7770  0.3924 -0.2941
 7702SOL    HW134739   2.889   3.836   2.845 -1.2824  0.8831 -1.5018
 7702SOL    HW234740   2.922   3.734   2.935  0.3648 -1.6112 -0.3889
 7703SOL     OW34741   1.137   3.723  10.018  0.7057  0.0515 -0.5752
 7703SOL    HW134742   1.172   3.803  10.057  0.0714  0.1124 -0.1293
 7703SOL    HW234743   1.186   3.651  10.057 -2.3622 -0.1189  2.9044
 7704SOL     OW34744   1.379   2.610   1.719  0.5973 -0.2838 -0.5612
 7704SOL    HW134745   1.388   2.582   1.810  0.2359  0.5137 -0.2775
 7704SOL    HW234746   1.461   2.657   1.704  1.6227 -2.2160 -0.9568
 7705SOL     OW34747   1.920   4.321  11.733  0.9272  0.7724 -0.6209
 7705SOL    HW134748   2.006   4.283  11.714  0.8648  1.5506 -2.5180
 7705SOL    HW234749   1.871   4.288  11.658 -0.4643 -2.4979  1.7347
 7706SOL     OW34750   1.293   2.920   3.220  0.8535 -0.5295 -0.6209
 7706SOL    HW134751   1.248   2.904   3.304 -0.8564 -1.7221 -1.7679
 7706SOL    HW234752   1.353   2.851   3.247  0.3565 -1.6191 -2.3527
 7707SOL     OW34753   1.580   2.132  17.315 -0.2600  0.1421 -0.3496
 7707SOL    HW134754   1.579   2.044  17.353 -2.4536  0.0679 -0.5952
 7707SOL    HW234755   1.619   2.119  17.229 -1.6784  1.4957 -1.1972
 7708SOL     OW34756   0.525   1.341   0.232  0.4333 -0.3565 -0.1297
 7708SOL    HW134757   0.453   1.396   0.202 -0.0501 -0.9369 -0.0548
 7708SOL    HW234758   0.472   1.261   0.228  1.8882 -1.3167 -0.1438
 7709SOL     OW34759   3.627   3.480   4.166 -0.4535  0.1702 -0.0860
 7709SOL    HW134760   3.698   3.540   4.140 -1.2617  1.4559  0.6796
 7709SOL    HW234761   3.671   3.413   4.113 -0.3681 -0.1179  0.3522
 7710SOL     OW34762   1.486   1.212   5.476 -0.4703 -0.5491  0.0267
 7710SOL    HW134763   1.537   1.251   5.547 -0.7791 -0.9777  0.4839
 7710SOL    HW234764   1.513   1.267   5.402 -2.0782  1.7454  1.1386
 7711SOL     OW34765   2.338   3.928   6.844 -0.2481  0.1949  0.0065
 7711SOL    HW134766   2.330   3.888   6.757  0.2503  1.0215 -0.4178
 7711SOL    HW234767   2.246   3.926   6.870  0.0687  1.3642  1.2107
 7712SOL     OW34768   0.987   4.239   2.060  0.8554  0.1726 -0.2406
 7712SOL    HW134769   0.993   4.150   2.026  0.6349  0.6143 -1.4441
 7712SOL    HW234770   1.070   4.231   2.107  0.1473  1.8637  1.2979
 7713SOL     OW34771   4.622   0.595   5.113 -0.2855 -0.2196 -0.3982
 7713SOL    HW134772   4.607   0.541   5.035 -0.8432  0.1345 -0.5342
 7713SOL    HW234773   4.619   0.682   5.075 -0.0570  0.2254  0.6095
 7714SOL     OW34774   1.382   0.418   5.173  0.5952 -0.4519 -0.2014
 7714SOL    HW134775   1.326   0.447   5.101  0.6074 -0.0515 -0.0483
 7714SOL    HW234776   1.316   0.352   5.196 -0.0768  0.4538  0.4564
 7715SOL     OW34777   0.990   2.896  15.857 -0.4420 -0.1455 -0.6216
 7715SOL    HW134778   0.978   2.981  15.899  1.6633 -0.4962  0.6738
 7715SOL    HW234779   0.927   2.842  15.905 -1.1127  1.2308  0.0381
 7716SOL     OW34780   1.923   1.254  14.437  0.4919 -0.5074 -0.0676
 7716SOL    HW134781   1.903   1.224  14.348 -0.8486  0.9769 -0.2573
 7716SOL    HW234782   1.852   1.211  14.485 -0.3225 -0.3669 -1.1352
 7717SOL     OW34783   0.014   1.899   2.660  0.4537 -0.0043  0.1572
 7717SOL    HW134784   0.031   1.958   2.734 -1.2690  1.0748 -0.3055
 7717SOL    HW234785   4.713   1.825   2.707  0.3330 -0.4699 -0.6729
 7718SOL     OW34786   4.285   2.579   7.415  0.4460 -0.1342  0.2328
 7718SOL    HW134787   4.270   2.493   7.377 -2.6316 -0.4890  2.2957
 7718SOL    HW234788   4.228   2.623   7.351  0.9534  2.6133  1.6572
 7719SOL     OW34789   0.509   4.077   3.757  0.5426  0.2157 -0.2878
 7719SOL    HW134790   0.441   4.069   3.824  0.5374  0.1297 -0.3038
 7719SOL    HW234791   0.579   4.022   3.790  1.2371  0.1843 -1.7939
 7720SOL     OW34792   0.676   1.453   7.238  0.1175 -0.0149 -0.4002
 7720SOL    HW134793   0.671   1.493   7.325  2.0197 -0.6994  0.0226
 7720SOL    HW234794   0.628   1.520   7.190  0.4716 -1.1610 -2.3232
 7721SOL     OW34795   1.654   4.490   5.661  0.0684 -0.2548 -0.3347
 7721SOL    HW134796   1.585   4.557   5.658 -1.3609 -1.7133  0.0546
 7721SOL    HW234797   1.737   4.537   5.667  0.3904 -0.8686 -0.0045
 7722SOL     OW34798   1.894   1.555   1.332 -0.0584 -0.4061  0.3070
 7722SOL    HW134799   1.916   1.596   1.249  1.0174  0.4224  1.0035
 7722SOL    HW234800   1.800   1.543   1.318 -0.2868 -0.9439  2.2390
 7723SOL     OW34801   0.230   0.432  12.063  0.2091 -0.5299  0.1793
 7723SOL    HW134802   0.196   0.510  12.017 -0.4622  0.8043  2.9439
 7723SOL    HW234803   0.224   0.375  11.987  0.3416 -1.3937  0.8254
 7724SOL     OW34804   0.585   2.721   3.156  0.6347 -0.0408  0.0011
 7724SOL    HW134805   0.557   2.777   3.229 -0.1846  0.1166 -0.4282
 7724SOL    HW234806   0.593   2.783   3.084  0.6605  0.3672  0.3575
 7725SOL     OW34807   3.182   2.216   6.028  0.0118  0.8580  0.2027
 7725SOL    HW134808   3.219   2.301   6.049 -0.3840  0.5838  1.9464
 7725SOL    HW234809   3.146   2.186   6.111 -1.9897  0.9936 -0.6242
 7726SOL     OW34810   0.077   0.537   8.012  0.3828 -0.2243  0.6837
 7726SOL    HW134811   0.097   0.537   7.918 -0.0773 -1.5336  0.5746
 7726SOL    HW234812   0.161   0.551   8.056 -0.3071  0.7714  1.6664
 7727SOL     OW34813   4.193   3.787  12.234  0.1952 -0.4086  0.2438
 7727SOL    HW134814   4.171   3.695  12.221  0.4658  0.0228 -3.2847
 7727SOL    HW234815   4.289   3.788  12.233  0.2356 -3.0584  0.9058
 7728SOL     OW34816   0.714   0.650   3.449 -0.5402  0.2792  0.2077
 7728SOL    HW134817   0.644   0.675   3.390  0.9202  1.3358 -1.0913
 7728SOL    HW234818   0.720   0.558   3.425  0.9876  0.1269  1.1461
 7729SOL     OW34819   3.638   1.127  10.696 -0.4057 -0.6539 -0.2373
 7729SOL    HW134820   3.718   1.176  10.677  0.1984 -1.5030  0.1270
 7729SOL    HW234821   3.611   1.115  10.605 -1.3349 -0.6879  0.0456
 7730SOL     OW34822   0.666   3.042   4.455  0.3895 -0.1487 -0.2693
 7730SOL    HW134823   0.682   3.130   4.490  0.3149 -0.0728 -0.4287
 7730SOL    HW234824   0.615   3.047   4.375  1.1836  0.2844 -0.7534
 7731SOL     OW34825   0.520   4.244  10.893  0.3592  0.0819 -0.1150
 7731SOL    HW134826   0.555   4.332  10.881 -0.7955  0.6567  0.7951
 7731SOL    HW234827   0.430   4.275  10.891  0.8831  1.6619  0.6410
 7732SOL     OW34828   4.529   3.092   5.808 -0.6110  0.3874 -0.5362
 7732SOL    HW134829   4.576   3.060   5.885 -2.2166 -1.3141 -0.2539
 7732SOL    HW234830   4.530   3.184   5.833  1.0757 -0.5528  2.8768
 7733SOL     OW34831   0.535   0.785   0.593  0.3142 -0.1514 -0.0260
 7733SOL    HW134832   0.578   0.866   0.565 -0.2572  0.5488  1.1070
 7733SOL    HW234833   0.572   0.727   0.527  0.2655  0.0759 -0.2541
 7734SOL     OW34834   2.039   0.821   5.949 -0.5204 -0.1973 -0.2030
 7734SOL    HW134835   2.127   0.794   5.975 -1.2055 -0.1849  2.1288
 7734SOL    HW234836   2.048   0.864   5.865  1.2222  0.5044  0.3494
 7735SOL     OW34837   2.405   3.657  15.627 -0.2466 -0.4108 -0.3429
 7735SOL    HW134838   2.320   3.614  15.618  0.2751 -0.9507 -2.8695
 7735SOL    HW234839   2.417   3.705  15.545  1.4914  2.4745  1.5695
 7736SOL     OW34840   2.725   3.882   8.027 -0.2842  0.0123  0.8584
 7736SOL    HW134841   2.710   3.894   7.933  0.9230 -1.4392  0.4803
 7736SOL    HW234842   2.637   3.853   8.052  0.4140 -3.1010 -0.3178
 7737SOL     OW34843   2.975   3.141   7.763 -0.7091  0.3205 -0.3074
 7737SOL    HW134844   2.935   3.054   7.768 -2.6683  1.1756 -0.9231
 7737SOL    HW234845   2.986   3.149   7.668  1.3917  0.6948 -0.0207
 7738SOL     OW34846   4.582   1.893   4.509 -0.1237  0.2153 -0.0950
 7738SOL    HW134847   4.519   1.861   4.575  1.1135 -0.2596  0.8557
 7738SOL    HW234848   4.658   1.912   4.563 -0.0615  1.4776 -0.6331
 7739SOL     OW34849   3.574   3.963   8.319 -0.2543 -0.3357 -0.1404
 7739SOL    HW134850   3.585   3.884   8.266 -0.6777 -0.4796 -0.0190
 7739SOL    HW234851   3.662   3.986   8.348 -0.9961 -0.5742  2.2766
 7740SOL     OW34852   0.115   0.311   3.200 -0.5565 -0.0610  0.1298
 7740SOL    HW134853   0.120   0.379   3.133  1.1674  1.6197  1.9531
 7740SOL    HW234854   0.159   0.360   3.269 -0.4593  0.5086 -0.3316
 7741SOL     OW34855   3.796   3.131   2.307 -0.1504  0.3277 -0.1816
 7741SOL    HW134856   3.841   3.198   2.256 -2.6180  1.7312 -0.5317
 7741SOL    HW234857   3.865   3.066   2.320  0.4955  1.1227  0.3979
 7742SOL     OW34858   1.000   2.636   3.358 -0.5650 -0.5312 -0.7360
 7742SOL    HW134859   0.943   2.673   3.291 -0.1411  0.3697 -0.5944
 7742SOL    HW234860   1.057   2.596   3.293  1.1503  0.7524 -0.0243
 7743SOL     OW34861   1.758   1.561  15.308  0.4226  0.4572  0.0292
 7743SOL    HW134862   1.818   1.514  15.367  0.0156 -0.2261 -0.1014
 7743SOL    HW234863   1.735   1.642  15.354  2.9935  0.2023  1.7568
 7744SOL     OW34864   2.306   1.962  15.354  0.3514 -0.3759  0.3566
 7744SOL    HW134865   2.239   1.909  15.310 -1.5813  1.1473  1.4554
 7744SOL    HW234866   2.267   2.048  15.338 -2.5231 -1.2324  2.8509
 7745SOL     OW34867   3.066   2.216   7.224 -0.0798 -0.3288 -0.4822
 7745SOL    HW134868   3.154   2.253   7.219 -0.9848  1.7551 -0.9876
 7745SOL    HW234869   3.033   2.262   7.302 -1.2802  1.0765 -1.8348
 7746SOL     OW34870   2.024   4.395   6.148  0.1010 -0.6146  0.0705
 7746SOL    HW134871   1.993   4.434   6.230 -0.1910 -0.6332 -0.0312
 7746SOL    HW234872   2.079   4.326   6.185 -1.9040 -1.9344  0.5824
 7747SOL     OW34873   4.725   2.460   7.433  0.9110 -0.2746 -0.2705
 7747SOL    HW134874   4.669   2.537   7.428 -0.1011 -0.7944  3.3908
 7747SOL    HW234875   4.700   2.410   7.510 -0.8212 -0.0973 -0.7092
 7748SOL     OW34876   3.954   0.180   7.042 -0.2598 -0.2792 -0.1880
 7748SOL    HW134877   3.943   0.218   7.129  0.6831  2.0068 -1.0749
 7748SOL    HW234878   3.995   0.258   7.004 -0.9409 -0.5684 -1.5376
 7749SOL     OW34879   0.507   3.022  15.319 -0.1736 -0.1689  0.4389
 7749SOL    HW134880   0.426   2.990  15.280 -0.4278  1.5421 -0.4629
 7749SOL    HW234881   0.556   2.940  15.323 -0.8185 -0.6519 -1.9724
 7750SOL     OW34882   0.244   0.769   1.482 -0.3342  0.1430  0.6093
 7750SOL    HW134883   0.310   0.799   1.419  1.3223 -1.9727  1.3238
 7750SOL    HW234884   0.180   0.732   1.422  0.4273  1.2632 -0.9071
 7751SOL     OW34885   3.445   1.189  15.585  0.0460 -0.1497  0.0353
 7751SOL    HW134886   3.394   1.231  15.516 -0.1214 -1.2978 -0.5332
 7751SOL    HW234887   3.488   1.113  15.546 -1.7988 -0.7824 -0.7909
 7752SOL     OW34888   4.357   2.343  16.974  0.1541 -0.7952 -0.0774
 7752SOL    HW134889   4.385   2.310  16.889  0.7402  0.7392 -0.4829
 7752SOL    HW234890   4.398   2.429  16.977 -1.4227 -0.0798  0.6939
 7753SOL     OW34891   1.650   4.091   2.076 -0.4023 -0.6110  0.5832
 7753SOL    HW134892   1.721   4.029   2.060 -1.4823 -1.7156  0.0778
 7753SOL    HW234893   1.632   4.128   1.989 -0.9887 -0.9552  0.5647
 7754SOL     OW34894   0.889   0.708   1.265  0.0599 -0.6514 -0.1337
 7754SOL    HW134895   0.915   0.796   1.238  2.1410 -0.7914  1.3999
 7754SOL    HW234896   0.918   0.641   1.203 -0.7742  1.0898 -2.3747
 7755SOL     OW34897   2.989   3.243  15.912 -0.3085 -0.1802  0.3886
 7755SOL    HW134898   2.933   3.273  15.841 -1.5032  0.1454  1.4832
 7755SOL    HW234899   2.998   3.150  15.893  0.7641 -0.2276  1.1085
 7756SOL     OW34900   3.349   3.297   4.780  0.4262  0.2547  0.2343
 7756SOL    HW134901   3.319   3.341   4.701  0.2068  0.1432  0.2557
 7756SOL    HW234902   3.264   3.272   4.816 -0.0032  2.3991  0.7699
 7757SOL     OW34903   1.660   1.521  15.747 -0.1349 -0.2367 -0.0485
 7757SOL    HW134904   1.741   1.558  15.783  0.1544 -0.8098 -0.1134
 7757SOL    HW234905   1.658   1.432  15.781 -1.2056 -0.3684 -0.4613
 7758SOL     OW34906   2.537   0.644  17.502  0.1504  0.8393 -0.1317
 7758SOL    HW134907   2.543   0.601  17.416  0.0654  0.0029  0.2794
 7758SOL    HW234908   2.442   0.658  17.506 -0.0704 -0.6889  0.1146
 7759SOL     OW34909   4.695   1.441  10.809 -0.0656 -0.4403 -0.0329
 7759SOL    HW134910   4.686   1.432  10.903  2.1453  0.0865  0.2419
 7759SOL    HW234911   4.701   1.348  10.787  1.1622  0.0473 -1.8439
 7760SOL     OW34912   2.107   3.299   5.725 -0.0928  0.4142 -0.5973
 7760SOL    HW134913   2.105   3.393   5.740 -0.0110  0.4783 -0.9906
 7760SOL    HW234914   2.196   3.287   5.757 -0.1244 -3.2773 -1.9123
 7761SOL     OW34915   2.182   3.652   1.098  0.5033  0.1984 -0.3721
 7761SOL    HW134916   2.217   3.719   1.156  1.3790  0.8799 -1.6988
 7761SOL    HW234917   2.121   3.713   1.056 -1.4881 -2.2737 -1.0959
 7762SOL     OW34918   1.955   4.003  14.595 -0.6615  0.0259 -0.2165
 7762SOL    HW134919   2.015   3.982  14.523  0.7960  1.2914  0.6099
 7762SOL    HW234920   1.870   3.966  14.573 -1.0103 -1.0680  2.9582
 7763SOL     OW34921   3.394   0.925   8.636  0.1935 -0.1505 -0.4096
 7763SOL    HW134922   3.371   0.895   8.548  0.3674 -0.2725 -0.4121
 7763SOL    HW234923   3.353   0.854   8.686  0.1362  0.3168  0.2104
 7764SOL     OW34924   3.676   1.152  10.975 -0.0891 -0.0468  0.3905
 7764SOL    HW134925   3.766   1.183  10.967  0.0500 -1.0805 -2.0127
 7764SOL    HW234926   3.664   1.140  10.881  0.7458  1.0374  0.1490
 7765SOL     OW34927   0.884   4.129  17.050  0.0714  0.3316  0.2246
 7765SOL    HW134928   0.890   4.178  16.968  0.0965 -1.3585 -0.7907
 7765SOL    HW234929   0.791   4.122  17.069  0.2563 -0.1454  0.9576
 7766SOL     OW34930   1.693   1.152  12.768  0.6604  0.4033  0.0645
 7766SOL    HW134931   1.701   1.074  12.823 -0.8581 -0.7061 -1.2882
 7766SOL    HW234932   1.754   1.211  12.812 -0.9807  1.1620  1.3397
 7767SOL     OW34933   2.360   4.247   6.374 -0.6385  0.1361 -0.0204
 7767SOL    HW134934   2.305   4.188   6.322 -0.7600 -1.5077  2.0016
 7767SOL    HW234935   2.312   4.257   6.456 -0.3320  1.6489 -0.0180
 7768SOL     OW34936   3.159   4.349   3.844 -0.2544 -0.1489  0.7152
 7768SOL    HW134937   3.153   4.293   3.766  0.2063 -0.3763  0.8425
 7768SOL    HW234938   3.197   4.284   3.902 -3.9549 -0.7991  2.4186
 7769SOL     OW34939   3.630   0.920   0.624 -0.2466 -0.2650  0.4481
 7769SOL    HW134940   3.596   0.973   0.696 -0.8289 -1.7386  1.2635
 7769SOL    HW234941   3.690   0.984   0.586  0.6885 -1.6973 -0.4882
 7770SOL     OW34942   3.653   2.006   9.432 -0.0528  0.1833  0.2831
 7770SOL    HW134943   3.648   2.101   9.430 -0.7830  0.1488  0.7491
 7770SOL    HW234944   3.689   1.979   9.516  2.3519  1.2201 -0.4081
 7771SOL     OW34945   0.980   3.725   3.773 -0.3678  0.2141  0.4125
 7771SOL    HW134946   0.948   3.782   3.703  0.8202 -0.0903 -0.3817
 7771SOL    HW234947   0.915   3.655   3.766  0.6956 -0.5582 -1.6884
 7772SOL     OW34948   0.019   2.648  16.021 -0.1080 -0.4442  0.4162
 7772SOL    HW134949   4.729   2.739  16.014 -0.6642 -0.6561 -0.2581
 7772SOL    HW234950   0.032   2.640  16.115 -1.0928 -0.1367  0.5776
 7773SOL     OW34951   1.550   0.982   5.349 -0.1210 -0.4357  0.1420
 7773SOL    HW134952   1.542   1.015   5.439  0.5016 -0.0491  0.0537
 7773SOL    HW234953   1.482   0.914   5.355 -0.8168  0.1077 -1.6984
 7774SOL     OW34954   1.947   2.898   0.130  0.0457  0.2260  0.5566
 7774SOL    HW134955   2.012   2.964   0.107 -0.9581  0.5994 -1.1794
 7774SOL    HW234956   1.874   2.960   0.123  1.3240  1.4225 -2.1073
 7775SOL     OW34957   3.109   4.661   2.798  0.2188  0.3130 -0.1922
 7775SOL    HW134958   3.057   0.004   2.791  0.6294  0.5712 -0.2322
 7775SOL    HW234959   3.179   4.677   2.735  2.5318  2.9446  3.0761
 7776SOL     OW34960   3.362   1.668   4.539  0.0677  0.1557  0.1329
 7776SOL    HW134961   3.344   1.711   4.455 -0.7792  1.3043  0.9145
 7776SOL    HW234962   3.442   1.709   4.571  0.7286 -1.3287  0.3991
 7777SOL     OW34963   4.435   4.320   8.555 -0.4780  0.8543  0.0488
 7777SOL    HW134964   4.381   4.383   8.603  0.0944 -0.2969  2.1993
 7777SOL    HW234965   4.510   4.374   8.529  1.0856 -0.9717  0.7704
 7778SOL     OW34966   1.829   0.951   3.849  0.1714 -0.1408  0.1985
 7778SOL    HW134967   1.900   1.000   3.891 -0.7016 -0.7236  2.3358
 7778SOL    HW234968   1.808   1.008   3.775 -2.0327 -0.3241  0.6857
 7779SOL     OW34969   0.181   1.234  12.161  0.7958 -0.3602  0.3717
 7779SOL    HW134970   0.255   1.202  12.110  1.3013 -1.0242  1.5136
 7779SOL    HW234971   0.224   1.296  12.220  1.2566  0.9890 -1.4013
 7780SOL     OW34972   0.852   3.196  11.822 -0.0936  0.1896  0.7707
 7780SOL    HW134973   0.895   3.115  11.797 -1.5750  0.4728 -2.7465
 7780SOL    HW234974   0.768   3.182  11.778  1.3667  0.7169 -2.1473
 7781SOL     OW34975   1.402   2.545  14.016  0.1019 -0.4301  0.2403
 7781SOL    HW134976   1.341   2.606  13.974  0.7487 -0.0970 -0.2174
 7781SOL    HW234977   1.395   2.468  13.961  3.0676 -1.3873  1.2115
 7782SOL     OW34978   0.965   3.575   8.309  0.8435  0.4828  0.3888
 7782SOL    HW134979   1.041   3.529   8.271  0.2004 -0.8845  0.7652
 7782SOL    HW234980   0.925   3.510   8.366 -0.2617 -0.7512 -1.7829
 7783SOL     OW34981   0.912   1.254   6.341  0.3264 -0.0918  0.0618
 7783SOL    HW134982   0.831   1.221   6.303  0.4405  0.9367 -1.0887
 7783SOL    HW234983   0.983   1.216   6.289 -0.3226 -1.4440  0.1822
 7784SOL     OW34984   2.975   0.390   0.294  0.0798  0.0681  0.6069
 7784SOL    HW134985   2.891   0.361   0.330  0.1131  1.0648  1.5029
 7784SOL    HW234986   2.995   0.449   0.366  1.2528  1.1818 -0.6503
 7785SOL     OW34987   3.306   3.582   9.196  0.5756 -0.6179  0.3527
 7785SOL    HW134988   3.363   3.561   9.122 -0.3765 -3.2274  0.3432
 7785SOL    HW234989   3.234   3.624   9.149  1.8559  0.4091 -0.7026
 7786SOL     OW34990   1.034   2.101  13.559  0.0486  0.1657  0.3565
 7786SOL    HW134991   0.993   2.041  13.621 -1.9716  0.7329 -0.4178
 7786SOL    HW234992   0.967   2.105  13.490  0.6489  2.2056 -0.1204
 7787SOL     OW34993   4.697   1.752   5.135 -0.8921  0.5692  0.1668
 7787SOL    HW134994   0.012   1.682   5.176 -0.2760 -0.2587 -2.0264
 7787SOL    HW234995   4.714   1.752   5.041 -0.4440  1.4756  0.2478
 7788SOL     OW34996   0.883   0.654   0.662  0.0225 -0.3320 -0.0681
 7788SOL    HW134997   0.952   0.715   0.635 -1.2059  1.3767  0.6274
 7788SOL    HW234998   0.827   0.645   0.585  0.8599 -0.0530 -0.7014
 7789SOL     OW34999   0.040   4.673   3.954 -0.3638  0.0441  0.1974
 7789SOL    HW135000   4.727   4.662   3.873 -0.6067 -1.5718  0.5695
 7789SOL    HW235001   0.018   4.590   3.995 -1.9476  0.6973  0.6524
 7790SOL     OW35002   4.032   4.377   4.848  0.2430  0.3542  0.1260
 7790SOL    HW135003   4.123   4.392   4.872 -1.1756  4.8936  2.8312
 7790SOL    HW235004   4.017   4.448   4.785 -1.5471 -2.3041 -2.4154
 7791SOL     OW35005   2.514   3.760   4.484  0.0994  0.4788 -0.0114
 7791SOL    HW135006   2.545   3.670   4.494 -1.4972  0.0680  1.2046
 7791SOL    HW235007   2.452   3.771   4.556  1.2569  1.6497  0.7970
 7792SOL     OW35008   2.712   3.157  15.400 -0.1771 -0.2752 -0.7336
 7792SOL    HW135009   2.781   3.094  15.423 -1.2744 -1.6714 -1.2333
 7792SOL    HW235010   2.769   3.233  15.399 -0.8290  0.1958 -2.1039
 7793SOL     OW35011   0.253   2.723   5.427  0.1922 -0.5649 -0.1179
 7793SOL    HW135012   0.258   2.789   5.496 -2.7008  0.5961 -1.0595
 7793SOL    HW235013   0.171   2.680   5.450  0.0451  0.8504  2.0261
 7794SOL     OW35014   0.376   3.592  10.477 -0.0163 -0.1485  0.2718
 7794SOL    HW135015   0.367   3.541  10.557  0.7911 -2.4717 -1.1068
 7794SOL    HW235016   0.395   3.679  10.513  0.8529  0.7866 -2.3794
 7795SOL     OW35017   3.118   3.237  16.950 -0.9489  0.5554  0.7559
 7795SOL    HW135018   3.121   3.291  16.870 -0.5059  1.3662  1.3207
 7795SOL    HW235019   3.189   3.275  17.001  0.4120 -2.2717  0.9477
 7796SOL     OW35020   3.318   2.305   7.340  0.7037 -0.3330  0.0097
 7796SOL    HW135021   3.357   2.333   7.423 -0.6282 -0.7289  0.7713
 7796SOL    HW235022   3.376   2.331   7.269  2.4849 -2.7346  0.5787
 7797SOL     OW35023   1.013   1.278   6.608 -0.1504  0.7781  0.0335
 7797SOL    HW135024   0.999   1.256   6.516 -0.6020 -1.9236  0.7667
 7797SOL    HW235025   0.934   1.329   6.626 -2.1518 -2.5194  0.5680
 7798SOL     OW35026   2.979   1.714  12.841 -0.1970 -0.2772  0.1622
 7798SOL    HW135027   2.907   1.716  12.777 -1.5538  0.1390  1.7081
 7798SOL    HW235028   3.053   1.722  12.781  0.4197 -1.3349  0.7856
 7799SOL     OW35029   1.854   4.492   6.696  0.3238  0.2901 -0.6687
 7799SOL    HW135030   1.814   4.458   6.776 -0.1917 -2.2102 -2.0108
 7799SOL    HW235031   1.787   4.537   6.645  0.2448 -0.8501 -1.5563
 7800SOL     OW35032   3.321   3.928   6.699 -0.4670 -0.0430  0.1729
 7800SOL    HW135033   3.249   3.973   6.743 -0.2096  2.0367 -1.5822
 7800SOL    HW235034   3.303   3.844   6.742  0.0138  1.0571  2.5323
 7801SOL     OW35035   2.003   1.382  16.208 -0.1651  0.0326  0.1906
 7801SOL    HW135036   2.038   1.337  16.131 -0.9682 -1.1835  0.5339
 7801SOL    HW235037   2.083   1.377  16.261 -0.5027  1.1825  0.7995
 7802SOL     OW35038   1.535   1.620   5.358  0.1354 -0.3857  0.4676
 7802SOL    HW135039   1.598   1.665   5.302  1.3396 -0.7453  1.5318
 7802SOL    HW235040   1.521   1.538   5.310 -2.3453  0.3152  0.0188
 7803SOL     OW35041   4.474   3.225   4.885  0.6300  0.4245  0.3855
 7803SOL    HW135042   4.519   3.299   4.844  2.0215 -1.6084 -1.7540
 7803SOL    HW235043   4.539   3.155   4.884 -1.6525 -1.6667 -0.1698
 7804SOL     OW35044   3.576   2.507   1.171  0.3498 -0.4044 -0.9073
 7804SOL    HW135045   3.507   2.445   1.145 -0.1734 -0.7024  1.1298
 7804SOL    HW235046   3.523   2.584   1.193 -0.8436 -0.6777 -2.8280
 7805SOL     OW35047   0.628   2.713   7.332 -0.2436 -0.5609  0.5467
 7805SOL    HW135048   0.556   2.776   7.343  1.0640  1.3976 -2.1091
 7805SOL    HW235049   0.595   2.637   7.380 -1.7550 -1.1470 -1.3740
 7806SOL     OW35050   2.122   1.857   6.360  0.3743 -0.1728 -0.3093
 7806SOL    HW135051   2.211   1.824   6.350  0.4503 -0.6573  1.9617
 7806SOL    HW235052   2.081   1.784   6.314 -1.1747  1.3441 -1.3320
 7807SOL     OW35053   1.719   2.326   3.522  0.0465 -0.1489  0.4998
 7807SOL    HW135054   1.631   2.340   3.488  0.3369  1.5749  0.4564
 7807SOL    HW235055   1.721   2.230   3.529 -2.2202 -0.1049  1.4904
 7808SOL     OW35056   0.102   4.689   5.111 -0.0682  0.1747  0.5358
 7808SOL    HW135057   0.159   0.026   5.129 -0.6468  0.3393  1.7142
 7808SOL    HW235058   0.050   4.732   5.044 -1.1731 -1.2328  0.4806
 7809SOL     OW35059   2.344   4.263  10.980  0.3191 -0.0720  0.0373
 7809SOL    HW135060   2.434   4.256  10.948 -0.3851  0.5810 -2.0990
 7809SOL    HW235061   2.319   4.344  10.935  1.4363 -0.0708 -0.5921
 7810SOL     OW35062   3.506   1.327  11.825  0.1406 -0.0866 -0.1760
 7810SOL    HW135063   3.508   1.404  11.882  2.4881 -0.7838  0.6959
 7810SOL    HW235064   3.418   1.319  11.789 -0.7062 -2.4486  2.4249
 7811SOL     OW35065   2.959   2.192   2.105  0.4977  0.3625 -0.0290
 7811SOL    HW135066   3.029   2.254   2.085 -1.3103  2.6777  0.8774
 7811SOL    HW235067   3.007   2.109   2.110 -0.8811 -0.3984  0.7776
 7812SOL     OW35068   2.792   4.311   5.854 -0.2465  0.3728 -0.2741
 7812SOL    HW135069   2.775   4.387   5.909  0.7089  1.2038 -1.1276
 7812SOL    HW235070   2.700   4.288   5.845 -1.1815  4.4793 -0.8706
 7813SOL     OW35071   0.904   4.367   5.219 -0.0735 -0.5080 -0.2731
 7813SOL    HW135072   0.843   4.379   5.292 -1.9869  2.8341 -2.4246
 7813SOL    HW235073   0.988   4.388   5.261 -0.6475 -1.7494  1.5045
 7814SOL     OW35074   1.863   0.706   1.966  0.3622  0.2386  0.3463
 7814SOL    HW135075   1.942   0.728   1.916 -1.2794  3.7304 -0.7769
 7814SOL    HW235076   1.832   0.652   1.893  0.4509 -1.0652  1.2803
 7815SOL     OW35077   3.727   2.480  16.629  0.0828 -0.9373 -0.2448
 7815SOL    HW135078   3.697   2.389  16.630  0.1121 -0.9346  1.2067
 7815SOL    HW235079   3.815   2.478  16.666 -0.3551  1.7005  0.9635
 7816SOL     OW35080   3.285   2.222  10.675 -0.1694 -0.0118  0.0514
 7816SOL    HW135081   3.307   2.188  10.588  0.4779  2.5200 -0.7704
 7816SOL    HW235082   3.342   2.165  10.727  1.3409  2.0789  0.6634
 7817SOL     OW35083   0.471   4.378  15.847 -0.1777  0.1264 -0.1049
 7817SOL    HW135084   0.435   4.438  15.781  0.6353  2.2510  1.3864
 7817SOL    HW235085   0.464   4.301  15.791 -2.0020 -0.0225  0.3222
 7818SOL     OW35086   2.740   2.992   8.259  0.1910 -0.4060  0.4445
 7818SOL    HW135087   2.740   3.047   8.338  0.2691  0.9763 -0.5198
 7818SOL    HW235088   2.674   3.033   8.203  0.4709  0.3951  0.7017
 7819SOL     OW35089   2.483   0.793   9.829 -0.8879  0.4622  0.7572
 7819SOL    HW135090   2.476   0.781   9.924 -1.2387  0.3903  0.7244
 7819SOL    HW235091   2.457   0.703   9.806 -0.5163  0.4738  0.2904
 7820SOL     OW35092   2.780   2.924   6.628  0.4594 -0.3239  0.5249
 7820SOL    HW135093   2.827   2.953   6.706  2.0516 -0.3155 -0.4426
 7820SOL    HW235094   2.688   2.930   6.652  0.4681 -1.4348  0.8512
 7821SOL     OW35095   3.342   3.907   9.062 -0.2285 -0.3714 -0.0495
 7821SOL    HW135096   3.351   3.819   9.099 -0.4668 -0.3096  0.1562
 7821SOL    HW235097   3.254   3.919   9.027  0.2200 -0.6198 -1.2521
 7822SOL     OW35098   0.487   1.982   5.456  0.3339  0.0803  0.2934
 7822SOL    HW135099   0.397   1.995   5.489  0.0949  1.4551 -0.9151
 7822SOL    HW235100   0.463   1.977   5.364  0.9901  0.5874  0.0998
 7823SOL     OW35101   1.818   0.431  13.045  0.6213 -0.1518  0.9384
 7823SOL    HW135102   1.847   0.387  12.965 -1.2551 -0.6842  0.5645
 7823SOL    HW235103   1.745   0.376  13.071 -1.1075  1.6762 -0.1009
 7824SOL     OW35104   1.697   1.852   0.349 -0.2564  0.0664 -0.5506
 7824SOL    HW135105   1.617   1.891   0.383 -0.8710 -0.2530 -1.6281
 7824SOL    HW235106   1.701   1.889   0.261  1.3593  3.8742  1.1489
 7825SOL     OW35107   2.093   3.554  10.617  0.1164 -0.4017  0.1293
 7825SOL    HW135108   2.104   3.648  10.608  0.9179 -0.4591  0.5074
 7825SOL    HW235109   2.044   3.527  10.539 -0.2194  0.9991 -0.1453
 7826SOL     OW35110   2.611   4.716   5.327 -0.2135  0.7184  1.0510
 7826SOL    HW135111   2.564   4.633   5.319  3.8201 -1.5526  0.6033
 7826SOL    HW235112   2.646   4.707   5.416  1.3103  0.1235  0.4001
 7827SOL     OW35113   2.377   3.352  12.447  0.2734  0.2532  0.2105
 7827SOL    HW135114   2.451   3.370  12.388 -1.7420 -0.6254 -2.5961
 7827SOL    HW235115   2.370   3.258  12.432 -0.4143  0.5238 -1.1227
 7828SOL     OW35116   0.540   2.124  12.787 -0.2857 -0.2026 -0.1128
 7828SOL    HW135117   0.555   2.110  12.694  2.6117 -0.1211  0.3184
 7828SOL    HW235118   0.554   2.033  12.811  0.0542 -0.8823 -2.9363
 7829SOL     OW35119   0.434   4.100   1.693  0.2369 -0.1938  0.4707
 7829SOL    HW135120   0.418   4.009   1.671  0.8723 -0.0585 -0.5562
 7829SOL    HW235121   0.357   4.119   1.746  0.0439 -0.5881  0.3266
 7830SOL     OW35122   3.791   1.411  10.020  0.1233  0.2030 -0.6040
 7830SOL    HW135123   3.791   1.372  10.108  0.2917  0.3208 -0.5505
 7830SOL    HW235124   3.872   1.374   9.984  0.4015  0.6676 -0.4724
 7831SOL     OW35125   1.355   2.241  15.899  0.0985 -0.1635 -0.3040
 7831SOL    HW135126   1.270   2.284  15.887 -0.4931 -1.5210 -0.9516
 7831SOL    HW235127   1.370   2.178  15.829  0.4312  2.0633 -2.2671
 7832SOL     OW35128   4.525   0.944   8.062  0.1960  0.2042 -0.1150
 7832SOL    HW135129   4.598   0.914   8.008 -0.4733 -0.2426 -0.7836
 7832SOL    HW235130   4.579   0.964   8.138  2.8602 -1.4156 -1.5952
 7833SOL     OW35131   3.254   1.958   7.676  0.0728 -0.9562 -0.7710
 7833SOL    HW135132   3.290   1.882   7.630 -0.0011 -0.0819 -2.2562
 7833SOL    HW235133   3.198   1.909   7.737  1.3704 -0.7603  0.5804
 7834SOL     OW35134   1.375   4.699   8.096  0.2974  0.3515  0.4237
 7834SOL    HW135135   1.301   0.007   8.136 -0.5830 -0.0896 -0.7149
 7834SOL    HW235136   1.444   4.716   8.160  2.0896 -1.9878 -0.8562
 7835SOL     OW35137   2.708   4.271   2.198 -0.1079  0.0233 -0.1253
 7835SOL    HW135138   2.663   4.293   2.116  0.3314  0.2011 -0.3174
 7835SOL    HW235139   2.669   4.341   2.250  0.6045 -0.5139  1.1360
 7836SOL     OW35140   1.043   0.525   0.109 -0.4770 -0.3366  0.4930
 7836SOL    HW135141   1.064   0.493   0.197 -1.7706  0.3189  1.0421
 7836SOL    HW235142   1.122   0.514   0.055 -2.5871 -0.7241 -2.4991
 7837SOL     OW35143   0.363   1.451  16.058  0.2594  0.2527 -0.3006
 7837SOL    HW135144   0.399   1.369  16.025  2.6526  1.6400 -1.0929
 7837SOL    HW235145   0.436   1.485  16.110  0.1932 -0.2524  0.1159
 7838SOL     OW35146   0.956   0.718   4.585  0.0662 -0.1512  0.1935
 7838SOL    HW135147   0.947   0.623   4.580  1.0253 -0.2734  0.7664
 7838SOL    HW235148   0.925   0.739   4.497 -0.0182 -0.5106  0.1403
 7839SOL     OW35149   2.486   3.162   2.549  0.4611  0.0971  0.2799
 7839SOL    HW135150   2.396   3.138   2.527 -0.1890  2.0910  0.7127
 7839SOL    HW235151   2.500   3.230   2.483  1.0757  1.6079  1.9612
 7840SOL     OW35152   2.970   3.747   8.104  0.3804  1.0314  0.8763
 7840SOL    HW135153   2.876   3.764   8.107  0.4299  1.9953 -3.1337
 7840SOL    HW235154   2.979   3.653   8.117 -1.8321  0.3733 -2.4551
 7841SOL     OW35155   1.628   2.551   3.219 -0.5306 -0.3393 -1.1184
 7841SOL    HW135156   1.724   2.556   3.213 -0.3665 -0.0651  1.6479
 7841SOL    HW235157   1.621   2.455   3.227  1.7975 -0.3682  0.9961
 7842SOL     OW35158   2.722   3.307   5.825  0.0385 -0.0025 -0.2187
 7842SOL    HW135159   2.761   3.351   5.900  1.0891 -0.3082 -0.5855
 7842SOL    HW235160   2.696   3.376   5.763 -2.0091 -1.5361 -1.0702
 7843SOL     OW35161   1.516   3.509   5.670 -0.2596 -0.5293 -0.0241
 7843SOL    HW135162   1.547   3.523   5.760 -2.4636  0.9128  0.5335
 7843SOL    HW235163   1.567   3.430   5.653 -0.5275 -0.5882 -0.5713
 7844SOL     OW35164   0.606   4.341   3.859 -0.4041  0.5356  0.4295
 7844SOL    HW135165   0.574   4.417   3.908  3.5047  2.4527 -0.0165
 7844SOL    HW235166   0.527   4.287   3.850  0.8180 -1.0674 -0.5574
 7845SOL     OW35167   0.820   0.625  10.183 -0.0698 -0.2129 -0.4545
 7845SOL    HW135168   0.796   0.551  10.128  0.3352  0.2679 -1.2741
 7845SOL    HW235169   0.736   0.660  10.212 -1.4427 -2.6377 -1.5693
 7846SOL     OW35170   2.934   4.178   7.411 -0.7223 -0.4182  0.2326
 7846SOL    HW135171   2.961   4.240   7.479 -1.7898  0.0448  0.2436
 7846SOL    HW235172   2.868   4.224   7.359  1.1091  0.0546 -1.6796
 7847SOL     OW35173   4.115   1.736   4.274 -0.2065 -0.1500 -0.1109
 7847SOL    HW135174   4.079   1.791   4.204 -0.0370  0.5228  0.3301
 7847SOL    HW235175   4.205   1.768   4.287  0.3168 -0.9283 -1.7657
 7848SOL     OW35176   4.160   0.497  11.080 -0.0549  0.0593 -0.6078
 7848SOL    HW135177   4.225   0.562  11.107 -1.0142  0.7495  0.0473
 7848SOL    HW235178   4.143   0.518  10.988 -2.4463  1.4409  0.1661
 7849SOL     OW35179   3.286   2.476   3.641 -0.3422 -0.3129  0.2526
 7849SOL    HW135180   3.335   2.543   3.688  0.5867  0.1842 -1.4352
 7849SOL    HW235181   3.275   2.406   3.706  3.6535 -0.5611  0.6570
 7850SOL     OW35182   0.939   4.235   9.874  0.2242 -0.4157  0.4352
 7850SOL    HW135183   0.945   4.217   9.968 -2.0701  1.0613  0.8782
 7850SOL    HW235184   0.933   4.330   9.863 -0.8446 -0.3314  1.6746
 7851SOL     OW35185   2.252   1.080   3.175 -0.9916 -0.3019 -0.5998
 7851SOL    HW135186   2.323   1.036   3.220 -0.5440  1.6561  0.6087
 7851SOL    HW235187   2.273   1.168   3.207  0.8463 -0.1408 -2.2804
 7852SOL     OW35188   1.686   3.060  10.307  0.6147 -0.5715 -0.7034
 7852SOL    HW135189   1.648   3.114  10.375  0.9562 -1.0952 -0.0983
 7852SOL    HW235190   1.769   3.108  10.300 -0.8592  2.1992  1.2010
 7853SOL     OW35191   3.988   3.880   7.652 -0.1890  0.1508  0.3584
 7853SOL    HW135192   4.005   3.967   7.688 -0.5812  0.7997 -1.0143
 7853SOL    HW235193   4.075   3.839   7.651  1.2464  3.1606  0.2289
 7854SOL     OW35194   3.433   1.403   4.615 -0.0390 -0.1602  0.0548
 7854SOL    HW135195   3.527   1.420   4.611 -0.3613  1.5337 -0.1074
 7854SOL    HW235196   3.411   1.481   4.565  2.3310  1.4576  1.5251
 7855SOL     OW35197   4.263   2.884  14.057  0.2440 -0.4611 -0.3702
 7855SOL    HW135198   4.294   2.957  14.111 -1.1613 -0.4520  0.4002
 7855SOL    HW235199   4.315   2.902  13.978 -0.4709 -0.9096 -0.9478
 7856SOL     OW35200   3.634   2.960   3.037 -0.2292  0.0394  0.1935
 7856SOL    HW135201   3.539   2.964   3.025 -0.5861  3.0590  3.8863
 7856SOL    HW235202   3.648   2.879   3.086 -0.9567 -1.1679 -1.6164
 7857SOL     OW35203   0.442   2.886   7.403 -0.1163  0.1488  0.0415
 7857SOL    HW135204   0.485   2.963   7.367 -0.3443  0.9070  1.3931
 7857SOL    HW235205   0.462   2.901   7.495 -0.8985 -0.5612  0.3271
 7858SOL     OW35206   1.094   3.724  10.654  0.5789  0.9277  0.0318
 7858SOL    HW135207   1.132   3.810  10.670  0.4864  1.2730 -1.5885
 7858SOL    HW235208   1.097   3.690  10.743  0.4797  1.0658  0.0874
 7859SOL     OW35209   0.340   3.873   9.974 -0.0477  0.0017  0.0151
 7859SOL    HW135210   0.357   3.868  10.068 -1.4128  0.3775  0.2738
 7859SOL    HW235211   0.406   3.806   9.956  0.0671 -0.1292  0.8832
 7860SOL     OW35212   0.552   3.183  15.551  0.4321 -0.3583 -0.1576
 7860SOL    HW135213   0.486   3.250  15.534  0.2507 -0.3755  0.4819
 7860SOL    HW235214   0.565   3.148  15.462 -0.2822 -0.6316 -0.1572
 7861SOL     OW35215   0.831   3.493   2.573  1.0545 -0.4452 -0.4048
 7861SOL    HW135216   0.805   3.575   2.614 -3.0483 -1.9800  0.0778
 7861SOL    HW235217   0.784   3.501   2.490  0.3478  1.5142  0.1992
 7862SOL     OW35218   4.388   3.224  12.040 -0.6041  0.3037  0.0090
 7862SOL    HW135219   4.412   3.268  11.959  1.8348 -1.9336 -0.4735
 7862SOL    HW235220   4.411   3.132  12.023 -2.0765  0.2039 -1.4349
 7863SOL     OW35221   1.949   0.244   1.222  0.1907  0.0094 -0.6268
 7863SOL    HW135222   1.870   0.213   1.265  0.9843  2.0676  2.2818
 7863SOL    HW235223   1.978   0.320   1.273  0.8044 -0.8746  0.3266
 7864SOL     OW35224   3.508   2.397   5.628  0.2980  0.3715  0.4129
 7864SOL    HW135225   3.447   2.461   5.593 -1.3668 -1.8730 -0.8538
 7864SOL    HW235226   3.594   2.436   5.611 -0.2037  1.2087 -0.1935
 7865SOL     OW35227   3.723   3.091   8.527 -0.3166  0.7531 -0.2982
 7865SOL    HW135228   3.627   3.092   8.535 -0.3887  0.9871 -1.1359
 7865SOL    HW235229   3.745   3.113   8.617  0.3304 -0.0346 -0.2637
 7866SOL     OW35230   1.244   2.512   7.746 -0.4480  0.5021  0.4735
 7866SOL    HW135231   1.254   2.521   7.651 -0.9524  1.2244  0.4911
 7866SOL    HW235232   1.149   2.505   7.756 -0.3534  0.6845  1.4148
 7867SOL     OW35233   0.650   1.152  14.238 -0.1640  0.1994 -0.2496
 7867SOL    HW135234   0.672   1.131  14.147 -1.1523  0.8944 -0.6541
 7867SOL    HW235235   0.571   1.104  14.263 -1.3247  1.0206 -2.3187
 7868SOL     OW35236   2.981   1.107   5.289 -0.1769  0.0622  0.4906
 7868SOL    HW135237   2.978   1.024   5.242 -2.4187 -0.2291  1.1536
 7868SOL    HW235238   2.930   1.091   5.369  0.4124 -2.7355  0.3124
 7869SOL     OW35239   2.951   0.858   9.960  0.6388 -0.4769  0.4159
 7869SOL    HW135240   3.025   0.911   9.932  1.0450 -0.2563  1.8968
 7869SOL    HW235241   2.906   0.831   9.880  1.2687 -0.7518  0.1517
 7870SOL     OW35242   1.694   1.432   3.915  0.6347 -0.4427  0.2304
 7870SOL    HW135243   1.700   1.522   3.883  0.3350 -0.0951  1.1447
 7870SOL    HW235244   1.634   1.394   3.851  1.1760 -0.6439 -0.1525
 7871SOL     OW35245   0.251   4.076  14.653  0.3359 -0.5501 -0.6880
 7871SOL    HW135246   0.266   4.140  14.722  2.2223  0.7862 -2.3475
 7871SOL    HW235247   0.331   4.023  14.643 -0.7725 -2.3832  0.1649
 7872SOL     OW35248   4.318   1.771  10.390  0.2432  0.7043  0.3649
 7872SOL    HW135249   4.348   1.821  10.314 -0.9393 -0.8464 -1.1239
 7872SOL    HW235250   4.222   1.781  10.390  0.4276  2.3765 -1.5008
 7873SOL     OW35251   1.183   4.002   8.261  0.2898  0.1329  0.3529
 7873SOL    HW135252   1.147   4.085   8.290 -4.3743 -1.8356  0.2395
 7873SOL    HW235253   1.108   3.951   8.230  0.5368 -0.2291  0.3477
 7874SOL     OW35254   3.795   3.072  16.912 -0.4350 -0.7197  0.2657
 7874SOL    HW135255   3.782   3.150  16.966 -0.9027 -0.1580 -0.6569
 7874SOL    HW235256   3.794   3.108  16.823 -0.1883  0.3617  0.7027
 7875SOL     OW35257   0.214   0.967  17.038 -0.2291  0.2019  0.6474
 7875SOL    HW135258   0.139   0.950  16.982 -0.5325  0.2906  1.0257
 7875SOL    HW235259   0.273   1.022  16.987 -0.0319 -0.9430 -0.3652
 7876SOL     OW35260   1.911   4.676   1.034 -0.3518 -0.1203 -0.1951
 7876SOL    HW135261   1.839   4.709   0.980  0.2894  3.2266  1.0310
 7876SOL    HW235262   1.961   0.019   1.051 -2.1903  0.1015  4.2145
 7877SOL     OW35263   4.447   2.283  17.237 -0.2312  0.0501  0.3125
 7877SOL    HW135264   4.354   2.298  17.252 -0.8403 -3.2293 -0.2683
 7877SOL    HW235265   4.464   2.298  17.144  5.0566  0.6736  1.3743
 7878SOL     OW35266   1.533   1.338   5.245  0.0582  0.1151 -0.2770
 7878SOL    HW135267   1.477   1.304   5.175  0.3956 -0.0795 -0.4543
 7878SOL    HW235268   1.622   1.339   5.209  0.1676  3.2543  0.0765
 7879SOL     OW35269   3.421   3.760   2.621  0.0111  0.0965 -0.0758
 7879SOL    HW135270   3.388   3.691   2.678  3.1240 -0.3632  1.1751
 7879SOL    HW235271   3.372   3.726   2.547  1.0566  2.3403 -1.7980
 7880SOL     OW35272   0.255   2.421  15.660  0.0570 -1.1616  0.3829
 7880SOL    HW135273   0.309   2.344  15.642 -0.6509 -1.3714 -0.7965
 7880SOL    HW235274   0.318   2.482  15.699 -1.4647  1.3659 -1.1250
 7881SOL     OW35275   2.516   3.144   4.716 -0.0817  0.4325  0.1185
 7881SOL    HW135276   2.605   3.172   4.738 -0.2186  1.9908 -1.2972
 7881SOL    HW235277   2.462   3.170   4.790  1.9414 -0.8194  2.0218
 7882SOL     OW35278   1.899   2.115   7.610  0.7185 -0.0699 -0.4016
 7882SOL    HW135279   1.967   2.103   7.544  0.3255  0.5751 -0.9290
 7882SOL    HW235280   1.938   2.161   7.684  0.0490 -0.3072  0.1064
 7883SOL     OW35281   0.475   0.811   3.343  0.4756  0.2016  0.1507
 7883SOL    HW135282   0.415   0.821   3.418 -2.4691 -0.4031 -2.1250
 7883SOL    HW235283   0.463   0.902   3.315  1.3686  0.4572  0.6013
 7884SOL     OW35284   2.055   2.238   3.326  0.0050 -0.8198  0.1450
 7884SOL    HW135285   2.130   2.298   3.332 -1.4135  1.0008 -0.2005
 7884SOL    HW235286   2.049   2.240   3.231  3.4349 -0.6583 -0.0503
 7885SOL     OW35287   1.510   0.539  12.679 -0.0554 -0.9605  0.3284
 7885SOL    HW135288   1.559   0.562  12.600 -0.0789 -0.5395  0.4380
 7885SOL    HW235289   1.489   0.448  12.659  1.9938 -1.1708 -0.8491
 7886SOL     OW35290   1.760   0.634   8.507  0.2485 -0.2305 -0.1483
 7886SOL    HW135291   1.823   0.638   8.435  1.3280  0.3133  0.8271
 7886SOL    HW235292   1.711   0.553   8.493 -1.2039  0.6676 -0.2178
 7887SOL     OW35293   3.375   0.697  17.416  0.3269 -0.1705  0.5884
 7887SOL    HW135294   3.436   0.646  17.469  1.0451  0.4508  0.3489
 7887SOL    HW235295   3.308   0.630  17.408  2.3317 -2.0208 -0.4946
 7888SOL     OW35296   2.137   2.824  15.933 -0.8003 -0.1011 -0.3826
 7888SOL    HW135297   2.041   2.825  15.934 -0.7873 -2.2647  1.2848
 7888SOL    HW235298   2.158   2.906  15.889 -0.0922 -0.9952 -1.7196
 7889SOL     OW35299   4.333   0.964   2.665  0.5660  0.4095  0.5185
 7889SOL    HW135300   4.357   1.033   2.602  0.1640  1.1775  1.2063
 7889SOL    HW235301   4.307   0.896   2.602  0.7728 -0.2318  1.1269
 7890SOL     OW35302   0.883   1.659   8.347 -0.7038  0.5290  0.2444
 7890SOL    HW135303   0.968   1.632   8.313  0.4722  3.6887  0.6983
 7890SOL    HW235304   0.897   1.640   8.439  1.9174  1.4294  0.0300
 7891SOL     OW35305   2.271   4.672  17.178  0.3023 -0.1936  0.1191
 7891SOL    HW135306   2.223   4.616  17.117  0.0695  0.9224 -0.7066
 7891SOL    HW235307   2.356   4.685  17.136  0.0266 -1.6968 -0.8801
 7892SOL     OW35308   4.060   0.978   7.583 -0.1508  0.3359  0.4957
 7892SOL    HW135309   4.091   0.922   7.511 -1.9453  0.8299 -0.6558
 7892SOL    HW235310   4.005   0.911   7.622 -0.2871 -1.2503 -2.3703
 7893SOL     OW35311   0.058   4.280   0.832  0.1845  0.0882 -0.1042
 7893SOL    HW135312   0.124   4.314   0.892 -2.3788  1.4591  1.9779
 7893SOL    HW235313   4.722   4.281   0.895 -1.0855  2.7196 -1.5794
 7894SOL     OW35314   1.505   0.222   4.696 -0.7210  0.4443 -0.3140
 7894SOL    HW135315   1.561   0.193   4.625  1.6893  2.6088  0.6963
 7894SOL    HW235316   1.573   0.247   4.759 -1.6310  2.6757 -0.2378
 7895SOL     OW35317   4.417   2.421  11.221 -1.0443 -0.1345  0.0717
 7895SOL    HW135318   4.343   2.479  11.241 -0.6131  0.8245 -1.1427
 7895SOL    HW235319   4.436   2.444  11.130 -3.3860 -0.9204 -0.6233
 7896SOL     OW35320   4.124   1.321  12.169 -0.4760 -0.2405 -0.8127
 7896SOL    HW135321   4.158   1.296  12.082 -3.0162 -3.0317 -0.9897
 7896SOL    HW235322   4.122   1.236  12.212  0.5517  0.4701  0.6147
 7897SOL     OW35323   4.107   0.395   0.180 -0.1106 -0.0376  0.3080
 7897SOL    HW135324   4.082   0.484   0.203  0.7626  0.1133  0.6813
 7897SOL    HW235325   4.169   0.398   0.108 -0.3692 -3.0268 -0.0640
 7898SOL     OW35326   4.673   2.651   8.491  0.5779  0.5059  0.0554
 7898SOL    HW135327   4.689   2.580   8.553  1.6560  0.6721 -0.0297
 7898SOL    HW235328   4.706   2.728   8.536 -0.7608  0.3019  1.3756
 7899SOL     OW35329   1.499   2.282   2.804 -0.0252 -0.4722  0.2270
 7899SOL    HW135330   1.503   2.234   2.721  0.0235 -0.0674 -0.0053
 7899SOL    HW235331   1.448   2.222   2.857 -0.9792  1.2709  1.2652
 7900SOL     OW35332   1.409   4.469   6.631  0.3621 -0.0059 -0.3814
 7900SOL    HW135333   1.319   4.466   6.597 -0.5526 -0.3469  2.0672
 7900SOL    HW235334   1.408   4.389   6.683 -1.1624  2.0711  2.7511
 7901SOL     OW35335   4.662   3.036   3.687 -0.3597 -0.0606 -0.0126
 7901SOL    HW135336   4.685   3.052   3.779  1.2671 -1.2643 -0.2103
 7901SOL    HW235337   4.581   2.985   3.683 -1.9501  2.6031 -1.9241
 7902SOL     OW35338   4.690   3.141  14.660 -0.0577  0.1452 -0.2966
 7902SOL    HW135339   4.719   3.189  14.737 -1.7568 -1.3053  1.2386
 7902SOL    HW235340   4.610   3.097  14.689  0.7023 -0.8439  0.3104
 7903SOL     OW35341   1.590   1.422   3.008 -0.2957  0.1713 -0.5099
 7903SOL    HW135342   1.587   1.326   3.006 -1.1670  0.2038 -0.7461
 7903SOL    HW235343   1.682   1.449   3.013  1.1534 -4.4716 -1.7916
 7904SOL     OW35344   4.218   0.622  16.232 -0.0599  0.1887 -0.1735
 7904SOL    HW135345   4.233   0.715  16.213 -0.8820  0.5113  0.8031
 7904SOL    HW235346   4.305   0.581  16.230 -0.6738 -1.2011  1.3863
 7905SOL     OW35347   3.583   4.549   7.839 -0.7879 -0.6236 -0.0391
 7905SOL    HW135348   3.620   4.461   7.826 -1.3998 -0.9664  0.5108
 7905SOL    HW235349   3.665   4.591   7.861 -0.7955 -1.0366  0.7796
 7906SOL     OW35350   0.409   3.052   8.158  0.2881  0.4383 -0.7192
 7906SOL    HW135351   0.481   3.043   8.220 -0.5344 -0.1919  0.1501
 7906SOL    HW235352   0.458   3.096   8.088  0.9130 -2.4749 -2.0918
 7907SOL     OW35353   3.882   1.925   3.446  0.1369 -0.4553 -0.2283
 7907SOL    HW135354   3.853   1.974   3.523 -0.9790 -1.9163  0.2928
 7907SOL    HW235355   3.805   1.909   3.391 -0.2929  2.3607 -0.4283
 7908SOL     OW35356   0.304   1.533   4.416  0.1588  0.1498 -0.0849
 7908SOL    HW135357   0.346   1.508   4.334  1.0969 -0.5077  0.5920
 7908SOL    HW235358   0.337   1.617   4.447  0.8048 -0.4755  0.9411
 7909SOL     OW35359   3.717   2.940   8.159  0.0680  0.2934 -0.6544
 7909SOL    HW135360   3.778   2.949   8.232 -0.9714  1.9472 -0.0020
 7909SOL    HW235361   3.646   2.897   8.207 -0.8598  0.9950 -1.4083
 7910SOL     OW35362   2.055   2.449  17.110  0.0015 -0.1471  0.0920
 7910SOL    HW135363   2.136   2.446  17.059  0.3296  0.9519  0.5631
 7910SOL    HW235364   2.043   2.364  17.153 -2.2433 -0.4271 -1.0671
 7911SOL     OW35365   3.911   2.544  17.365  0.9425  0.0743  0.0661
 7911SOL    HW135366   3.899   2.583  17.278  1.0997 -0.4510 -0.1894
 7911SOL    HW235367   3.820   2.545  17.396  0.3155 -1.4616 -1.7199
 7912SOL     OW35368   3.330   1.077   3.994  0.9092 -0.2641 -0.4120
 7912SOL    HW135369   3.393   1.112   4.056 -0.5679  0.2103  0.8276
 7912SOL    HW235370   3.402   1.071   3.931  0.9348 -0.5850 -0.3488
 7913SOL     OW35371   0.433   3.211  10.308 -0.6963 -0.2130  0.1300
 7913SOL    HW135372   0.466   3.150  10.241  0.1509  0.7357 -0.3235
 7913SOL    HW235373   0.344   3.229  10.280 -0.3920 -1.1396 -1.4649
 7914SOL     OW35374   1.888   4.589  17.041 -0.6791 -0.7416  0.3962
 7914SOL    HW135375   1.969   4.560  16.999 -2.2166 -0.4766 -2.7626
 7914SOL    HW235376   1.900   4.556  17.130 -1.1370  0.3621  0.8729
 7915SOL     OW35377   1.514   2.532   7.791  0.1804  0.0988  0.0575
 7915SOL    HW135378   1.422   2.513   7.772 -0.1984  0.0511  2.0356
 7915SOL    HW235379   1.482   2.605   7.843  1.1954  2.7766 -3.0354
 7916SOL     OW35380   1.460   2.612   2.972 -0.1235  0.1266 -0.1044
 7916SOL    HW135381   1.466   2.541   3.036  0.3237  1.6280  1.5364
 7916SOL    HW235382   1.443   2.557   2.895 -1.0958  1.3649 -0.7730
 7917SOL     OW35383   0.382   0.227   8.425  0.3358 -0.1321 -0.2510
 7917SOL    HW135384   0.383   0.320   8.400  2.5790 -0.0467  0.1340
 7917SOL    HW235385   0.449   0.201   8.362  3.0647  1.3407  2.0275
 7918SOL     OW35386   2.108   4.416   6.790  0.6361 -0.0565 -0.4443
 7918SOL    HW135387   2.017   4.442   6.777 -0.3586 -3.3522  0.0530
 7918SOL    HW235388   2.142   4.505   6.782 -0.6046  0.2678 -1.9969
 7919SOL     OW35389   2.198   3.482   4.648 -0.0821  0.3816  0.3264
 7919SOL    HW135390   2.218   3.452   4.737 -0.2366 -0.6486  0.0071
 7919SOL    HW235391   2.108   3.450   4.642 -0.2769  0.7333  1.3252
 7920SOL     OW35392   0.760   1.588  17.077 -0.2310 -0.4862  0.8246
 7920SOL    HW135393   0.797   1.581  16.989 -1.8919  2.5634 -0.1338
 7920SOL    HW235394   0.746   1.683  17.080  1.6560 -0.1365 -1.4721
 7921SOL     OW35395   2.068   0.386  16.256  0.0869 -0.3555 -0.2139
 7921SOL    HW135396   2.011   0.313  16.231 -0.6120 -0.7643  2.6237
 7921SOL    HW235397   2.155   0.350  16.236 -0.3418  0.4057 -3.5904
 7922SOL     OW35398   2.542   0.294   5.035 -0.2238  0.5746 -0.6120
 7922SOL    HW135399   2.563   0.309   4.943  0.6102  1.6827 -0.2365
 7922SOL    HW235400   2.572   0.204   5.049 -0.4093  1.0995  3.0723
 7923SOL     OW35401   4.633   1.563  11.444 -0.2059 -0.1760  0.4934
 7923SOL    HW135402   4.562   1.626  11.459 -0.9894 -1.0210  0.3376
 7923SOL    HW235403   4.645   1.533  11.534  2.1594 -0.9856 -0.1040
 7924SOL     OW35404   2.039   4.248   4.857  0.9422 -0.0133  0.1836
 7924SOL    HW135405   1.983   4.204   4.793  0.1392 -1.1121  1.6560
 7924SOL    HW235406   2.075   4.305   4.788 -0.0143  0.6130  0.2028
 7925SOL     OW35407   2.824   1.512   2.982  0.3909 -0.4151 -0.3413
 7925SOL    HW135408   2.849   1.498   2.891 -0.5477  1.6497 -0.9070
 7925SOL    HW235409   2.732   1.489   2.975  0.8002 -2.0080 -0.5635
 7926SOL     OW35410   3.865   4.142   2.991 -0.1395  0.7657  0.0153
 7926SOL    HW135411   3.850   4.130   2.897 -0.8842 -1.7411  0.4442
 7926SOL    HW235412   3.773   4.157   3.014 -0.7180 -0.4810 -1.4906
 7927SOL     OW35413   0.000   2.501  16.915 -0.1699 -0.0911  0.0027
 7927SOL    HW135414   0.048   2.553  16.850  0.5078  2.2202  2.3031
 7927SOL    HW235415   0.041   2.415  16.923  0.5717  0.1478 -1.1483
 7928SOL     OW35416   2.122   3.856  10.586 -0.1181  0.2088 -0.3020
 7928SOL    HW135417   2.037   3.867  10.629  0.0442 -1.5995  0.4778
 7928SOL    HW235418   2.180   3.927  10.612  0.8973 -0.0952 -1.7630
 7929SOL     OW35419   1.568   3.424  14.047  0.1328  0.2093  0.2473
 7929SOL    HW135420   1.593   3.338  14.012 -0.0636 -0.1692  1.0395
 7929SOL    HW235421   1.540   3.387  14.130 -1.2566  0.3804 -0.1556
 7930SOL     OW35422   1.920   3.348   4.932  0.0474  0.3632 -0.4435
 7930SOL    HW135423   1.915   3.329   4.838 -3.5102 -2.2622  0.2512
 7930SOL    HW235424   1.830   3.336   4.962 -0.1947  2.1408 -0.4714
 7931SOL     OW35425   2.851   2.044  16.894 -0.4533  0.0667  0.1765
 7931SOL    HW135426   2.814   2.065  16.808  1.1664  3.9281  0.3793
 7931SOL    HW235427   2.936   2.088  16.887 -0.7402  0.8382  1.5593
 7932SOL     OW35428   4.458   3.147   3.081 -0.4128  0.3307  0.0707
 7932SOL    HW135429   4.509   3.109   3.009  0.8821  1.8303  0.1878
 7932SOL    HW235430   4.363   3.142   3.070 -0.3018 -2.5773  0.5001
 7933SOL     OW35431   4.129   3.276   2.338 -0.1109 -1.0212 -0.3580
 7933SOL    HW135432   4.075   3.248   2.412 -1.0840 -1.9772 -1.4172
 7933SOL    HW235433   4.056   3.274   2.276  0.0439  0.1186 -0.5841
 7934SOL     OW35434   4.483   1.043   3.935 -0.2006  0.2679 -0.1713
 7934SOL    HW135435   4.559   1.098   3.914  1.1861 -1.2243  1.0000
 7934SOL    HW235436   4.439   1.029   3.852 -1.3897  2.4338  0.0963
 7935SOL     OW35437   2.360   4.223   2.673  0.2797  0.2863 -0.2050
 7935SOL    HW135438   2.295   4.175   2.621  0.9267  0.5549 -1.2578
 7935SOL    HW235439   2.363   4.303   2.619  1.3255 -1.4383 -2.6755
 7936SOL     OW35440   2.150   1.795  10.319 -0.0466 -0.1834  0.1557
 7936SOL    HW135441   2.219   1.847  10.278  0.3790 -1.3207 -0.5780
 7936SOL    HW235442   2.139   1.849  10.397 -1.6246  0.6055 -0.6273
 7937SOL     OW35443   2.932   2.873   5.482  0.3563  0.0344 -0.0930
 7937SOL    HW135444   2.885   2.810   5.536 -0.9541  0.5053 -0.6837
 7937SOL    HW235445   2.863   2.938   5.468 -0.9962 -1.5034 -0.4732
 7938SOL     OW35446   3.542   3.895   6.525  0.3955  0.2905  0.0584
 7938SOL    HW135447   3.449   3.894   6.549  0.2025  0.9102 -0.6573
 7938SOL    HW235448   3.579   3.858   6.605  0.8550  1.0102  0.1781
 7939SOL     OW35449   2.367   1.431   2.025 -0.9875 -0.2447  0.0751
 7939SOL    HW135450   2.294   1.398   2.078 -0.0790 -0.4940  1.1708
 7939SOL    HW235451   2.434   1.367   2.051  0.9847  0.1794 -3.9230
 7940SOL     OW35452   3.925   0.632  12.341 -0.0032 -0.5055  0.2686
 7940SOL    HW135453   3.905   0.630  12.434 -0.3248 -2.9736  0.1433
 7940SOL    HW235454   4.019   0.616  12.347 -0.6034 -3.6427  1.2876
 7941SOL     OW35455   3.078   2.120   5.311  0.4666 -0.2724 -0.3102
 7941SOL    HW135456   3.102   2.069   5.233  2.7220 -0.2117  0.3456
 7941SOL    HW235457   2.984   2.137   5.304  0.3434 -0.8613 -0.0637
 7942SOL     OW35458   2.221   2.349   7.595 -0.4969 -0.1262 -0.3137
 7942SOL    HW135459   2.286   2.417   7.617 -0.8776  0.4288 -0.9021
 7942SOL    HW235460   2.194   2.338   7.686  0.2485 -0.1424 -0.0927
 7943SOL     OW35461   1.522   4.646   4.109  0.0675 -0.5532 -0.2498
 7943SOL    HW135462   1.579   4.570   4.104 -0.6205 -1.1564  1.0687
 7943SOL    HW235463   1.566   4.705   4.048 -0.3445 -1.6633 -1.5967
 7944SOL     OW35464   2.271   3.963  16.923 -0.0509 -0.0706  0.1268
 7944SOL    HW135465   2.181   3.950  16.892 -0.8276 -0.0839  2.3915
 7944SOL    HW235466   2.319   3.895  16.876  0.0807 -0.7481  1.2457
 7945SOL     OW35467   4.402   0.809  15.876 -0.2158  0.1585 -0.1281
 7945SOL    HW135468   4.490   0.781  15.850  0.4106  0.8317  1.2625
 7945SOL    HW235469   4.412   0.902  15.856 -1.8461  0.2557 -0.4858
 7946SOL     OW35470   3.608   1.739   4.587  0.0807  0.0581  0.1582
 7946SOL    HW135471   3.634   1.656   4.547  2.4639  1.1839 -0.6796
 7946SOL    HW235472   3.690   1.785   4.566 -1.3274  2.1655 -0.6991
 7947SOL     OW35473   2.994   3.726   2.564  0.7714  0.3160 -0.0134
 7947SOL    HW135474   2.964   3.710   2.475  0.4755 -1.3167  0.3742
 7947SOL    HW235475   2.920   3.781   2.589  0.4512 -0.5682  1.0023
 7948SOL     OW35476   0.748   4.218   8.346 -0.3362 -0.1627 -0.2522
 7948SOL    HW135477   0.735   4.203   8.253  1.2042  1.9468 -0.8117
 7948SOL    HW235478   0.714   4.140   8.390 -1.2928  1.1646  1.3939
 7949SOL     OW35479   3.983   1.731  10.112 -0.1779  0.8104 -0.2974
 7949SOL    HW135480   4.033   1.664  10.065  0.5490  0.0015  1.6580
 7949SOL    HW235481   3.900   1.709  10.068 -0.9729  0.8353  1.1885
 7950SOL     OW35482   0.876   2.498   6.826  0.0475  0.0761 -0.3050
 7950SOL    HW135483   0.842   2.421   6.780  0.4964 -0.1933 -0.1862
 7950SOL    HW235484   0.818   2.482   6.901  1.8067  1.0582  1.2508
 7951SOL     OW35485   3.175   3.681   5.434  0.3549 -0.7445 -0.5424
 7951SOL    HW135486   3.156   3.769   5.468  2.8880  0.0698 -1.2489
 7951SOL    HW235487   3.252   3.701   5.380 -1.2198  0.8213 -2.2190
 7952SOL     OW35488   1.538   0.739   2.982  0.0989  0.2210  0.6861
 7952SOL    HW135489   1.499   0.721   2.897  0.4254  0.4911  0.4785
 7952SOL    HW235490   1.475   0.795   3.027 -0.1734  0.7643 -0.3612
 7953SOL     OW35491   0.380   3.238   8.778  0.2098 -0.4512 -0.6040
 7953SOL    HW135492   0.303   3.244   8.834  0.4895 -0.7841 -0.1893
 7953SOL    HW235493   0.441   3.239   8.851 -1.1423 -0.1094  0.5082
 7954SOL     OW35494   1.606   0.540   4.117  0.3351 -0.0338  0.8856
 7954SOL    HW135495   1.614   0.545   4.213  0.2012  1.9151  0.7892
 7954SOL    HW235496   1.656   0.463   4.090  0.0186  1.5174 -3.9556
 7955SOL     OW35497   0.993   1.286   8.288 -0.1133  0.0070 -0.3157
 7955SOL    HW135498   1.068   1.346   8.292  1.4958 -1.8905 -1.7995
 7955SOL    HW235499   1.032   1.220   8.231  3.0431  1.0427  0.6365
 7956SOL     OW35500   1.611   2.851   1.310  1.0338  0.3701  0.4669
 7956SOL    HW135501   1.695   2.846   1.355  1.0940 -1.6299  0.1384
 7956SOL    HW235502   1.605   2.943   1.285 -1.9175  0.4787  1.5281
 7957SOL     OW35503   1.020   1.876   4.816  0.0724 -0.0715 -0.1399
 7957SOL    HW135504   0.943   1.829   4.784 -0.4101 -0.1519  1.1537
 7957SOL    HW235505   1.089   1.830   4.768  1.9822  1.1750  1.3934
 7958SOL     OW35506   3.506   3.282   2.720  0.1622  0.4270  0.3973
 7958SOL    HW135507   3.453   3.214   2.761 -1.1296  1.4933  0.4853
 7958SOL    HW235508   3.585   3.282   2.775  1.0255 -0.4381 -0.8288
 7959SOL     OW35509   4.536   0.816   9.081 -0.6758 -0.3393  0.2977
 7959SOL    HW135510   4.465   0.752   9.071 -1.5056  0.0085  3.8808
 7959SOL    HW235511   4.544   0.808   9.176  0.5348 -0.9990  0.1380
 7960SOL     OW35512   0.934   4.211   6.308 -0.3719  0.2667 -0.1877
 7960SOL    HW135513   0.849   4.205   6.352 -0.4878  0.7887 -0.3333
 7960SOL    HW235514   0.994   4.208   6.382 -2.1094 -1.3797  1.1673
 7961SOL     OW35515   1.899   3.580   7.528 -0.2326  0.3389  0.1254
 7961SOL    HW135516   1.900   3.490   7.497 -1.9004  1.7576 -4.0282
 7961SOL    HW235517   1.947   3.630   7.462  1.8906 -0.2571  1.2447
 7962SOL     OW35518   4.425   2.568   0.348 -0.4731 -0.0302 -0.6626
 7962SOL    HW135519   4.420   2.629   0.422  0.1691 -1.8788  0.9296
 7962SOL    HW235520   4.501   2.595   0.297 -1.6086  2.5055 -0.9688
 7963SOL     OW35521   4.579   3.002  11.410 -0.2703  0.3209  0.4701
 7963SOL    HW135522   4.491   3.038  11.420 -0.3858 -0.3887  1.9676
 7963SOL    HW235523   4.563   2.912  11.380 -1.3549  0.7281 -0.1833
 7964SOL     OW35524   2.888   3.181   5.659 -0.3246  0.2173  0.2170
 7964SOL    HW135525   2.915   3.268   5.629  1.5282  0.1726  1.7472
 7964SOL    HW235526   2.823   3.216   5.720 -0.0299  1.7686 -0.3478
 7965SOL     OW35527   3.372   1.853   3.594 -0.0055  0.0095  0.1533
 7965SOL    HW135528   3.391   1.825   3.684 -2.1557 -1.8156  0.0306
 7965SOL    HW235529   3.384   1.771   3.546 -0.6465  0.0296 -0.0441
 7966SOL     OW35530   3.536   0.007  10.723  0.2306  0.1375  0.1472
 7966SOL    HW135531   3.541   0.007  10.819 -2.0900 -0.2062  0.2784
 7966SOL    HW235532   3.481   4.667  10.709  1.1565 -0.7022  1.1308
 7967SOL     OW35533   3.838   2.684  14.896  0.2735 -0.6943  0.2288
 7967SOL    HW135534   3.902   2.715  14.960 -1.6689  2.6195  0.5918
 7967SOL    HW235535   3.878   2.611  14.849  0.0964 -1.1364  0.7728
 7968SOL     OW35536   3.068   2.559   6.788  0.4813 -0.0666 -0.2103
 7968SOL    HW135537   3.036   2.512   6.712 -2.3485 -0.8018  1.4415
 7968SOL    HW235538   3.149   2.590   6.747 -0.1676  1.5014 -0.2994
 7969SOL     OW35539   0.739   2.824  12.272  0.1372 -0.8507  0.1222
 7969SOL    HW135540   0.792   2.795  12.198  1.8220 -0.7448  1.2809
 7969SOL    HW235541   0.704   2.906  12.239 -2.1865 -1.5713  0.8060
 7970SOL     OW35542   2.516   0.249  17.247 -0.1679 -0.4642  0.3388
 7970SOL    HW135543   2.586   0.290  17.297  0.5587 -0.7830 -0.4120
 7970SOL    HW235544   2.536   0.156  17.255  0.1461 -0.3356  0.9725
 7971SOL     OW35545   1.258   1.256  16.851 -0.0232 -0.3442  0.1007
 7971SOL    HW135546   1.196   1.319  16.889  1.4321  0.6644  0.8249
 7971SOL    HW235547   1.296   1.305  16.778 -0.4877  1.3689  1.0100
 7972SOL     OW35548   4.572   0.399   7.418 -0.0212  0.2808  0.0137
 7972SOL    HW135549   4.554   0.441   7.503 -2.5630  2.1593 -1.4322
 7972SOL    HW235550   4.665   0.414   7.407 -0.2440  0.4172 -1.7354
 7973SOL     OW35551   2.094   3.244   3.514  0.7296  0.4322 -0.1726
 7973SOL    HW135552   2.099   3.148   3.518 -0.3859  0.3528 -0.8796
 7973SOL    HW235553   2.121   3.256   3.423 -1.1451  0.9498 -0.6425
 7974SOL     OW35554   0.012   1.195  10.735 -0.6013  0.0275  0.1094
 7974SOL    HW135555   4.695   1.155  10.803  1.9986 -0.3067  1.9827
 7974SOL    HW235556   4.696   1.184  10.657  0.5081 -1.7406 -0.3826
 7975SOL     OW35557   3.616   0.107   7.332  0.1722 -0.2063 -0.2261
 7975SOL    HW135558   3.650   0.196   7.323 -1.3193  0.5018  1.2227
 7975SOL    HW235559   3.630   0.092   7.426  0.0033 -1.7236 -0.4333
 7976SOL     OW35560   3.366   2.716   9.195 -0.6587 -0.1825 -0.1881
 7976SOL    HW135561   3.453   2.752   9.213 -0.4473 -0.9695  0.3449
 7976SOL    HW235562   3.318   2.799   9.191  0.7114  0.5509 -2.0110
 7977SOL     OW35563   1.554   1.300   0.428 -0.3878  0.2903 -0.3594
 7977SOL    HW135564   1.640   1.321   0.392  0.0943  0.6138  0.9779
 7977SOL    HW235565   1.534   1.382   0.472  0.1762 -0.5556  1.4909
 7978SOL     OW35566   0.738   2.295  12.784  0.1446 -0.2171  0.0719
 7978SOL    HW135567   0.670   2.233  12.810 -1.1277  0.5598 -1.3762
 7978SOL    HW235568   0.807   2.270  12.846  0.5699 -1.1760 -0.7896
 7979SOL     OW35569   2.823   4.618   7.013  0.2162 -0.2634  1.1178
 7979SOL    HW135570   2.850   4.550   6.951  1.6406 -1.3339  2.8998
 7979SOL    HW235571   2.826   4.694   6.956  2.1594 -1.2699 -0.1232
 7980SOL     OW35572   2.050   1.378  11.887 -0.4752  0.2426  0.1447
 7980SOL    HW135573   2.006   1.313  11.941  0.6046 -1.6317 -1.1906
 7980SOL    HW235574   2.109   1.419  11.950 -0.0675  0.6913 -0.5349
 7981SOL     OW35575   1.299   2.992   2.614 -0.2412 -0.4216  0.5814
 7981SOL    HW135576   1.244   2.989   2.693  0.1325 -0.0300  0.8583
 7981SOL    HW235577   1.327   2.900   2.615  0.2270 -0.2750  1.8792
 7982SOL     OW35578   1.578   2.980   1.982  0.7285 -0.4765  0.0156
 7982SOL    HW135579   1.535   2.956   2.064 -0.3978 -0.3635 -0.5421
 7982SOL    HW235580   1.537   3.061   1.953  1.0918  0.4197  2.0136
 7983SOL     OW35581   1.520   0.838  17.445 -0.1408  0.6719  0.2350
 7983SOL    HW135582   1.517   0.745  17.425  0.0065  0.7429 -0.1181
 7983SOL    HW235583   1.456   0.851  17.514 -1.4469  2.7280 -1.3517
 7984SOL     OW35584   4.489   1.442  11.255  0.9904  0.4870  0.2859
 7984SOL    HW135585   4.414   1.502  11.253  0.1346 -0.5615  0.9444
 7984SOL    HW235586   4.535   1.461  11.337 -1.9288  1.2268  1.7635
 7985SOL     OW35587   1.814   4.358   1.419 -0.2233 -0.4043  0.1596
 7985SOL    HW135588   1.890   4.325   1.371  0.5441  0.3120  0.8829
 7985SOL    HW235589   1.777   4.401   1.341  0.6136 -0.9504 -0.5436
 7986SOL     OW35590   2.037   4.113   3.584 -0.0357  0.9997  0.4312
 7986SOL    HW135591   1.982   4.190   3.597 -1.1240  0.2104  0.4140
 7986SOL    HW235592   2.120   4.150   3.615  0.7332  0.1215 -0.5762
 7987SOL     OW35593   1.984   1.345   2.773  0.2187 -0.0312 -0.3694
 7987SOL    HW135594   2.003   1.286   2.846 -0.1564 -1.7388 -1.6541
 7987SOL    HW235595   2.064   1.337   2.721  0.5920 -0.6759  0.3058
 7988SOL     OW35596   2.128   4.559   8.590 -0.2220 -0.1964 -0.4938
 7988SOL    HW135597   2.112   4.464   8.595  0.4037 -0.2420  0.6134
 7988SOL    HW235598   2.036   4.587   8.591 -0.1456  0.0317  1.0005
 7989SOL     OW35599   0.801   2.634  10.325 -0.1715  0.4996 -0.4897
 7989SOL    HW135600   0.801   2.729  10.334 -0.0755  0.6725 -2.3171
 7989SOL    HW235601   0.742   2.622  10.251 -0.1679  1.1590 -0.5925
 7990SOL     OW35602   4.107   2.077  16.795  0.3469  0.0679 -0.0108
 7990SOL    HW135603   4.024   2.071  16.842  0.3690 -2.2636 -0.2849
 7990SOL    HW235604   4.099   2.162  16.751  1.2525  0.8204  1.2516
 7991SOL     OW35605   4.149   1.976   9.168  0.4893  0.6293 -0.5638
 7991SOL    HW135606   4.188   1.920   9.235 -1.0629  1.4471  1.0221
 7991SOL    HW235607   4.181   1.950   9.081  0.6595  1.2207 -0.6772
 7992SOL     OW35608   3.274   0.329   8.373 -0.2601 -0.8933 -0.2926
 7992SOL    HW135609   3.201   0.332   8.436  1.0616  0.2343  1.1789
 7992SOL    HW235610   3.242   0.305   8.286  1.6556 -1.1915 -0.9167
 7993SOL     OW35611   1.932   4.367  15.480 -0.4315 -1.2888 -0.4148
 7993SOL    HW135612   1.862   4.318  15.522 -0.5735 -0.1344  0.7079
 7993SOL    HW235613   1.971   4.404  15.559 -0.2607 -1.2399 -0.5212
 7994SOL     OW35614   2.807   0.093   3.153 -0.0864  0.0196 -0.6015
 7994SOL    HW135615   2.762   0.157   3.209 -0.4569 -0.4388 -0.3761
 7994SOL    HW235616   2.849   0.137   3.079  1.0780 -0.5707 -0.2898
 7995SOL     OW35617   3.126   2.793   4.953 -0.2113  0.1544  0.5403
 7995SOL    HW135618   3.047   2.768   5.001 -0.6538 -0.0949 -0.3091
 7995SOL    HW235619   3.178   2.827   5.025 -1.6281  0.2967  1.5055
 7996SOL     OW35620   3.015   1.272   4.850  0.8209 -0.1517 -0.0679
 7996SOL    HW135621   3.061   1.255   4.768  1.8559 -0.2569  0.5354
 7996SOL    HW235622   2.935   1.222   4.834  0.1162 -0.4843  4.4732
 7997SOL     OW35623   3.943   0.130   3.242  0.1199  0.8080  0.1696
 7997SOL    HW135624   4.000   0.189   3.193 -1.1773 -0.5434 -3.0107
 7997SOL    HW235625   4.016   0.087   3.286  1.8036  1.9409 -1.5361
 7998SOL     OW35626   4.692   0.494  14.291  0.4558 -0.3950  0.2206
 7998SOL    HW135627   4.652   0.459  14.371  1.3618 -0.0602  0.8177
 7998SOL    HW235628   0.049   0.490  14.308  0.5053  0.8293  0.2358
 7999SOL     OW35629   3.636   0.727   2.736 -0.2192 -0.3116  0.3497
 7999SOL    HW135630   3.715   0.773   2.709 -1.1467 -0.7480 -3.0528
 7999SOL    HW235631   3.592   0.788   2.795 -1.0410 -0.5105 -0.0566
 8000SOL     OW35632   4.044   1.812   7.555 -0.0888  0.0073  0.3534
 8000SOL    HW135633   3.950   1.805   7.540 -0.0870 -1.8642  1.3267
 8000SOL    HW235634   4.075   1.728   7.589  2.0806  0.3751 -0.6462
 8001SOL     OW35635   2.768   1.252   4.000 -0.4664  0.2646  0.5147
 8001SOL    HW135636   2.775   1.288   4.088 -1.7089 -3.5637  2.1404
 8001SOL    HW235637   2.785   1.332   3.950 -1.7670  1.0002  1.2642
 8002SOL     OW35638   1.191   4.067   8.901  0.4650 -0.4697  0.2604
 8002SOL    HW135639   1.203   4.139   8.963  3.5836 -0.8905  0.1299
 8002SOL    HW235640   1.279   4.029   8.899 -0.6023 -2.9170 -0.8068
 8003SOL     OW35641   3.077   1.301   5.887 -0.7152 -0.6068  0.2376
 8003SOL    HW135642   3.077   1.395   5.902  1.9593 -0.6833  0.6212
 8003SOL    HW235643   3.095   1.267   5.974 -2.8087  4.8461  2.7764
 8004SOL     OW35644   1.075   4.208  10.626  0.2285  0.2187 -0.4827
 8004SOL    HW135645   1.058   4.292  10.669  0.6637  0.2724 -0.4232
 8004SOL    HW235646   1.042   4.151  10.695 -0.3421  2.6105  1.2345
 8005SOL     OW35647   1.779   3.340   2.359  0.0719 -0.6087  0.2687
 8005SOL    HW135648   1.822   3.263   2.322  0.3754  1.1729 -3.1130
 8005SOL    HW235649   1.693   3.331   2.319 -0.5836 -0.5538  1.6743
 8006SOL     OW35650   2.771   2.698   5.652  0.1435 -0.2650 -0.3363
 8006SOL    HW135651   2.823   2.663   5.724  1.0842  2.2868  0.1957
 8006SOL    HW235652   2.713   2.761   5.694  1.9164  0.0373  1.6340
 8007SOL     OW35653   4.569   1.672   4.340 -0.0739  0.1891  0.3069
 8007SOL    HW135654   4.622   1.621   4.402 -2.1248 -1.1377  0.9504
 8007SOL    HW235655   4.566   1.757   4.384  0.7645 -0.2189  1.1551
 8008SOL     OW35656   3.797   2.443  15.813  0.7861 -0.1848 -0.0108
 8008SOL    HW135657   3.741   2.503  15.862  0.9151 -1.9194  2.2339
 8008SOL    HW235658   3.769   2.450  15.722  3.3376  0.8770 -0.7347
 8009SOL     OW35659   2.946   2.996   5.858  0.1112  0.2449 -0.5280
 8009SOL    HW135660   2.862   2.956   5.878 -1.4831  2.3798 -2.9942
 8009SOL    HW235661   2.920   3.060   5.792 -0.5522  1.0355  0.5091
 8010SOL     OW35662   4.155   1.879   7.210  0.2470  0.3614 -0.6393
 8010SOL    HW135663   4.238   1.868   7.163 -0.8929 -3.1433 -1.7785
 8010SOL    HW235664   4.106   1.902   7.132  0.6094 -0.9561 -1.2554
 8011SOL     OW35665   3.544   2.495   8.244  0.4877 -0.1194 -0.0457
 8011SOL    HW135666   3.588   2.433   8.302 -1.1966  0.2546  1.6442
 8011SOL    HW235667   3.472   2.526   8.299  1.6284  1.0764  0.7515
 8012SOL     OW35668   2.468   2.732   7.712 -0.6674  0.3120  0.5135
 8012SOL    HW135669   2.458   2.778   7.628 -0.1125  2.6034  1.7188
 8012SOL    HW235670   2.550   2.771   7.741  0.7682 -2.5404  0.3421
 8013SOL     OW35671   3.683   0.661   5.890  0.3949 -0.7125  0.1253
 8013SOL    HW135672   3.684   0.756   5.877 -0.9516 -0.8233 -0.8459
 8013SOL    HW235673   3.588   0.648   5.897  0.2811 -0.0842 -0.2784
 8014SOL     OW35674   1.733   1.510  17.433 -0.0359  0.0330 -0.2974
 8014SOL    HW135675   1.820   1.549  17.435  0.5153 -1.1724 -0.7517
 8014SOL    HW235676   1.691   1.532  17.517 -0.4565 -0.8583 -0.2758
 8015SOL     OW35677   3.311   1.608  11.654 -0.4498  0.2750  0.4716
 8015SOL    HW135678   3.281   1.661  11.728  1.5744 -0.1860  1.6309
 8015SOL    HW235679   3.272   1.522  11.673  0.1923  0.1278  1.1156
 8016SOL     OW35680   1.160   2.655   6.052  0.1493  0.0488  0.3236
 8016SOL    HW135681   1.115   2.660   5.968  0.8346 -3.5548 -0.2471
 8016SOL    HW235682   1.096   2.679   6.119 -0.4658 -0.0053 -0.2399
 8017SOL     OW35683   2.584   1.378   4.757 -0.1036  0.7730  0.3034
 8017SOL    HW135684   2.518   1.424   4.809 -0.6387 -0.6068  0.8325
 8017SOL    HW235685   2.606   1.432   4.681  0.9265 -0.9367 -0.6071
 8018SOL     OW35686   3.726   3.925  11.119 -0.2479  0.3938 -0.6792
 8018SOL    HW135687   3.640   3.889  11.140 -0.5570  0.9208 -1.0407
 8018SOL    HW235688   3.763   3.838  11.107 -0.5586  0.1947 -0.1721
 8019SOL     OW35689   4.072   0.123   6.182  0.0503  0.2052 -0.0202
 8019SOL    HW135690   4.045   0.031   6.172  2.1439 -0.1910 -1.9081
 8019SOL    HW235691   4.008   0.160   6.121  0.5197 -0.3489 -0.8474
 8020SOL     OW35692   0.238   1.814   4.163 -0.4094 -0.5751 -0.4411
 8020SOL    HW135693   0.185   1.735   4.167  0.6238 -1.1106  2.4881
 8020SOL    HW235694   0.178   1.887   4.177  0.2508 -0.6595  2.8299
 8021SOL     OW35695   3.352   2.690   2.200  0.0528  0.4750 -0.2873
 8021SOL    HW135696   3.269   2.710   2.157 -0.8733  2.0594  2.2691
 8021SOL    HW235697   3.377   2.772   2.242 -0.5231  0.3302  0.3387
 8022SOL     OW35698   4.549   0.476   5.831 -0.5976 -0.2038  0.3403
 8022SOL    HW135699   4.468   0.427   5.847  0.0451 -0.7978  1.7601
 8022SOL    HW235700   4.526   0.539   5.900  0.8197  0.6086  0.0634
 8023SOL     OW35701   4.562   1.284  15.714 -0.0076  0.0689  0.0035
 8023SOL    HW135702   4.545   1.378  15.718  2.9157  0.6846 -1.5765
 8023SOL    HW235703   4.639   1.280  15.656  0.8929  3.1041  0.9848
 8024SOL     OW35704   3.355   3.163   7.151  0.4484  0.0696 -0.2466
 8024SOL    HW135705   3.287   3.105   7.185 -0.3821  1.0740 -0.1889
 8024SOL    HW235706   3.319   3.250   7.171  1.1587  0.4183 -0.4658
 8025SOL     OW35707   0.724   2.761   4.585  0.1451  0.2531 -0.1025
 8025SOL    HW135708   0.760   2.828   4.526 -1.5074  0.6641 -0.6547
 8025SOL    HW235709   0.765   2.781   4.669  1.0468 -2.5477  0.1031
 8026SOL     OW35710   1.301   0.940  12.522 -0.3323 -0.3123 -0.1546
 8026SOL    HW135711   1.381   0.977  12.485 -0.0580 -0.0922  0.6606
 8026SOL    HW235712   1.327   0.939  12.614 -1.8146  0.4016  0.2567
 8027SOL     OW35713   3.106   1.586   6.279 -0.5594 -0.1296  0.0093
 8027SOL    HW135714   3.072   1.581   6.368  0.2338 -0.4606  0.2885
 8027SOL    HW235715   3.197   1.555   6.284 -0.7646 -0.5628  0.9691
 8028SOL     OW35716   4.162   4.098   5.130 -0.1323  0.4693  0.5256
 8028SOL    HW135717   4.173   4.173   5.188 -0.7846  0.7858  0.2377
 8028SOL    HW235718   4.234   4.039   5.152  1.9386  2.7254 -0.3014
 8029SOL     OW35719   2.140   1.689   0.571 -0.0929  0.3435 -0.0103
 8029SOL    HW135720   2.186   1.764   0.610 -1.9391  0.3482  2.2126
 8029SOL    HW235721   2.083   1.728   0.505 -1.1913 -0.7338  0.2888
 8030SOL     OW35722   0.470   0.994   0.829  0.4739 -0.8873 -0.1111
 8030SOL    HW135723   0.553   1.041   0.845  0.3783 -0.7117 -0.1269
 8030SOL    HW235724   0.499   0.909   0.797 -0.5089 -0.0736 -3.1138
 8031SOL     OW35725   1.870   1.209  12.071 -0.7921  0.2309 -0.1103
 8031SOL    HW135726   1.788   1.251  12.096 -0.5723 -0.6098  1.9874
 8031SOL    HW235727   1.858   1.208  11.976  0.4455  0.3808 -0.2777
 8032SOL     OW35728   1.018   1.326   2.804 -0.0640  0.1313  0.0443
 8032SOL    HW135729   1.095   1.268   2.799  0.1199  0.3837 -0.0372
 8032SOL    HW235730   1.005   1.343   2.711  1.7846  0.9894 -0.0696
 8033SOL     OW35731   1.421   1.830   2.781  0.3379 -0.1671  0.0310
 8033SOL    HW135732   1.455   1.846   2.693 -2.1403  0.0845 -0.8568
 8033SOL    HW235733   1.454   1.741   2.792  0.5792  0.0951  1.5051
 8034SOL     OW35734   4.279   0.711   5.094  0.0478  0.1934 -0.2481
 8034SOL    HW135735   4.315   0.695   5.181 -0.6694  2.4548  0.4688
 8034SOL    HW235736   4.195   0.746   5.123  0.8419  2.2699 -0.4616
 8035SOL     OW35737   1.608   3.074  16.476 -0.3460 -0.2242  0.0221
 8035SOL    HW135738   1.681   3.125  16.512 -1.4168  1.6543 -0.4601
 8035SOL    HW235739   1.603   3.102  16.385  0.8136  0.6669  0.2306
 8036SOL     OW35740   4.103   3.466  11.732  0.0339 -0.5912 -0.1845
 8036SOL    HW135741   4.127   3.511  11.651  3.1007  1.8814  2.0672
 8036SOL    HW235742   4.054   3.392  11.697 -0.0807 -0.0366 -1.2055
 8037SOL     OW35743   1.408   0.051  14.052  0.8318  0.1034  0.3976
 8037SOL    HW135744   1.480   0.053  14.115  1.1344  1.2270  0.0189
 8037SOL    HW235745   1.339   0.016  14.108 -0.8305  0.6058 -1.3377
 8038SOL     OW35746   0.187   0.822   9.616  0.1414 -0.6259  0.1389
 8038SOL    HW135747   0.262   0.797   9.670  1.3092  0.7284 -0.8629
 8038SOL    HW235748   0.218   0.843   9.528 -0.2278  1.4880  0.5258
 8039SOL     OW35749   0.553   0.456   7.784 -0.7269  0.3357 -0.0425
 8039SOL    HW135750   0.555   0.379   7.727 -0.8565  1.3353 -1.3952
 8039SOL    HW235751   0.501   0.425   7.858 -0.0915 -1.3821 -0.3214
 8040SOL     OW35752   1.516   2.277   6.834 -0.0815 -0.4361 -0.1190
 8040SOL    HW135753   1.546   2.212   6.898 -0.4453  1.2015  1.7032
 8040SOL    HW235754   1.453   2.225   6.784  0.4023 -2.5663  1.4594
 8041SOL     OW35755   0.577   3.123   4.933 -0.0868 -0.0545  0.4712
 8041SOL    HW135756   0.553   3.072   4.855 -0.5294  1.2726 -0.2626
 8041SOL    HW235757   0.672   3.113   4.935 -0.3401 -2.2856  2.0136
 8042SOL     OW35758   2.406   3.968   7.516  0.6667 -0.1482 -0.3727
 8042SOL    HW135759   2.397   3.916   7.596 -0.2695 -2.9126 -2.2659
 8042SOL    HW235760   2.375   4.052   7.551  3.7721  0.9872 -0.3865
 8043SOL     OW35761   0.650   1.878   3.822  0.3276  0.0733 -0.0302
 8043SOL    HW135762   0.729   1.906   3.868 -0.6617 -0.0497  1.7294
 8043SOL    HW235763   0.590   1.952   3.833  2.5024  1.9464 -0.6540
 8044SOL     OW35764   3.099   2.762   2.137 -0.4005 -0.1889  0.1121
 8044SOL    HW135765   3.004   2.755   2.148 -0.2529  0.0652  1.6461
 8044SOL    HW235766   3.109   2.855   2.154 -1.8075 -0.5950  3.2471
 8045SOL     OW35767   3.081   3.988   8.204  0.1517 -0.5953 -0.4887
 8045SOL    HW135768   2.999   4.038   8.206 -0.6928 -1.9949  0.9940
 8045SOL    HW235769   3.053   3.916   8.147  0.9359  0.0888 -1.7336
 8046SOL     OW35770   1.439   2.694   5.985 -0.7944  0.5064  0.6276
 8046SOL    HW135771   1.359   2.649   6.012  0.0629 -2.0712 -1.0788
 8046SOL    HW235772   1.411   2.781   6.012  0.8599  0.7994  1.3809
 8047SOL     OW35773   1.092   2.218   8.649 -0.1028 -0.1314 -0.1210
 8047SOL    HW135774   1.015   2.193   8.699 -2.1474  1.0117 -2.7230
 8047SOL    HW235775   1.153   2.218   8.722 -1.6338  0.2320  1.1544
 8048SOL     OW35776   0.973   3.604  16.065 -0.4922  0.3518  0.1677
 8048SOL    HW135777   1.018   3.641  16.141  0.2005 -0.4084  0.1223
 8048SOL    HW235778   1.040   3.624  15.999 -0.5216 -1.7646 -0.4768
 8049SOL     OW35779   3.924   2.305   4.057 -0.1832  0.1302  0.1655
 8049SOL    HW135780   3.932   2.390   4.099  0.3294  1.0793 -1.8308
 8049SOL    HW235781   3.994   2.253   4.097 -0.5462 -1.0936 -0.7740
 8050SOL     OW35782   1.712   2.811   3.491  0.2899  0.3764 -0.2427
 8050SOL    HW135783   1.747   2.731   3.530  3.3736  1.1910 -1.3911
 8050SOL    HW235784   1.688   2.861   3.570  1.4560 -0.6047  0.7428
 8051SOL     OW35785   4.519   4.711   7.224 -0.2898  0.5642 -0.3730
 8051SOL    HW135786   4.527   0.068   7.238  0.1651  0.5933 -0.8228
 8051SOL    HW235787   4.613   4.695   7.229 -0.3152  0.0899 -1.4795
 8052SOL     OW35788   1.830   3.012  17.445  0.5037  0.1876 -0.1341
 8052SOL    HW135789   1.759   2.984  17.502  0.6205  0.3817  0.1060
 8052SOL    HW235790   1.784   3.028  17.363 -0.7554  1.8745  0.9090
 8053SOL     OW35791   3.803   4.648   9.464 -0.8285 -0.0917  0.1344
 8053SOL    HW135792   3.882   4.600   9.440 -0.4303 -0.1266  1.5551
 8053SOL    HW235793   3.730   4.607   9.417 -1.3866  0.7549  0.2717
 8054SOL     OW35794   2.529   4.389   0.925  0.4579  0.5249  0.4702
 8054SOL    HW135795   2.557   4.437   1.003 -1.7106  1.6045  0.5752
 8054SOL    HW235796   2.539   4.467   0.869 -0.2513  0.2737 -0.0068
 8055SOL     OW35797   2.499   3.040  14.010  0.1011 -0.7789 -0.5281
 8055SOL    HW135798   2.447   3.086  13.945 -1.8444 -0.7001  1.0870
 8055SOL    HW235799   2.583   3.055  13.966  0.2665 -0.4680 -0.0984
 8056SOL     OW35800   2.212   0.805  16.854 -0.5956 -0.0433 -0.5899
 8056SOL    HW135801   2.241   0.866  16.786 -0.4765 -0.9816 -1.3753
 8056SOL    HW235802   2.119   0.825  16.854 -0.7562 -0.7235  2.1204
 8057SOL     OW35803   4.539   2.431  10.204 -0.4971 -0.3935  0.8171
 8057SOL    HW135804   4.467   2.472  10.157 -2.3291 -3.3550  1.0525
 8057SOL    HW235805   4.562   2.358  10.147 -1.6021 -1.7347  2.0756
 8058SOL     OW35806   4.408   1.080  15.802  0.5045  0.0135 -0.0198
 8058SOL    HW135807   4.381   1.117  15.886  0.4900 -1.4935  0.6498
 8058SOL    HW235808   4.469   1.147  15.770 -0.3724  1.0635  0.5078
 8059SOL     OW35809   0.164   0.908   5.990 -0.5986  0.6029  0.0511
 8059SOL    HW135810   0.216   0.968   5.937 -1.6258 -0.0488 -1.7222
 8059SOL    HW235811   0.227   0.839   6.010  0.6211  1.9772  0.8832
 8060SOL     OW35812   4.132   1.821   8.339 -0.7351  0.0752 -0.4304
 8060SOL    HW135813   4.063   1.877   8.374  0.6560  1.2345  0.4290
 8060SOL    HW235814   4.194   1.823   8.411 -0.9637 -0.2848 -0.2232
 8061SOL     OW35815   3.629   0.411  13.583  0.0248 -0.9118 -0.4342
 8061SOL    HW135816   3.643   0.466  13.506  0.7132  0.1322  0.4416
 8061SOL    HW235817   3.716   0.413  13.621  0.2428  0.2811 -0.9884
 8062SOL     OW35818   1.039   3.074   5.243  0.4849 -0.9868  0.7092
 8062SOL    HW135819   1.108   3.135   5.218 -0.6751 -0.3006 -0.8134
 8062SOL    HW235820   1.054   3.012   5.172  0.0077  1.2209 -1.3075
 8063SOL     OW35821   3.318   2.110   2.518 -0.0426  0.6918 -0.3834
 8063SOL    HW135822   3.412   2.098   2.514 -0.1826  0.7708 -3.9394
 8063SOL    HW235823   3.288   2.019   2.524  0.1326  0.6143 -0.6762
 8064SOL     OW35824   2.938   4.178  14.847 -0.5404 -0.3953  0.0250
 8064SOL    HW135825   2.993   4.249  14.816  2.2280 -2.0834  1.1283
 8064SOL    HW235826   2.870   4.173  14.779  0.1283 -1.2144 -0.5723
 8065SOL     OW35827   4.109   4.008   7.028  0.2372 -0.3552  0.1738
 8065SOL    HW135828   4.102   3.939   7.093  0.5409  0.8634  1.5068
 8065SOL    HW235829   4.039   4.065   7.060  0.9171  0.5189  0.1030
 8066SOL     OW35830   0.743   0.807   8.436 -0.4957 -0.1719 -0.0121
 8066SOL    HW135831   0.659   0.835   8.400 -1.2130 -0.3828  1.4998
 8066SOL    HW235832   0.716   0.739   8.497 -1.9435 -1.0134 -1.5718
 8067SOL     OW35833   4.576   0.952   5.550 -0.2107 -0.2442 -0.5591
 8067SOL    HW135834   4.558   0.906   5.468  0.4024 -0.2425 -0.6962
 8067SOL    HW235835   4.534   0.889   5.607 -2.0322  0.1750 -1.4562
 8068SOL     OW35836   3.177   1.589   5.042  0.6445  0.2692  0.4852
 8068SOL    HW135837   3.095   1.588   4.992 -0.4846  0.1950  2.3536
 8068SOL    HW235838   3.234   1.531   4.991 -2.1814 -0.4855 -1.8501
 8069SOL     OW35839   3.865   0.409  13.698 -0.0159 -0.4170  0.1547
 8069SOL    HW135840   3.923   0.353  13.749  0.1128 -1.4899 -1.1729
 8069SOL    HW235841   3.887   0.492  13.741  1.2583 -0.6705 -0.0262
 8070SOL     OW35842   1.163   0.555   8.850 -0.9622  1.0349  0.4976
 8070SOL    HW135843   1.099   0.626   8.840  0.5861  2.2283 -0.8357
 8070SOL    HW235844   1.235   0.616   8.864  0.2217 -0.3782  0.4776
 8071SOL     OW35845   2.810   1.037   5.515  0.6468 -0.3639  0.5881
 8071SOL    HW135846   2.805   0.953   5.559 -1.1069 -0.0390  0.9983
 8071SOL    HW235847   2.874   1.084   5.568  0.4727  0.2529  0.2596
 8072SOL     OW35848   4.021   2.513   2.049  0.8138  0.1769 -0.2165
 8072SOL    HW135849   4.001   2.565   1.971 -0.6777  1.6857  1.1637
 8072SOL    HW235850   4.016   2.425   2.011 -0.5737  0.2159 -0.1357
 8073SOL     OW35851   2.235   0.368   7.367 -0.0748 -0.0343 -0.4716
 8073SOL    HW135852   2.190   0.300   7.416  0.5406 -0.3729 -0.3666
 8073SOL    HW235853   2.325   0.334   7.364 -0.6840 -1.4912 -2.6208
 8074SOL     OW35854   4.519   4.716  13.169 -0.0386 -0.4192  0.2259
 8074SOL    HW135855   4.539   4.630  13.205  0.6501 -1.6383 -3.0476
 8074SOL    HW235856   4.549   0.024  13.247 -2.6487 -2.5082  2.4247
 8075SOL     OW35857   0.313   1.471   0.069 -0.3183 -0.0200 -0.2429
 8075SOL    HW135858   0.235   1.456   0.123  0.6318 -2.9005  0.3099
 8075SOL    HW235859   0.268   1.497  17.735 -0.0839  0.1721 -0.3110
 8076SOL     OW35860   1.217   2.344   6.619  0.1264 -0.2147 -0.2066
 8076SOL    HW135861   1.158   2.289   6.671 -0.8687  1.0123 -0.0308
 8076SOL    HW235862   1.256   2.272   6.570 -1.1549 -0.9137 -0.1878
 8077SOL     OW35863   2.974   3.938  11.128 -0.0452  0.2836 -0.3098
 8077SOL    HW135864   2.976   3.993  11.206 -2.5268  0.4462 -0.3739
 8077SOL    HW235865   2.962   3.854  11.172 -1.4452  0.5068 -0.2777
 8078SOL     OW35866   1.917   3.530   9.185  0.2599  0.0569  0.3380
 8078SOL    HW135867   1.923   3.442   9.222  0.9367  0.4495  1.1886
 8078SOL    HW235868   1.960   3.527   9.100  0.7193  0.0354  0.5665
 8079SOL     OW35869   1.367   3.975   6.626 -0.4619  0.3080 -0.0944
 8079SOL    HW135870   1.345   3.997   6.536 -1.4985  3.6790  0.9545
 8079SOL    HW235871   1.303   3.905   6.626  0.8705 -0.9138 -0.7606
 8080SOL     OW35872   4.689   4.396   4.585  0.1193 -0.1639 -0.7728
 8080SOL    HW135873   0.026   4.379   4.527  0.1541 -0.9748 -0.4934
 8080SOL    HW235874   4.618   4.336   4.560 -0.0030  0.0767 -1.0002
 8081SOL     OW35875   2.243   3.694  16.500 -0.2078  0.0784  0.3232
 8081SOL    HW135876   2.170   3.713  16.559 -0.6694  0.5365 -0.3973
 8081SOL    HW235877   2.324   3.700  16.549  0.6683 -1.8591 -0.8784
 8082SOL     OW35878   2.428   0.318  17.600 -0.3326  0.5255 -0.2777
 8082SOL    HW135879   2.341   0.278  17.607 -0.0726 -0.0064 -0.0876
 8082SOL    HW235880   2.407   0.411  17.605  1.4877  0.9195 -0.0631
 8083SOL     OW35881   0.404   2.461   3.559 -0.6016  1.2088  0.0494
 8083SOL    HW135882   0.461   2.461   3.482 -0.9225  1.8072 -0.1831
 8083SOL    HW235883   0.348   2.389   3.529  1.9483 -0.4207 -0.7698
 8084SOL     OW35884   0.284   3.620   2.207  0.4647 -0.3446 -0.7136
 8084SOL    HW135885   0.342   3.553   2.244 -2.3601 -1.5098  1.5934
 8084SOL    HW235886   0.219   3.563   2.165 -1.0759 -0.6965  2.0997
 8085SOL     OW35887   1.650   0.135   6.127  0.4026 -0.2500  0.4122
 8085SOL    HW135888   1.635   0.082   6.205  0.3797 -1.2342 -0.2567
 8085SOL    HW235889   1.627   0.073   6.057 -2.3722 -0.2029  1.3097
 8086SOL     OW35890   4.487   1.349   5.482  0.2170 -0.1541 -0.0720
 8086SOL    HW135891   4.420   1.413   5.503  0.4922 -0.0092  0.3754
 8086SOL    HW235892   4.469   1.310   5.396  1.1327  0.0574 -0.3639
 8087SOL     OW35893   1.480   0.898   1.839  0.2956  0.3710  0.5652
 8087SOL    HW135894   1.485   0.831   1.771 -0.1119  0.6570  0.2559
 8087SOL    HW235895   1.569   0.933   1.842  1.1046 -1.5864 -0.0483
 8088SOL     OW35896   1.378   4.454   8.982 -0.7746 -0.0501 -0.2039
 8088SOL    HW135897   1.305   4.392   8.982 -0.4315 -0.4548 -1.0599
 8088SOL    HW235898   1.416   4.461   9.070  0.2663 -1.2575 -0.5696
 8089SOL     OW35899   4.131   0.291   4.596  0.0992 -0.3003  1.0237
 8089SOL    HW135900   4.138   0.196   4.581  0.6533 -0.1676  0.4486
 8089SOL    HW235901   4.075   0.321   4.525 -0.6189 -0.0597  1.6929
 8090SOL     OW35902   1.351   0.763   2.784 -0.3949 -0.0928  0.2956
 8090SOL    HW135903   1.294   0.784   2.858 -0.2611 -0.9770  0.6539
 8090SOL    HW235904   1.299   0.784   2.707  1.4846  1.9514 -0.4161
 8091SOL     OW35905   2.758   0.371   1.613 -0.1772  0.1680  0.4512
 8091SOL    HW135906   2.686   0.406   1.560  0.8220 -0.4344 -1.3071
 8091SOL    HW235907   2.802   0.315   1.548 -0.9377  0.2036 -0.0903
 8092SOL     OW35908   4.630   1.495  13.492 -0.3419  0.2275  0.3635
 8092SOL    HW135909   4.673   1.533  13.416  1.3459  0.2039  1.3051
 8092SOL    HW235910   4.658   1.403  13.495 -2.4381 -0.4370  0.2061
 8093SOL     OW35911   3.370   1.050   7.518 -0.3172  0.2548 -0.0571
 8093SOL    HW135912   3.463   1.068   7.500 -1.0355  1.7180 -2.2665
 8093SOL    HW235913   3.369   1.082   7.609  1.0723  1.4829 -0.4758
 8094SOL     OW35914   4.198   1.640  15.579  0.0335 -0.2510  0.1387
 8094SOL    HW135915   4.166   1.581  15.648  1.9175 -0.9515  0.4198
 8094SOL    HW235916   4.138   1.714  15.586  3.1816  2.3424 -0.3684
 8095SOL     OW35917   2.333   4.184   2.333  0.1138  0.1938 -0.2250
 8095SOL    HW135918   2.361   4.272   2.359 -1.3401  0.9626 -1.2502
 8095SOL    HW235919   2.312   4.201   2.241  1.2818  0.9064 -0.3576
 8096SOL     OW35920   3.116   3.408  16.754  0.1717  0.0525 -0.0298
 8096SOL    HW135921   3.068   3.442  16.678 -1.8201 -0.6380  0.9002
 8096SOL    HW235922   3.176   3.482  16.768  0.3914 -0.2894  0.8576
 8097SOL     OW35923   2.970   0.756  14.893 -0.6378 -0.3189  0.0930
 8097SOL    HW135924   3.053   0.756  14.844  0.2499  2.4720  1.6153
 8097SOL    HW235925   2.915   0.739  14.817 -2.6769  0.4438  1.4202
 8098SOL     OW35926   3.059   0.301   9.699 -0.9280  0.2753  0.2380
 8098SOL    HW135927   3.146   0.303   9.738 -1.3920  1.4303  1.1980
 8098SOL    HW235928   3.026   0.226   9.749  0.0102 -0.7517 -0.6663
 8099SOL     OW35929   2.056   3.450  10.086 -0.8075 -0.0890  0.0335
 8099SOL    HW135930   2.020   3.448   9.997 -2.2257  2.0824  0.5514
 8099SOL    HW235931   2.073   3.544  10.088  0.1213 -0.2077 -2.0657
 8100SOL     OW35932   1.201   3.970  10.187  0.4896 -0.2570 -0.1681
 8100SOL    HW135933   1.286   3.976  10.230 -0.4357  1.5990  1.3981
 8100SOL    HW235934   1.149   3.988  10.265 -2.3203  2.3885 -2.6483
 8101SOL     OW35935   4.540   2.532  17.603  0.3232 -0.0035 -0.0391
 8101SOL    HW135936   4.597   2.485  17.663  2.7964 -0.0746 -2.4196
 8101SOL    HW235937   4.572   2.504  17.517 -0.3060 -0.0141 -0.2729
 8102SOL     OW35938   0.921   1.488   5.460 -0.2431 -0.2011 -0.2863
 8102SOL    HW135939   0.887   1.575   5.480 -1.4416 -1.0460  1.4037
 8102SOL    HW235940   0.859   1.440   5.515 -0.8525  0.5443 -0.3221
 8103SOL     OW35941   0.720   1.364   5.593 -0.0682 -0.1078 -0.2360
 8103SOL    HW135942   0.691   1.386   5.682  0.1190  1.0094 -0.4532
 8103SOL    HW235943   0.656   1.399   5.531 -0.4123 -0.0433  0.1579
 8104SOL     OW35944   0.884   1.485  17.603 -0.0415 -0.2124  0.1651
 8104SOL    HW135945   0.852   1.466  17.515 -0.4592 -0.3329  0.3453
 8104SOL    HW235946   0.978   1.492  17.586 -0.0113  1.4371  0.9977
 8105SOL     OW35947   1.177   2.418   3.648 -0.3806 -0.0901 -0.2786
 8105SOL    HW135948   1.204   2.355   3.581  1.3890  0.4071 -0.0186
 8105SOL    HW235949   1.152   2.355   3.716 -0.0371 -0.9731 -0.9600
 8106SOL     OW35950   3.087   0.470  12.563  0.0469 -0.5795 -0.1337
 8106SOL    HW135951   3.169   0.467  12.613 -0.3033 -0.8872  0.4163
 8106SOL    HW235952   3.109   0.425  12.481  1.1862  0.3343 -0.3324
 8107SOL     OW35953   3.742   0.966   8.304 -0.5258 -0.5218  0.2430
 8107SOL    HW135954   3.676   0.977   8.372  0.4080 -0.8026  1.2037
 8107SOL    HW235955   3.723   1.036   8.241 -2.1913 -1.5402 -0.3709
 8108SOL     OW35956   1.148   0.559  16.271 -0.5346 -0.3510  0.3833
 8108SOL    HW135957   1.186   0.619  16.335  0.4207 -0.7218  0.1546
 8108SOL    HW235958   1.211   0.487  16.272  1.9408  1.8357  1.1718
 8109SOL     OW35959   2.587   4.502  14.160 -0.1254  0.3163 -0.3193
 8109SOL    HW135960   2.582   4.593  14.131  0.4601  0.2714 -0.5701
 8109SOL    HW235961   2.610   4.446  14.086 -1.6030  0.9393 -1.2516
 8110SOL     OW35962   1.128   4.027  16.886 -0.1662  0.0316 -0.4459
 8110SOL    HW135963   1.067   4.070  16.947 -0.1380 -3.1685  1.8268
 8110SOL    HW235964   1.120   3.933  16.902  1.0320  0.2017  1.0932
 8111SOL     OW35965   0.394   4.327   7.382  0.0003 -0.4019  0.1036
 8111SOL    HW135966   0.432   4.349   7.297 -1.0878 -2.2848 -0.8684
 8111SOL    HW235967   0.436   4.397   7.431  2.1743 -1.1455 -0.6828
 8112SOL     OW35968   4.508   1.143  14.374  0.5535 -0.0640 -0.0727
 8112SOL    HW135969   4.553   1.227  14.363  1.9967 -0.8894 -0.4186
 8112SOL    HW235970   4.547   1.103  14.296  0.0836 -2.2493  0.8131
 8113SOL     OW35971   3.005   2.748   9.658  0.2596 -0.4811  0.0530
 8113SOL    HW135972   2.936   2.774   9.596 -0.5162  0.4314  1.2948
 8113SOL    HW235973   3.072   2.806   9.622  0.4129 -0.1236  0.9270
 8114SOL     OW35974   1.298   3.180  16.429  0.1086 -0.0930  0.2892
 8114SOL    HW135975   1.342   3.135  16.502  0.3121 -1.2682 -0.5511
 8114SOL    HW235976   1.316   3.115  16.360  0.1498  0.4812 -0.2369
 8115SOL     OW35977   1.185   1.769   6.902 -0.0647 -0.0139  0.4179
 8115SOL    HW135978   1.230   1.850   6.925 -0.1377 -0.1326  0.9771
 8115SOL    HW235979   1.119   1.767   6.971 -1.4108  0.9951 -0.8425
 8116SOL     OW35980   2.272   4.572  14.450  0.2785  0.0720  0.1354
 8116SOL    HW135981   2.207   4.534  14.391 -0.9208 -0.0169  1.5086
 8116SOL    HW235982   2.219   4.605  14.523  0.9099  1.9256 -0.2236
 8117SOL     OW35983   1.373   1.855   1.982  0.2443  0.4091 -0.3013
 8117SOL    HW135984   1.459   1.832   1.948 -0.0010 -2.9589  1.3200
 8117SOL    HW235985   1.382   1.934   2.035  2.0040  0.9631 -1.4041
 8118SOL     OW35986   4.340   3.619   4.853 -0.2032 -0.1752  0.1050
 8118SOL    HW135987   4.371   3.547   4.798 -0.0435 -2.3761  3.0550
 8118SOL    HW235988   4.253   3.592   4.883  0.0164 -0.9040  0.0754
 8119SOL     OW35989   0.178   2.136   8.157  0.5864 -0.0055 -0.0113
 8119SOL    HW135990   0.186   2.219   8.205 -1.5828 -0.5125  1.1987
 8119SOL    HW235991   0.097   2.145   8.107  1.5091  0.1831 -1.4950
 8120SOL     OW35992   2.260   0.577  15.090  0.6055 -0.1339  0.1611
 8120SOL    HW135993   2.332   0.524  15.056 -0.0809 -0.9023 -0.0912
 8120SOL    HW235994   2.187   0.542  15.039  1.6222  0.2668 -1.5922
 8121SOL     OW35995   1.429   0.134   1.732  0.9217 -0.1833  0.4482
 8121SOL    HW135996   1.409   0.109   1.822 -1.8439 -2.5353 -0.8052
 8121SOL    HW235997   1.379   0.216   1.732 -0.4505 -1.0071 -1.3435
 8122SOL     OW35998   0.048   2.843  15.232  0.0182  0.3577 -0.4232
 8122SOL    HW135999   4.735   2.822  15.153  0.3500 -0.1027 -0.5089
 8122SOL    HW236000   0.077   2.931  15.204  2.8905  0.4874  2.9323
 8123SOL     OW36001   1.297   0.298   6.384  0.3398 -0.1502  0.4186
 8123SOL    HW136002   1.317   0.212   6.346  2.3025 -0.0186  1.1886
 8123SOL    HW236003   1.376   0.343   6.355 -0.1657  0.7750  0.4920
 8124SOL     OW36004   1.542   0.509   3.264  0.2198 -0.5629  0.8700
 8124SOL    HW136005   1.502   0.592   3.290  0.1229 -0.7848  1.4159
 8124SOL    HW236006   1.569   0.515   3.172 -0.0250  0.8119  0.8918
 8125SOL     OW36007   3.593   0.149  13.494 -0.5551  0.5682 -0.2831
 8125SOL    HW136008   3.594   0.234  13.536 -3.5318  0.3003  0.3401
 8125SOL    HW236009   3.679   0.146  13.453 -0.9788 -2.8594 -0.9645
 8126SOL     OW36010   4.675   2.316  12.773  0.5323 -0.3561  0.2652
 8126SOL    HW136011   4.632   2.396  12.742 -1.3490 -0.9436  1.3205
 8126SOL    HW236012   0.030   2.321  12.747 -0.4364 -0.6991 -3.2470
 8127SOL     OW36013   1.155   0.932  11.861 -0.1429  0.3374  0.1408
 8127SOL    HW136014   1.191   1.021  11.865 -2.1815  1.1895 -0.2135
 8127SOL    HW236015   1.240   0.889  11.867 -0.0315  0.4215 -0.8206
 8128SOL     OW36016   1.209   1.952   5.880  0.4190  0.3764  0.0210
 8128SOL    HW136017   1.124   1.972   5.919  0.7035  0.6908  0.4695
 8128SOL    HW236018   1.173   1.903   5.805 -1.1232  1.2689  0.1841
 8129SOL     OW36019   0.722   1.132   6.157 -0.2803  0.1141  0.7447
 8129SOL    HW136020   0.681   1.099   6.237 -3.0525  0.7118 -0.4466
 8129SOL    HW236021   0.659   1.104   6.091  1.0111  0.3234 -0.5761
 8130SOL     OW36022   0.467   2.675   9.470 -0.0992 -0.6489 -0.3220
 8130SOL    HW136023   0.422   2.591   9.459 -0.0396 -0.5490 -1.3279
 8130SOL    HW236024   0.396   2.719   9.517  0.4750 -1.3840  1.2484
 8131SOL     OW36025   2.372   1.732   1.975 -0.2118  0.3698 -0.4502
 8131SOL    HW136026   2.449   1.738   1.919  2.8505 -2.8077  3.4165
 8131SOL    HW236027   2.370   1.643   2.011  2.4441 -0.1813 -1.6078
 8132SOL     OW36028   3.934   2.447   9.348  0.4545 -0.3384  0.6524
 8132SOL    HW136029   3.968   2.535   9.360  0.3492 -0.1154 -0.7771
 8132SOL    HW236030   4.015   2.402   9.325 -0.7308 -1.7622 -0.7311
 8133SOL     OW36031   1.811   3.881   5.151  0.0146 -0.1951  0.1182
 8133SOL    HW136032   1.900   3.910   5.133 -0.3367  1.8115  1.4912
 8133SOL    HW236033   1.754   3.958   5.157 -0.7859 -0.7794  0.0855
 8134SOL     OW36034   0.967   4.340   4.388 -0.4067 -0.4612  0.1704
 8134SOL    HW136035   0.980   4.246   4.394  2.9366 -0.0098  0.1039
 8134SOL    HW236036   0.900   4.346   4.320 -0.7374 -3.1522  0.2597
 8135SOL     OW36037   2.516   1.573  12.142 -0.2087  0.3213 -0.4914
 8135SOL    HW136038   2.606   1.584  12.111 -0.3050  1.2355 -0.4329
 8135SOL    HW236039   2.524   1.500  12.204  1.2721  1.3967  0.5675
 8136SOL     OW36040   1.072   3.157   4.002  0.0995 -0.2808  0.0421
 8136SOL    HW136041   1.097   3.230   3.945 -1.9169  0.1915 -0.2608
 8136SOL    HW236042   1.064   3.092   3.933 -0.4253  1.4147 -1.4926
 8137SOL     OW36043   1.607   1.007   9.392 -0.1429 -0.5173  0.4860
 8137SOL    HW136044   1.601   0.994   9.297 -0.4414  0.0029  0.4342
 8137SOL    HW236045   1.530   0.966   9.431  1.3254 -3.7023  0.0869
 8138SOL     OW36046   4.721   0.809   3.538  0.3458 -0.4270 -0.2431
 8138SOL    HW136047   4.651   0.873   3.524  1.5057  0.7228 -0.7182
 8138SOL    HW236048   0.010   0.826   3.628  0.4089 -0.8964 -0.1745
 8139SOL     OW36049   4.353   2.713   2.566 -0.3935 -0.3218 -0.1408
 8139SOL    HW136050   4.283   2.653   2.539 -0.1183 -0.7111  0.0105
 8139SOL    HW236051   4.319   2.746   2.649 -1.0512 -0.2424 -0.4405
 8140SOL     OW36052   4.510   1.038   6.767 -0.1387 -0.6616 -0.2592
 8140SOL    HW136053   4.573   1.064   6.835  2.2699 -1.6278 -2.1285
 8140SOL    HW236054   4.428   1.051   6.814 -1.1922  2.3960 -2.9642
 8141SOL     OW36055   2.106   1.677   2.355  0.1892 -0.0148  0.0936
 8141SOL    HW136056   2.170   1.703   2.421  2.2511 -0.5788 -1.6766
 8141SOL    HW236057   2.132   1.739   2.287  3.0541 -0.1029  1.1195
 8142SOL     OW36058   0.345   1.128   6.597 -0.2318  0.0982 -0.2516
 8142SOL    HW136059   0.328   1.038   6.625  3.0792 -0.3468  0.3855
 8142SOL    HW236060   0.371   1.124   6.505  3.2545  2.1483  0.6249
 8143SOL     OW36061   0.575   3.830   5.839  0.6734  0.1188  0.4847
 8143SOL    HW136062   0.521   3.764   5.884 -0.6248  0.2064 -0.9354
 8143SOL    HW236063   0.567   3.808   5.746  1.2809 -0.5154  0.5801
 8144SOL     OW36064   3.059   0.986  12.812  0.4556 -0.3508 -0.1569
 8144SOL    HW136065   3.086   1.050  12.746 -0.4203  1.4462  1.2051
 8144SOL    HW236066   3.087   0.903  12.773  0.0949 -1.4325  1.9229
 8145SOL     OW36067   2.189   3.632   8.677 -0.7745  0.5005 -0.2999
 8145SOL    HW136068   2.278   3.667   8.686 -0.4239 -1.0576  2.3591
 8145SOL    HW236069   2.195   3.557   8.618  1.9684 -0.5656  1.3311
 8146SOL     OW36070   2.396   3.719   2.263  0.4081 -0.1168 -0.9421
 8146SOL    HW136071   2.491   3.716   2.258  0.5120  1.2300  0.2969
 8146SOL    HW236072   2.382   3.789   2.327  1.3721 -1.9931  1.3316
 8147SOL     OW36073   1.892   0.481  12.642 -0.3270 -0.6738  0.0593
 8147SOL    HW136074   1.873   0.443  12.728  0.8264  1.1733  1.1181
 8147SOL    HW236075   1.894   0.402  12.588  1.2574  0.2048 -1.1489
 8148SOL     OW36076   3.718   2.179   3.641  0.3563 -0.1207  0.0393
 8148SOL    HW136077   3.704   2.243   3.710  0.9713  0.6749 -0.5694
 8148SOL    HW236078   3.779   2.119   3.684  1.5336 -0.1572 -1.6595
 8149SOL     OW36079   4.308   0.971  14.110 -0.1865  0.0496 -0.0624
 8149SOL    HW136080   4.288   1.044  14.051 -1.0450 -0.0433  0.1033
 8149SOL    HW236081   4.403   0.984  14.108 -0.0855 -0.9921 -1.4471
 8150SOL     OW36082   2.945   1.831   2.420  0.3683  0.1023 -0.0969
 8150SOL    HW136083   3.014   1.807   2.358  1.2229 -3.2637  2.1473
 8150SOL    HW236084   2.897   1.749   2.432  0.9833 -0.3674 -0.8327
 8151SOL     OW36085   3.603   1.205   7.475 -0.5774  0.2135 -0.2746
 8151SOL    HW136086   3.691   1.211   7.438 -0.7769 -0.0531 -0.7819
 8151SOL    HW236087   3.606   1.281   7.533 -0.6640  1.0880 -1.4110
 8152SOL     OW36088   1.475   1.861   8.659  0.7420  0.1296 -0.2177
 8152SOL    HW136089   1.380   1.857   8.651  0.6497  0.3302  0.8245
 8152SOL    HW236090   1.497   1.953   8.641 -1.0739  0.7080  0.5046
 8153SOL     OW36091   2.233   1.556   8.681 -0.2955 -0.0325 -0.1166
 8153SOL    HW136092   2.314   1.511   8.703  0.1419  0.9367  0.2511
 8153SOL    HW236093   2.210   1.527   8.593 -0.5654  0.5810 -0.2491
 8154SOL     OW36094   2.586   1.063   0.267  0.3672 -0.5620 -0.4856
 8154SOL    HW136095   2.620   1.127   0.205  1.5750 -0.8686 -0.1285
 8154SOL    HW236096   2.494   1.086   0.253  0.7793 -0.4570 -2.9564
 8155SOL     OW36097   4.676   2.578   4.846  0.0003 -1.0893 -0.0264
 8155SOL    HW136098   0.027   2.595   4.878 -0.6023  1.2083  0.4550
 8155SOL    HW236099   4.688   2.553   4.755 -3.0820 -0.0641 -0.7117
 8156SOL     OW36100   2.224   2.365   1.666  0.1371 -0.2418  0.6367
 8156SOL    HW136101   2.285   2.296   1.690  1.2912  0.2787 -0.7808
 8156SOL    HW236102   2.145   2.319   1.638  0.2951 -0.5792  0.7395
 8157SOL     OW36103   4.014   2.277  17.076 -0.1261 -0.8783 -0.8449
 8157SOL    HW136104   3.922   2.302  17.068  0.1375  0.0626 -0.9398
 8157SOL    HW236105   4.048   2.364  17.096  1.3790 -1.4107 -1.1355
 8158SOL     OW36106   4.466   0.432   7.664  0.2294 -0.2996 -0.4924
 8158SOL    HW136107   4.517   0.396   7.737 -0.3245  2.7385  1.3663
 8158SOL    HW236108   4.384   0.386   7.680  0.4515  0.0753  1.6868
 8159SOL     OW36109   4.412   0.558   9.101  0.0247  0.1196  0.2472
 8159SOL    HW136110   4.475   0.518   9.041  1.7358  0.0478  2.0937
 8159SOL    HW236111   4.353   0.483   9.100  0.0709  0.0747  0.8967
 8160SOL     OW36112   3.226   0.831  12.667  0.5782  0.2618 -0.0244
 8160SOL    HW136113   3.269   0.746  12.661  2.1903  0.9249  2.0560
 8160SOL    HW236114   3.285   0.899  12.633  0.9758  0.1056  0.3604
 8161SOL     OW36115   2.062   1.464  12.318 -0.6550 -0.2452  0.6767
 8161SOL    HW136116   2.097   1.379  12.289 -0.3647  0.4169 -0.9013
 8161SOL    HW236117   2.124   1.526  12.280  0.3465 -1.3154  0.5641
 8162SOL     OW36118   0.901   3.818   4.918 -0.1279  0.0707  0.0471
 8162SOL    HW136119   0.965   3.849   4.853 -1.0757  3.2433  0.6627
 8162SOL    HW236120   0.861   3.746   4.870 -1.7583  0.5444  0.6971
 8163SOL     OW36121   2.088   2.963  11.974 -0.8872  0.4744 -0.8992
 8163SOL    HW136122   2.017   3.020  11.945 -1.8514  0.4717  1.5004
 8163SOL    HW236123   2.045   2.878  11.973  0.6971 -0.3478  0.3937
 8164SOL     OW36124   4.618   2.380   9.067 -0.0721  0.7600 -0.3575
 8164SOL    HW136125   4.637   2.372   9.160 -0.9145 -0.7479 -0.3140
 8164SOL    HW236126   4.535   2.426   9.079  0.1459  1.4587 -1.5273
 8165SOL     OW36127   4.328   0.096   8.950  0.2270 -0.3329 -0.3448
 8165SOL    HW136128   4.364   0.007   8.946 -0.8008 -0.8429  1.7040
 8165SOL    HW236129   4.252   0.085   8.893  0.2660 -1.1316 -0.2351
 8166SOL     OW36130   4.459   1.917   6.660  0.0391  0.4151 -0.5395
 8166SOL    HW136131   4.528   1.850   6.665  0.0081  0.3963 -0.3351
 8166SOL    HW236132   4.467   1.942   6.568 -1.5439 -1.7509 -1.2627
 8167SOL     OW36133   0.099   0.018  14.733 -0.6728 -1.0492  0.2156
 8167SOL    HW136134   0.014   0.055  14.757 -0.3966  0.0872 -0.5589
 8167SOL    HW236135   0.079   4.695  14.662  1.9563 -0.5226 -0.9909
 8168SOL     OW36136   0.016   1.259   5.142 -0.1632 -0.3871  0.1403
 8168SOL    HW136137   0.009   1.193   5.073  2.2708  1.3547 -1.7804
 8168SOL    HW236138   0.104   1.250   5.180  0.7150 -0.6005 -1.9035
 8169SOL     OW36139   0.045   1.119   7.671  0.7793  0.4787 -0.0570
 8169SOL    HW136140   0.077   1.030   7.688 -1.5265 -0.8351 -2.4655
 8169SOL    HW236141   0.034   1.152   7.760 -2.1952 -1.5937  0.3508
 8170SOL     OW36142   4.417   3.368   5.868 -0.0411 -0.0212 -0.0913
 8170SOL    HW136143   4.467   3.421   5.806 -4.2700  3.1304 -0.7037
 8170SOL    HW236144   4.357   3.434   5.902  0.5678  0.8227 -0.6652
 8171SOL     OW36145   3.512   3.951   1.646 -0.5621  0.5616 -0.4155
 8171SOL    HW136146   3.491   4.044   1.642 -4.0466 -0.2478 -0.8219
 8171SOL    HW236147   3.607   3.962   1.644 -0.3113 -2.0147 -1.8849
 8172SOL     OW36148   3.372   0.270  10.725 -0.8918 -0.2400 -0.3241
 8172SOL    HW136149   3.311   0.278  10.653 -0.5215  0.5510 -0.5428
 8172SOL    HW236150   3.407   0.180  10.730 -0.7160 -0.2287 -1.3263
 8173SOL     OW36151   0.099   1.982   5.185 -0.4056  0.8236  0.1360
 8173SOL    HW136152   0.051   1.900   5.177 -0.3518  0.9312 -1.3391
 8173SOL    HW236153   0.089   2.024   5.099  0.0416  0.9510  0.1471
 8174SOL     OW36154   2.080   1.450   5.222 -0.1323 -0.1194 -0.5778
 8174SOL    HW136155   2.003   1.424   5.172  0.7409 -1.3906 -1.2750
 8174SOL    HW236156   2.093   1.368   5.270  0.2255  0.7035  0.7309
 8175SOL     OW36157   0.924   4.067  12.238  0.2966  0.0154  0.2490
 8175SOL    HW136158   0.979   4.016  12.178 -0.2656 -1.4071  0.9402
 8175SOL    HW236159   0.877   4.129  12.181  0.5072 -1.5565 -1.6429
 8176SOL     OW36160   1.632   3.268   5.603 -0.7556 -0.3110 -0.3724
 8176SOL    HW136161   1.602   3.222   5.525  1.4525  1.9036 -2.5523
 8176SOL    HW236162   1.722   3.235   5.612 -0.2989  0.5847 -1.6983
 8177SOL     OW36163   0.960   0.685   5.045 -0.4371 -0.5046 -0.2306
 8177SOL    HW136164   0.994   0.612   4.992  0.3529  0.3932 -0.9514
 8177SOL    HW236165   0.964   0.749   4.974  1.3441 -1.4914 -1.0298
 8178SOL     OW36166   4.474   2.131   5.647  0.3603 -0.0026 -0.4048
 8178SOL    HW136167   4.413   2.115   5.720 -1.2616 -0.3471 -1.8224
 8178SOL    HW236168   4.523   2.050   5.659 -0.0420 -0.0714  0.7675
 8179SOL     OW36169   0.770   3.451  10.340  0.2217 -0.2711 -0.5320
 8179SOL    HW136170   0.852   3.484  10.377 -0.2430 -0.3822  0.5964
 8179SOL    HW236171   0.712   3.468  10.414  1.9997  1.0487  0.5606
 8180SOL     OW36172   0.347   4.202  15.629  0.3242  0.0384 -0.2159
 8180SOL    HW136173   0.288   4.219  15.555 -0.1460  2.3236  0.6936
 8180SOL    HW236174   0.428   4.193  15.579  0.9423  1.1025  0.6092
 8181SOL     OW36175   1.276   4.440   8.399  0.5908  0.3933  0.2339
 8181SOL    HW136176   1.187   4.475   8.407 -0.5129 -2.7419  1.5942
 8181SOL    HW236177   1.271   4.364   8.456  1.4044  0.2351  0.1010
 8182SOL     OW36178   2.481   0.413   3.653  0.1970  0.2143 -0.4080
 8182SOL    HW136179   2.469   0.472   3.579 -0.3101  1.1465  0.4254
 8182SOL    HW236180   2.571   0.385   3.639  0.1062 -0.9945  1.5003
 8183SOL     OW36181   0.650   2.093  10.595 -0.6098  0.0033 -0.1120
 8183SOL    HW136182   0.641   2.186  10.575  2.5585  0.3472 -0.0551
 8183SOL    HW236183   0.569   2.073  10.641 -0.2594  0.3205  0.6464
 8184SOL     OW36184   0.944   4.700   1.260  0.2384 -0.0099  0.0313
 8184SOL    HW136185   0.989   4.735   1.182  0.2009  2.0599  0.9272
 8184SOL    HW236186   0.946   0.045   1.309  2.0420  0.1558 -0.3295
 8185SOL     OW36187   2.976   0.938   3.754  0.4644  0.6278 -0.5456
 8185SOL    HW136188   3.008   1.002   3.818 -3.5677 -0.4752  2.6037
 8185SOL    HW236189   3.051   0.887   3.723  0.4892  1.4165 -1.7470
 8186SOL     OW36190   0.178   2.657   7.867 -0.2213 -0.4129  0.1555
 8186SOL    HW136191   0.123   2.709   7.809  0.0215  0.5181  0.7760
 8186SOL    HW236192   0.200   2.723   7.931 -0.5015 -0.4313  0.2688
 8187SOL     OW36193   2.685   2.078   5.551 -0.2181  0.1974  0.1423
 8187SOL    HW136194   2.704   2.086   5.644 -1.1041 -0.4549  0.3823
 8187SOL    HW236195   2.755   2.014   5.538  0.5293  1.6057 -2.6763
 8188SOL     OW36196   0.234   0.321   9.534  0.4105  0.4176 -0.0328
 8188SOL    HW136197   0.143   0.291   9.524  0.9104 -0.6390 -1.4726
 8188SOL    HW236198   0.247   0.280   9.619 -0.8491  0.6172  0.2536
 8189SOL     OW36199   3.098   2.546   4.743 -0.1442  0.1376  0.0804
 8189SOL    HW136200   3.017   2.597   4.747 -0.6133 -0.3563 -3.3598
 8189SOL    HW236201   3.077   2.455   4.725  0.9388  0.0746 -0.8948
 8190SOL     OW36202   3.442   1.623   3.451 -0.3338 -0.2755 -0.5918
 8190SOL    HW136203   3.414   1.531   3.449  0.8303 -0.5951 -2.5343
 8190SOL    HW236204   3.526   1.622   3.404 -0.5972  0.3471 -1.0770
 8191SOL     OW36205   2.507   3.880   2.941  0.0578  0.2753  0.4792
 8191SOL    HW136206   2.424   3.850   2.978  0.0150 -0.4311 -0.2113
 8191SOL    HW236207   2.492   3.969   2.909 -1.5742 -0.0067  0.4667
 8192SOL     OW36208   4.448   0.720  12.778 -0.0954 -0.2131 -0.1888
 8192SOL    HW136209   4.532   0.749  12.742 -1.0831 -0.8356 -2.9289
 8192SOL    HW236210   4.477   0.727  12.869 -0.1081 -1.7814 -0.0668
 8193SOL     OW36211   0.885   4.027   7.914 -0.7685  0.1266  0.1182
 8193SOL    HW136212   0.850   4.053   7.828 -0.7013 -0.2172 -0.0131
 8193SOL    HW236213   0.842   3.942   7.926  0.9365 -0.6353  0.8183
 8194SOL     OW36214   3.713   1.544   3.595 -0.2393  0.0670  0.8055
 8194SOL    HW136215   3.638   1.488   3.615 -1.0930  0.7372 -0.4953
 8194SOL    HW236216   3.727   1.565   3.688  1.4733 -1.4320  0.8898
 8195SOL     OW36217   1.521   1.703   0.920 -0.0575  0.3890  0.0964
 8195SOL    HW136218   1.519   1.788   0.964 -2.7207  0.0415  0.6227
 8195SOL    HW236219   1.573   1.733   0.845  0.9688  0.3749  0.8065
 8196SOL     OW36220   4.302   3.251   7.559 -0.7467  0.2876  0.7931
 8196SOL    HW136221   4.342   3.260   7.473 -1.0060 -2.6454  0.3651
 8196SOL    HW236222   4.370   3.258   7.626  0.2694 -0.3850 -0.1736
 8197SOL     OW36223   4.718   2.460   0.027  0.3569  0.1467  0.1153
 8197SOL    HW136224   0.056   2.502  17.731  1.6011 -2.0467  0.1347
 8197SOL    HW236225   4.715   2.507   0.111  2.2257  0.5581 -0.0415
 8198SOL     OW36226   4.361   0.087   4.339 -0.5299 -0.3512  0.4409
 8198SOL    HW136227   4.422   0.035   4.286 -1.4265 -0.1371 -0.7982
 8198SOL    HW236228   4.382   0.180   4.329  1.1273 -0.5131  2.2821
 8199SOL     OW36229   1.494   4.020   7.712 -0.3321 -0.0094 -0.1898
 8199SOL    HW136230   1.481   3.941   7.764  0.6878  0.6037  1.0149
 8199SOL    HW236231   1.577   4.004   7.666  0.9549  0.3749  2.0070
 8200SOL     OW36232   1.672   3.897  10.993 -0.0107  0.5504 -0.1494
 8200SOL    HW136233   1.750   3.953  11.002  0.8691 -1.0017  1.8793
 8200SOL    HW236234   1.608   3.954  10.951 -0.8273  0.5134  1.0684
 8201SOL     OW36235   1.389   2.207  12.469  0.1938 -0.2694 -0.4486
 8201SOL    HW136236   1.420   2.180  12.555 -0.5811  2.3379  0.6830
 8201SOL    HW236237   1.437   2.151  12.409  0.2004  0.2032 -0.8829
 8202SOL     OW36238   2.778   1.531   1.573  0.5144  0.4815 -0.0013
 8202SOL    HW136239   2.768   1.611   1.521  2.7295  1.6566  1.3972
 8202SOL    HW236240   2.689   1.500   1.554  0.8019  0.1851 -0.8878
 8203SOL     OW36241   1.149   2.605   5.426  0.1412  0.0134  0.4511
 8203SOL    HW136242   1.189   2.564   5.350 -0.3822 -1.7274  1.1101
 8203SOL    HW236243   1.076   2.544   5.436 -0.7577  0.7849 -1.4828
 8204SOL     OW36244   1.307   0.644  10.826 -0.1297  0.3076  0.0046
 8204SOL    HW136245   1.354   0.725  10.845  0.4345  0.3354 -1.5426
 8204SOL    HW236246   1.347   0.581  10.886 -1.3585  2.8418  3.5100
 8205SOL     OW36247   3.928   3.240  11.733  0.1295  0.2330  0.2464
 8205SOL    HW136248   3.950   3.167  11.792  0.3363 -0.5690 -0.8367
 8205SOL    HW236249   3.880   3.194  11.665 -1.6233 -0.6392  2.0624
 8206SOL     OW36250   0.119   4.491   9.644 -0.1425 -0.5217  0.0373
 8206SOL    HW136251   0.059   4.563   9.663 -0.6403 -1.5053  2.2457
 8206SOL    HW236252   0.065   4.439   9.585 -0.1514  0.1677 -0.5570
 8207SOL     OW36253   4.044   3.180   3.715 -0.3762  1.0105  0.5852
 8207SOL    HW136254   4.094   3.233   3.653 -0.1316  1.3537  1.0737
 8207SOL    HW236255   4.034   3.248   3.781  0.8828  0.4343  1.3801
 8208SOL     OW36256   1.185   0.889   4.491 -0.2966 -0.4221  0.0071
 8208SOL    HW136257   1.235   0.852   4.418  1.1176  1.5122  0.0188
 8208SOL    HW236258   1.160   0.812   4.543  1.3362  0.4814  2.1023
 8209SOL     OW36259   0.254   4.143   6.696  0.6374 -0.1021 -0.0986
 8209SOL    HW136260   0.350   4.136   6.698  0.6590  0.6830  1.2326
 8209SOL    HW236261   0.254   4.186   6.611  1.9065  1.0941  0.5110
 8210SOL     OW36262   2.829   1.068   4.776 -0.1406  0.8054  0.3353
 8210SOL    HW136263   2.850   0.978   4.799  0.4467  1.4175  2.2112
 8210SOL    HW236264   2.795   1.056   4.687  0.8276  0.1076  0.0586
 8211SOL     OW36265   2.104   2.718   6.020  0.0089  0.3438 -0.6754
 8211SOL    HW136266   2.037   2.651   6.008  0.3267  0.1976 -1.6014
 8211SOL    HW236267   2.074   2.763   6.099 -2.5626  1.4246 -2.2679
 8212SOL     OW36268   1.471   1.214   4.410 -0.1279  0.0730 -0.2138
 8212SOL    HW136269   1.493   1.302   4.378  0.9898  0.1583  0.7826
 8212SOL    HW236270   1.478   1.237   4.502 -3.8220 -2.1838  0.6180
 8213SOL     OW36271   1.555   0.327  16.501 -0.0237  0.0306  0.1637
 8213SOL    HW136272   1.476   0.377  16.522 -0.3502  0.9327 -3.0719
 8213SOL    HW236273   1.578   0.311  16.592  2.0483 -0.3015 -0.4240
 8214SOL     OW36274   0.527   3.252   9.267 -0.1862  0.5285 -0.2112
 8214SOL    HW136275   0.600   3.256   9.329  1.9825 -3.1177 -2.5918
 8214SOL    HW236276   0.538   3.157   9.263  1.7860  0.7352  0.1215
 8215SOL     OW36277   0.953   3.844   8.240 -0.1247 -0.3557 -0.4799
 8215SOL    HW136278   0.981   3.760   8.278 -0.5317 -0.9865 -1.5589
 8215SOL    HW236279   0.860   3.823   8.227 -1.1399  1.9839  3.1438
 8216SOL     OW36280   1.183   1.063   8.950  0.6074 -0.3450 -0.1778
 8216SOL    HW136281   1.231   1.007   8.889  0.9554 -0.3109  0.0627
 8216SOL    HW236282   1.102   1.011   8.951  0.1839  0.3810  3.6354
 8217SOL     OW36283   4.091   0.665   7.231 -0.1289  0.2972 -0.2186
 8217SOL    HW136284   4.068   0.641   7.141  0.7931  0.7500 -0.5783
 8217SOL    HW236285   4.019   0.726   7.247  0.3956  0.9006 -0.1674
 8218SOL     OW36286   0.968   3.991   5.503 -0.7587 -0.4736 -0.5369
 8218SOL    HW136287   1.016   3.912   5.528  1.0484  1.4033  1.9298
 8218SOL    HW236288   0.993   4.064   5.560 -0.8784 -0.3524 -0.6392
 8219SOL     OW36289   3.519   3.940   8.844 -0.2115  0.1698 -0.2881
 8219SOL    HW136290   3.480   3.953   8.930  0.6116 -0.2601  0.1437
 8219SOL    HW236291   3.560   3.854   8.850 -0.8995 -0.0693  0.9184
 8220SOL     OW36292   2.079   3.983   8.623  0.5633  0.1510 -0.5156
 8220SOL    HW136293   1.998   3.950   8.585  0.4759 -0.0769 -0.1318
 8220SOL    HW236294   2.064   3.968   8.717  0.4064  0.1244 -0.5448
 8221SOL     OW36295   1.395   1.445   2.101 -0.2535 -0.0220  0.1821
 8221SOL    HW136296   1.326   1.511   2.094 -1.7127 -1.4126  1.4537
 8221SOL    HW236297   1.345   1.372   2.137 -0.3511 -0.1979 -0.3115
 8222SOL     OW36298   3.092   3.159   5.154  0.1766 -0.6740  0.4051
 8222SOL    HW136299   3.080   3.097   5.226  3.5141 -0.1968  1.3507
 8222SOL    HW236300   3.178   3.190   5.182  0.6507 -1.1267 -0.5644
 8223SOL     OW36301   3.948   4.424  11.372 -0.2657  0.1191 -0.2234
 8223SOL    HW136302   3.991   4.506  11.398 -1.2914 -0.3647  2.9744
 8223SOL    HW236303   4.005   4.364  11.421  1.4360  3.6724  2.1527
 8224SOL     OW36304   3.914   2.882   7.431  0.4727 -0.3301 -0.5503
 8224SOL    HW136305   3.911   2.975   7.456  1.6684 -0.2193 -0.7789
 8224SOL    HW236306   4.010   2.876   7.432  0.5634  0.8976 -1.0819
 8225SOL     OW36307   2.763   1.763  13.010 -0.1066 -0.4171 -0.2519
 8225SOL    HW136308   2.856   1.756  12.989  0.2513 -2.3862  2.0085
 8225SOL    HW236309   2.746   1.821  12.935 -1.6920  1.7020  1.7625
 8226SOL     OW36310   1.058   4.733   8.657  0.3735  0.3995 -0.4870
 8226SOL    HW136311   1.018   4.647   8.652  0.4246  0.3714 -0.4108
 8226SOL    HW236312   1.147   4.706   8.681  0.6531  0.1776 -1.7433
 8227SOL     OW36313   0.266   4.179   0.213 -0.0847 -0.4172  0.3105
 8227SOL    HW136314   0.208   4.140   0.279 -1.2098 -1.2475 -1.1892
 8227SOL    HW236315   0.203   4.186   0.142  1.1289  0.4460 -0.6865
 8228SOL     OW36316   1.940   0.153   5.825  0.2895 -0.5511 -0.5696
 8228SOL    HW136317   2.016   0.148   5.768  1.0110  0.0832  0.3416
 8228SOL    HW236318   1.930   0.248   5.836  2.5628 -0.4423  0.5081
 8229SOL     OW36319   0.410   1.162  14.897  0.5690 -0.0873 -0.3454
 8229SOL    HW136320   0.416   1.099  14.825  2.3086 -0.2031 -0.0983
 8229SOL    HW236321   0.493   1.136  14.937  0.6691 -0.5167 -0.8333
 8230SOL     OW36322   4.639   0.380   3.878  0.2756 -0.3678 -0.8671
 8230SOL    HW136323   4.647   0.348   3.788 -0.9518 -1.4498 -0.5832
 8230SOL    HW236324   4.686   0.313   3.929 -1.3136 -2.4305 -2.1155
 8231SOL     OW36325   0.279   3.914   1.106 -0.0377 -0.5046 -0.1166
 8231SOL    HW136326   0.292   3.926   1.200  1.5825 -1.6609 -0.1871
 8231SOL    HW236327   0.312   3.997   1.073  1.6863 -2.4606 -3.2455
 8232SOL     OW36328   4.721   2.856   6.543 -0.4386 -0.5968  0.1305
 8232SOL    HW136329   4.700   2.837   6.451  0.2973 -2.2499  0.2984
 8232SOL    HW236330   0.002   2.769   6.579  0.4936 -0.6447 -0.4290
 8233SOL     OW36331   0.052   1.250   4.236  0.0966 -0.1234  0.2810
 8233SOL    HW136332   4.714   1.298   4.269  0.7056  0.7722  0.3731
 8233SOL    HW236333   0.100   1.246   4.319 -0.3723  0.2143  0.5678
 8234SOL     OW36334   1.678   4.718   9.004 -0.1781 -0.0554 -0.4603
 8234SOL    HW136335   1.691   4.702   9.098  0.5615 -0.0734 -0.5651
 8234SOL    HW236336   1.703   4.634   8.966  1.7060  1.0433 -1.6441
 8235SOL     OW36337   1.987   2.753  17.421 -0.0993 -0.3839 -0.1661
 8235SOL    HW136338   1.934   2.831  17.440 -1.4948 -1.1390 -1.0084
 8235SOL    HW236339   1.946   2.697  17.488  1.0144  0.8987  1.6051
 8236SOL     OW36340   3.335   3.651   6.846 -0.0268 -0.1792 -0.1652
 8236SOL    HW136341   3.327   3.688   6.934 -1.5175  0.9344 -0.7640
 8236SOL    HW236342   3.424   3.619   6.840 -0.3749 -0.8489 -1.5515
 8237SOL     OW36343   3.186   4.346   6.844  0.0795  0.3261 -0.2587
 8237SOL    HW136344   3.118   4.372   6.782  0.7007  1.1240 -0.6067
 8237SOL    HW236345   3.194   4.254   6.820  2.0147  0.2998  0.4932
 8238SOL     OW36346   0.091   1.606  11.260 -0.3034 -0.3529 -0.2477
 8238SOL    HW136347   0.015   1.599  11.319 -0.4104 -0.3439 -0.3839
 8238SOL    HW236348   0.156   1.615  11.329 -0.7241 -1.4217  0.2966
 8239SOL     OW36349   1.104   4.120   0.996 -0.1474 -0.0856 -0.4531
 8239SOL    HW136350   1.036   4.134   0.930 -1.3929 -0.0688  0.8593
 8239SOL    HW236351   1.171   4.104   0.929 -0.7345 -3.2440 -0.2848
 8240SOL     OW36352   4.264   2.136   6.245 -0.5110 -0.4467  0.0994
 8240SOL    HW136353   4.173   2.111   6.261 -0.3369 -1.6460 -0.8165
 8240SOL    HW236354   4.264   2.229   6.221 -2.2595 -0.0066  1.8152
 8241SOL     OW36355   3.448   2.649   3.736 -0.1927 -0.4727  0.1368
 8241SOL    HW136356   3.511   2.675   3.668  1.4963 -1.6545  1.2342
 8241SOL    HW236357   3.491   2.684   3.814  1.3811  1.0819 -1.4340
 8242SOL     OW36358   2.596   3.387   2.164 -0.4260  0.3372 -0.5078
 8242SOL    HW136359   2.647   3.416   2.089  1.5968 -1.9519 -0.0095
 8242SOL    HW236360   2.554   3.306   2.134 -0.5110  0.4656 -0.7323
 8243SOL     OW36361   1.871   4.123   2.396 -0.5352  0.2588 -0.4223
 8243SOL    HW136362   1.807   4.191   2.417  0.5691  0.3272  2.7359
 8243SOL    HW236363   1.826   4.045   2.427 -1.0805  1.9691  2.9995
 8244SOL     OW36364   4.299   4.506  11.837 -0.2961 -0.1039 -0.3598
 8244SOL    HW136365   4.253   4.585  11.812 -1.4066 -0.2591  1.2206
 8244SOL    HW236366   4.300   4.508  11.933  0.6731 -0.6160 -0.3578
 8245SOL     OW36367   4.286   1.764  13.747  1.1338  0.4900  0.4042
 8245SOL    HW136368   4.315   1.682  13.708 -2.1702  0.2088 -1.4492
 8245SOL    HW236369   4.240   1.742  13.828  0.7436  3.6765  1.0385
 8246SOL     OW36370   0.360   2.339  12.224  0.4402  0.2574  0.6004
 8246SOL    HW136371   0.271   2.308  12.241  0.0178  0.1658 -1.8387
 8246SOL    HW236372   0.376   2.412  12.283 -3.0865 -0.5141  2.5055
 8247SOL     OW36373   0.626   1.005  12.031  0.2199 -0.2136 -0.1398
 8247SOL    HW136374   0.713   0.969  12.014 -0.0589 -1.5847  1.3446
 8247SOL    HW236375   0.632   1.073  11.963  0.6743  1.1288  1.2529
 8248SOL     OW36376   2.231   1.308  16.021  0.3916  0.1007 -0.2986
 8248SOL    HW136377   2.157   1.257  15.988  0.4884 -0.7314  0.7755
 8248SOL    HW236378   2.271   1.252  16.088  0.4656 -0.0227 -0.4468
 8249SOL     OW36379   4.056   2.208   5.460 -0.2876 -0.3253 -0.6156
 8249SOL    HW136380   4.030   2.270   5.392 -0.7982 -0.2938 -0.3864
 8249SOL    HW236381   4.137   2.162   5.436 -1.2222 -2.5988  0.6221
 8250SOL     OW36382   1.567   1.678   6.731 -0.0914  0.0809 -0.0765
 8250SOL    HW136383   1.523   1.612   6.677 -0.1414  0.0963 -0.0539
 8250SOL    HW236384   1.544   1.637   6.814  0.2598  0.3497  0.1533
 8251SOL     OW36385   1.503   1.206   7.463  0.7391  0.1666  0.1041
 8251SOL    HW136386   1.423   1.247   7.496  0.1148  1.0702 -2.5012
 8251SOL    HW236387   1.472   1.126   7.421  2.9688 -0.3622 -0.5737
 8252SOL     OW36388   1.011   4.512   2.037  0.3394 -0.2554  0.3423
 8252SOL    HW136389   1.028   4.418   2.037 -1.5192 -0.5773  0.8341
 8252SOL    HW236390   0.965   4.526   2.119 -0.5827 -0.2292 -0.1794
 8253SOL     OW36391   4.596   4.534  10.138  0.1485  0.4317  0.3899
 8253SOL    HW136392   4.556   4.452  10.167 -0.4452  1.1143  1.4976
 8253SOL    HW236393   4.649   4.557  10.214  1.5786 -1.6142  0.0229
 8254SOL     OW36394   1.215   1.113   3.952 -0.5087 -0.1038 -0.2409
 8254SOL    HW136395   1.211   1.052   3.879  1.4512 -0.1913 -0.2702
 8254SOL    HW236396   1.241   1.052   4.020 -0.6785 -0.0642 -0.1390
 8255SOL     OW36397   0.599   4.332   4.683 -0.5582  0.7683 -0.0121
 8255SOL    HW136398   0.646   4.279   4.747  0.5568  1.9538  0.1507
 8255SOL    HW236399   0.624   4.422   4.704 -2.7248  1.2558  0.5593
 8256SOL     OW36400   3.595   3.034   7.597  0.1048  0.0885  0.1499
 8256SOL    HW136401   3.544   3.107   7.633 -0.1390  0.1889 -0.4010
 8256SOL    HW236402   3.621   3.075   7.515  0.0136 -0.3524 -0.1015
 8257SOL     OW36403   0.346   1.491   6.482  0.1202 -1.0251 -0.6768
 8257SOL    HW136404   0.406   1.559   6.514  0.4444 -0.2782 -2.8631
 8257SOL    HW236405   0.365   1.429   6.553 -1.0837  1.2427  1.6371
 8258SOL     OW36406   0.884   3.090   1.951  0.1778  0.0574 -0.4055
 8258SOL    HW136407   0.933   3.142   2.015 -0.2857 -1.2290  0.9793
 8258SOL    HW236408   0.931   3.103   1.868 -0.8646  1.0451 -0.8402
 8259SOL     OW36409   2.188   3.454  15.659 -0.0195  0.1372 -0.5323
 8259SOL    HW136410   2.245   3.401  15.603  1.2356  0.5946  0.3151
 8259SOL    HW236411   2.120   3.473  15.595  1.3908  0.9988 -1.7792
 8260SOL     OW36412   0.494   3.202   3.703 -0.6046  0.3086  0.4281
 8260SOL    HW136413   0.554   3.128   3.708  2.2130  2.4145 -2.0279
 8260SOL    HW236414   0.521   3.248   3.623 -0.6592  1.3261  0.9894
 8261SOL     OW36415   0.695   2.078   6.769  0.3362  0.1435  0.5139
 8261SOL    HW136416   0.760   2.065   6.838  1.6003  0.2072 -0.6833
 8261SOL    HW236417   0.617   2.091   6.823  1.5595  1.6794  1.8923
 8262SOL     OW36418   0.479   1.147   3.544  0.1619 -0.0818 -0.4053
 8262SOL    HW136419   0.413   1.213   3.520 -1.2351 -0.5781  2.1099
 8262SOL    HW236420   0.478   1.178   3.634 -3.4088 -1.4922  0.0458
 8263SOL     OW36421   0.468   4.101   9.308  0.2147 -0.4596 -0.3549
 8263SOL    HW136422   0.392   4.130   9.258  0.3561  1.3337  0.4551
 8263SOL    HW236423   0.518   4.183   9.316  0.9171 -0.9335  0.1617
 8264SOL     OW36424   1.749   2.116  11.479  0.2203 -0.0109  0.1324
 8264SOL    HW136425   1.734   2.171  11.402 -1.1340 -0.4063  0.1097
 8264SOL    HW236426   1.843   2.125  11.491  0.0296  0.7183  1.1049
 8265SOL     OW36427   1.567   3.343   8.147 -0.0838 -0.1075  0.1973
 8265SOL    HW136428   1.537   3.302   8.228  0.1811 -0.2051  0.2457
 8265SOL    HW236429   1.622   3.410   8.188 -0.7119 -0.3701  1.4659
 8266SOL     OW36430   2.868   0.792   4.792  0.2588 -0.1629  0.1077
 8266SOL    HW136431   2.914   0.734   4.853  1.5032  1.2388  0.5087
 8266SOL    HW236432   2.841   0.735   4.720 -0.4356  1.9471 -1.2928
 8267SOL     OW36433   1.974   3.115   2.283 -0.5070  0.5938  0.1494
 8267SOL    HW136434   2.046   3.062   2.250 -1.8459 -0.6748 -0.6927
 8267SOL    HW236435   1.991   3.112   2.377 -1.5312  1.2235  0.3606
 8268SOL     OW36436   0.877   1.908   8.714  0.0918 -0.0506  0.5026
 8268SOL    HW136437   0.881   1.988   8.766  1.2970 -0.2253  0.6782
 8268SOL    HW236438   0.845   1.942   8.630 -1.7879 -1.1827  0.7688
 8269SOL     OW36439   4.153   1.746  14.541  0.2908  0.0413  0.5516
 8269SOL    HW136440   4.120   1.806  14.474  1.9416 -0.5075 -0.7396
 8269SOL    HW236441   4.247   1.763  14.533  0.1684 -1.0554 -3.4913
 8270SOL     OW36442   1.906   1.658   1.846 -0.4373 -0.1944 -0.1057
 8270SOL    HW136443   1.916   1.693   1.758  1.4227  0.2568  0.2963
 8270SOL    HW236444   1.991   1.615   1.852 -1.0939 -1.6372 -0.9993
 8271SOL     OW36445   4.644   2.096   6.355 -0.2018  0.2468  0.7843
 8271SOL    HW136446   4.690   2.063   6.278  0.2571  2.2527  0.1917
 8271SOL    HW236447   4.566   2.041   6.362  0.1687 -0.6637 -2.0705
 8272SOL     OW36448   1.458   1.140  15.552  0.6827 -0.2611  0.0418
 8272SOL    HW136449   1.551   1.165  15.551  0.7991 -0.4411  3.9717
 8272SOL    HW236450   1.455   1.098  15.466  0.1613 -2.0646  0.9302
 8273SOL     OW36451   2.913   0.532   9.674 -0.1048 -0.1111 -0.0268
 8273SOL    HW136452   2.992   0.483   9.699 -1.3228 -0.1455  3.8159
 8273SOL    HW236453   2.861   0.525   9.755 -0.0198 -0.0119  0.0360
 8274SOL     OW36454   2.317   2.240  10.500 -0.1091 -0.2121 -0.0894
 8274SOL    HW136455   2.268   2.274  10.575  0.0773  1.5885 -0.7761
 8274SOL    HW236456   2.361   2.163  10.536 -2.9855 -2.2295 -0.8743
 8275SOL     OW36457   2.788   2.694   2.641  0.6038  0.2836 -0.0711
 8275SOL    HW136458   2.827   2.670   2.725 -2.1389 -1.6064  0.6692
 8275SOL    HW236459   2.704   2.716   2.681  0.2014  1.6331 -1.6665
 8276SOL     OW36460   4.387   0.407   1.444 -0.6236  0.0215  0.1455
 8276SOL    HW136461   4.451   0.395   1.374 -0.8765  0.5080 -0.1689
 8276SOL    HW236462   4.430   0.383   1.526 -1.1573  0.8133  0.6487
 8277SOL     OW36463   1.951   3.738  16.027  0.3950 -0.1158 -0.7095
 8277SOL    HW136464   2.002   3.683  15.968  0.8656 -1.5038  1.0002
 8277SOL    HW236465   2.004   3.752  16.106  1.7600  0.9992 -1.8340
 8278SOL     OW36466   0.229   1.420  13.066  0.3635 -0.0796 -0.0604
 8278SOL    HW136467   0.217   1.330  13.098  0.1393  1.1806  3.3873
 8278SOL    HW236468   0.276   1.459  13.140  0.5264  0.8873 -0.6737
 8279SOL     OW36469   1.142   1.985   8.058 -0.0129 -0.1734 -0.6554
 8279SOL    HW136470   1.176   2.064   8.100 -2.2421  1.1585 -1.3509
 8279SOL    HW236471   1.050   2.012   8.068  0.3307  1.3670 -1.6899
 8280SOL     OW36472   3.999   2.778   8.594  0.2161  0.4315  0.1302
 8280SOL    HW136473   4.085   2.804   8.626  1.0769 -1.1035 -0.9635
 8280SOL    HW236474   3.992   2.829   8.513  2.9265  1.5278  0.5813
 8281SOL     OW36475   3.776   4.354  11.636 -0.3101 -0.0963  0.1448
 8281SOL    HW136476   3.871   4.338  11.631 -0.3646 -0.1884 -0.7016
 8281SOL    HW236477   3.749   4.281  11.691 -3.1795  1.5149  0.8494
 8282SOL     OW36478   2.343   0.714   6.534 -0.6167 -0.2798 -0.5358
 8282SOL    HW136479   2.373   0.628   6.562 -0.1012  0.0887  0.0536
 8282SOL    HW236480   2.399   0.773   6.585 -2.9911 -0.0882  1.8730
 8283SOL     OW36481   2.109   4.139   2.842  0.6331 -0.5588  0.6688
 8283SOL    HW136482   2.086   4.222   2.800 -0.9253 -2.7840 -2.8578
 8283SOL    HW236483   2.205   4.137   2.840  0.6459 -1.7523  2.0264
 8284SOL     OW36484   2.817   1.655   7.543  0.2688  0.4502  0.3468
 8284SOL    HW136485   2.797   1.698   7.625 -2.0428 -1.0895  0.5814
 8284SOL    HW236486   2.768   1.574   7.556  0.2444  0.3398 -0.4156
 8285SOL     OW36487   0.431   3.253  13.349  0.4908  0.3459  0.2501
 8285SOL    HW136488   0.368   3.311  13.392 -0.4002 -0.5159  0.1270
 8285SOL    HW236489   0.384   3.195  13.288  1.4076  2.2118 -2.2324
 8286SOL     OW36490   4.480   0.196   9.256 -0.2775  0.5985  0.5612
 8286SOL    HW136491   4.463   0.149   9.174 -0.9242  0.1599  0.9545
 8286SOL    HW236492   4.401   0.196   9.309 -0.9433  1.9434 -0.4223
 8287SOL     OW36493   1.844   4.175   7.153 -0.3289 -0.5371 -0.1393
 8287SOL    HW136494   1.900   4.105   7.122  0.2425 -0.5790  1.0108
 8287SOL    HW236495   1.762   4.138   7.119 -0.2331 -1.1591  0.3208
 8288SOL     OW36496   3.448   3.020   8.555 -0.7546  0.4030 -0.4365
 8288SOL    HW136497   3.404   2.994   8.636 -1.8938 -0.1270 -1.2412
 8288SOL    HW236498   3.379   3.068   8.510 -0.3452  1.8551  0.4586
 8289SOL     OW36499   3.519   2.600  16.784 -0.4341 -0.1128 -0.0667
 8289SOL    HW136500   3.535   2.649  16.865 -2.2689  2.7940 -1.4287
 8289SOL    HW236501   3.605   2.566  16.759 -0.8590 -0.3489 -1.2247
 8290SOL     OW36502   3.462   4.677  14.997  0.3318 -0.1292  0.8450
 8290SOL    HW136503   3.378   4.720  14.986 -0.0515 -1.0719  0.0778
 8290SOL    HW236504   3.462   4.650  15.089  0.1006 -0.4330  0.7560
 8291SOL     OW36505   3.600   1.070   6.603  0.0795 -0.0699 -0.0174
 8291SOL    HW136506   3.549   1.126   6.661 -0.4994 -2.2534  1.5940
 8291SOL    HW236507   3.543   1.004   6.563 -0.8851  0.5838  0.2893
 8292SOL     OW36508   3.053   4.172   3.128 -0.1538  0.2438  0.1206
 8292SOL    HW136509   2.972   4.154   3.177 -0.8353 -0.5893 -1.3035
 8292SOL    HW236510   3.042   4.264   3.103 -1.2733  0.3108  0.8292
 8293SOL     OW36511   0.552   1.068   4.177 -0.1887  0.1408 -0.0681
 8293SOL    HW136512   0.520   1.110   4.257  0.0302  3.4114 -1.7019
 8293SOL    HW236513   0.487   1.003   4.152 -1.4020  0.3796  2.5052
 8294SOL     OW36514   4.427   3.774   3.856  0.2918 -0.5486  0.3075
 8294SOL    HW136515   4.448   3.786   3.948  0.7844 -0.2817  0.1602
 8294SOL    HW236516   4.461   3.855   3.818 -2.0486 -0.0708 -0.8126
 8295SOL     OW36517   4.643   1.011  13.846 -0.0415 -0.1141  0.0306
 8295SOL    HW136518   4.574   0.967  13.795 -0.1422 -2.1738  1.9696
 8295SOL    HW236519   4.630   1.099  13.812  0.1561 -0.4680 -0.9715
 8296SOL     OW36520   0.640   2.727   8.254  0.3069  0.4118 -0.1081
 8296SOL    HW136521   0.635   2.822   8.263 -2.0567  0.4129 -1.5332
 8296SOL    HW236522   0.705   2.734   8.184  1.9981 -0.4248  1.3686
 8297SOL     OW36523   4.004   4.653   8.492  0.6045  0.1550  0.0065
 8297SOL    HW136524   3.940   4.594   8.452  0.2160  0.7510 -0.2443
 8297SOL    HW236525   4.076   4.632   8.432  1.3500  1.5527  0.4089
 8298SOL     OW36526   1.844   1.256   9.166  0.2140 -0.2691 -0.1178
 8298SOL    HW136527   1.917   1.224   9.112 -0.0158 -0.2267 -0.4517
 8298SOL    HW236528   1.788   1.183   9.141  2.2829 -1.9089 -0.0178
 8299SOL     OW36529   0.897   3.789   6.568 -0.2537  0.1123 -0.4729
 8299SOL    HW136530   0.860   3.874   6.591  0.6809  0.3550  0.1107
 8299SOL    HW236531   0.842   3.732   6.623 -3.5503 -0.3775 -4.2976
 8300SOL     OW36532   0.818   1.175   7.745  0.4341 -0.2568 -0.0447
 8300SOL    HW136533   0.830   1.244   7.811  1.4589 -0.1854 -0.3138
 8300SOL    HW236534   0.789   1.235   7.676  1.5671  0.1083 -0.1906
 8301SOL     OW36535   1.325   1.996   7.066 -0.4110  0.2039 -0.1886
 8301SOL    HW136536   1.326   1.951   7.150 -0.5802 -0.7982 -0.7281
 8301SOL    HW236537   1.413   2.032   7.072  0.4703 -1.6560 -2.2214
 8302SOL     OW36538   0.419   0.817  11.969  0.2792  0.6492  0.1978
 8302SOL    HW136539   0.402   0.891  11.910  0.2686  0.5967  0.1338
 8302SOL    HW236540   0.497   0.847  12.016  2.4042 -1.6650 -1.8194
 8303SOL     OW36541   0.539   0.564   8.055 -0.2446  0.4120 -0.4946
 8303SOL    HW136542   0.486   0.636   8.019  0.0261  0.2559 -1.2076
 8303SOL    HW236543   0.478   0.491   8.044 -0.9559  0.8380  0.6017
 8304SOL     OW36544   0.107   3.058   9.937 -0.5358 -0.0761 -0.2344
 8304SOL    HW136545   0.108   3.133   9.997  1.9120  1.2863 -1.9396
 8304SOL    HW236546   0.080   2.987   9.995 -0.4129 -0.1039 -0.2118
 8305SOL     OW36547   1.312   0.802   5.420  0.3195  0.0100 -0.0574
 8305SOL    HW136548   1.308   0.706   5.419 -0.0562  0.0276 -0.1869
 8305SOL    HW236549   1.316   0.828   5.328  4.5822 -0.4631 -0.0167
 8306SOL     OW36550   0.074   2.548   4.388 -0.1584 -0.2296  0.1077
 8306SOL    HW136551   0.133   2.508   4.324 -0.4949 -0.2184 -0.2080
 8306SOL    HW236552   0.041   2.630   4.350 -0.7971 -0.4849  0.1038
 8307SOL     OW36553   1.839   2.526  14.401  0.1434 -0.0653  0.3493
 8307SOL    HW136554   1.904   2.477  14.351 -0.5005 -1.0025  0.4376
 8307SOL    HW236555   1.802   2.572  14.326  2.4116  1.1659 -0.0064
 8308SOL     OW36556   1.033   4.384   8.658  0.0150 -0.1346 -0.1808
 8308SOL    HW136557   0.938   4.387   8.651  0.0902  1.5105 -0.4078
 8308SOL    HW236558   1.054   4.424   8.574  0.6083  2.0410  1.0062
 8309SOL     OW36559   3.954   3.614   7.044 -0.0782  0.3702  0.2349
 8309SOL    HW136560   3.937   3.530   7.087  2.2367  0.8463  2.0566
 8309SOL    HW236561   3.968   3.588   6.953  3.5490  0.1391  0.8489
 8310SOL     OW36562   3.674   2.553  15.109 -0.5726  0.3320 -0.5396
 8310SOL    HW136563   3.623   2.630  15.084  0.8277  0.6713 -2.2899
 8310SOL    HW236564   3.655   2.495  15.035  0.7084  0.0559 -0.6557
 8311SOL     OW36565   3.466   0.848   6.454 -0.1437  0.4636 -0.2017
 8311SOL    HW136566   3.471   0.754   6.470  0.5513  0.3188 -1.2410
 8311SOL    HW236567   3.481   0.850   6.359 -0.1226 -1.7558 -0.2367
 8312SOL     OW36568   2.178   1.382   8.383 -0.4588 -0.2319 -0.4306
 8312SOL    HW136569   2.159   1.323   8.456  1.7955 -1.9523 -1.2248
 8312SOL    HW236570   2.110   1.346   8.327  0.2368  0.7411 -1.8812
 8313SOL     OW36571   2.256   1.918   6.627 -0.2471  0.2077  0.0630
 8313SOL    HW136572   2.247   1.977   6.553 -1.2646  0.6585  0.5500
 8313SOL    HW236573   2.252   1.985   6.695  1.4753  1.5839 -1.2134
 8314SOL     OW36574   0.998   4.428  10.739 -0.1502  0.2350  0.1839
 8314SOL    HW136575   1.044   4.434  10.822  1.8710  2.3720 -1.1170
 8314SOL    HW236576   0.940   4.504  10.738  0.9841  1.1355  3.9326
 8315SOL     OW36577   3.287   4.149  17.145 -0.2875 -0.3801  0.0630
 8315SOL    HW136578   3.279   4.065  17.191 -2.2293  0.8908  1.9963
 8315SOL    HW236579   3.316   4.210  17.212  1.4224 -0.5930 -0.4760
 8316SOL     OW36580   0.874   3.990   2.275 -0.0430  0.2657  0.0459
 8316SOL    HW136581   0.859   3.900   2.304 -1.5182  0.2389 -0.7999
 8316SOL    HW236582   0.888   3.978   2.181 -2.6990 -0.3789 -0.2744
 8317SOL     OW36583   1.707   3.059   4.348 -0.6558  0.4508  0.5956
 8317SOL    HW136584   1.763   2.994   4.305  0.2828  0.7383  1.4091
 8317SOL    HW236585   1.700   3.117   4.272 -0.5996  1.0800  1.0732
 8318SOL     OW36586   2.242   3.091   2.455  0.5508  0.7989 -0.2835
 8318SOL    HW136587   2.166   3.071   2.510  1.3091  1.8132  1.1264
 8318SOL    HW236588   2.218   3.051   2.371  1.4279 -0.0573 -0.1399
 8319SOL     OW36589   1.665   3.840  16.375 -0.0439  0.1748 -0.6947
 8319SOL    HW136590   1.697   3.889  16.299 -0.4191 -1.8765 -2.1728
 8319SOL    HW236591   1.751   3.814  16.407 -1.7754 -2.9883  1.3659
 8320SOL     OW36592   0.938   0.777   1.521  0.1028 -0.4341  0.1711
 8320SOL    HW136593   0.951   0.701   1.577 -3.1518 -0.6838  0.6171
 8320SOL    HW236594   0.931   0.728   1.439  0.9400 -2.4712  1.3286
 8321SOL     OW36595   4.658   2.273   7.642  0.2659  0.0750 -0.2594
 8321SOL    HW136596   4.593   2.203   7.646  0.2721  0.0575 -0.4850
 8321SOL    HW236597   4.647   2.316   7.727  0.1211  0.2554 -0.3718
 8322SOL     OW36598   3.064   0.852   7.031  0.3109 -0.0955 -0.4910
 8322SOL    HW136599   3.095   0.939   7.006  1.5416 -0.1004  1.0096
 8322SOL    HW236600   3.146   0.804   7.025  1.8149  2.2955  0.9847
 8323SOL     OW36601   0.455   1.123  10.285 -0.8680  0.2021  0.1022
 8323SOL    HW136602   0.511   1.092  10.356 -0.2794 -1.2227 -0.9851
 8323SOL    HW236603   0.459   1.218  10.300  0.2648  0.2399 -0.4370
 8324SOL     OW36604   0.648   3.117   7.022  0.0274 -0.4577 -0.2858
 8324SOL    HW136605   0.716   3.067   6.976  0.1347  0.3569 -1.0077
 8324SOL    HW236606   0.580   3.051   7.028  0.0009 -0.3444  0.6839
 8325SOL     OW36607   2.036   2.484   7.373 -0.2433  0.1027  0.1389
 8325SOL    HW136608   2.046   2.579   7.376  1.0640 -0.0414  0.4940
 8325SOL    HW236609   2.084   2.462   7.452  0.9315 -1.4692 -1.0075
 8326SOL     OW36610   4.260   2.117   8.720  0.4237  0.0361  0.0273
 8326SOL    HW136611   4.344   2.160   8.735  0.1107  0.5002  0.4678
 8326SOL    HW236612   4.219   2.199   8.692 -1.1603 -0.9522 -0.5403
 8327SOL     OW36613   2.961   3.105   7.494  0.1863  0.1360  0.0542
 8327SOL    HW136614   2.917   3.031   7.451 -0.5673 -1.0428  2.8631
 8327SOL    HW236615   2.913   3.175   7.451 -1.2104 -1.7943 -1.5274
 8328SOL     OW36616   2.791   3.059   2.920  0.5289  0.1925  0.3055
 8328SOL    HW136617   2.859   3.026   2.861  0.3533 -0.5165  0.5078
 8328SOL    HW236618   2.712   3.027   2.877  1.7630  0.1938 -1.9827
 8329SOL     OW36619   1.486   3.393   7.871  0.3755  0.3822 -0.2745
 8329SOL    HW136620   1.506   3.383   7.964 -0.1851 -2.1597 -0.4363
 8329SOL    HW236621   1.553   3.450   7.832  1.2040 -0.1015  0.4547
 8330SOL     OW36622   1.698   0.575   1.544 -0.2003 -0.8285 -0.5714
 8330SOL    HW136623   1.731   0.547   1.459  1.2891 -1.5466  0.2234
 8330SOL    HW236624   1.750   0.655   1.539 -3.2069  1.1070 -0.4974
 8331SOL     OW36625   2.807   3.361   3.759 -0.3830 -1.2088 -0.1739
 8331SOL    HW136626   2.718   3.338   3.786  0.3054 -1.5690  1.7855
 8331SOL    HW236627   2.788   3.381   3.667 -0.2987 -1.1584 -0.1799
 8332SOL     OW36628   1.139   1.740   8.222 -0.0777  0.0676  0.8707
 8332SOL    HW136629   1.080   1.716   8.150  1.3732  1.2954 -0.7166
 8332SOL    HW236630   1.157   1.824   8.180 -4.1886 -0.2750 -1.6611
 8333SOL     OW36631   2.968   4.075   2.864 -0.3603  0.4866  0.3964
 8333SOL    HW136632   3.003   4.084   2.953 -0.1808 -1.6567  0.5332
 8333SOL    HW236633   2.875   4.082   2.887 -0.9607  0.5811 -2.0244
 8334SOL     OW36634   4.637   2.119  16.830  0.0396  0.3126 -0.4909
 8334SOL    HW136635   4.672   2.037  16.867  1.2733  1.1101  0.1110
 8334SOL    HW236636   4.546   2.095  16.816 -0.8690  3.6680 -0.3507
 8335SOL     OW36637   1.648   4.075   3.825  0.5284 -1.2679 -0.1608
 8335SOL    HW136638   1.618   4.159   3.792  0.6948 -0.4095  1.8899
 8335SOL    HW236639   1.628   4.013   3.755  0.7278  0.3576 -1.6342
 8336SOL     OW36640   3.792   4.077   2.744 -0.6202 -0.0933  0.3720
 8336SOL    HW136641   3.792   4.010   2.676  2.4564 -1.2505  1.5013
 8336SOL    HW236642   3.709   4.108   2.709 -0.4894 -0.5645 -0.3617
 8337SOL     OW36643   4.340   4.701   1.092 -0.1552  0.0137 -0.1776
 8337SOL    HW136644   4.254   4.708   1.133  0.4960 -1.2896  1.3800
 8337SOL    HW236645   4.351   0.050   1.051 -1.4467 -0.5506 -1.7163
 8338SOL     OW36646   0.173   3.274   5.210 -0.0833  0.2399 -0.5655
 8338SOL    HW136647   0.233   3.349   5.215  2.9606 -2.2524 -0.0586
 8338SOL    HW236648   0.246   3.214   5.194  2.1183  2.4861  1.0496
 8339SOL     OW36649   2.709   0.326   2.328  0.1837  0.3230 -0.0121
 8339SOL    HW136650   2.673   0.414   2.318  1.0163  0.5360 -1.0553
 8339SOL    HW236651   2.666   0.305   2.412 -1.3112  2.2181 -0.2956
 8340SOL     OW36652   4.544   0.974   3.409  0.0993  0.0115 -0.1179
 8340SOL    HW136653   4.494   1.046   3.371 -0.1445  0.6138  1.3079
 8340SOL    HW236654   4.618   0.963   3.350  1.1620 -0.9729  1.3763
 8341SOL     OW36655   3.590   1.992   9.106 -0.3713 -0.6915  0.2926
 8341SOL    HW136656   3.504   1.953   9.088 -0.7600  0.1295  0.3759
 8341SOL    HW236657   3.600   1.952   9.192  0.6244 -0.2894  0.3643
 8342SOL     OW36658   0.819   2.879   7.614 -0.1532  0.3397  0.0006
 8342SOL    HW136659   0.846   2.847   7.528  0.3720 -1.7330  0.9239
 8342SOL    HW236660   0.805   2.969   7.583 -1.6063  0.7214  1.7736
 8343SOL     OW36661   0.803   3.642  13.253 -0.1156  0.0736  0.2852
 8343SOL    HW136662   0.829   3.702  13.183 -0.6187 -1.1901 -0.9779
 8343SOL    HW236663   0.754   3.576  13.204 -2.2963  3.9251 -2.7182
 8344SOL     OW36664   2.937   3.656  13.495 -0.4636  0.3945  0.0876
 8344SOL    HW136665   3.019   3.667  13.446  0.1542 -0.9789  0.8316
 8344SOL    HW236666   2.967   3.709  13.569  0.7423 -0.0369 -0.0904
 8345SOL     OW36667   1.418   3.192   1.914  0.1509 -0.3168 -0.2271
 8345SOL    HW136668   1.334   3.172   1.955 -0.2327 -4.0735 -2.8797
 8345SOL    HW236669   1.417   3.288   1.915  0.9821 -0.3123  0.0550
 8346SOL     OW36670   1.622   4.039   5.553 -0.0813 -0.2433 -0.0262
 8346SOL    HW136671   1.567   4.077   5.622 -0.7788 -1.7501  0.2514
 8346SOL    HW236672   1.700   4.094   5.561  0.8233 -1.6411  0.7163
 8347SOL     OW36673   2.702   4.681  11.714  0.2550  0.2329 -0.0513
 8347SOL    HW136674   2.753   4.706  11.637 -0.3146  0.3953 -0.3727
 8347SOL    HW236675   2.619   4.715  11.680  0.4163  1.4181  0.7532
 8348SOL     OW36676   1.640   3.936   4.345 -0.2091 -0.1236 -0.3564
 8348SOL    HW136677   1.594   3.860   4.309 -1.5029  0.0771  0.8927
 8348SOL    HW236678   1.626   3.907   4.435  0.3779  1.4378  0.2283
 8349SOL     OW36679   1.415   1.088   5.046  0.1452 -0.6038 -0.2142
 8349SOL    HW136680   1.358   1.053   5.114 -1.4017  2.5066  0.0707
 8349SOL    HW236681   1.353   1.092   4.972 -0.2400  3.8914  0.3749
 8350SOL     OW36682   4.520   1.815   3.453 -0.5091 -0.6157  0.1820
 8350SOL    HW136683   4.603   1.862   3.439 -1.6110  0.3676 -3.0447
 8350SOL    HW236684   4.502   1.858   3.537 -1.6182  0.1924 -0.4762
 8351SOL     OW36685   3.685   0.218  11.731 -0.3213 -0.0320 -0.1703
 8351SOL    HW136686   3.717   0.298  11.690 -0.9791  1.0436  1.4235
 8351SOL    HW236687   3.762   0.168  11.759  1.0215  1.7952 -0.5722
 8352SOL     OW36688   0.898   4.166   4.838  0.0428 -0.4353  0.4977
 8352SOL    HW136689   0.905   4.110   4.760  0.2367 -0.6667  0.6808
 8352SOL    HW236690   0.905   4.253   4.799 -0.5814 -0.1465  1.0411
 8353SOL     OW36691   1.987   3.126   7.801  0.4490  0.1498 -0.0138
 8353SOL    HW136692   1.971   3.033   7.811 -0.8126  0.0063 -3.2478
 8353SOL    HW236693   1.910   3.149   7.853 -0.9331 -0.4310 -1.7811
 8354SOL     OW36694   2.650   3.100   7.605  0.2291 -1.1329  0.0920
 8354SOL    HW136695   2.629   3.024   7.550 -0.9535 -1.2486  0.7149
 8354SOL    HW236696   2.665   3.063   7.692 -0.7663  1.4825  1.3384
 8355SOL     OW36697   0.584   2.539   9.023  0.7702  0.2771  0.0166
 8355SOL    HW136698   0.496   2.553   8.988  0.2449 -0.5920  0.9775
 8355SOL    HW236699   0.631   2.585   8.954  1.3832  1.2489  1.0797
 8356SOL     OW36700   0.042   3.941   7.404 -0.3822  0.1702  0.1978
 8356SOL    HW136701   4.720   4.009   7.370 -0.4086  0.8940  1.6891
 8356SOL    HW236702   0.036   3.953   7.498 -0.9861 -3.3775  0.5717
 8357SOL     OW36703   0.614   0.209   5.164  0.6483 -0.3326  0.0820
 8357SOL    HW136704   0.543   0.238   5.222 -1.3679  0.6997 -2.8828
 8357SOL    HW236705   0.580   0.128   5.126 -0.1199 -0.7438  1.6308
 8358SOL     OW36706   1.809   4.528   2.591  0.3238 -0.2973  0.0280
 8358SOL    HW136707   1.827   4.622   2.593 -0.8403 -0.1022  1.7199
 8358SOL    HW236708   1.859   4.504   2.513 -1.4852  0.8980 -1.5026
 8359SOL     OW36709   1.501   0.263  11.695 -0.0312 -0.2055  0.0252
 8359SOL    HW136710   1.575   0.267  11.756 -1.8433  0.8766  2.1515
 8359SOL    HW236711   1.501   0.175  11.659  0.2543  1.5595 -4.2694
 8360SOL     OW36712   4.470   0.541  16.258 -0.2294 -0.5101 -0.2275
 8360SOL    HW136713   4.547   0.485  16.249  2.3114  3.1586 -1.2569
 8360SOL    HW236714   4.513   0.626  16.268 -0.1353 -0.4618 -1.0743
 8361SOL     OW36715   3.640   4.209   8.953  0.3952 -0.0760  0.0417
 8361SOL    HW136716   3.704   4.252   9.011  1.4961 -0.0379 -1.1827
 8361SOL    HW236717   3.562   4.218   9.007  1.0608 -1.0221  1.1478
 8362SOL     OW36718   3.968   4.493   2.890 -0.8750 -0.3271 -0.1007
 8362SOL    HW136719   3.946   4.531   2.805  0.1675 -0.4553 -0.4274
 8362SOL    HW236720   4.023   4.420   2.861 -2.9674 -1.2964 -1.6415
 8363SOL     OW36721   0.544   4.524   4.366  0.2955 -0.4889  0.0400
 8363SOL    HW136722   0.561   4.430   4.363 -2.3021 -0.9832  0.2869
 8363SOL    HW236723   0.590   4.552   4.445 -2.4492 -0.4806  1.6594
 8364SOL     OW36724   2.112   2.311   4.794  0.1526 -0.1439  0.0592
 8364SOL    HW136725   2.187   2.343   4.843 -0.0869  0.1292  0.2497
 8364SOL    HW236726   2.082   2.236   4.847  3.1492 -0.0390  1.9194
 8365SOL     OW36727   2.350   2.066   8.942 -0.6415  0.4731 -0.5504
 8365SOL    HW136728   2.429   2.026   8.980  0.3369  1.6467 -1.3460
 8365SOL    HW236729   2.387   2.136   8.889  0.7406 -0.6237 -1.0572
 8366SOL     OW36730   3.092   4.480   7.065 -0.2762 -0.7600 -0.3588
 8366SOL    HW136731   3.099   4.566   7.024  0.2314 -0.5850  0.0857
 8366SOL    HW236732   3.128   4.423   6.997 -1.4921 -0.9725 -0.8051
 8367SOL     OW36733   1.419   4.296   3.100 -0.1188  0.3289  0.1498
 8367SOL    HW136734   1.376   4.380   3.114  0.3327  0.5491  0.2397
 8367SOL    HW236735   1.452   4.307   3.011  0.0345 -1.9158 -0.0627
 8368SOL     OW36736   0.850   1.304  12.147  0.2300 -0.4218 -0.0841
 8368SOL    HW136737   0.924   1.335  12.095  1.0471 -0.0322  1.3428
 8368SOL    HW236738   0.887   1.227  12.190 -0.6992 -0.0699  1.3259
 8369SOL     OW36739   0.216   3.918   8.189 -0.3987 -0.0091  0.4123
 8369SOL    HW136740   0.147   3.885   8.247 -0.1965  0.6708  1.0366
 8369SOL    HW236741   0.276   3.957   8.253 -1.2331  1.8546  0.0578
 8370SOL     OW36742   0.319   2.131   4.179 -0.2493  0.0565 -0.6235
 8370SOL    HW136743   0.373   2.204   4.149 -0.0394  1.2357  2.5928
 8370SOL    HW236744   0.296   2.084   4.099 -0.0022 -0.7020 -0.2509
 8371SOL     OW36745   0.067   4.254   8.531 -0.2698  0.2219  0.3385
 8371SOL    HW136746   0.012   4.328   8.505 -0.2188  0.1223 -0.0559
 8371SOL    HW236747   0.116   4.232   8.452  1.1533  0.5695  1.1277
 8372SOL     OW36748   4.120   1.746   4.671  0.3241 -0.1813  0.2469
 8372SOL    HW136749   4.183   1.680   4.640  0.8176  1.3465 -1.9499
 8372SOL    HW236750   4.043   1.720   4.619 -0.8407 -0.4898  2.1102
 8373SOL     OW36751   3.382   4.352   1.001 -0.2768  0.5044  0.1402
 8373SOL    HW136752   3.413   4.268   0.967 -0.0777  0.1996  1.0648
 8373SOL    HW236753   3.346   4.321   1.084 -3.5491 -0.9649 -1.8221
 8374SOL     OW36754   4.436   3.356  10.256 -0.5801 -0.1888 -0.2215
 8374SOL    HW136755   4.437   3.355  10.351  0.4034 -0.0739 -0.2380
 8374SOL    HW236756   4.362   3.417  10.244  0.8263  1.4292 -0.6601
 8375SOL     OW36757   0.301   3.667   9.588 -0.1631  0.2030 -0.0721
 8375SOL    HW136758   0.391   3.692   9.606 -0.5046  0.9831  0.5663
 8375SOL    HW236759   0.302   3.698   9.498 -1.3731 -1.0276 -0.5070
 8376SOL     OW36760   0.171   3.510   8.200 -0.8677 -0.4986 -0.2924
 8376SOL    HW136761   0.180   3.416   8.216 -0.0841 -0.8567 -2.7853
 8376SOL    HW236762   0.210   3.516   8.113 -0.6067  0.4715 -0.1056
 8377SOL     OW36763   3.507   3.806   5.841 -0.2820  0.6883  0.0718
 8377SOL    HW136764   3.549   3.723   5.821  2.1495  1.9880 -0.2401
 8377SOL    HW236765   3.420   3.768   5.830  1.0878 -2.4605  0.0226
 8378SOL     OW36766   1.395   4.182  17.432  0.5490  0.5750 -0.2451
 8378SOL    HW136767   1.450   4.108  17.408  1.2737  0.5449  1.5061
 8378SOL    HW236768   1.441   4.251  17.384 -0.6105  1.0089 -0.7433
 8379SOL     OW36769   3.758   4.677   8.173 -0.3885 -0.4370 -0.4764
 8379SOL    HW136770   3.680   4.623   8.166 -0.2120 -0.9867  2.0041
 8379SOL    HW236771   3.742   4.725   8.254  2.0305 -0.2752 -0.0936
 8380SOL     OW36772   3.516   2.836   6.607  0.1891 -0.1689  0.2282
 8380SOL    HW136773   3.506   2.927   6.637 -2.1753  0.6138 -2.9342
 8380SOL    HW236774   3.575   2.808   6.677 -1.2425 -1.9839  0.6801
 8381SOL     OW36775   4.438   1.495   0.375 -0.3818  0.4642 -0.0649
 8381SOL    HW136776   4.449   1.432   0.304 -2.0486 -0.9254  0.9177
 8381SOL    HW236777   4.515   1.552   0.373  0.5171 -0.7564 -0.3454
 8382SOL     OW36778   4.314   4.148   7.119 -0.3159  0.1314  0.3859
 8382SOL    HW136779   4.242   4.109   7.069 -0.6248  1.3649 -0.1144
 8382SOL    HW236780   4.373   4.074   7.105  0.6809  1.0783 -0.4550
 8383SOL     OW36781   0.677   1.473   2.727 -0.3980  0.1673  0.0023
 8383SOL    HW136782   0.710   1.406   2.788  2.1562 -1.0751 -2.7429
 8383SOL    HW236783   0.659   1.417   2.651  0.6912  1.4126 -1.1718
 8384SOL     OW36784   1.873   1.555   6.730  0.0382  0.1486  0.2039
 8384SOL    HW136785   1.942   1.615   6.702  0.6114 -0.1603  0.9541
 8384SOL    HW236786   1.842   1.605   6.805 -2.2997 -2.1375  0.7605
 8385SOL     OW36787   0.472   0.718  17.267  0.3622  0.0175 -0.5418
 8385SOL    HW136788   0.503   0.675  17.187  0.8560  0.9367 -0.8452
 8385SOL    HW236789   0.551   0.759  17.303  0.9313  0.9823 -2.8501
 8386SOL     OW36790   4.447   4.293   5.032  0.3123  0.0817  0.2572
 8386SOL    HW136791   4.460   4.213   5.083 -1.0738  0.5432  1.3524
 8386SOL    HW236792   4.438   4.263   4.942  3.9898  0.2749 -0.1792
 8387SOL     OW36793   4.545   0.508   9.349  0.3001 -0.5379 -0.2196
 8387SOL    HW136794   4.624   0.547   9.312  1.9487 -1.7461  2.0870
 8387SOL    HW236795   4.514   0.482   9.262  2.5123 -0.9687 -0.8641
 8388SOL     OW36796   3.581   1.518   6.112 -0.5309  0.3041  0.0886
 8388SOL    HW136797   3.637   1.443   6.093  1.5739  1.8452  0.1264
 8388SOL    HW236798   3.633   1.587   6.071  0.0130 -0.2616 -0.1790
 8389SOL     OW36799   2.719   0.844   4.248  0.2900 -0.0159 -0.1309
 8389SOL    HW136800   2.648   0.870   4.189  1.6913  0.0063 -1.8398
 8389SOL    HW236801   2.758   0.926   4.279  2.5311 -1.3995  0.7556
 8390SOL     OW36802   2.632   0.466   2.910  0.2633  0.4528  0.0897
 8390SOL    HW136803   2.597   0.534   2.852  0.2497 -1.4027 -2.0484
 8390SOL    HW236804   2.723   0.495   2.914  0.2188  0.8960 -2.1437
 8391SOL     OW36805   1.387   0.262  17.325 -0.8217 -0.3351 -0.2736
 8391SOL    HW136806   1.475   0.273  17.362 -0.1025 -0.4673 -1.9270
 8391SOL    HW236807   1.412   0.200  17.256  1.5103  0.0578  0.2085
 8392SOL     OW36808   2.795   4.338   8.095 -0.4444  0.1618 -0.1777
 8392SOL    HW136809   2.820   4.430   8.080  1.1321 -0.2448 -0.0614
 8392SOL    HW236810   2.825   4.322   8.184 -2.6996  1.0569  0.7299
 8393SOL     OW36811   2.853   3.544   3.294  0.1164  0.5065  0.0217
 8393SOL    HW136812   2.934   3.520   3.247 -0.9401 -1.1296 -0.9564
 8393SOL    HW236813   2.799   3.561   3.216 -0.1482 -2.0095 -0.3422
 8394SOL     OW36814   4.592   3.853  12.736  0.1000  0.1636  0.1985
 8394SOL    HW136815   4.637   3.849  12.820 -0.8506  2.3416  0.8218
 8394SOL    HW236816   4.653   3.912  12.692 -0.0518  0.7575  0.7752
 8395SOL     OW36817   2.992   2.647   8.477 -0.1018 -0.3240  0.3921
 8395SOL    HW136818   2.901   2.670   8.499 -0.1075  0.6313 -0.6525
 8395SOL    HW236819   2.987   2.578   8.411 -2.4453  0.9442 -0.7846
 8396SOL     OW36820   2.025   0.157  13.182  0.0668  0.2534  0.2258
 8396SOL    HW136821   2.025   0.071  13.223  0.0965 -1.5418 -3.5025
 8396SOL    HW236822   1.979   0.142  13.100 -0.8783 -1.2886  1.0410
 8397SOL     OW36823   1.763   1.607   6.963  0.2373  0.5916  0.1440
 8397SOL    HW136824   1.772   1.659   7.043  0.6621 -0.0882  0.5355
 8397SOL    HW236825   1.668   1.621   6.955 -0.5117 -1.5493  4.9311
 8398SOL     OW36826   0.416   2.005  10.715 -0.5268  0.3460 -0.1320
 8398SOL    HW136827   0.400   2.088  10.761 -1.7610 -0.2947  0.6271
 8398SOL    HW236828   0.333   1.960  10.734 -0.5696  0.9486  1.1525
 8399SOL     OW36829   1.136   3.335   6.690  0.1010 -0.2166  0.5657
 8399SOL    HW136830   1.161   3.243   6.683  0.6695  0.0126 -0.4302
 8399SOL    HW236831   1.098   3.362   6.607  0.6868 -1.3441 -0.0605
 8400SOL     OW36832   2.192   2.575   7.959  0.5374  0.8966  0.2944
 8400SOL    HW136833   2.184   2.582   8.054  1.0049  0.5936  0.3579
 8400SOL    HW236834   2.102   2.564   7.929 -0.2276  0.6846  2.6892
 8401SOL     OW36835   3.620   2.042   6.191 -0.0032  0.1431  0.3118
 8401SOL    HW136836   3.588   2.131   6.177 -2.4021 -0.3932  2.2546
 8401SOL    HW236837   3.576   1.991   6.124  1.2607 -3.5063  2.2349
 8402SOL     OW36838   3.346   1.950  12.718 -0.0388 -0.3036 -0.1683
 8402SOL    HW136839   3.421   1.930  12.774  0.3628  1.7588  0.0609
 8402SOL    HW236840   3.351   2.043  12.693  1.9728 -0.1432  0.7523
 8403SOL     OW36841   1.140   0.828  10.587 -0.1460  0.3055  0.0251
 8403SOL    HW136842   1.118   0.849  10.677  0.4814 -1.4026  0.5704
 8403SOL    HW236843   1.071   0.876  10.541 -0.0618  0.2039 -0.2096
 8404SOL     OW36844   2.724   3.591   7.035  0.1144  0.3906  0.4575
 8404SOL    HW136845   2.707   3.514   6.981  0.8447  0.6145 -0.0901
 8404SOL    HW236846   2.660   3.652   6.998 -0.9119 -1.6544 -1.1011
 8405SOL     OW36847   2.759   1.716   5.267 -0.1796  0.4729  0.3960
 8405SOL    HW136848   2.729   1.685   5.352  0.3533  0.5978  0.6332
 8405SOL    HW236849   2.761   1.633   5.219 -1.1642  0.5693  0.2011
 8406SOL     OW36850   2.000   2.791   4.878  0.1303  1.3997  0.0372
 8406SOL    HW136851   2.050   2.858   4.924  0.6295  1.2976 -0.3632
 8406SOL    HW236852   1.955   2.839   4.808  0.2580  0.1689 -0.9032
 8407SOL     OW36853   0.849   0.633   9.416 -0.1979 -0.6815  0.2804
 8407SOL    HW136854   0.895   0.682   9.348 -0.0924 -0.8567  0.2254
 8407SOL    HW236855   0.757   0.651   9.396 -0.1705 -0.2842  0.4929
 8408SOL     OW36856   0.521   3.718   5.584 -0.1173  0.4494 -0.0681
 8408SOL    HW136857   0.475   3.802   5.577  0.2955  0.5621 -1.3728
 8408SOL    HW236858   0.565   3.712   5.500 -0.0234 -2.1484  0.1553
 8409SOL     OW36859   0.615   3.155  13.580 -0.2046 -0.2549 -0.4398
 8409SOL    HW136860   0.627   3.250  13.589  0.4119 -0.8254  4.4236
 8409SOL    HW236861   0.564   3.138  13.501 -0.6114  1.3638 -0.5324
 8410SOL     OW36862   3.618   0.100   6.622 -0.1302 -0.2165  0.5661
 8410SOL    HW136863   3.679   0.078   6.692  0.9774  0.1169 -0.2949
 8410SOL    HW236864   3.569   0.018   6.619  1.3468 -1.1483  2.1006
 8411SOL     OW36865   2.831   0.834   6.162  0.5315 -0.0385  0.0121
 8411SOL    HW136866   2.897   0.873   6.219 -1.8488 -0.4557  3.0757
 8411SOL    HW236867   2.753   0.834   6.218  0.6743  3.1993  0.2065
 8412SOL     OW36868   1.452   2.135   8.605 -0.2208  0.5243 -0.1515
 8412SOL    HW136869   1.541   2.172   8.602 -0.7734  1.7862 -1.0169
 8412SOL    HW236870   1.406   2.186   8.539 -1.2457  0.1256  0.2642
 8413SOL     OW36871   2.452   1.841   6.926  0.5179  0.5301  0.3692
 8413SOL    HW136872   2.435   1.770   6.863 -1.1875 -2.6932  4.4766
 8413SOL    HW236873   2.539   1.861   6.893 -0.1875  1.5215 -0.8981
 8414SOL     OW36874   2.345   3.611  17.591 -0.7667  0.4379 -0.2256
 8414SOL    HW136875   2.373   3.652  17.673  2.5691  0.5619 -1.4571
 8414SOL    HW236876   2.324   3.690  17.542 -0.2804  0.4554 -0.3992
 8415SOL     OW36877   2.523   0.660  13.521  0.0796 -0.1912 -0.6447
 8415SOL    HW136878   2.432   0.633  13.527 -0.2720  0.7405 -1.9110
 8415SOL    HW236879   2.557   0.590  13.465 -3.8044 -1.1900 -1.7612
 8416SOL     OW36880   1.990   1.661   6.267 -0.0415 -0.4844  0.0796
 8416SOL    HW136881   1.910   1.642   6.316 -0.1910  2.8260  1.0997
 8416SOL    HW236882   2.026   1.573   6.256  0.2658 -0.3410 -0.0639
 8417SOL     OW36883   2.024   0.006  17.553  0.6389 -0.6484 -0.0193
 8417SOL    HW136884   2.083   4.677  17.515  0.6170 -1.0407  0.6273
 8417SOL    HW236885   1.985   0.051  17.478 -1.0410 -2.1351 -0.0466
 8418SOL     OW36886   1.831   1.375   5.447  0.4225  0.4666  0.0368
 8418SOL    HW136887   1.904   1.374   5.509  0.7171 -0.1556 -0.3223
 8418SOL    HW236888   1.783   1.447   5.488 -1.0116 -0.2634 -0.3599
 8419SOL     OW36889   2.161   0.744   3.809  0.1390 -0.5980  0.0131
 8419SOL    HW136890   2.113   0.786   3.737 -1.9690  0.8972  2.2894
 8419SOL    HW236891   2.182   0.823   3.860 -1.3594 -1.1147  1.4015
 8420SOL     OW36892   2.533   4.017  17.678  0.6307 -0.7837  0.4721
 8420SOL    HW136893   2.541   3.934  17.631  1.0212  0.6362 -2.0342
 8420SOL    HW236894   2.449   4.048  17.643  0.5822 -0.9772  0.4183
 8421SOL     OW36895   2.367   1.146   6.410 -0.5499 -0.2945  0.2021
 8421SOL    HW136896   2.359   1.186   6.322  0.2301 -0.8931 -0.1341
 8421SOL    HW236897   2.320   1.063   6.402  0.3647 -0.5717 -2.3116
 8422SOL     OW36898   2.159   0.762   1.334 -0.8492 -0.0542 -0.2480
 8422SOL    HW136899   2.218   0.791   1.404  0.5738  0.2880 -1.6021
 8422SOL    HW236900   2.096   0.833   1.324 -1.5887 -0.5082  1.0853
 8423SOL     OW36901   4.503   2.352   7.215  0.2086  0.4031  0.4594
 8423SOL    HW136902   4.549   2.268   7.222  0.8167  0.7018  0.0189
 8423SOL    HW236903   4.458   2.361   7.299  2.4312 -0.5242  1.7667
 8424SOL     OW36904   2.816   0.117  14.098 -0.0646  0.3231  0.5298
 8424SOL    HW136905   2.875   0.047  14.070 -0.7954 -0.1174  0.0932
 8424SOL    HW236906   2.726   0.096  14.072 -0.1385  0.5682  0.5871
 8425SOL     OW36907   0.973   2.913   1.619  0.3068 -0.2099 -0.6764
 8425SOL    HW136908   1.069   2.911   1.613  0.3367 -1.6087  0.3336
 8425SOL    HW236909   0.954   2.862   1.697 -0.9619  0.7570 -0.3532
 8426SOL     OW36910   0.063   3.925   8.430 -0.0621 -0.0423 -0.3091
 8426SOL    HW136911   0.004   3.864   8.474  1.4158 -0.7343  0.7183
 8426SOL    HW236912   4.736   3.993   8.410  0.3804  0.4366 -0.1137
 8427SOL     OW36913   2.952   2.885   3.076  0.3113 -0.0290  0.0052
 8427SOL    HW136914   3.023   2.867   3.014 -0.3303 -1.5298 -0.2839
 8427SOL    HW236915   2.895   2.948   3.031  0.8102  0.9741  0.7851
 8428SOL     OW36916   1.774   3.928   8.792  0.6842 -0.4724  0.1178
 8428SOL    HW136917   1.740   3.839   8.799 -0.5404  0.0703  1.0008
 8428SOL    HW236918   1.779   3.953   8.884 -0.8658 -3.0624  0.9302
 8429SOL     OW36919   2.409   1.010  14.739  0.4315 -0.4740  0.6734
 8429SOL    HW136920   2.392   1.069  14.666  3.3571  2.1704  2.1061
 8429SOL    HW236921   2.489   0.966  14.710 -0.5255 -3.0343  1.9612
 8430SOL     OW36922   4.354   2.386   5.191  0.1772 -0.5907  0.6371
 8430SOL    HW136923   4.261   2.410   5.200  0.5614  0.3589  2.0863
 8430SOL    HW236924   4.386   2.442   5.121  2.7613 -2.6333  0.2018
 8431SOL     OW36925   4.652   3.330  13.832 -0.2962  0.1181  0.1142
 8431SOL    HW136926   4.687   3.365  13.914 -0.1800  1.9968 -0.7308
 8431SOL    HW236927   4.557   3.321  13.844 -0.2680 -1.3311 -0.8181
 8432SOL     OW36928   3.003   0.642  11.833 -1.0147  0.1085 -0.1946
 8432SOL    HW136929   2.929   0.703  11.835 -1.0581  0.0681 -0.6548
 8432SOL    HW236930   3.084   0.691  11.821 -1.3635  0.9120  0.7719
 8433SOL     OW36931   1.961   3.120   4.413 -0.3804  0.7442 -0.3219
 8433SOL    HW136932   1.867   3.111   4.403  0.1815 -2.7728 -2.1037
 8433SOL    HW236933   1.992   3.097   4.326  0.4940  0.3444  0.0921
 8434SOL     OW36934   2.502   3.584   5.165  0.1665  0.4391  0.1892
 8434SOL    HW136935   2.515   3.497   5.202  0.3132  0.6608  0.6561
 8434SOL    HW236936   2.418   3.569   5.121  0.2153  1.2424 -0.1746
 8435SOL     OW36937   1.483   3.918  10.027 -0.2683  0.0222 -0.5688
 8435SOL    HW136938   1.482   3.894  10.120 -1.7403  1.5219 -0.2163
 8435SOL    HW236939   1.529   3.839   9.998  0.4503  0.0744  0.3901
 8436SOL     OW36940   4.702   4.675  12.861  0.8575  0.7621  0.5096
 8436SOL    HW136941   0.042   4.721  12.897  0.7402  0.4695  1.1397
 8436SOL    HW236942   4.631   4.736  12.880 -1.0974 -1.5738  0.5621
 8437SOL     OW36943   2.513   1.710   4.996 -0.6635 -0.3352 -0.3475
 8437SOL    HW136944   2.486   1.664   5.075 -1.7691  0.4119 -0.2875
 8437SOL    HW236945   2.450   1.782   5.002  0.5029  0.8302 -1.8192
 8438SOL     OW36946   1.824   4.572  12.756  0.0588 -0.2172  0.9867
 8438SOL    HW136947   1.741   4.530  12.780  0.0056  0.0227  1.2221
 8438SOL    HW236948   1.790   4.646  12.707  1.0070  1.4008  2.7691
 8439SOL     OW36949   2.296   4.708   9.141 -0.1902  0.7924  0.2523
 8439SOL    HW136950   2.377   4.667   9.170 -0.1484  0.7008  0.0017
 8439SOL    HW236951   2.325   0.015   9.061  2.1753 -0.1174  0.6270
 8440SOL     OW36952   4.119   2.641  16.946  0.3608  0.3336 -0.3480
 8440SOL    HW136953   4.188   2.666  17.008  0.0936 -0.0815  0.1181
 8440SOL    HW236954   4.089   2.726  16.913  1.3899  1.1963  0.8971
 8441SOL     OW36955   1.632   0.545   5.742 -1.1043  0.6248  0.1442
 8441SOL    HW136956   1.626   0.480   5.671 -1.5114 -0.9797  1.6321
 8441SOL    HW236957   1.675   0.482   5.800 -0.8947  0.0356 -0.6381
 8442SOL     OW36958   2.514   4.526   8.729  0.6967 -0.6478  0.2106
 8442SOL    HW136959   2.499   4.533   8.823 -0.3332  0.1565 -0.0152
 8442SOL    HW236960   2.585   4.588   8.710  1.0636 -0.8192  1.0336
 8443SOL     OW36961   3.861   0.632  11.846  0.0748 -0.2327 -0.4810
 8443SOL    HW136962   3.785   0.690  11.848  0.5656  0.3970  0.0296
 8443SOL    HW236963   3.916   0.675  11.780 -0.2880  0.5812 -0.2474
 8444SOL     OW36964   4.592   2.865   7.931  0.1502 -0.3377 -0.1009
 8444SOL    HW136965   4.592   2.810   7.853  1.6005  0.6207 -0.7764
 8444SOL    HW236966   4.508   2.910   7.929  0.4301  0.2420  1.3973
 8445SOL     OW36967   0.338   3.648   8.350 -0.1753  0.5749 -0.3817
 8445SOL    HW136968   0.326   3.600   8.432  2.5144 -0.4513 -0.5986
 8445SOL    HW236969   0.266   3.607   8.301  1.5895 -1.7284 -1.0640
 8446SOL     OW36970   3.425   4.123   2.043 -0.0585 -0.2257  0.5216
 8446SOL    HW136971   3.432   4.047   1.986 -2.8274  1.0848 -1.5475
 8446SOL    HW236972   3.374   4.180   1.985  1.7558  0.6242 -0.2206
 8447SOL     OW36973   1.582   1.803   3.904 -0.3478  0.4787 -0.1602
 8447SOL    HW136974   1.509   1.817   3.843 -0.2469 -0.1558 -0.4246
 8447SOL    HW236975   1.547   1.734   3.960 -1.0020  2.7481  2.2596
 8448SOL     OW36976   2.658   1.268  17.427  0.3353 -0.0969 -0.0969
 8448SOL    HW136977   2.745   1.256  17.391  0.0561  0.3179 -0.9029
 8448SOL    HW236978   2.663   1.354  17.470 -1.1715 -0.6049  1.1349
 8449SOL     OW36979   3.062   0.493   3.105 -0.2248 -0.0911  0.0367
 8449SOL    HW136980   3.025   0.516   3.020 -1.0506 -0.4053  0.3094
 8449SOL    HW236981   2.989   0.495   3.168 -0.5213 -0.1339 -0.3065
 8450SOL     OW36982   1.095   3.521   8.002  0.0777  0.0361 -0.7405
 8450SOL    HW136983   1.158   3.502   7.932 -0.9289 -3.2089 -0.7559
 8450SOL    HW236984   1.126   3.601   8.045  1.5528 -0.9953  0.0969
 8451SOL     OW36985   1.036   1.413  11.990  0.3155 -0.5401 -0.2914
 8451SOL    HW136986   1.123   1.380  11.969  0.8106 -0.7364  2.0072
 8451SOL    HW236987   1.039   1.506  11.967  1.2711 -0.7525 -1.0363
 8452SOL     OW36988   0.576   4.238   5.050 -0.1551 -0.4576  0.6820
 8452SOL    HW136989   0.481   4.240   5.044 -0.3653  1.2149  4.4943
 8452SOL    HW236990   0.601   4.147   5.038  0.8652  0.0395 -1.0257
 8453SOL     OW36991   2.996   4.405   7.595  0.1292  0.0461  0.2259
 8453SOL    HW136992   3.036   4.491   7.580  1.1374 -0.5179 -0.3700
 8453SOL    HW236993   2.903   4.429   7.593  0.4498  1.2567  0.4473
 8454SOL     OW36994   3.105   3.951   1.880  0.3545  0.8782  0.3680
 8454SOL    HW136995   3.042   3.978   1.947 -0.6928 -1.7413  0.4727
 8454SOL    HW236996   3.186   3.943   1.930  1.6339  0.0902 -1.8565
 8455SOL     OW36997   0.169   1.380   5.788  0.4490 -0.1998  0.4988
 8455SOL    HW136998   0.111   1.390   5.713 -2.3298  0.3924  2.7140
 8455SOL    HW236999   0.119   1.317   5.840 -0.8675 -0.5601 -1.2234
 8456SOL     OW37000   0.546   3.389   5.354 -0.2248  0.4469  0.9100
 8456SOL    HW137001   0.487   3.399   5.279  0.3493 -1.5027  0.1891
 8456SOL    HW237002   0.610   3.460   5.345  1.2832 -1.3888 -3.1379
 8457SOL     OW37003   2.161   0.107   6.243  0.5532 -0.0096 -0.3257
 8457SOL    HW137004   2.163   0.203   6.242  1.6694 -0.0415 -0.6578
 8457SOL    HW237005   2.086   0.097   6.184  0.9121 -0.0389 -0.7694
 8458SOL     OW37006   3.164   1.210   5.059 -0.0478  0.0854  0.3761
 8458SOL    HW137007   3.134   1.261   4.984 -1.4949 -0.1100  0.8367
 8458SOL    HW237008   3.079   1.193   5.100 -0.8487 -0.5286 -1.5714
 8459SOL     OW37009   2.991   4.300   9.985 -0.3862  0.4554  0.4290
 8459SOL    HW137010   2.977   4.318   9.892  0.2527  1.0378  0.4503
 8459SOL    HW237011   3.027   4.211   9.986 -1.3824  0.0592  1.1432
 8460SOL     OW37012   1.152   2.825   7.424 -0.0451  0.0189 -0.0789
 8460SOL    HW137013   1.094   2.895   7.394  0.0949  1.3881  2.9160
 8460SOL    HW237014   1.142   2.835   7.518  1.4042  0.4154  0.0298
 8461SOL     OW37015   3.494   1.414   3.719 -0.0097 -0.4593  0.6717
 8461SOL    HW137016   3.499   1.323   3.748  0.8696 -0.8412 -0.6824
 8461SOL    HW237017   3.405   1.414   3.684  0.1736 -0.3776  0.2051
 8462SOL     OW37018   1.523   4.464  16.485 -0.0178  0.0609  0.3463
 8462SOL    HW137019   1.488   4.400  16.548 -1.2220 -0.9053 -1.3017
 8462SOL    HW237020   1.457   4.528  16.460  1.7963  1.0783 -1.8482
 8463SOL     OW37021   2.004   2.660  10.444 -0.1218  0.3079 -0.1829
 8463SOL    HW137022   1.939   2.719  10.484 -0.3181  1.1888 -1.8221
 8463SOL    HW237023   1.943   2.587  10.431  0.9738 -0.3853 -1.3389
 8464SOL     OW37024   2.129   3.265   3.969  0.0094 -0.3699 -0.1806
 8464SOL    HW137025   2.205   3.323   3.964 -1.6616  1.7990 -0.2799
 8464SOL    HW237026   2.059   3.299   3.913  1.1053  1.6922 -0.2668
 8465SOL     OW37027   2.107   4.521   0.251  0.3540  0.4350 -0.1181
 8465SOL    HW137028   2.045   4.542   0.181 -1.3848  0.6749  1.4630
 8465SOL    HW237029   2.151   4.447   0.209  0.8645 -0.5636  2.1754
 8466SOL     OW37030   3.192   3.321   7.367  1.1197  0.1671 -0.7062
 8466SOL    HW137031   3.200   3.247   7.427  2.7528 -0.5269 -1.7683
 8466SOL    HW237032   3.222   3.391   7.425  0.6710  1.5166 -2.0848
 8467SOL     OW37033   0.817   1.292   9.090  0.1572 -0.3639  0.0911
 8467SOL    HW137034   0.761   1.369   9.080  0.1063 -0.3117  0.7911
 8467SOL    HW237035   0.793   1.239   9.014 -1.8307  0.2954  0.2672
 8468SOL     OW37036   0.266   3.800   5.906  0.2289 -0.0705 -0.7834
 8468SOL    HW137037   0.320   3.781   5.983  0.3131 -1.0772 -1.0916
 8468SOL    HW237038   0.281   3.729   5.844  3.0059 -0.3333  0.1923
 8469SOL     OW37039   0.086   2.663  12.955 -0.8773  0.3701 -0.0779
 8469SOL    HW137040   0.085   2.725  12.881 -1.3338  2.0638  1.3373
 8469SOL    HW237041   0.106   2.583  12.906 -0.5440  0.1662  0.3907
 8470SOL     OW37042   2.845   1.929   7.432 -0.0898  0.0294 -0.0765
 8470SOL    HW137043   2.799   1.941   7.349  0.1045 -0.1926 -0.2173
 8470SOL    HW237044   2.830   1.836   7.449  0.1106 -0.3971 -2.1834
 8471SOL     OW37045   0.441   1.456   2.889 -0.1340 -0.4762  0.3763
 8471SOL    HW137046   0.480   1.473   2.974 -0.6233  3.3122 -0.1792
 8471SOL    HW237047   0.505   1.491   2.828  1.5768 -1.2658  1.7300
 8472SOL     OW37048   1.548   4.309   2.865  0.0878  0.0422 -0.0067
 8472SOL    HW137049   1.525   4.373   2.798  0.9612  0.2028 -0.1531
 8472SOL    HW237050   1.559   4.237   2.803  1.1394 -2.4142  3.0344
 8473SOL     OW37051   0.825   0.234   0.705  0.0688  0.3484 -0.1993
 8473SOL    HW137052   0.763   0.211   0.636  1.6735  2.6591 -2.4126
 8473SOL    HW237053   0.898   0.190   0.662 -0.1437 -0.3323  0.1318
 8474SOL     OW37054   0.432   2.977   8.500  0.2970 -0.0180 -0.0507
 8474SOL    HW137055   0.402   2.996   8.589  0.5217 -0.3119  0.0880
 8474SOL    HW237056   0.431   2.882   8.514  0.1380  0.0155  0.1761
 8475SOL     OW37057   2.942   4.149   3.981 -0.2462  0.1703 -0.5758
 8475SOL    HW137058   2.857   4.152   3.937 -1.0162 -2.0099  0.7286
 8475SOL    HW237059   2.918   4.150   4.074 -2.4855 -2.1789 -1.1341
 8476SOL     OW37060   2.916   0.598   2.317  0.4656  0.1326  0.1583
 8476SOL    HW137061   2.833   0.582   2.272  0.0151  1.8687  0.3967
 8476SOL    HW237062   2.966   0.534   2.265  0.7479  1.4820 -1.2251
 8477SOL     OW37063   0.923   0.816   9.248  0.0253 -0.3151  0.6707
 8477SOL    HW137064   0.864   0.881   9.288  0.6622 -0.1982  1.4243
 8477SOL    HW237065   0.933   0.848   9.159 -2.6054 -1.2007  0.0656
 8478SOL     OW37066   2.402   1.611   4.708  0.0474  0.5908  0.1372
 8478SOL    HW137067   2.416   1.668   4.784  2.6542 -0.2237  0.2368
 8478SOL    HW237068   2.309   1.589   4.715 -0.0708  0.7428 -0.9432
 8479SOL     OW37069   0.078   3.844   5.739 -0.2135  0.7869  0.0784
 8479SOL    HW137070   0.162   3.848   5.784 -0.4369 -2.6634  0.7679
 8479SOL    HW237071   0.021   3.789   5.793  0.2078  0.9511  0.6887
 8480SOL     OW37072   0.831   4.689   3.211  0.1446 -0.3705 -0.2095
 8480SOL    HW137073   0.822   4.596   3.231 -0.3753 -0.3962 -0.5618
 8480SOL    HW237074   0.753   4.727   3.251  0.6693 -1.2603  1.6597
 8481SOL     OW37075   4.220   1.239   3.687  0.3460 -0.3867  0.2596
 8481SOL    HW137076   4.125   1.248   3.687  0.2920 -0.9655 -1.7693
 8481SOL    HW237077   4.218   1.145   3.674 -0.8623 -0.1967 -0.9062
 8482SOL     OW37078   2.183   1.130  13.500 -0.6507  0.2764  0.2880
 8482SOL    HW137079   2.149   1.041  13.495  1.0024 -0.2665 -1.1960
 8482SOL    HW237080   2.137   1.164  13.577 -1.3722 -3.5367  1.5297
 8483SOL     OW37081   2.005   3.136   6.876 -0.2297  0.4725 -0.1525
 8483SOL    HW137082   1.953   3.077   6.929 -1.0750  0.6710 -0.7606
 8483SOL    HW237083   1.946   3.162   6.805  0.5058  0.9806 -0.5877
 8484SOL     OW37084   0.473   1.002  15.147 -0.0307 -0.2143 -0.2422
 8484SOL    HW137085   0.451   1.012  15.240  0.5446 -0.4158 -0.0833
 8484SOL    HW237086   0.462   0.909  15.128 -1.5924  0.0682 -0.6753
 8485SOL     OW37087   2.694   0.253   8.629 -0.0543 -0.3060  0.4886
 8485SOL    HW137088   2.658   0.165   8.618 -0.4037 -0.3615  2.0721
 8485SOL    HW237089   2.675   0.271   8.721  1.3019  0.2131  0.6731
 8486SOL     OW37090   2.226   1.894   8.498  0.6672  0.0429 -0.3484
 8486SOL    HW137091   2.237   1.887   8.593 -1.2701 -3.2922 -0.3567
 8486SOL    HW237092   2.246   1.811   8.455 -2.5916 -0.5555 -0.6658
 8487SOL     OW37093   0.718   0.095   1.678 -0.0298 -0.1908 -0.0601
 8487SOL    HW137094   0.698   0.002   1.667  0.4882 -0.4524  1.1634
 8487SOL    HW237095   0.808   0.102   1.711  0.1578  1.3768 -0.9328
 8488SOL     OW37096   4.689   0.675   3.929 -0.0139  0.0200  0.0126
 8488SOL    HW137097   4.674   0.711   4.016 -2.2750 -1.4481  0.2240
 8488SOL    HW237098   4.691   0.580   3.936 -2.4699 -0.0558 -0.4026
 8489SOL     OW37099   2.175   4.397   4.441 -0.3577 -0.3194 -0.7047
 8489SOL    HW137100   2.262   4.436   4.453 -0.0419 -1.3439  0.3613
 8489SOL    HW237101   2.196   4.308   4.470  1.9010  1.2560  2.6183
 8490SOL     OW37102   0.891   4.102   7.470  0.7570  0.3998  0.1196
 8490SOL    HW137103   0.852   4.088   7.384 -0.7561 -0.5646  0.9682
 8490SOL    HW237104   0.887   4.017   7.513 -1.9374  0.4947  0.0571
 8491SOL     OW37105   0.073   4.439  14.333 -0.1941  0.0550  0.0314
 8491SOL    HW137106   0.070   4.379  14.407 -0.1513 -0.4043 -0.3353
 8491SOL    HW237107   0.168   4.454  14.335 -0.3078  0.8420 -0.2180
 8492SOL     OW37108   1.125   4.109   3.807 -0.1344 -0.0755  0.1752
 8492SOL    HW137109   1.171   4.031   3.839 -1.4128  0.2136  2.6980
 8492SOL    HW237110   1.033   4.082   3.806  0.1025 -0.8738 -0.1851
 8493SOL     OW37111   3.478   3.099   0.206 -0.2299 -0.2614 -0.5354
 8493SOL    HW137112   3.449   3.174   0.258  0.7963  0.4990 -1.0546
 8493SOL    HW237113   3.523   3.039   0.266 -0.1803  1.6963  1.3963
 8494SOL     OW37114   0.298   1.453   5.105  0.4288  0.3315 -0.7571
 8494SOL    HW137115   0.296   1.444   5.009 -1.2722  1.8611 -0.8521
 8494SOL    HW237116   0.310   1.364   5.138  0.0903 -0.8420 -3.8167
 8495SOL     OW37117   3.407   0.838   5.172 -0.1291  0.1599 -0.5469
 8495SOL    HW137118   3.443   0.760   5.129 -2.9556  0.5985 -3.6946
 8495SOL    HW237119   3.451   0.830   5.257 -0.4804 -3.0016 -0.6594
 8496SOL     OW37120   1.896   1.387   3.605  0.5836 -0.1249  0.4886
 8496SOL    HW137121   1.940   1.417   3.526 -0.9534  3.0872  0.8156
 8496SOL    HW237122   1.890   1.466   3.659  0.6565  1.2615 -1.5099
 8497SOL     OW37123   2.259   4.228   3.680 -0.1662  0.1134  0.5385
 8497SOL    HW137124   2.306   4.147   3.701  0.3748 -0.6504 -3.5171
 8497SOL    HW237125   2.297   4.288   3.744  3.1126 -2.4628  0.9711
 8498SOL     OW37126   0.548   1.341   6.345  0.2322 -0.1852 -0.7549
 8498SOL    HW137127   0.512   1.292   6.271 -0.9818 -0.5094  0.0399
 8498SOL    HW237128   0.475   1.401   6.358  0.6149  0.1888 -0.3286
 8499SOL     OW37129   2.178   3.975   9.296 -0.1368 -0.0963  0.3442
 8499SOL    HW137130   2.188   3.900   9.355  1.3675  1.1311  1.6101
 8499SOL    HW237131   2.106   3.945   9.239  1.6505 -2.4572 -0.7130
 8500SOL     OW37132   3.109   1.518   6.549 -0.3498 -0.1176 -0.0492
 8500SOL    HW137133   3.092   1.439   6.601 -1.3281  1.1657  1.5611
 8500SOL    HW237134   3.165   1.572   6.604  0.8829  0.2978 -1.6866
 8501SOL     OW37135   0.017   4.227   6.262  0.3086 -0.3597  0.1324
 8501SOL    HW137136   0.027   4.204   6.169 -2.3576 -2.0212  0.2456
 8501SOL    HW237137   4.711   4.147   6.293  0.1704 -0.2476  0.2267
 8502SOL     OW37138   1.592   2.030   6.911  0.2201 -0.0145 -0.1363
 8502SOL    HW137139   1.619   2.024   7.003  0.3746 -0.9444 -0.2488
 8502SOL    HW237140   1.661   1.980   6.868 -0.0007 -0.2341 -0.2372
 8503SOL     OW37141   4.047   1.731  10.384  0.0189 -0.3800 -0.1388
 8503SOL    HW137142   4.014   1.816  10.413  1.2769  0.5447 -1.4118
 8503SOL    HW237143   4.021   1.723  10.293 -1.8745  1.8005  0.2053
 8504SOL     OW37144   4.369   3.157   6.922 -0.2670  0.5798 -0.4345
 8504SOL    HW137145   4.309   3.226   6.950  1.0540  1.4593  0.1944
 8504SOL    HW237146   4.424   3.202   6.859 -1.1933  2.4361  0.0778
 8505SOL     OW37147   1.587   1.604   2.770 -0.5562 -0.4001 -0.5281
 8505SOL    HW137148   1.560   1.557   2.849 -2.2616  1.2530 -0.1392
 8505SOL    HW237149   1.551   1.554   2.696 -0.0050 -1.0103 -0.3837
 8506SOL     OW37150   4.570   1.425   7.008 -0.1988 -0.0351  0.0832
 8506SOL    HW137151   4.528   1.495   7.059 -2.2847 -0.0907 -1.5666
 8506SOL    HW237152   4.658   1.443   7.041 -0.7026  0.7334  1.0007
 8507SOL     OW37153   1.758   1.563   6.476  0.7088  0.5904  0.1137
 8507SOL    HW137154   1.732   1.472   6.484  0.0274  0.7038 -0.7570
 8507SOL    HW237155   1.772   1.572   6.571  1.5192  0.7302 -0.0177
 8508SOL     OW37156   1.994   4.546   8.316  0.0059  0.0627  0.2487
 8508SOL    HW137157   1.957   4.489   8.384 -0.5526 -0.3100 -0.3686
 8508SOL    HW237158   2.034   4.611   8.374  3.0148  0.5065 -2.3486
 8509SOL     OW37159   3.630   1.586   7.373  0.2352 -0.2604  0.0001
 8509SOL    HW137160   3.578   1.640   7.313  0.1114  0.6537  0.9375
 8509SOL    HW237161   3.624   1.644   7.448 -0.5407  1.3025 -1.2731
 8510SOL     OW37162   0.247   2.764   6.999  0.0168  0.1149 -0.0152
 8510SOL    HW137163   0.162   2.787   6.963 -1.2700  0.0072  2.9453
 8510SOL    HW237164   0.259   2.677   6.960  1.9191  0.6522 -0.6054
 8511SOL     OW37165   2.490   3.990   4.350 -0.1959  0.1499 -0.0901
 8511SOL    HW137166   2.483   3.983   4.255  1.2788  0.2288 -0.2012
 8511SOL    HW237167   2.462   3.901   4.374  4.1120 -1.8024 -2.3491
 8512SOL     OW37168   0.600   0.974   4.605 -0.6010 -0.5018 -0.5847
 8512SOL    HW137169   0.665   0.983   4.675 -0.0216  0.4562 -1.2443
 8512SOL    HW237170   0.526   0.993   4.663 -0.4344 -1.8293  0.0696
 8513SOL     OW37171   4.624   3.361   8.885 -0.4221 -0.1510  0.6275
 8513SOL    HW137172   4.560   3.343   8.816 -0.2585 -1.4085  0.7974
 8513SOL    HW237173   4.582   3.430   8.935 -2.2496  0.5354 -1.8750
 8514SOL     OW37174   2.063   3.622   7.101 -0.5859  0.2364  0.0407
 8514SOL    HW137175   2.150   3.625   7.062 -1.0369 -0.8026 -1.0152
 8514SOL    HW237176   2.091   3.652   7.187  0.8645 -1.8649  0.2790
 8515SOL     OW37177   2.073   2.631   1.544 -0.4219 -0.6116  0.2588
 8515SOL    HW137178   2.140   2.677   1.595 -0.2053 -1.3934  0.6789
 8515SOL    HW237179   2.122   2.604   1.466 -3.4513  1.4523 -2.3264
 8516SOL     OW37180   2.545   2.561   9.276 -0.6480 -0.3285  0.3923
 8516SOL    HW137181   2.547   2.475   9.317 -0.7506 -0.4236  0.2009
 8516SOL    HW237182   2.486   2.610   9.334  0.1959  1.0143  0.1147
 8517SOL     OW37183   0.017   1.338   6.718 -0.0508 -0.3640 -0.1343
 8517SOL    HW137184   4.723   1.358   6.806 -1.5940  1.8910 -1.1801
 8517SOL    HW237185   0.106   1.371   6.725 -0.5118  1.1206 -1.2847
 8518SOL     OW37186   2.233   1.171   1.549  0.2430 -0.1839 -0.2355
 8518SOL    HW137187   2.252   1.257   1.509  0.7288 -0.8327 -1.4018
 8518SOL    HW237188   2.142   1.152   1.526 -0.2875  0.4661  1.3699
 8519SOL     OW37189   0.371   1.421   7.569  0.0189  0.2117 -0.2066
 8519SOL    HW137190   0.411   1.432   7.656  0.0841 -3.7759  0.3001
 8519SOL    HW237191   0.378   1.509   7.533 -3.1452  0.4197 -0.2991
 8520SOL     OW37192   2.805   4.681  17.001 -0.3153 -0.3577 -0.0622
 8520SOL    HW137193   2.812   0.031  17.042  2.9009 -0.4106 -0.5204
 8520SOL    HW237194   2.879   4.685  16.940 -1.6050 -1.9710 -1.7455
 8521SOL     OW37195   4.474   2.376   6.406  0.1255  0.0721 -0.9272
 8521SOL    HW137196   4.406   2.357   6.470  1.9669 -0.7939  0.7726
 8521SOL    HW237197   4.528   2.301   6.431 -0.8488 -0.6183 -0.9201
 8522SOL     OW37198   3.823   3.694   4.314  0.6807 -0.1811 -0.5148
 8522SOL    HW137199   3.887   3.629   4.287  3.0404  1.2672  1.6342
 8522SOL    HW237200   3.868   3.749   4.379 -1.1636 -0.6367  1.1529
 8523SOL     OW37201   2.407   0.550  13.940 -0.0214  0.2020  0.4881
 8523SOL    HW137202   2.425   0.559  14.033 -0.0610  1.2871  0.3931
 8523SOL    HW237203   2.343   0.621  13.932  0.6710  0.7595 -0.1532
 8524SOL     OW37204   2.676   0.217  17.528 -0.1328  0.2809 -0.1693
 8524SOL    HW137205   2.713   0.302  17.551  0.1321  0.1006  0.0723
 8524SOL    HW237206   2.587   0.234  17.558 -0.9387  0.5094 -2.6491
 8525SOL     OW37207   1.433   3.407   8.706 -0.3669  0.1829  0.7857
 8525SOL    HW137208   1.500   3.364   8.759  0.9955  0.6290 -0.5872
 8525SOL    HW237209   1.466   3.496   8.699  0.6445 -0.2793 -0.4110
 8526SOL     OW37210   4.674   3.182   3.266 -0.4648  0.5740  0.0038
 8526SOL    HW137211   4.591   3.174   3.220 -0.1488  0.2223 -0.5048
 8526SOL    HW237212   4.729   3.189   3.188 -2.9154  1.6094 -1.6326
 8527SOL     OW37213   0.128   0.255   8.338  0.0020 -0.3991  0.1069
 8527SOL    HW137214   0.215   0.275   8.371 -1.0037  1.3624  1.7161
 8527SOL    HW237215   0.131   0.168   8.298 -0.1884 -0.5315  0.3783
 8528SOL     OW37216   2.961   1.380  12.633 -0.0554 -0.9762  0.2733
 8528SOL    HW137217   2.920   1.296  12.655 -0.8084 -0.3960  1.1112
 8528SOL    HW237218   3.027   1.383  12.702 -0.8187 -2.0716  1.0478
 8529SOL     OW37219   0.585   0.992   5.989 -0.2050 -0.2927  0.4008
 8529SOL    HW137220   0.600   0.981   5.895  0.8254 -1.0055  0.6528
 8529SOL    HW237221   0.592   0.902   6.022  1.1188 -0.1406  0.5356
 8530SOL     OW37222   1.148   2.092  12.527 -0.1769  0.5711 -0.3064
 8530SOL    HW137223   1.229   2.105  12.479 -0.3622  0.8434 -0.5492
 8530SOL    HW237224   1.165   2.006  12.566 -1.7389 -0.1603 -1.2210
 8531SOL     OW37225   4.375   2.127  11.226 -0.0884 -0.8884 -0.0645
 8531SOL    HW137226   4.385   2.086  11.312 -1.9806 -3.3013 -0.9817
 8531SOL    HW237227   4.379   2.220  11.247  2.2598 -1.2105  0.9646
 8532SOL     OW37228   3.170   4.002  16.888  0.6768 -0.0513  0.0758
 8532SOL    HW137229   3.083   3.988  16.851  1.2152  0.2858 -1.3009
 8532SOL    HW237230   3.152   4.092  16.917 -0.6082 -0.1942 -0.2978
 8533SOL     OW37231   1.548   3.894   7.363  0.3490  0.0565  0.1722
 8533SOL    HW137232   1.513   3.824   7.308 -0.6331  0.9324 -0.3015
 8533SOL    HW237233   1.579   3.955   7.296  1.0124 -1.2686 -0.7562
 8534SOL     OW37234   2.105   1.412   8.974  0.3582  0.2873 -0.3502
 8534SOL    HW137235   2.093   1.324   9.011  0.1181  0.3012 -0.3958
 8534SOL    HW237236   2.038   1.420   8.907 -1.2161  0.9306  1.2954
 8535SOL     OW37237   4.726   3.360   3.740  0.3697  0.1043 -0.7304
 8535SOL    HW137238   4.681   3.292   3.789 -1.4262  1.5472 -0.3667
 8535SOL    HW237239   0.019   3.310   3.664  0.4072 -2.3047  0.8954
 8536SOL     OW37240   1.877   2.209   0.200 -0.6103  0.4443 -0.1026
 8536SOL    HW137241   1.952   2.207   0.141 -0.7649 -1.7193 -0.2340
 8536SOL    HW237242   1.833   2.127   0.177  1.8388 -0.9335  0.1126
 8537SOL     OW37243   1.693   0.215   8.868  0.5812 -0.5143  0.7975
 8537SOL    HW137244   1.664   0.132   8.906 -0.5982  0.6118  2.3799
 8537SOL    HW237245   1.784   0.214   8.897  0.3435  1.7471  1.5726
 8538SOL     OW37246   1.944   1.049   4.876 -0.0853 -0.1972  0.2453
 8538SOL    HW137247   1.961   0.984   4.808 -1.6503  0.3693 -0.6821
 8538SOL    HW237248   1.975   1.013   4.959 -0.3351  0.5705  0.6669
 8539SOL     OW37249   1.184   2.936   5.490 -0.0110 -0.3430  0.3648
 8539SOL    HW137250   1.182   3.002   5.420  1.5649 -0.0977  0.5367
 8539SOL    HW237251   1.184   2.860   5.433  1.3931 -1.3662  1.7256
 8540SOL     OW37252   3.002   1.545   7.764 -0.0464 -0.1146  0.2086
 8540SOL    HW137253   2.907   1.544   7.776 -0.3655  0.8211 -2.1870
 8540SOL    HW237254   3.013   1.544   7.669  2.1187 -1.5727  0.5015
 8541SOL     OW37255   1.366   2.433   9.548  0.1816 -0.3053 -0.7500
 8541SOL    HW137256   1.297   2.453   9.485  0.3729 -0.4428 -0.9999
 8541SOL    HW237257   1.327   2.364   9.602  0.8872 -1.5672 -1.8654
 8542SOL     OW37258   3.359   0.547  11.640  0.7050 -0.1627  0.0274
 8542SOL    HW137259   3.429   0.511  11.584 -0.2369 -1.0629 -0.5797
 8542SOL    HW237260   3.420   0.578  11.707  0.3478  2.0839 -0.6913
 8543SOL     OW37261   4.135   0.865   0.620  0.0979 -0.2130 -0.1064
 8543SOL    HW137262   4.192   0.942   0.621 -0.4165  0.1440  2.3726
 8543SOL    HW237263   4.092   0.885   0.537 -0.5894  0.7894  0.4860
 8544SOL     OW37264   4.435   1.244   3.503  0.4705  0.2705  0.0833
 8544SOL    HW137265   4.349   1.238   3.543  0.4555 -1.4418 -0.2134
 8544SOL    HW237266   4.437   1.339   3.492 -0.4300  0.6206  2.7853
 8545SOL     OW37267   4.004   3.469  13.077  0.2312 -0.1158 -0.3804
 8545SOL    HW137268   4.041   3.537  13.020  1.9266  1.1182  2.1687
 8545SOL    HW237269   4.005   3.505  13.166 -3.2268  0.4237 -0.5563
 8546SOL     OW37270   2.307   1.730   4.200  0.1682  0.0479  0.2458
 8546SOL    HW137271   2.246   1.662   4.170  0.0777 -0.6261  1.9405
 8546SOL    HW237272   2.351   1.671   4.261 -1.1667  1.5006  2.6606
 8547SOL     OW37273   0.183   0.532   4.410  0.4239 -0.2096 -0.6216
 8547SOL    HW137274   0.118   0.527   4.481  2.0320 -2.0250  0.7327
 8547SOL    HW237275   0.260   0.493   4.452  0.1020 -0.4019 -0.2175
 8548SOL     OW37276   1.289   2.516   1.188  0.3299 -0.8597 -0.1130
 8548SOL    HW137277   1.374   2.498   1.230 -0.4227 -2.5021  0.6919
 8548SOL    HW237278   1.296   2.611   1.182  1.4057 -0.7284  3.0250
 8549SOL     OW37279   4.648   3.217   9.714  0.4692  0.1433 -0.1693
 8549SOL    HW137280   4.730   3.175   9.740  0.4710 -0.2539 -0.8325
 8549SOL    HW237281   4.615   3.247   9.799 -0.5228  1.7890 -1.1494
 8550SOL     OW37282   3.079   3.101  12.813 -0.2675 -0.4540 -0.0147
 8550SOL    HW137283   3.011   3.144  12.762 -1.3030 -0.5500  1.2856
 8550SOL    HW237284   3.027   3.069  12.886  1.1838 -0.6814  0.9215
 8551SOL     OW37285   0.637   2.619  10.105 -0.5968 -0.7889 -0.5502
 8551SOL    HW137286   0.565   2.556  10.117 -0.8694 -0.1581  1.1377
 8551SOL    HW237287   0.582   2.698  10.101 -0.7563 -0.8859 -0.3063
 8552SOL     OW37288   1.898   1.710   0.054 -0.0248 -0.2453 -0.2923
 8552SOL    HW137289   1.895   1.688  17.707  1.0724 -2.2435  0.1475
 8552SOL    HW237290   1.873   1.629   0.099  0.5801 -0.4489 -0.3266
 8553SOL     OW37291   2.749   2.630   9.076 -0.4528  0.1098  0.4761
 8553SOL    HW137292   2.677   2.624   9.138 -0.7813  1.2557  0.2074
 8553SOL    HW237293   2.812   2.686   9.122  2.5602 -2.1585 -0.8246
 8554SOL     OW37294   2.577   1.475   6.572  0.9349 -0.8612 -0.6256
 8554SOL    HW137295   2.563   1.568   6.557  1.3939 -0.5513  0.9030
 8554SOL    HW237296   2.671   1.476   6.592  0.5101  1.5426  1.1706
 8555SOL     OW37297   2.093   2.988   3.606 -0.1683  0.2671  0.0009
 8555SOL    HW137298   2.139   2.906   3.587  0.0772  0.6796 -1.2289
 8555SOL    HW237299   2.010   2.966   3.648 -1.5875  1.3696 -2.1946
 8556SOL     OW37300   1.635   1.059   1.586  0.9846 -0.5608 -0.2584
 8556SOL    HW137301   1.666   1.037   1.673 -1.2326 -1.8397  0.2148
 8556SOL    HW237302   1.639   1.154   1.585 -0.0309 -0.5140 -1.7484
 8557SOL     OW37303   2.844   1.201   6.172 -0.3146  0.1981  0.0098
 8557SOL    HW137304   2.792   1.279   6.152  0.2618  0.5789 -0.0221
 8557SOL    HW237305   2.809   1.129   6.119  0.9515 -0.0176 -0.5471
 8558SOL     OW37306   3.785   3.280   5.120  0.0602 -0.0798  0.0311
 8558SOL    HW137307   3.710   3.222   5.133 -0.2733  0.1896 -0.7362
 8558SOL    HW237308   3.744   3.365   5.106  1.2536  0.4724 -0.1249
 8559SOL     OW37309   1.669   0.332   3.753 -0.1804  0.1018  0.0154
 8559SOL    HW137310   1.716   0.413   3.769 -0.2043  0.1374 -0.0974
 8559SOL    HW237311   1.614   0.364   3.681 -2.3916  0.2850  1.8000
 8560SOL     OW37312   3.312   0.814   8.394 -0.1011  0.3112 -0.3752
 8560SOL    HW137313   3.228   0.770   8.381 -0.4271  1.4005 -2.0729
 8560SOL    HW237314   3.299   0.898   8.350 -1.6649  0.0618 -0.3790
 8561SOL     OW37315   0.700   1.136  11.360  0.4860  0.1400  0.1567
 8561SOL    HW137316   0.680   1.176  11.444 -0.4412  2.0800 -0.9921
 8561SOL    HW237317   0.795   1.135  11.368  0.6083 -0.2084 -1.2679
 8562SOL     OW37318   2.098   0.122  12.717 -0.2037 -0.1177  0.1104
 8562SOL    HW137319   2.182   0.144  12.757 -0.3686  2.8444 -1.1745
 8562SOL    HW237320   2.118   0.127  12.624 -2.7861  0.0048 -0.4446
 8563SOL     OW37321   2.337   1.514   2.590  0.6884 -0.0313  0.5482
 8563SOL    HW137322   2.343   1.596   2.541  2.3306  1.0893  2.6071
 8563SOL    HW237323   2.366   1.556   2.671 -1.1124 -0.1749  1.2879
 8564SOL     OW37324   0.952   2.921   4.127 -0.8596  0.2401  1.0386
 8564SOL    HW137325   1.025   2.980   4.110  1.7551 -3.2379  0.0713
 8564SOL    HW237326   0.913   2.907   4.040  0.6852  1.0269  0.2098
 8565SOL     OW37327   3.757   0.358   3.930 -0.1324  0.6889 -0.8808
 8565SOL    HW137328   3.821   0.335   3.996 -1.2926  1.4413  0.5177
 8565SOL    HW237329   3.682   0.396   3.977  0.7892  0.6133  0.6236
 8566SOL     OW37330   0.283   0.662   8.487 -0.8799  0.0313  0.3826
 8566SOL    HW137331   0.268   0.730   8.552 -0.9541  0.7427 -0.3807
 8566SOL    HW237332   0.193   0.657   8.453  0.1040  0.9360 -2.3953
 8567SOL     OW37333   0.626   4.394   2.289 -0.0717 -0.6955  0.7792
 8567SOL    HW137334   0.651   4.307   2.318  4.1786  0.7681  1.5632
 8567SOL    HW237335   0.638   4.380   2.195 -0.3694 -1.2541  0.8303
 8568SOL     OW37336   4.054   1.088   6.446  0.2695 -0.4413 -0.3004
 8568SOL    HW137337   4.003   1.016   6.484 -0.6297  0.1985 -0.2826
 8568SOL    HW237338   4.059   1.156   6.513 -0.9989  0.8883 -1.5356
 8569SOL     OW37339   4.506   4.121   3.467  0.1137 -0.1483 -0.2699
 8569SOL    HW137340   4.590   4.082   3.443  0.9487  1.3014  0.3138
 8569SOL    HW237341   4.443   4.050   3.476  0.4796 -0.8470 -3.0342
 8570SOL     OW37342   1.798   1.849  14.840 -0.2894  0.2873 -0.2516
 8570SOL    HW137343   1.801   1.820  14.748  0.1154  0.8033 -0.4025
 8570SOL    HW237344   1.735   1.789  14.879 -0.7454 -0.2451 -1.8160
 8571SOL     OW37345   0.709   0.781   7.319 -0.5630  0.6571  0.3429
 8571SOL    HW137346   0.734   0.698   7.279  0.9628  0.7969  1.0068
 8571SOL    HW237347   0.708   0.841   7.245  2.4405 -2.8029 -2.4967
 8572SOL     OW37348   0.621   3.480   2.292  0.3285 -0.2856  0.5798
 8572SOL    HW137349   0.675   3.402   2.284  1.0150  0.2720 -0.2326
 8572SOL    HW237350   0.536   3.449   2.261 -0.6340  0.7976  2.0693
 8573SOL     OW37351   0.564   3.914   6.872  0.5396 -0.6098 -0.2576
 8573SOL    HW137352   0.584   3.829   6.833  0.4076 -1.5257  1.6825
 8573SOL    HW237353   0.648   3.960   6.863 -0.1300  0.5002 -0.8562
 8574SOL     OW37354   4.373   2.168   9.165 -0.4464  0.6041  0.6090
 8574SOL    HW137355   4.337   2.103   9.104  0.5534 -0.7471  1.4785
 8574SOL    HW237356   4.302   2.165   9.229  0.7003 -0.0832  1.8459
 8575SOL     OW37357   1.038   4.690  12.626  0.2866 -0.0550 -0.3426
 8575SOL    HW137358   0.956   4.731  12.599 -1.3475 -1.7136  2.0455
 8575SOL    HW237359   1.022   4.618  12.687 -0.9628  3.1804  3.1301
 8576SOL     OW37360   3.237   1.624  13.122 -0.6093  0.2714  0.3530
 8576SOL    HW137361   3.239   1.576  13.039  0.7039  1.0083 -0.0329
 8576SOL    HW237362   3.309   1.589  13.175  1.8946  1.4393 -2.3141
 8577SOL     OW37363   1.641   1.212   8.805  0.4297  0.5880 -0.3351
 8577SOL    HW137364   1.558   1.258   8.812 -0.9812 -1.8398 -1.0680
 8577SOL    HW237365   1.651   1.221   8.710 -0.7572 -1.3323 -0.6390
 8578SOL     OW37366   0.420   1.464   3.935  0.4385  0.1985  0.5261
 8578SOL    HW137367   0.474   1.543   3.932 -0.9871  1.2375  1.9136
 8578SOL    HW237368   0.431   1.416   3.853  2.3425 -0.2418  1.0324
 8579SOL     OW37369   0.462   0.355   3.602 -0.0929  0.5803  0.9358
 8579SOL    HW137370   0.492   0.378   3.690  1.1542 -0.5095  0.7970
 8579SOL    HW237371   0.377   0.322   3.631  1.3559 -1.6497  2.6519
 8580SOL     OW37372   2.747   2.637  16.628  0.4750 -0.1055 -0.9513
 8580SOL    HW137373   2.733   2.601  16.541  2.8264 -0.8478 -1.0384
 8580SOL    HW237374   2.662   2.672  16.654  0.2973 -1.6801  0.5796
 8581SOL     OW37375   2.266   2.641   2.165 -0.5999 -0.4377  0.2179
 8581SOL    HW137376   2.353   2.605   2.183 -0.7956 -2.4834 -2.8971
 8581SOL    HW237377   2.266   2.617   2.072  2.1876 -2.2503  0.6548
 8582SOL     OW37378   0.609   3.681   3.355  0.7124 -0.2798  0.0207
 8582SOL    HW137379   0.669   3.645   3.290  0.8179 -1.2454  0.6507
 8582SOL    HW237380   0.657   3.763   3.368 -0.7571  0.6936 -0.6768
 8583SOL     OW37381   1.989   1.699   5.995 -0.4821 -0.2901 -0.0625
 8583SOL    HW137382   1.972   1.693   6.089 -0.6787  0.3221 -0.0598
 8583SOL    HW237383   2.081   1.724   5.995 -0.6515  0.3366 -0.7471
 8584SOL     OW37384   2.309   0.327   7.655  0.3415 -0.3211 -0.6128
 8584SOL    HW137385   2.233   0.301   7.604 -1.8928  3.0662  0.9813
 8584SOL    HW237386   2.289   0.326   7.749 -0.5013  0.5302 -0.7804
 8585SOL     OW37387   3.231   0.594   1.954 -0.1666  0.1784 -0.6290
 8585SOL    HW137388   3.251   0.535   1.882 -1.8309 -1.0372 -0.0981
 8585SOL    HW237389   3.301   0.659   1.957  0.1546 -0.2517  1.5329
 8586SOL     OW37390   3.338   2.639  15.016  0.1598 -0.1853 -0.0957
 8586SOL    HW137391   3.291   2.675  14.940 -1.1908 -0.6766  0.4976
 8586SOL    HW237392   3.420   2.686  15.003  1.6824 -2.4812  1.2440
 8587SOL     OW37393   3.380   0.158  16.597  0.1213  0.6616 -0.0051
 8587SOL    HW137394   3.449   0.199  16.546 -1.0776  3.7711  0.8925
 8587SOL    HW237395   3.409   0.067  16.607  2.4902  1.2521 -1.6124
 8588SOL     OW37396   3.607   3.873   4.191 -0.0496 -0.0136  0.0911
 8588SOL    HW137397   3.681   3.818   4.216 -0.5703  0.0020  1.6839
 8588SOL    HW237398   3.651   3.950   4.156 -0.4467  0.6694  1.0923
 8589SOL     OW37399   0.165   1.608   2.496 -0.5191  0.1729 -0.7954
 8589SOL    HW137400   0.138   1.671   2.429 -1.6454 -1.7413 -2.1481
 8589SOL    HW237401   0.092   1.547   2.497  0.2525 -0.7149  1.9934
 8590SOL     OW37402   2.427   1.275   6.945  0.2503 -0.2727 -0.3503
 8590SOL    HW137403   2.510   1.227   6.936  2.6939  3.7632  0.2008
 8590SOL    HW237404   2.392   1.267   6.856 -0.2253  1.4023 -0.3094
 8591SOL     OW37405   0.377   1.109   2.097  0.5123 -0.1067 -0.3967
 8591SOL    HW137406   0.312   1.162   2.143 -0.3610 -0.4341 -1.2360
 8591SOL    HW237407   0.419   1.182   2.052 -1.0635  0.4339 -0.9986
 8592SOL     OW37408   4.216   3.218  12.751  0.3136 -0.1668  0.4342
 8592SOL    HW137409   4.208   3.225  12.656  0.2776  0.8587  0.5195
 8592SOL    HW237410   4.281   3.149  12.764  0.4363 -0.5666 -2.2847
 8593SOL     OW37411   3.226   3.165   7.982 -0.2312  0.4428 -0.1829
 8593SOL    HW137412   3.240   3.248   7.937 -2.5253  1.9740  1.8995
 8593SOL    HW237413   3.132   3.150   7.971 -0.0568 -0.1582 -0.7960
 8594SOL     OW37414   4.630   1.901   5.615 -0.0347  0.2327  0.4979
 8594SOL    HW137415   4.713   1.878   5.573 -0.5754  0.1163 -0.5052
 8594SOL    HW237416   4.635   1.840   5.689 -2.0715  1.2749  1.5022
 8595SOL     OW37417   2.477   2.902   1.850 -0.3155 -0.0152  0.4220
 8595SOL    HW137418   2.527   2.885   1.770 -2.1562 -0.1128 -0.7220
 8595SOL    HW237419   2.506   2.991   1.870 -0.5005 -0.5700  3.1579
 8596SOL     OW37420   4.489   1.615   7.202 -0.2688 -0.2646 -0.0030
 8596SOL    HW137421   4.491   1.697   7.154 -0.4234 -0.6443 -0.6587
 8596SOL    HW237422   4.574   1.626   7.244 -1.3783  1.5827  1.7630
 8597SOL     OW37423   1.520   3.088   8.056 -0.4568  0.1188  0.1994
 8597SOL    HW137424   1.435   3.107   8.096 -0.7317 -0.7485  0.0167
 8597SOL    HW237425   1.564   3.171   8.075 -0.1266  0.1351 -0.6167
 8598SOL     OW37426   0.901   4.685   4.368  0.3273 -0.1443  0.0445
 8598SOL    HW137427   0.979   4.733   4.339 -0.7167  0.9355 -0.9881
 8598SOL    HW237428   0.883   4.627   4.294 -0.8902 -0.4392  0.5714
 8599SOL     OW37429   2.833   2.916  12.837 -0.3625 -0.5085 -0.6544
 8599SOL    HW137430   2.786   2.967  12.902 -0.8876 -0.7062 -0.8753
 8599SOL    HW237431   2.794   2.948  12.755  0.2774 -1.1240 -1.1996
 8600SOL     OW37432   4.115   2.649   3.842 -0.1921  0.0932 -0.0290
 8600SOL    HW137433   4.145   2.701   3.916 -3.2341 -1.8788  2.6008
 8600SOL    HW237434   4.174   2.574   3.858 -1.6268 -1.2670 -1.0750
 8601SOL     OW37435   1.325   2.474   2.762 -0.5358 -0.2020 -0.0828
 8601SOL    HW137436   1.378   2.395   2.773 -2.8990 -1.7704 -0.0767
 8601SOL    HW237437   1.240   2.430   2.754  0.3060 -1.5446 -1.5890
 8602SOL     OW37438   4.507   0.132   2.642  0.0008 -0.0074  0.5679
 8602SOL    HW137439   4.426   0.182   2.650  1.4099  2.2515  0.5233
 8602SOL    HW237440   4.561   0.188   2.587  0.3735  1.2217  2.1962
 8603SOL     OW37441   1.813   0.532   1.282  0.0540 -0.1300  0.0709
 8603SOL    HW137442   1.836   0.611   1.232 -2.5526 -0.3020 -1.3863
 8603SOL    HW237443   1.792   0.473   1.210 -0.4428  0.1132  0.0175
 8604SOL     OW37444   4.483   1.924   5.100  0.0155 -0.4141 -0.3910
 8604SOL    HW137445   4.550   1.858   5.115  2.3922  2.1504  0.3030
 8604SOL    HW237446   4.450   1.939   5.188 -1.1375 -0.9952 -0.7146
 8605SOL     OW37447   1.352   3.744   7.563  0.9799  0.3339 -0.0641
 8605SOL    HW137448   1.271   3.756   7.514  0.1922  1.7843  1.5935
 8605SOL    HW237449   1.398   3.823   7.535 -0.8160  0.9910 -1.1681
 8606SOL     OW37450   1.990   0.797  15.099  0.2419  0.1734  0.2014
 8606SOL    HW137451   1.940   0.836  15.171  0.4011  0.1905  0.3025
 8606SOL    HW237452   2.007   0.711  15.137  1.0136  0.8497  1.3725
 8607SOL     OW37453   3.076   2.264   8.547 -0.2285 -0.9109 -0.0212
 8607SOL    HW137454   3.064   2.324   8.474 -2.4943  1.4191  2.2195
 8607SOL    HW237455   2.994   2.274   8.597 -1.0173  2.0969 -1.9010
 8608SOL     OW37456   0.481   2.418   2.624  0.2815 -0.2207 -0.4303
 8608SOL    HW137457   0.530   2.499   2.641 -1.2756  0.7807 -0.7086
 8608SOL    HW237458   0.551   2.354   2.610  0.1492 -0.1625 -1.3343
 8609SOL     OW37459   1.284   1.334   3.782 -0.2372 -0.1134 -0.2208
 8609SOL    HW137460   1.285   1.282   3.701 -1.6133  1.8455 -1.4836
 8609SOL    HW237461   1.302   1.272   3.853  0.9513 -0.7481 -1.0771
 8610SOL     OW37462   2.418   1.228   7.747 -0.0597 -0.0229 -0.1770
 8610SOL    HW137463   2.484   1.268   7.804  0.6718  1.7056 -2.2409
 8610SOL    HW237464   2.404   1.306   7.695 -1.0872  1.0430  1.6998
 8611SOL     OW37465   2.075   1.176   2.977 -0.4122  0.3012 -0.1141
 8611SOL    HW137466   2.015   1.101   2.986  0.0623  0.1178  1.4884
 8611SOL    HW237467   2.145   1.151   3.038 -0.8424 -1.8752 -0.4879
 8612SOL     OW37468   1.805   2.838   8.670  0.6008 -0.3954 -0.8986
 8612SOL    HW137469   1.831   2.888   8.747  1.6398 -0.4854 -1.1804
 8612SOL    HW237470   1.861   2.881   8.605 -0.0181  1.5930 -0.0893
 8613SOL     OW37471   1.635   3.533   5.930 -0.8443  0.2093 -0.2748
 8613SOL    HW137472   1.711   3.499   5.978 -0.0610  2.6421  0.1786
 8613SOL    HW237473   1.565   3.477   5.964 -2.1017  1.5058 -0.7169
 8614SOL     OW37474   4.721   0.370   0.137 -0.0890 -0.4031 -0.3137
 8614SOL    HW137475   4.663   0.394   0.209  2.5020  1.5587  1.1157
 8614SOL    HW237476   0.037   0.298   0.170 -0.3889  0.0080  1.0480
 8615SOL     OW37477   3.025   2.412  11.466 -0.0962  0.0443  0.0461
 8615SOL    HW137478   3.056   2.496  11.433  1.5208 -1.5956 -2.6272
 8615SOL    HW237479   3.106   2.361  11.476 -0.5108  0.1187  3.9605
 8616SOL     OW37480   0.834   2.342   8.592  0.0979  0.3599 -0.1023
 8616SOL    HW137481   0.884   2.337   8.510 -1.0604  2.1132 -0.9139
 8616SOL    HW237482   0.787   2.258   8.591  1.9703 -0.6888 -0.9519
 8617SOL     OW37483   1.103   1.469   8.523  0.3035 -0.0191  0.0347
 8617SOL    HW137484   1.153   1.541   8.562  0.6642 -0.2888  0.0601
 8617SOL    HW237485   1.021   1.480   8.571  1.0602 -0.7484  1.4877
 8618SOL     OW37486   2.188   2.424   9.056 -0.4181 -0.8371  0.4056
 8618SOL    HW137487   2.108   2.477   9.058  0.1868  0.1414 -2.1226
 8618SOL    HW237488   2.177   2.362   9.129 -2.6822 -0.9373 -0.0054
 8619SOL     OW37489   1.855   0.536   4.321 -0.1446 -0.0304 -0.0788
 8619SOL    HW137490   1.867   0.623   4.283 -2.3847 -0.7904 -2.4951
 8619SOL    HW237491   1.770   0.529   4.364  0.3411  0.3063  0.9358
 8620SOL     OW37492   1.053   1.376   5.727 -0.3394  0.1113 -0.5379
 8620SOL    HW137493   1.132   1.322   5.723 -0.2072  0.2564  0.0141
 8620SOL    HW237494   1.101   1.459   5.733 -3.3850  1.7787  0.3098
 8621SOL     OW37495   2.688   1.198   1.225  0.2748  0.2599 -0.1617
 8621SOL    HW137496   2.729   1.115   1.246 -0.1229 -0.1017 -0.8024
 8621SOL    HW237497   2.723   1.212   1.137  0.8822  0.5189  0.1242
 8622SOL     OW37498   2.293   4.105   1.353  1.0409 -0.0518 -0.3287
 8622SOL    HW137499   2.365   4.167   1.357 -1.1871  2.6107 -1.0408
 8622SOL    HW237500   2.235   4.123   1.427  0.7183 -0.2736 -0.5250
 8623SOL     OW37501   1.107   3.289  10.210  0.0031 -0.6560  0.2927
 8623SOL    HW137502   1.140   3.307  10.122 -0.4073 -1.1023  0.0430
 8623SOL    HW237503   1.151   3.360  10.257 -1.5919 -1.3592  2.8435
 8624SOL     OW37504   3.782   2.482  10.528 -0.0711 -0.3784 -0.4149
 8624SOL    HW137505   3.695   2.492  10.487 -0.0919  0.1311 -0.2511
 8624SOL    HW237506   3.801   2.393  10.499 -0.5186 -0.4679 -0.4387
 8625SOL     OW37507   1.126   4.702   3.287  0.3735  0.7261 -0.2994
 8625SOL    HW137508   1.042   4.700   3.241 -0.7669 -1.5719  1.9136
 8625SOL    HW237509   1.129   4.626   3.346  1.3346 -1.1923 -2.7944
 8626SOL     OW37510   1.701   1.780   5.218 -0.4771 -0.2695  0.4084
 8626SOL    HW137511   1.644   1.847   5.181 -1.1117 -1.3298 -0.5587
 8626SOL    HW237512   1.731   1.752   5.132 -0.8285 -0.7537  0.4379
 8627SOL     OW37513   1.607   2.739   5.739  0.2448  0.3466  0.2781
 8627SOL    HW137514   1.622   2.679   5.812  0.8016  0.8390  0.5674
 8627SOL    HW237515   1.539   2.698   5.686  2.0498 -1.2217 -0.7891
 8628SOL     OW37516   3.216   0.511  17.311 -0.2665 -0.3178 -0.3965
 8628SOL    HW137517   3.278   0.481  17.244  0.8993 -0.7339  0.8813
 8628SOL    HW237518   3.183   0.590  17.268 -2.7921 -0.0860  1.9508
 8629SOL     OW37519   0.137   2.131   7.570 -0.4093 -0.1529 -0.4205
 8629SOL    HW137520   0.152   2.127   7.664  1.5179 -2.3029 -0.8256
 8629SOL    HW237521   0.052   2.175   7.579  0.0193  0.7682 -0.8543
 8630SOL     OW37522   3.006   1.210   5.615  0.4506  0.2048 -0.5005
 8630SOL    HW137523   3.034   1.218   5.706 -0.2598 -0.8948 -0.1867
 8630SOL    HW237524   3.014   1.302   5.593 -1.3850  0.7832  1.3356
 8631SOL     OW37525   3.637   3.448  12.861 -0.0231 -0.0800 -0.0372
 8631SOL    HW137526   3.558   3.498  12.841 -1.7926 -3.2914 -1.0361
 8631SOL    HW237527   3.704   3.516  12.868  1.9179 -1.7714 -2.2710
 8632SOL     OW37528   2.755   2.650   7.519 -0.2874  0.9975  0.2158
 8632SOL    HW137529   2.732   2.608   7.435  1.9093  1.4858 -0.6253
 8632SOL    HW237530   2.768   2.572   7.573  0.1676 -0.0873 -1.4596
 8633SOL     OW37531   3.595   3.326   4.592  0.2526  0.0042 -0.3343
 8633SOL    HW137532   3.566   3.415   4.572  0.1819 -0.0450 -0.4543
 8633SOL    HW237533   3.553   3.275   4.522 -0.5374  0.2707 -0.0534
 8634SOL     OW37534   3.079   4.624  13.762  0.0506  0.2001 -0.5140
 8634SOL    HW137535   3.095   4.714  13.788  2.2533 -1.1369  2.8056
 8634SOL    HW237536   3.152   4.624  13.700  0.7072  0.6725  0.2571
 8635SOL     OW37537   1.747   1.768  14.588 -0.1719  0.1452 -0.3332
 8635SOL    HW137538   1.737   1.673  14.578 -1.7370  0.0382  2.2301
 8635SOL    HW237539   1.693   1.795  14.514  0.2426  0.9737 -0.3209
 8636SOL     OW37540   0.029   1.925   3.371 -0.0944  0.1441  0.0126
 8636SOL    HW137541   0.066   1.991   3.312 -1.3727 -0.3178 -1.3278
 8636SOL    HW237542   0.092   1.855   3.356  0.9451  0.7100  1.8217
 8637SOL     OW37543   2.381   3.090   5.294  0.4092 -0.1022 -0.4463
 8637SOL    HW137544   2.445   3.040   5.244  2.0172 -0.3987  1.8964
 8637SOL    HW237545   2.365   3.031   5.368 -1.4230  0.7258 -0.1909
 8638SOL     OW37546   4.491   0.578   6.688  0.1125  1.1151 -0.1866
 8638SOL    HW137547   4.479   0.516   6.616  0.6608 -0.4503  1.0937
 8638SOL    HW237548   4.440   0.529   6.752  1.4365 -1.3034 -0.9884
 8639SOL     OW37549   0.566   2.566  16.905  0.7010  0.4311 -0.0145
 8639SOL    HW137550   0.560   2.643  16.962  0.9945 -1.9269  3.1688
 8639SOL    HW237551   0.592   2.615  16.827  2.3947  0.5302  0.6056
 8640SOL     OW37552   2.987   0.534   0.534  0.3713  0.6376  0.2635
 8640SOL    HW137553   2.930   0.610   0.517 -0.6910  0.4774  3.1867
 8640SOL    HW237554   2.933   0.491   0.600  1.2588 -1.2377 -0.2358
 8641SOL     OW37555   2.998   3.168  13.144 -0.0364 -0.5464  0.7697
 8641SOL    HW137556   2.999   3.077  13.172  1.7413 -0.5081  0.8740
 8641SOL    HW237557   2.911   3.177  13.106  0.0352  0.5492  0.8473
 8642SOL     OW37558   0.005   3.458  14.042 -0.2980  0.0708 -0.0134
 8642SOL    HW137559   0.016   3.496  14.129 -2.7625  0.4735  0.1323
 8642SOL    HW237560   0.056   3.377  14.040 -2.2122 -1.1316  0.3058
 8643SOL     OW37561   4.479   2.236   1.716 -0.3602 -0.6262  0.3096
 8643SOL    HW137562   4.539   2.168   1.744  1.0094  0.9091  1.0882
 8643SOL    HW237563   4.498   2.235   1.622  0.7639 -0.9314  0.5399
 8644SOL     OW37564   2.085   0.433   6.725 -0.7628  0.1716 -0.3182
 8644SOL    HW137565   2.140   0.454   6.650 -0.8345 -1.9566 -0.9699
 8644SOL    HW237566   2.140   0.365   6.765 -1.2413 -0.8663 -1.4376
 8645SOL     OW37567   0.379   2.395   9.373  0.0135 -0.1112  0.0971
 8645SOL    HW137568   0.287   2.419   9.359 -0.2548 -1.5535 -0.5833
 8645SOL    HW237569   0.380   2.334   9.447 -1.8855  2.0022  1.8480
 8646SOL     OW37570   0.104   2.668  12.326  0.0635 -0.2454 -0.1512
 8646SOL    HW137571   0.153   2.747  12.305 -0.2532 -0.2340 -0.8604
 8646SOL    HW237572   0.082   2.633  12.239 -0.8223 -1.9038  0.7417
 8647SOL     OW37573   4.360   3.764   9.818  0.2049 -0.4355  0.4319
 8647SOL    HW137574   4.446   3.800   9.795  0.0237 -0.6587 -0.6150
 8647SOL    HW237575   4.299   3.799   9.752  0.2370 -0.4393  0.4001
 8648SOL     OW37576   2.857   0.154  14.367  0.2395  0.1097 -0.6194
 8648SOL    HW137577   2.866   0.138  14.273 -2.3899  1.3514 -1.0818
 8648SOL    HW237578   2.829   0.070  14.404 -1.3890  1.2915  0.8408
 8649SOL     OW37579   0.964   1.371  11.284 -0.2142  0.2518  0.2381
 8649SOL    HW137580   0.955   1.296  11.343  0.2838 -1.0186 -1.3039
 8649SOL    HW237581   0.875   1.405  11.278 -1.2930 -2.7167 -0.6410
 8650SOL     OW37582   2.105   0.574   6.464 -0.0932 -0.0170 -0.4790
 8650SOL    HW137583   2.060   0.659   6.464 -0.6437 -0.3045 -2.0009
 8650SOL    HW237584   2.187   0.602   6.503  0.0853 -0.3749 -0.6014
 8651SOL     OW37585   1.034   0.267   9.184 -0.2963 -0.3249  0.3096
 8651SOL    HW137586   1.127   0.244   9.184 -0.9862 -3.0600 -1.3222
 8651SOL    HW237587   1.022   0.281   9.090 -2.7108  0.5480  0.7303
 8652SOL     OW37588   1.596   4.720   0.401  0.6017 -0.1192  0.7651
 8652SOL    HW137589   1.580   0.071   0.437 -1.9743 -0.0121 -0.6241
 8652SOL    HW237590   1.629   0.004   0.314  0.9876  0.7579  1.1147
 8653SOL     OW37591   3.798   4.474   6.884 -0.0165 -0.5961 -0.3110
 8653SOL    HW137592   3.721   4.436   6.926 -0.4598 -1.7915 -2.1860
 8653SOL    HW237593   3.780   4.463   6.791 -0.1981 -1.1034 -0.2153
 8654SOL     OW37594   4.470   1.467   8.421  0.0093  0.2332  0.0849
 8654SOL    HW137595   4.526   1.525   8.473  0.9994  0.9159 -1.7116
 8654SOL    HW237596   4.533   1.396   8.409  1.4454  1.5033  0.0398
 8655SOL     OW37597   3.003   4.066   1.218  0.4885  0.6718 -0.2641
 8655SOL    HW137598   2.983   3.972   1.219 -0.1835  0.8259  1.1300
 8655SOL    HW237599   3.089   4.048   1.180  0.6024  0.4513  0.0904
 8656SOL     OW37600   2.719   2.109   5.831  0.6460 -0.4262  0.2360
 8656SOL    HW137601   2.793   2.078   5.885  0.0480 -0.7274  0.8819
 8656SOL    HW237602   2.714   2.204   5.841  2.6753 -0.1452 -1.3592
 8657SOL     OW37603   0.007   2.493   8.718 -0.5408 -0.5290 -0.1490
 8657SOL    HW137604   0.022   2.400   8.734  1.2775 -0.6363 -2.4700
 8657SOL    HW237605   0.065   2.529   8.784 -1.1802  0.0391  0.1009
 8658SOL     OW37606   1.796   0.024   7.647 -0.0973 -0.6480 -0.2700
 8658SOL    HW137607   1.761   0.078   7.576  2.8385 -1.2531 -2.1824
 8658SOL    HW237608   1.871   4.727   7.598  1.1831  0.4846  0.9205
 8659SOL     OW37609   2.042   3.749  16.676  0.4907 -0.4855 -0.1212
 8659SOL    HW137610   1.969   3.781  16.729 -1.5107  0.4967 -3.4772
 8659SOL    HW237611   2.087   3.690  16.736 -0.1362 -1.7230 -0.8909
 8660SOL     OW37612   3.623   1.786  15.392 -0.0079 -0.0596 -0.1123
 8660SOL    HW137613   3.674   1.860  15.358  2.9833 -1.7676  0.5882
 8660SOL    HW237614   3.689   1.717  15.389 -1.7900 -1.6816 -2.6561
 8661SOL     OW37615   4.002   3.586  13.362  0.1434  0.2247 -0.3082
 8661SOL    HW137616   4.075   3.639  13.392 -0.2909  0.6612 -0.0258
 8661SOL    HW237617   4.038   3.502  13.389 -0.1874  0.2525  0.2162
 8662SOL     OW37618   0.033   1.539  11.695 -0.5219 -0.1688 -0.4900
 8662SOL    HW137619   0.089   1.466  11.666  0.2830  0.8564 -1.5081
 8662SOL    HW237620   0.085   1.614  11.665 -1.1862  0.6912  0.5493
 8663SOL     OW37621   3.710   0.123   8.353  0.7021 -0.2012  0.7312
 8663SOL    HW137622   3.730   0.216   8.352  1.7321 -0.4369 -0.6373
 8663SOL    HW237623   3.709   0.110   8.448 -2.3421 -1.5578  0.5267
 8664SOL     OW37624   2.794   2.911   7.408 -0.1911  0.4904 -0.3959
 8664SOL    HW137625   2.767   2.838   7.463 -2.0942 -1.2313 -3.5885
 8664SOL    HW237626   2.732   2.902   7.335  0.9391  0.6898 -1.3878
 8665SOL     OW37627   2.763   3.572  15.901 -0.0329  0.2308  0.2457
 8665SOL    HW137628   2.825   3.644  15.893 -0.3692  0.3211 -1.6739
 8665SOL    HW237629   2.751   3.558  15.806  0.4125  1.3315  0.0317
 8666SOL     OW37630   2.308   2.694   1.103  0.2907 -0.4987 -0.5582
 8666SOL    HW137631   2.343   2.653   1.024 -2.5700 -0.5910 -1.7701
 8666SOL    HW237632   2.329   2.632   1.173 -0.3212 -1.3447 -1.1289
 8667SOL     OW37633   3.201   3.410   6.846  0.1781 -0.5329  0.0854
 8667SOL    HW137634   3.115   3.416   6.889  0.2004 -0.0313  0.0656
 8667SOL    HW237635   3.225   3.503   6.848 -0.7595 -0.1901 -4.8057
 8668SOL     OW37636   1.345   3.904   1.509 -1.0926  0.2746 -0.0043
 8668SOL    HW137637   1.382   3.889   1.596 -1.8775 -1.7390 -0.0139
 8668SOL    HW237638   1.325   3.812   1.493  1.5746 -0.1974 -0.5235
 8669SOL     OW37639   4.675   1.274   5.938 -0.1061 -0.0925 -0.5314
 8669SOL    HW137640   4.634   1.213   5.877  0.6964 -0.0938 -1.0567
 8669SOL    HW237641   4.657   1.229   6.021  0.3913 -0.6305 -0.7175
 8670SOL     OW37642   1.578   1.093  12.127  0.7352 -0.4280 -0.1797
 8670SOL    HW137643   1.583   1.177  12.081  0.7813  0.5954  1.6851
 8670SOL    HW237644   1.535   1.035  12.064 -2.5419  1.3354  0.4321
 8671SOL     OW37645   0.424   1.632  11.263 -0.1052 -0.2731  0.1225
 8671SOL    HW137646   0.351   1.644  11.323  0.5389  2.1891  0.4233
 8671SOL    HW237647   0.428   1.720  11.226 -0.0590 -1.9141 -3.7551
 8672SOL     OW37648   3.940   2.346   6.792 -0.4801  0.3611  0.4086
 8672SOL    HW137649   3.900   2.296   6.721  0.9622  0.4336 -0.4606
 8672SOL    HW237650   3.856   2.360   6.835 -0.3850  0.8358  0.4492
 8673SOL     OW37651   1.345   3.206   5.726  0.6892 -0.1510 -0.3295
 8673SOL    HW137652   1.407   3.186   5.656  1.1609  1.9888 -0.5356
 8673SOL    HW237653   1.413   3.230   5.789 -0.6925 -0.2370  1.1868
 8674SOL     OW37654   0.470   4.272  16.814  0.3489 -0.0410 -0.0228
 8674SOL    HW137655   0.431   4.206  16.757 -1.4095  0.7022  0.3324
 8674SOL    HW237656   0.477   4.342  16.749  0.1318 -1.1218 -1.1997
 8675SOL     OW37657   0.462   3.731  11.424  0.7989 -0.3109 -0.2552
 8675SOL    HW137658   0.424   3.815  11.449 -0.9352 -1.2837  0.3898
 8675SOL    HW237659   0.422   3.708  11.340 -0.7299 -3.2744  1.2667
 8676SOL     OW37660   0.093   3.494   9.729  0.1967  0.1381 -0.2552
 8676SOL    HW137661   0.128   3.583   9.733 -3.5162  1.5439  0.8069
 8676SOL    HW237662   0.159   3.446   9.780 -0.4840  2.0232  2.4091
 8677SOL     OW37663   4.564   1.629   8.128 -0.3081  0.6374 -0.3107
 8677SOL    HW137664   4.541   1.670   8.212 -0.5794  0.7130 -0.4192
 8677SOL    HW237665   4.534   1.539   8.140  3.5255 -0.4267  1.1777
 8678SOL     OW37666   3.290   0.491   5.164 -0.6975  0.2322 -0.1661
 8678SOL    HW137667   3.260   0.410   5.205 -1.4104  1.0189  0.8596
 8678SOL    HW237668   3.286   0.544   5.243  1.4896  0.2460 -0.0680
 8679SOL     OW37669   1.699   2.218  16.205  0.5683  0.7473 -0.2972
 8679SOL    HW137670   1.607   2.232  16.181  0.5620  1.4457  0.1333
 8679SOL    HW237671   1.692   2.180  16.292 -1.9913  0.1563 -0.7521
 8680SOL     OW37672   0.934   1.637  11.868 -0.4787 -0.0435  0.0940
 8680SOL    HW137673   0.926   1.617  11.775 -3.4656  3.2002 -0.3419
 8680SOL    HW237674   0.954   1.731  11.866 -0.4810 -0.0634 -0.8080
 8681SOL     OW37675   3.036   1.711  10.786  0.3015  0.0598  0.0550
 8681SOL    HW137676   2.945   1.711  10.758  0.4492 -0.3958 -0.4227
 8681SOL    HW237677   3.027   1.735  10.878  0.7392 -1.6943  0.5521
 8682SOL     OW37678   2.567   1.968  11.772  0.3591 -0.7833  0.5433
 8682SOL    HW137679   2.635   1.946  11.709  1.0006  0.3770  0.8232
 8682SOL    HW237680   2.599   2.057  11.789 -1.9665  0.7869 -3.1710
 8683SOL     OW37681   3.431   2.428   3.114  0.2006 -0.7836 -0.4828
 8683SOL    HW137682   3.393   2.473   3.189  2.4527  2.7708 -1.4350
 8683SOL    HW237683   3.367   2.449   3.046  0.6577  1.1136 -0.3237
 8684SOL     OW37684   1.687   3.340   3.288  0.6709  0.0041 -0.6459
 8684SOL    HW137685   1.721   3.288   3.361  0.4286 -0.2294 -0.6998
 8684SOL    HW237686   1.657   3.268   3.233  0.0035 -0.7327  0.6711
 8685SOL     OW37687   2.342   4.260   8.708 -0.6891 -0.0111  0.6511
 8685SOL    HW137688   2.356   4.343   8.753  1.9243  0.3867 -0.8945
 8685SOL    HW237689   2.313   4.215   8.787  2.0285 -2.7729  0.0654
 8686SOL     OW37690   2.768   1.073   0.707  0.1942 -0.0810  0.3186
 8686SOL    HW137691   2.709   1.006   0.673  0.4792 -1.5319  2.6933
 8686SOL    HW237692   2.749   1.131   0.633  2.2325 -1.4308 -1.2778
 8687SOL     OW37693   1.698   4.027   9.569  0.1378 -0.0988 -0.2393
 8687SOL    HW137694   1.672   3.996   9.482 -0.6954  3.6403 -1.3267
 8687SOL    HW237695   1.625   4.085   9.590  1.3935  0.5185  2.3924
 8688SOL     OW37696   4.090   2.734  17.487 -0.2620 -0.5461 -0.6506
 8688SOL    HW137697   4.011   2.682  17.470 -0.9566  0.7701 -1.4063
 8688SOL    HW237698   4.148   2.661  17.510  2.3639  1.4376 -1.0097
 8689SOL     OW37699   4.016   4.339   5.238  0.0297  0.1577  0.2994
 8689SOL    HW137700   4.000   4.429   5.264 -2.4962 -0.5699  1.2816
 8689SOL    HW237701   4.111   4.346   5.243 -0.0555  1.7107 -0.3501
 8690SOL     OW37702   2.082   3.718   5.364 -0.0110  0.5251  0.2421
 8690SOL    HW137703   2.155   3.679   5.412 -1.9236 -3.0717  0.2547
 8690SOL    HW237704   2.070   3.649   5.299  1.4297  0.1858  0.3385
 8691SOL     OW37705   1.193   2.295   0.833 -1.1113  0.3880 -0.1744
 8691SOL    HW137706   1.284   2.269   0.841 -1.3612 -0.0606  1.2111
 8691SOL    HW237707   1.154   2.212   0.858 -0.4083  0.0570 -0.2025
 8692SOL     OW37708   3.774   2.775   6.723 -0.1005  0.0517 -0.5385
 8692SOL    HW137709   3.850   2.740   6.676 -1.4691 -1.7447 -1.3757
 8692SOL    HW237710   3.808   2.774   6.812 -1.8749 -3.5283  0.0919
 8693SOL     OW37711   1.240   3.236   3.790 -0.0884 -0.1760 -0.3294
 8693SOL    HW137712   1.254   3.304   3.725  2.0805 -0.1156  0.2240
 8693SOL    HW237713   1.255   3.159   3.736  0.8499  0.2226 -0.6373
 8694SOL     OW37714   2.476   3.840   1.680 -0.0044 -0.0156 -0.2835
 8694SOL    HW137715   2.494   3.933   1.671  0.6189 -0.0855  0.2266
 8694SOL    HW237716   2.505   3.827   1.771  0.2706 -2.4436 -0.7149
 8695SOL     OW37717   0.511   2.080   7.477 -0.1869  0.5186 -0.0029
 8695SOL    HW137718   0.531   2.173   7.477  0.7771  0.3088 -0.8299
 8695SOL    HW237719   0.504   2.074   7.572 -0.4001  0.1894 -0.0358
 8696SOL     OW37720   1.063   0.697   6.311  0.0499  0.5924 -0.4971
 8696SOL    HW137721   1.145   0.737   6.341 -0.3789 -0.7988  2.6378
 8696SOL    HW237722   1.097   0.612   6.283 -0.8392  0.4235 -1.0468
 8697SOL     OW37723   0.076   0.172  17.404 -0.3461 -0.2532 -0.4434
 8697SOL    HW137724   0.011   0.208  17.465  1.6537  0.5530  1.1746
 8697SOL    HW237725   0.070   0.231  17.329 -3.2955  0.2936  0.2198
 8698SOL     OW37726   2.874   0.434   8.526  0.2068  0.2501  0.8274
 8698SOL    HW137727   2.942   0.434   8.594 -0.4728 -0.6513  1.5170
 8698SOL    HW237728   2.826   0.360   8.564 -0.9089  1.0946  1.0336
 8699SOL     OW37729   1.886   1.346   7.880 -0.3747  0.1946  0.8050
 8699SOL    HW137730   1.933   1.269   7.913 -0.5265 -1.2845 -2.3829
 8699SOL    HW237731   1.899   1.408   7.951  0.6262 -0.3895  1.1309
 8700SOL     OW37732   0.849   1.578   3.639 -0.2924  0.6606  0.1233
 8700SOL    HW137733   0.873   1.486   3.637 -1.4228  0.2762  2.9545
 8700SOL    HW237734   0.763   1.578   3.683 -1.1483  1.4953 -1.5687
 8701SOL     OW37735   2.123   0.548   5.118 -0.5670  0.3612  0.9775
 8701SOL    HW137736   2.031   0.574   5.124 -0.6107  0.7812 -1.4121
 8701SOL    HW237737   2.122   0.457   5.088  0.1236  0.7724 -0.3289
 8702SOL     OW37738   0.924   3.968   8.491  0.0875 -0.1378 -0.6689
 8702SOL    HW137739   0.831   3.947   8.492  0.3218 -1.1264  0.6636
 8702SOL    HW237740   0.957   3.938   8.406  0.3888  0.3674 -0.7278
 8703SOL     OW37741   2.268   4.226  11.324  0.6367 -0.1982 -0.2323
 8703SOL    HW137742   2.346   4.177  11.348  0.9686 -0.4916 -1.9727
 8703SOL    HW237743   2.295   4.262  11.240 -0.7437  0.3373 -0.4583
 8704SOL     OW37744   2.783   3.147   8.929 -0.1968 -0.1326 -0.0772
 8704SOL    HW137745   2.722   3.084   8.891 -3.0224  2.9927 -0.7067
 8704SOL    HW237746   2.730   3.218   8.965  0.4740 -0.3294  1.3032
 8705SOL     OW37747   4.421   3.612  12.183 -0.5243  0.3301 -0.3115
 8705SOL    HW137748   4.481   3.665  12.130  0.6206 -2.6622 -2.0338
 8705SOL    HW237749   4.393   3.557  12.109 -0.6181 -1.4841  1.0721
 8706SOL     OW37750   2.341   0.645  15.379  0.0102  0.9218  0.4473
 8706SOL    HW137751   2.370   0.736  15.389 -1.9126  1.7667 -1.6565
 8706SOL    HW237752   2.311   0.654  15.288 -3.2177  0.0907  1.4499
 8707SOL     OW37753   0.728   1.821  12.548 -0.0011 -0.0478 -0.3655
 8707SOL    HW137754   0.742   1.727  12.536  1.0163 -0.0490  0.7651
 8707SOL    HW237755   0.790   1.856  12.483 -1.4283  1.2190 -1.0383
 8708SOL     OW37756   2.293   1.424   2.948  0.1292 -0.2394 -0.2292
 8708SOL    HW137757   2.267   1.334   2.968  2.9134 -0.8920  0.4687
 8708SOL    HW237758   2.218   1.443   2.891 -0.9868 -2.3821  0.5118
 8709SOL     OW37759   4.399   0.966   8.871 -0.0146  0.5256  0.2847
 8709SOL    HW137760   4.340   0.913   8.925 -1.0935  1.6848  0.2296
 8709SOL    HW237761   4.344   0.977   8.794  0.1816 -1.4357 -0.1404
 8710SOL     OW37762   0.017   1.835  11.790 -0.3354  0.0260 -0.2567
 8710SOL    HW137763   0.034   1.784  11.869  0.0749  0.3220 -0.1562
 8710SOL    HW237764   0.089   1.801  11.736 -1.1861 -2.5312  0.2081
 8711SOL     OW37765   0.531   3.764  13.360  0.6044 -0.0366  0.5805
 8711SOL    HW137766   0.526   3.788  13.453 -0.5314 -0.2496  0.5653
 8711SOL    HW237767   0.615   3.720  13.349  0.0668 -0.7739 -0.5544
 8712SOL     OW37768   2.897   4.078   0.170  0.3366 -0.7844 -0.4773
 8712SOL    HW137769   2.960   4.014   0.202 -0.1133  0.0705  2.1287
 8712SOL    HW237770   2.913   4.070   0.076 -0.1058  1.3544 -0.7410
 8713SOL     OW37771   1.162   0.797  16.474  0.2255  0.6087  0.0292
 8713SOL    HW137772   1.186   0.870  16.530  2.2176 -0.6889  0.8724
 8713SOL    HW237773   1.131   0.734  16.539  0.3639  2.1246  1.5492
 8714SOL     OW37774   2.312   1.161   8.001  0.6322 -0.1776 -0.2415
 8714SOL    HW137775   2.331   1.158   7.907 -2.7233  0.4804 -0.9566
 8714SOL    HW237776   2.391   1.194   8.044 -0.6082  0.0826  1.8161
 8715SOL     OW37777   2.274   2.450  16.929 -0.1847  0.2603  0.0733
 8715SOL    HW137778   2.369   2.449  16.929 -0.1978 -0.9824 -0.4427
 8715SOL    HW237779   2.250   2.506  16.854 -1.9981  0.7305  0.9981
 8716SOL     OW37780   2.490   0.862   3.535  0.5336 -0.5173 -0.4589
 8716SOL    HW137781   2.510   0.769   3.545  0.3774 -0.3487  1.5384
 8716SOL    HW237782   2.581   0.884   3.555  0.7125 -1.4401 -0.2619
 8717SOL     OW37783   2.115   1.526   7.699 -0.2075  0.2845  0.1042
 8717SOL    HW137784   2.201   1.509   7.659 -0.3255  0.5457 -0.2666
 8717SOL    HW237785   2.140   1.539   7.790  0.7125  1.5114 -0.3141
 8718SOL     OW37786   3.783   4.059   8.429 -0.0520 -0.7255  0.8505
 8718SOL    HW137787   3.874   4.088   8.427 -0.2492 -0.0535  1.6806
 8718SOL    HW237788   3.760   4.082   8.519  1.5795 -0.1892  1.1274
 8719SOL     OW37789   2.229   2.308   6.986  0.1069  0.2500 -0.2285
 8719SOL    HW137790   2.265   2.229   7.027  0.1142  0.5035  0.2546
 8719SOL    HW237791   2.248   2.379   7.047 -0.6240  0.3385 -0.1044
 8720SOL     OW37792   0.652   0.613   7.102  0.0612 -0.3620 -0.5401
 8720SOL    HW137793   0.665   0.617   7.007  1.2862  1.4180 -0.3068
 8720SOL    HW237794   0.566   0.654   7.101  1.0458  1.7382  1.1500
 8721SOL     OW37795   2.976   1.281   1.895 -0.1949  0.0147  0.2119
 8721SOL    HW137796   3.007   1.268   1.805 -3.2531  1.5093 -1.0736
 8721SOL    HW237797   2.962   1.187   1.910 -0.0932 -0.6008 -3.5647
 8722SOL     OW37798   1.925   3.522  13.874  0.2899  0.1776  0.1239
 8722SOL    HW137799   1.963   3.449  13.924 -2.0409  0.5004  2.3676
 8722SOL    HW237800   1.855   3.479  13.824  0.5890 -0.3484  0.1542
 8723SOL     OW37801   3.939   3.673   6.257  0.3120 -0.7385  0.5187
 8723SOL    HW137802   3.892   3.614   6.198 -1.8279  1.6118 -0.1456
 8723SOL    HW237803   3.869   3.693   6.319 -0.4403 -1.7969  0.0125
 8724SOL     OW37804   4.023   1.544  12.249  0.5129 -0.2245  0.3516
 8724SOL    HW137805   4.035   1.454  12.220 -2.0547 -0.7791  1.0016
 8724SOL    HW237806   4.048   1.529  12.340 -2.6593  0.1248  1.2558
 8725SOL     OW37807   1.756   1.394   0.656 -0.2912 -0.1525  0.5696
 8725SOL    HW137808   1.826   1.457   0.674 -0.8873  0.5422  0.4615
 8725SOL    HW237809   1.690   1.417   0.721  0.1080 -1.6159  1.4681
 8726SOL     OW37810   4.640   3.158   2.456  0.0799 -0.1293 -0.0690
 8726SOL    HW137811   4.568   3.195   2.508 -1.1532 -0.3466 -1.6167
 8726SOL    HW237812   4.588   3.125   2.383 -0.4095  0.0992  0.1772
 8727SOL     OW37813   1.445   3.398  17.325  0.2745  0.3816 -0.1856
 8727SOL    HW137814   1.405   3.424  17.243  1.2071  0.5309 -0.5970
 8727SOL    HW237815   1.378   3.420  17.389  1.4656  1.1194  0.8165
 8728SOL     OW37816   1.088   0.176   0.567 -0.0969 -0.5408  0.5494
 8728SOL    HW137817   1.097   0.224   0.484 -2.7058  0.3889  0.8070
 8728SOL    HW237818   1.169   0.127   0.581  3.0563  3.9942 -1.6814
 8729SOL     OW37819   0.379   1.445  11.528 -0.2920 -0.1621 -0.1495
 8729SOL    HW137820   0.389   1.513  11.595  0.5447 -0.1883 -0.2421
 8729SOL    HW237821   0.306   1.495  11.492 -0.1838 -0.5353 -0.8714
 8730SOL     OW37822   0.431   1.051   6.322 -0.2753 -0.0101 -0.4599
 8730SOL    HW137823   0.452   0.960   6.298  1.4734 -0.4955  2.9303
 8730SOL    HW237824   0.392   1.091   6.244  0.6305  0.6751 -0.5616
 8731SOL     OW37825   1.800   3.758   7.732 -0.3424 -0.0711 -0.2640
 8731SOL    HW137826   1.835   3.694   7.670 -1.6356 -0.3781 -0.6828
 8731SOL    HW237827   1.761   3.822   7.673  1.1323  1.6335  0.5870
 8732SOL     OW37828   3.478   2.165   7.978  0.5568  0.1842 -0.2017
 8732SOL    HW137829   3.394   2.184   8.020  2.8504 -0.0898  4.4730
 8732SOL    HW237830   3.517   2.125   8.055  1.8012  3.0972  0.7089
 8733SOL     OW37831   1.371   2.122   9.606  0.3645  0.0484  1.3230
 8733SOL    HW137832   1.382   2.195   9.667 -1.4211  1.7881 -0.4096
 8733SOL    HW237833   1.352   2.055   9.672  0.7934 -2.0324 -0.6716
 8734SOL     OW37834   3.978   2.269  14.920  0.1491 -0.4152 -0.0495
 8734SOL    HW137835   3.952   2.324  14.847 -0.1955 -0.3964  0.0895
 8734SOL    HW237836   3.980   2.335  14.989  2.4635  0.6347 -1.1397
 8735SOL     OW37837   0.518   1.025   7.477 -0.3635  0.2097  0.1461
 8735SOL    HW137838   0.474   1.106   7.449 -0.3277 -0.2525 -1.2303
 8735SOL    HW237839   0.490   0.971   7.404 -0.5193 -2.4102  2.1608
 8736SOL     OW37840   2.158   1.680   8.896  0.2114  0.5429 -0.1829
 8736SOL    HW137841   2.165   1.591   8.931  1.4587  1.2562  1.3676
 8736SOL    HW237842   2.187   1.651   8.810 -0.7420  0.0641 -0.3425
 8737SOL     OW37843   2.399   1.110  10.702  0.0563  0.0904  0.1269
 8737SOL    HW137844   2.404   1.202  10.728 -2.7124  0.3116 -0.1428
 8737SOL    HW237845   2.460   1.105  10.628  0.7361  0.1258  0.6899
 8738SOL     OW37846   0.715   1.464  12.340 -0.2964 -0.0289  0.0586
 8738SOL    HW137847   0.651   1.499  12.278 -0.9651 -1.5787 -0.1375
 8738SOL    HW237848   0.742   1.388  12.288  0.6192  0.9524 -0.9047
 8739SOL     OW37849   2.996   3.680   5.999  0.3304  0.1289 -0.2343
 8739SOL    HW137850   3.031   3.739   6.066  2.0616 -0.6265 -0.4715
 8739SOL    HW237851   2.920   3.734   5.976  0.2644 -0.0290 -0.3854
 8740SOL     OW37852   0.659   4.141   8.102 -0.1835 -0.3838  0.0849
 8740SOL    HW137853   0.706   4.147   8.018 -0.6114  0.9079 -0.0578
 8740SOL    HW237854   0.642   4.047   8.091 -0.5745  0.1469 -3.8230
 8741SOL     OW37855   2.415   0.066   3.208 -0.3504  0.7073 -0.6839
 8741SOL    HW137856   2.476   0.015   3.261  0.8039  1.1318 -1.6038
 8741SOL    HW237857   2.459   0.151   3.203  0.4550  0.3036 -0.2799
 8742SOL     OW37858   1.284   0.583  12.301  0.2122  0.6384  0.0677
 8742SOL    HW137859   1.283   0.500  12.252 -0.5563 -1.5101  3.7644
 8742SOL    HW237860   1.365   0.568  12.350  0.0515 -0.3373  0.0404
 8743SOL     OW37861   1.213   4.009   1.956 -0.0000  0.5048 -0.0384
 8743SOL    HW137862   1.245   4.088   1.913 -0.5225  0.7716  0.0619
 8743SOL    HW237863   1.238   4.016   2.048  0.1910 -0.8538  0.0062
 8744SOL     OW37864   2.124   4.141   1.566 -0.4159 -0.1333  0.4399
 8744SOL    HW137865   2.126   4.048   1.588 -0.6515 -0.3210 -0.3181
 8744SOL    HW237866   2.057   4.174   1.625 -0.6252  0.0794  0.0851
 8745SOL     OW37867   2.584   4.425   7.199 -0.3477  0.6273  0.0730
 8745SOL    HW137868   2.677   4.440   7.178 -0.3290 -1.1091 -1.0881
 8745SOL    HW237869   2.591   4.377   7.281  1.7317  0.0127 -0.4546
 8746SOL     OW37870   0.060   0.876   3.777 -1.2538  0.0452 -0.4805
 8746SOL    HW137871   0.016   0.808   3.828 -1.8960  1.8670  1.4118
 8746SOL    HW237872   0.099   0.924   3.850  0.8294 -1.1116 -0.8350
 8747SOL     OW37873   2.018   1.473   3.991 -0.1695  0.5116 -0.5363
 8747SOL    HW137874   1.952   1.532   3.955  0.4037  0.6594 -1.3382
 8747SOL    HW237875   1.996   1.390   3.949 -1.0377  0.8835 -0.8158
 8748SOL     OW37876   0.798   4.542   4.123  0.0449 -0.3729  0.2497
 8748SOL    HW137877   0.715   4.563   4.080 -0.0099 -1.0132  0.0424
 8748SOL    HW237878   0.759   4.464   4.160  0.2285 -0.9100 -0.6838
 8749SOL     OW37879   0.604   3.439   9.608  0.1778 -0.0765  0.0909
 8749SOL    HW137880   0.513   3.409   9.601  0.5547 -1.0031 -0.9495
 8749SOL    HW237881   0.590   3.531   9.630 -4.3565 -1.1363  1.6340
 8750SOL     OW37882   3.736   1.731   4.993  0.2518  0.5637  0.3282
 8750SOL    HW137883   3.713   1.639   4.977 -1.0289  1.3858 -2.4403
 8750SOL    HW237884   3.806   1.713   5.055 -1.1294 -0.4977  1.5821
 8751SOL     OW37885   1.609   2.490   5.904  0.0994 -0.1516 -0.0943
 8751SOL    HW137886   1.572   2.409   5.939  1.2408 -0.6975 -0.1477
 8751SOL    HW237887   1.532   2.545   5.919 -1.2466 -1.9237 -0.5345
 8752SOL     OW37888   3.241   1.295   9.120  0.2605  0.0764  0.2198
 8752SOL    HW137889   3.317   1.348   9.145  0.9730 -0.6224 -0.4666
 8752SOL    HW237890   3.189   1.296   9.200  0.4851 -1.6556  0.3773
 8753SOL     OW37891   4.004   4.074   9.295 -0.0238  0.2025 -0.5805
 8753SOL    HW137892   4.045   3.993   9.264  2.0468  0.5006  1.3829
 8753SOL    HW237893   3.997   4.128   9.217 -1.2157 -1.0305 -1.3362
 8754SOL     OW37894   2.782   1.697   4.930 -0.4142 -0.5483  0.5204
 8754SOL    HW137895   2.790   1.662   5.019  0.5614 -0.3327  0.5155
 8754SOL    HW237896   2.691   1.726   4.928  0.1374  1.3351  2.9184
 8755SOL     OW37897   2.842   0.639   9.153 -0.0749 -0.6957 -0.3227
 8755SOL    HW137898   2.860   0.575   9.221 -1.2022 -1.2037 -0.4960
 8755SOL    HW237899   2.849   0.716   9.209 -1.3488 -1.9716  1.5789
 8756SOL     OW37900   1.189   4.723  10.671  0.4698 -0.4717  0.1291
 8756SOL    HW137901   1.102   4.687  10.685  1.0821 -0.5979  3.4724
 8756SOL    HW237902   1.169   0.080  10.667  1.5202 -0.2297  0.5636
 8757SOL     OW37903   3.085   1.009   9.084 -0.2123  0.0208  0.5513
 8757SOL    HW137904   3.054   0.987   8.997 -1.1244 -0.8678  1.1088
 8757SOL    HW237905   3.022   1.072   9.119  0.0751  0.4344  0.3343
 8758SOL     OW37906   3.864   4.600   2.025  0.4888  0.2101  0.4284
 8758SOL    HW137907   3.877   4.663   1.954  3.7965 -0.3114  0.5646
 8758SOL    HW237908   3.783   4.559   1.993  0.6997  0.7834 -0.8601
 8759SOL     OW37909   4.233   3.002  14.503  0.3891  0.0702  0.3084
 8759SOL    HW137910   4.215   2.925  14.450 -1.9151 -1.9411  4.0185
 8759SOL    HW237911   4.174   3.070  14.471 -2.1799 -2.3044 -0.0049
 8760SOL     OW37912   3.488   4.149   6.444 -0.1984  0.1733 -0.5434
 8760SOL    HW137913   3.422   4.103   6.392 -0.8625  0.5013  0.0248
 8760SOL    HW237914   3.545   4.076   6.465  1.4086  1.2062 -1.2889
 8761SOL     OW37915   3.392   3.350   5.114  0.4039  0.6334  0.0095
 8761SOL    HW137916   3.363   3.435   5.083  0.1383  0.7992  0.7305
 8761SOL    HW237917   3.385   3.357   5.209 -1.1219  0.8653 -0.1146
 8762SOL     OW37918   0.288   4.638   2.701 -0.0755  0.5795 -0.8523
 8762SOL    HW137919   0.278   4.544   2.718 -0.3574  0.6654 -0.5455
 8762SOL    HW237920   0.236   4.648   2.622  0.2040  0.8298 -1.0060
 8763SOL     OW37921   3.402   0.328   3.348  0.1078 -0.1144  0.7230
 8763SOL    HW137922   3.436   0.303   3.434  1.8966 -0.9379 -0.2108
 8763SOL    HW237923   3.466   0.291   3.288 -0.6051 -0.2334  0.0411
 8764SOL     OW37924   1.059   1.275   8.770 -0.5261 -0.1818 -0.4146
 8764SOL    HW137925   1.102   1.192   8.788 -0.3568 -0.2991 -1.3350
 8764SOL    HW237926   1.053   1.277   8.674 -0.5941 -4.1971 -0.5167
 8765SOL     OW37927   1.410   4.023   2.189  0.0743  0.0014  0.1026
 8765SOL    HW137928   1.493   4.047   2.149  0.1199 -0.5689 -0.1513
 8765SOL    HW237929   1.418   3.928   2.176 -1.3714 -0.0355 -0.5287
 8766SOL     OW37930   1.549   4.300   7.813  0.0607  0.2521  0.3825
 8766SOL    HW137931   1.625   4.280   7.868  0.1146  0.5826  0.4300
 8766SOL    HW237932   1.529   4.207   7.804  0.1511  0.3917 -1.3437
 8767SOL     OW37933   3.562   2.856   8.350 -0.2083 -0.6285 -0.0080
 8767SOL    HW137934   3.531   2.908   8.424  1.8584  0.3637  0.1658
 8767SOL    HW237935   3.555   2.774   8.399  1.1230 -0.5678  0.2913
 8768SOL     OW37936   1.439   2.936   2.225 -0.0583  0.3239 -0.7062
 8768SOL    HW137937   1.480   2.979   2.300 -3.2617  0.9059  0.6723
 8768SOL    HW237938   1.427   2.852   2.269  2.7221  0.2542 -0.0597
 8769SOL     OW37939   0.631   3.888   9.377 -0.3985 -0.0717  0.3276
 8769SOL    HW137940   0.561   3.830   9.349 -0.1357 -1.0632  1.6883
 8769SOL    HW237941   0.581   3.968   9.363 -0.0064 -0.1794 -1.6562
 8770SOL     OW37942   0.604   4.097   9.911 -0.1607 -0.0040 -0.2674
 8770SOL    HW137943   0.616   4.002   9.920 -1.0583 -0.1477 -0.6403
 8770SOL    HW237944   0.629   4.132   9.997  1.1996 -0.7578 -0.3439
 8771SOL     OW37945   2.054   1.035   6.957 -0.9145  0.0140 -0.2694
 8771SOL    HW137946   2.070   1.033   6.862  0.7379 -0.0066  0.0054
 8771SOL    HW237947   2.121   0.972   6.984 -1.3280 -0.8422 -1.2238
 8772SOL     OW37948   3.849   2.348   1.219  0.0963  0.4742 -0.2250
 8772SOL    HW137949   3.936   2.323   1.188 -0.6021 -2.7024  0.3823
 8772SOL    HW237950   3.816   2.416   1.161 -1.8086  0.3304  0.6953
 8773SOL     OW37951   2.571   3.182   3.803  0.4550 -1.0461  0.0527
 8773SOL    HW137952   2.478   3.170   3.786  0.5119 -0.8381 -0.4212
 8773SOL    HW237953   2.607   3.112   3.749  0.2538 -0.5467 -0.7328
 8774SOL     OW37954   2.705   3.075  13.062  0.0551  0.2685 -0.0457
 8774SOL    HW137955   2.648   3.005  13.095 -0.6278  1.1407  0.6040
 8774SOL    HW237956   2.634   3.132  13.032  1.1334  0.9670 -1.2480
 8775SOL     OW37957   0.360   0.298   4.263  0.1544  0.1584  0.0496
 8775SOL    HW137958   0.419   0.373   4.262 -0.1419  0.3867 -0.4910
 8775SOL    HW237959   0.310   0.315   4.343 -1.4882 -2.6003 -0.3936
 8776SOL     OW37960   0.934   3.393  14.729 -0.5100 -0.0076  0.9481
 8776SOL    HW137961   0.943   3.304  14.764 -0.5398 -0.7550 -0.9329
 8776SOL    HW237962   1.025   3.421  14.734 -0.5115  0.2524 -0.4340
 8777SOL     OW37963   2.241   1.476  15.315  0.0750 -0.5119  0.3138
 8777SOL    HW137964   2.330   1.482  15.351 -0.7059 -1.8702  2.4406
 8777SOL    HW237965   2.208   1.538  15.380 -2.0008 -0.4060 -0.8548
 8778SOL     OW37966   0.958   2.406   4.754  0.4186 -0.3000  0.6058
 8778SOL    HW137967   1.026   2.469   4.780 -0.2678  0.2517  1.0826
 8778SOL    HW237968   0.993   2.324   4.789  0.7812  0.4935  2.1085
 8779SOL     OW37969   1.351   0.757  16.966 -0.7366 -0.5636  0.5935
 8779SOL    HW137970   1.371   0.758  16.872 -0.7021 -0.4901  0.6009
 8779SOL    HW237971   1.280   0.820  16.954  1.4533  1.7069 -0.4645
 8780SOL     OW37972   3.286   2.091   3.711 -0.3276  0.1393 -0.0918
 8780SOL    HW137973   3.271   2.140   3.630  2.1288  0.3907 -0.4073
 8780SOL    HW237974   3.336   2.020   3.671  2.7229  0.2679  3.5635
 8781SOL     OW37975   1.978   2.008   1.802  0.2064 -0.1547 -0.4173
 8781SOL    HW137976   2.051   1.947   1.791 -0.5884 -1.4168  1.1801
 8781SOL    HW237977   1.928   1.962   1.870  1.8809 -2.2699 -0.6119
 8782SOL     OW37978   3.285   0.831   3.383 -0.5888  0.1775 -0.2635
 8782SOL    HW137979   3.277   0.736   3.386 -2.0083  0.2805 -0.8553
 8782SOL    HW237980   3.229   0.850   3.308  0.6407 -0.5524 -1.3427
 8783SOL     OW37981   3.620   1.126   8.109 -0.0135  0.1832  0.4276
 8783SOL    HW137982   3.603   1.102   8.018  1.5539 -0.9165  0.4084
 8783SOL    HW237983   3.633   1.220   8.106 -0.3089  0.2496  1.1529
 8784SOL     OW37984   1.922   2.516  12.436  0.1163 -0.5386 -0.0128
 8784SOL    HW137985   1.930   2.453  12.508  2.4745  2.7532  2.6294
 8784SOL    HW237986   1.990   2.573  12.471  1.4556 -1.2456 -1.4767
 8785SOL     OW37987   4.730   3.668   4.310 -0.2240  0.3740 -0.2080
 8785SOL    HW137988   4.661   3.715   4.263 -0.8025 -0.2771 -0.0054
 8785SOL    HW237989   0.054   3.650   4.239 -1.1734 -2.0121 -0.4014
 8786SOL     OW37990   4.233   1.058   6.819  0.2961 -0.5923 -0.0039
 8786SOL    HW137991   4.168   1.119   6.783 -0.4176 -1.9702 -1.0214
 8786SOL    HW237992   4.233   0.980   6.763  1.4661 -1.1305  0.7329
 8787SOL     OW37993   0.385   3.897   8.426  0.1534 -0.0195 -0.1390
 8787SOL    HW137994   0.292   3.899   8.449  0.4643  0.8158  1.0466
 8787SOL    HW237995   0.386   3.811   8.384 -0.1776  0.9279 -2.1310
 8788SOL     OW37996   4.658   0.389   5.605 -0.0221  0.9537 -0.2185
 8788SOL    HW137997   4.609   0.456   5.652 -0.4431  0.4476  0.0664
 8788SOL    HW237998   4.616   0.311   5.640  1.7220  0.9985  1.9669
 8789SOL     OW37999   1.463   3.981   5.813 -0.2197 -0.3088 -0.1761
 8789SOL    HW138000   1.425   4.001   5.727  2.2868 -0.1961 -1.2853
 8789SOL    HW238001   1.551   3.949   5.792  0.0790 -0.0935  0.7642
 8790SOL     OW38002   2.863   3.231   8.007  0.7795 -0.1976  0.5169
 8790SOL    HW138003   2.892   3.228   7.916  3.8197  0.5633  1.4629
 8790SOL    HW238004   2.773   3.253   7.984  0.8247 -0.4041  0.1532
 8791SOL     OW38005   2.781   2.856   6.032 -0.5267  0.1019 -0.1022
 8791SOL    HW138006   2.842   2.821   6.096 -2.8103 -1.7218  1.1110
 8791SOL    HW238007   2.777   2.947   6.061  0.9477 -0.0753  0.6242
 8792SOL     OW38008   0.047   3.989   6.619  0.4290 -0.0121 -0.3813
 8792SOL    HW138009   0.100   4.060   6.655  2.0024 -0.6899 -1.3866
 8792SOL    HW238010   0.104   3.912   6.620 -1.0179 -1.0826 -0.7454
 8793SOL     OW38011   3.010   4.219   4.810  0.3586  0.1617 -0.1231
 8793SOL    HW138012   2.971   4.210   4.897  3.3731 -1.3010  1.0820
 8793SOL    HW238013   3.007   4.125   4.792 -0.4061 -0.1397  1.6387
 8794SOL     OW38014   3.332   1.007   9.172 -0.0557  0.2577 -0.1591
 8794SOL    HW138015   3.387   1.075   9.131 -0.2535  1.0075  0.8140
 8794SOL    HW238016   3.251   1.009   9.122  0.6030 -2.0909 -1.3104
 8795SOL     OW38017   4.431   1.956  11.431 -0.6238 -0.1175 -0.0031
 8795SOL    HW138018   4.520   1.983  11.450 -0.0113 -1.7310 -0.5672
 8795SOL    HW238019   4.425   1.880  11.488 -2.3218  0.7476  0.9631
 8796SOL     OW38020   4.562   1.116   6.135 -0.2491  1.0745 -0.6395
 8796SOL    HW138021   4.533   1.176   6.204  0.0657  0.0892  0.3565
 8796SOL    HW238022   4.477   1.095   6.096 -0.7261 -0.6361  1.3142
 8797SOL     OW38023   2.254   3.947  15.259  0.6295  0.5289 -0.2896
 8797SOL    HW138024   2.249   4.007  15.185 -0.4364 -1.0979 -1.5446
 8797SOL    HW238025   2.209   3.996  15.328 -1.1040 -0.9755 -0.3492
 8798SOL     OW38026   2.616   0.813   3.170 -1.0706 -0.0126  0.0804
 8798SOL    HW138027   2.672   0.890   3.168  1.0805 -1.6225 -1.5128
 8798SOL    HW238028   2.670   0.763   3.231 -1.6379  1.6845  1.9526
 8799SOL     OW38029   3.890   0.679   6.803  0.0679  0.5380 -0.6331
 8799SOL    HW138030   3.914   0.727   6.882  0.4115 -0.0929 -0.3495
 8799SOL    HW238031   3.870   0.742   6.734 -2.5042 -1.2837 -1.5242
 8800SOL     OW38032   1.236   1.329   0.493 -0.5642  0.1904 -0.6448
 8800SOL    HW138033   1.261   1.261   0.431  1.3155 -1.4074  1.8635
 8800SOL    HW238034   1.284   1.406   0.464  2.4479 -0.8857  1.5570
 8801SOL     OW38035   2.206   3.271   5.135 -0.3624 -0.3609 -0.1574
 8801SOL    HW138036   2.272   3.230   5.190 -0.4157 -0.3549 -0.0882
 8801SOL    HW238037   2.127   3.280   5.190 -0.2519  2.3441 -0.4606
 8802SOL     OW38038   2.935   3.445   6.898  0.5597  0.0373 -0.0936
 8802SOL    HW138039   2.936   3.482   6.986  0.3424  0.6164 -0.3341
 8802SOL    HW238040   2.842   3.428   6.888  0.8605 -0.4386 -2.0618
 8803SOL     OW38041   3.355   2.207   7.022  0.3135  0.4249  0.4786
 8803SOL    HW138042   3.301   2.285   7.032 -0.2793 -0.3046  2.8575
 8803SOL    HW238043   3.309   2.167   6.948 -0.7617 -0.7832  1.8155
 8804SOL     OW38044   2.558   0.547   0.528  0.4487  0.2772 -0.5435
 8804SOL    HW138045   2.478   0.532   0.579 -1.0221 -0.6985 -3.1248
 8804SOL    HW238046   2.521   0.608   0.465  0.7713  1.6970  0.6507
 8805SOL     OW38047   3.029   3.993   0.482 -0.0302  0.4233  0.9647
 8805SOL    HW138048   2.962   3.940   0.524 -1.1426  0.3932 -0.8748
 8805SOL    HW238049   3.035   3.966   0.391  0.9209 -1.2063  1.5159
 8806SOL     OW38050   4.703   4.427   4.050 -0.0222 -0.4080 -0.7398
 8806SOL    HW138051   4.618   4.427   4.095  0.8264 -0.6872  0.8746
 8806SOL    HW238052   0.027   4.437   4.123 -2.5332  2.0697  1.0090
 8807SOL     OW38053   0.273   3.398   9.917 -0.1825 -0.3549 -0.0856
 8807SOL    HW138054   0.266   3.466   9.984  0.2225  2.9258 -3.3585
 8807SOL    HW238055   0.358   3.359   9.939 -0.4341 -0.4343  0.7302
 8808SOL     OW38056   2.813   1.388   0.650  0.5392 -0.0143 -0.5339
 8808SOL    HW138057   2.805   1.483   0.651  0.6171 -0.0489  2.9356
 8808SOL    HW238058   2.770   1.373   0.735 -0.5086 -1.1094 -1.2543
 8809SOL     OW38059   3.099   4.533  11.238  0.2771 -0.3884 -0.2136
 8809SOL    HW138060   3.133   4.553  11.326  1.5607  0.7616 -0.9603
 8809SOL    HW238061   3.161   4.588  11.190 -0.1964  0.7221  0.4252
 8810SOL     OW38062   1.615   2.485   6.666 -0.0427  0.1054  0.7422
 8810SOL    HW138063   1.597   2.565   6.715 -0.5586  0.6010 -0.2445
 8810SOL    HW238064   1.597   2.415   6.728 -0.9298  0.4792  0.9019
 8811SOL     OW38065   3.991   4.316   5.643 -0.3021 -0.3046 -0.4067
 8811SOL    HW138066   3.958   4.394   5.687 -2.2470 -0.8339 -0.9428
 8811SOL    HW238067   3.912   4.265   5.626 -2.5329  2.5851  1.2617
 8812SOL     OW38068   0.079   1.825   0.659 -0.6955 -0.9142 -0.0576
 8812SOL    HW138069   0.014   1.864   0.717  0.6262  0.0981  0.7433
 8812SOL    HW238070   0.126   1.768   0.720 -1.7248 -0.3457  1.2486
 8813SOL     OW38071   0.549   1.111   5.635  0.1367  0.4970  0.3560
 8813SOL    HW138072   0.515   1.191   5.676  1.0769  1.0231  0.1241
 8813SOL    HW238073   0.576   1.149   5.551 -2.5952  1.1113 -0.2598
 8814SOL     OW38074   3.761   4.024   3.985  0.0242 -0.0926  0.2961
 8814SOL    HW138075   3.807   4.088   3.931  0.7688  0.1791  1.2580
 8814SOL    HW238076   3.672   4.060   3.974  0.3062  0.4690 -0.1659
 8815SOL     OW38077   1.784   0.874   2.179  0.1583 -0.1124  0.7757
 8815SOL    HW138078   1.690   0.882   2.163 -0.0910 -0.5286  2.0307
 8815SOL    HW238079   1.807   0.795   2.131  0.0133  0.0880  0.3730
 8816SOL     OW38080   0.546   2.839   4.205 -0.0595  0.4450 -0.7508
 8816SOL    HW138081   0.575   2.930   4.207  1.6100 -0.1199  0.9069
 8816SOL    HW238082   0.629   2.797   4.228 -0.7681 -0.8630 -0.6045
 8817SOL     OW38083   4.220   3.940   6.740  0.0463  0.2297  0.2265
 8817SOL    HW138084   4.149   3.906   6.686  1.9345 -2.0659 -0.8355
 8817SOL    HW238085   4.181   4.001   6.802  1.8739  1.2460  0.3892
 8818SOL     OW38086   1.644   0.151   4.470  0.2742 -0.1590 -0.0868
 8818SOL    HW138087   1.643   0.091   4.396 -2.4032 -1.7702  1.2523
 8818SOL    HW238088   1.733   0.186   4.473  0.0324  0.4773 -0.2651
 8819SOL     OW38089   3.394   1.270   5.951  0.0177 -0.2770 -0.0040
 8819SOL    HW138090   3.363   1.325   5.878 -1.5378 -2.1745 -0.7543
 8819SOL    HW238091   3.452   1.327   6.002 -0.6577 -1.9821  2.5967
 8820SOL     OW38092   1.864   0.643   5.155  0.4288 -0.4985  0.7367
 8820SOL    HW138093   1.857   0.722   5.208 -1.6729 -0.6887  0.7473
 8820SOL    HW238094   1.824   0.666   5.072 -0.6641 -1.6678  0.9347
 8821SOL     OW38095   3.518   1.676   5.282 -1.2422 -0.4107  1.0228
 8821SOL    HW138096   3.528   1.771   5.285  0.2324 -0.5354  0.0570
 8821SOL    HW238097   3.423   1.670   5.277 -1.2325 -0.0636  0.4179
 8822SOL     OW38098   0.160   3.257  10.652 -0.1709 -0.1645  0.1442
 8822SOL    HW138099   0.102   3.181  10.649 -1.8969  1.1154  0.8483
 8822SOL    HW238100   0.242   3.209  10.660 -0.7913 -0.6511  3.4671
 8823SOL     OW38101   0.013   1.302   6.436  0.4259 -0.0350  0.5000
 8823SOL    HW138102   4.707   1.217   6.449 -1.5176  0.6988 -1.1367
 8823SOL    HW238103   0.028   1.332   6.525 -0.3344 -0.9891  0.9402
 8824SOL     OW38104   0.349   4.568  15.691 -0.3417  0.1924  0.1916
 8824SOL    HW138105   0.419   4.631  15.709  0.3249 -0.1577 -1.1914
 8824SOL    HW238106   0.360   4.555  15.597  1.3296  1.5676  0.1884
 8825SOL     OW38107   1.509   0.344  12.322 -0.1737  0.5928 -0.1176
 8825SOL    HW138108   1.544   0.315  12.238  0.5133 -0.2661  0.4641
 8825SOL    HW238109   1.536   0.274  12.382 -1.8170  1.0256  1.1555
 8826SOL     OW38110   3.881   2.704  14.414  0.3100  0.2045 -0.3147
 8826SOL    HW138111   3.831   2.742  14.486  3.2929 -1.0811  2.3989
 8826SOL    HW238112   3.912   2.777  14.360 -0.7265  0.5152 -0.5037
 8827SOL     OW38113   4.598   4.268  15.740  0.0889 -0.6794  0.0754
 8827SOL    HW138114   4.599   4.363  15.749 -0.9169 -0.3778 -3.1963
 8827SOL    HW238115   4.540   4.245  15.813 -0.4260 -3.0432 -1.0554
 8828SOL     OW38116   2.654   2.449   8.908 -0.1172  0.1774  0.2442
 8828SOL    HW138117   2.722   2.505   8.945 -0.4752  0.3912  0.5784
 8828SOL    HW238118   2.577   2.503   8.926 -0.2372 -0.4511  1.6145
 8829SOL     OW38119   0.841   3.229   8.959  0.1069  0.3901 -0.0887
 8829SOL    HW138120   0.806   3.141   8.971 -0.5184  0.5886 -0.4509
 8829SOL    HW238121   0.924   3.205   8.918 -0.9924 -1.6001 -1.1481
 8830SOL     OW38122   3.169   3.078  15.581 -0.0410  0.9467  0.1152
 8830SOL    HW138123   3.083   3.091  15.541  0.0185  1.8914  0.2825
 8830SOL    HW238124   3.222   3.152  15.550 -0.2406  1.3507  0.7382
 8831SOL     OW38125   4.471   1.563   6.167  0.0638 -0.7987 -0.1818
 8831SOL    HW138126   4.505   1.529   6.250  0.8862 -0.4085 -0.3585
 8831SOL    HW238127   4.466   1.656   6.192  3.2474 -1.3271  2.4809
 8832SOL     OW38128   3.593   1.070   4.739  0.0530 -0.4350 -0.8538
 8832SOL    HW138129   3.581   1.075   4.834  2.5373  0.3688 -0.5984
 8832SOL    HW238130   3.621   1.157   4.713  0.2916 -0.8615 -2.0106
 8833SOL     OW38131   4.478   0.652   9.615  0.0158  0.0329  0.4662
 8833SOL    HW138132   4.448   0.673   9.527 -0.9570 -1.3874  0.4805
 8833SOL    HW238133   4.568   0.633   9.588 -0.1257  0.7341 -0.4918
 8834SOL     OW38134   1.607   1.987  13.151 -0.1769  0.1602  0.4772
 8834SOL    HW138135   1.641   1.932  13.222 -1.7744  1.8828  2.6022
 8834SOL    HW238136   1.519   1.992  13.188 -0.2110 -1.0050  0.5786
 8835SOL     OW38137   3.943   1.291   4.733 -0.0404 -1.0325 -0.7743
 8835SOL    HW138138   3.917   1.248   4.814  1.6503 -1.5496 -0.5191
 8835SOL    HW238139   4.014   1.351   4.757  0.5189 -1.5250 -1.1858
 8836SOL     OW38140   4.234   4.183  15.784  0.4009 -0.6791  0.2303
 8836SOL    HW138141   4.250   4.180  15.689  2.5717 -0.0282  0.5731
 8836SOL    HW238142   4.321   4.204  15.818  0.6259  0.4642 -1.0682
 8837SOL     OW38143   0.601   3.935   7.518  0.3132 -0.2041 -0.6137
 8837SOL    HW138144   0.514   3.965   7.490  0.3731  1.3508  0.8640
 8837SOL    HW238145   0.652   3.947   7.439 -1.9397  0.6232 -1.9556
 8838SOL     OW38146   1.195   1.220   6.297  0.0153  0.3057 -0.0285
 8838SOL    HW138147   1.245   1.257   6.370  0.7582  0.3562 -0.5642
 8838SOL    HW238148   1.199   1.126   6.310  0.1319  0.2545 -0.4266
 8839SOL     OW38149   3.623   2.548   6.995  0.0286 -0.2777 -0.0363
 8839SOL    HW138150   3.663   2.632   7.014  0.2428 -0.7950  1.7771
 8839SOL    HW238151   3.532   2.576   6.992  0.0719 -0.1169  0.1794
 8840SOL     OW38152   1.732   0.915   2.476  0.2439  0.0014 -0.3520
 8840SOL    HW138153   1.795   0.922   2.404  0.6500 -1.4597 -0.1341
 8840SOL    HW238154   1.791   0.902   2.550 -3.2478 -1.0845  2.2402
 8841SOL     OW38155   0.523   1.541   8.075 -0.3794  0.1973  0.5987
 8841SOL    HW138156   0.597   1.497   8.118  0.9293  0.9359 -0.9422
 8841SOL    HW238157   0.541   1.632   8.098  0.0550 -0.1100  1.5028
 8842SOL     OW38158   0.479   2.526  15.753 -1.0276  0.0208 -0.0733
 8842SOL    HW138159   0.523   2.594  15.702 -0.3818  0.2338  0.7774
 8842SOL    HW238160   0.516   2.544  15.839  0.5414 -0.9403 -0.5263
 8843SOL     OW38161   1.050   2.365   8.988 -0.2387 -0.0473  0.1122
 8843SOL    HW138162   0.994   2.341   9.061  1.0996 -2.0077  0.4706
 8843SOL    HW238163   1.138   2.338   9.013 -1.7611 -2.0894  3.2072
 8844SOL     OW38164   1.370   3.725   5.968  0.1324  0.1138  0.4589
 8844SOL    HW138165   1.387   3.771   5.886 -0.2391 -0.0323  0.3045
 8844SOL    HW238166   1.275   3.732   5.959 -0.0798 -2.5201  0.6583
 8845SOL     OW38167   4.701   4.717   9.705 -0.1778 -0.2190  0.7626
 8845SOL    HW138168   4.663   4.658   9.770  1.0561 -0.0643  1.6412
 8845SOL    HW238169   4.670   0.065   9.736 -1.9554 -0.3465 -0.7322
 8846SOL     OW38170   2.611   3.322   2.765 -0.5670 -0.2389  0.7382
 8846SOL    HW138171   2.651   3.257   2.707 -1.4520 -1.5007  1.5553
 8846SOL    HW238172   2.679   3.388   2.753 -0.0684 -1.1664 -1.5756
 8847SOL     OW38173   4.105   3.327   6.228 -0.3093  0.5108  0.7264
 8847SOL    HW138174   4.083   3.368   6.145  1.0814  0.6374  0.4098
 8847SOL    HW238175   4.074   3.237   6.217 -0.6789  0.5900  1.1332
 8848SOL     OW38176   1.839   2.788   6.958  0.5664  0.4073 -0.7466
 8848SOL    HW138177   1.764   2.748   7.001  0.4813  3.0312  1.5850
 8848SOL    HW238178   1.862   2.848   7.029 -1.1678  0.7319 -0.4532
 8849SOL     OW38179   3.828   4.631   6.538 -0.8217  0.5246  0.4770
 8849SOL    HW138180   3.810   4.657   6.448 -1.8488  3.1144  1.4611
 8849SOL    HW238181   3.836   4.715   6.581  0.2585  1.1816 -1.0140
 8850SOL     OW38182   4.215   3.473   8.498  0.5718  0.0071 -0.4553
 8850SOL    HW138183   4.270   3.521   8.436  0.6553  1.5759  0.8442
 8850SOL    HW238184   4.215   3.389   8.452 -1.1924 -0.4292  0.3394
 8851SOL     OW38185   1.438   2.376   8.469 -0.0947 -0.2092  0.2979
 8851SOL    HW138186   1.346   2.385   8.443 -0.2362 -0.5495  0.6724
 8851SOL    HW238187   1.467   2.467   8.467  0.9642 -0.5672 -0.6860
 8852SOL     OW38188   4.374   0.833   9.434  0.3012 -0.1072  0.2130
 8852SOL    HW138189   4.327   0.836   9.350  3.3096 -1.5467 -1.5152
 8852SOL    HW238190   4.382   0.928   9.444  2.6081 -0.1187 -1.4465
 8853SOL     OW38191   3.399   3.247  14.284 -0.0089  0.5813  0.2246
 8853SOL    HW138192   3.469   3.279  14.227 -0.3155  2.0082  0.6616
 8853SOL    HW238193   3.351   3.187  14.226  2.1450 -1.7546  0.8435
 8854SOL     OW38194   2.603   1.886   1.756  0.4899  0.8035  0.3998
 8854SOL    HW138195   2.637   1.974   1.775  1.5413  0.1440  1.5344
 8854SOL    HW238196   2.682   1.837   1.776  1.1653  1.7536  0.0892
 8855SOL     OW38197   1.827   2.740   7.299 -0.1591  0.5763 -0.0371
 8855SOL    HW138198   1.819   2.794   7.377  0.5462  0.2743  0.2449
 8855SOL    HW238199   1.783   2.657   7.320 -0.7124  0.7159 -0.6634
 8856SOL     OW38200   3.437   1.418   8.067  0.3509 -0.3418  0.1518
 8856SOL    HW138201   3.435   1.486   7.999  1.5969 -1.7418 -1.2806
 8856SOL    HW238202   3.488   1.467   8.131  1.0261  0.0208 -0.6570
 8857SOL     OW38203   4.399   1.927   1.566  0.1718 -0.1359 -0.0628
 8857SOL    HW138204   4.469   1.973   1.612  0.4083  0.7904 -1.3431
 8857SOL    HW238205   4.387   1.972   1.482 -1.1893 -0.5870 -0.1035
 8858SOL     OW38206   3.019   0.412   1.405 -0.3992  0.0381  0.8168
 8858SOL    HW138207   3.080   0.338   1.395 -2.2865 -1.0970 -2.2125
 8858SOL    HW238208   3.043   0.445   1.492 -0.2203  0.4761  0.6029
 8859SOL     OW38209   0.326   4.688   9.626  0.5443  0.2638  0.2604
 8859SOL    HW138210   0.263   4.616   9.622  1.8448 -0.8106 -1.0082
 8859SOL    HW238211   0.401   4.633   9.602 -0.0585  1.4156 -4.1953
 8860SOL     OW38212   0.923   0.829   6.534  0.0567 -0.1287 -0.0808
 8860SOL    HW138213   0.933   0.824   6.439 -2.2303 -0.7996 -0.2896
 8860SOL    HW238214   0.882   0.743   6.546  0.5760 -0.0475  2.2347
 8861SOL     OW38215   4.249   3.605   1.245 -0.1393 -0.1836 -0.0672
 8861SOL    HW138216   4.269   3.639   1.158 -3.2508 -0.8133 -1.0409
 8861SOL    HW238217   4.156   3.585   1.235 -0.1264 -1.0886  1.7268
 8862SOL     OW38218   3.443   4.502   4.761  0.0472  0.0405  0.1262
 8862SOL    HW138219   3.433   4.594   4.784 -2.9947 -0.5545  1.2302
 8862SOL    HW238220   3.523   4.466   4.800 -0.0298  1.2380  1.3766
 8863SOL     OW38221   0.432   1.223   3.793  0.8466  0.2228  0.2024
 8863SOL    HW138222   0.493   1.198   3.863  2.4125  0.9724 -0.8815
 8863SOL    HW238223   0.346   1.219   3.835  0.5108  0.1713 -0.4917
 8864SOL     OW38224   1.072   2.570   9.804 -0.0720 -0.3285  0.1055
 8864SOL    HW138225   0.988   2.564   9.851 -1.1521  1.0329 -1.6410
 8864SOL    HW238226   1.126   2.545   9.879  0.5991 -1.8969 -0.9269
 8865SOL     OW38227   3.910   0.430   8.913 -0.2834 -0.1017 -0.5243
 8865SOL    HW138228   3.935   0.345   8.951 -3.1918 -0.3748  0.8165
 8865SOL    HW238229   3.860   0.408   8.834  2.0659  1.0129 -2.3072
 8866SOL     OW38230   2.747   1.545  11.115 -0.4216  0.2653  0.4701
 8866SOL    HW138231   2.817   1.480  11.124 -0.5265  0.1235  0.2560
 8866SOL    HW238232   2.668   1.495  11.129  0.2666 -0.5008  1.5946
 8867SOL     OW38233   1.465   4.252   8.660 -0.0899 -0.4950 -0.5742
 8867SOL    HW138234   1.551   4.212   8.645 -0.4004 -0.9278 -1.2066
 8867SOL    HW238235   1.495   4.339   8.687 -0.7096 -1.1533  2.2115
 8868SOL     OW38236   3.531   3.862   3.744  0.5227  0.5371 -0.0268
 8868SOL    HW138237   3.443   3.849   3.779  0.2369 -0.2397 -1.0182
 8868SOL    HW238238   3.552   3.953   3.766  1.1494  0.2013  0.7181
 8869SOL     OW38239   2.167   4.487   7.161 -0.4986 -0.0880  0.0357
 8869SOL    HW138240   2.147   4.473   7.069 -0.0737  0.5906 -0.1596
 8869SOL    HW238241   2.172   4.396   7.190 -0.8385  0.7357  2.7127
 8870SOL     OW38242   1.652   2.904   4.881 -0.3571  0.0652 -0.5844
 8870SOL    HW138243   1.582   2.840   4.896 -1.5307  1.6247  0.4892
 8870SOL    HW238244   1.637   2.918   4.787 -1.6808 -3.3299 -0.8754
 8871SOL     OW38245   0.025   2.173   1.362 -0.0031  0.2418 -0.2722
 8871SOL    HW138246   0.057   2.095   1.316  1.5482  1.1437 -0.7137
 8871SOL    HW238247   0.079   2.165   1.441  1.5567  1.5965 -1.2073
 8872SOL     OW38248   3.337   3.723   1.568  0.0318  0.3034  0.1428
 8872SOL    HW138249   3.404   3.789   1.583  1.8417 -1.1439 -1.6040
 8872SOL    HW238250   3.368   3.651   1.623 -1.2479  0.3479  0.9294
 8873SOL     OW38251   0.299   0.180   9.788 -0.3085  0.2544  0.2224
 8873SOL    HW138252   0.318   0.103   9.734 -2.4131  1.1461 -1.7819
 8873SOL    HW238253   0.353   0.153   9.863 -1.4347  0.0640  0.9692
 8874SOL     OW38254   0.988   4.224   5.664 -0.0863 -0.2222 -0.3995
 8874SOL    HW138255   0.982   4.178   5.747  0.4667  3.7387  1.8148
 8874SOL    HW238256   0.931   4.297   5.685  3.1791  2.4099 -0.5796
 8875SOL     OW38257   1.093   4.472   5.494 -0.0507  0.1825 -0.4717
 8875SOL    HW138258   1.065   4.563   5.492 -1.8548 -0.3919 -1.4139
 8875SOL    HW238259   1.019   4.430   5.538  0.7271 -1.7818 -1.0603
 8876SOL     OW38260   3.228   3.899  15.307  0.4422 -0.3590 -0.4900
 8876SOL    HW138261   3.175   3.841  15.253  3.5011 -2.8432 -0.7996
 8876SOL    HW238262   3.161   3.954  15.349  0.2201 -0.4393 -0.7386
 8877SOL     OW38263   0.063   1.082   0.455 -0.2917  0.3192  0.4870
 8877SOL    HW138264   0.141   1.057   0.504 -0.4322  0.4707  0.7838
 8877SOL    HW238265   0.027   1.005   0.409  0.2256  1.2949 -1.5562
 8878SOL     OW38266   1.409   0.846  11.896 -0.3595 -0.5022  0.1304
 8878SOL    HW138267   1.429   0.933  11.862 -0.3449  0.4683  2.6062
 8878SOL    HW238268   1.468   0.793  11.844  0.2004  0.0050  0.2475
 8879SOL     OW38269   0.266   4.586   6.327  0.1166  0.5461  0.0431
 8879SOL    HW138270   0.200   4.558   6.264 -0.2170  2.1972 -0.3545
 8879SOL    HW238271   0.320   4.645   6.274 -2.3283  1.8751 -0.9511
 8880SOL     OW38272   4.573   4.613   2.584  0.7543 -0.4690 -0.1141
 8880SOL    HW138273   4.546   4.698   2.617 -1.8219 -0.9332 -1.0715
 8880SOL    HW238274   4.532   4.554   2.648 -0.6018  0.0825 -0.4772
 8881SOL     OW38275   3.711   4.579   4.596 -0.2949 -0.3677  0.1425
 8881SOL    HW138276   3.682   4.664   4.629 -1.4904 -0.0734 -1.6311
 8881SOL    HW238277   3.641   4.562   4.533 -0.8580 -1.2337  1.0079
 8882SOL     OW38278   1.721   2.859  17.037 -0.0142  0.0258 -0.1673
 8882SOL    HW138279   1.792   2.829  17.094 -0.9468 -0.9460  0.4939
 8882SOL    HW238280   1.765   2.938  17.007 -1.2115  0.3669 -1.0150
 8883SOL     OW38281   3.933   4.586   9.049 -0.5035 -0.0187 -0.0015
 8883SOL    HW138282   3.888   4.606   8.967 -2.0308  0.1997  0.8949
 8883SOL    HW238283   3.859   4.550   9.097 -3.6592  1.0982 -3.9207
 8884SOL     OW38284   4.309   3.704   8.289  0.5030 -0.5483  0.2880
 8884SOL    HW138285   4.237   3.702   8.226 -1.5383  1.6349  2.5517
 8884SOL    HW238286   4.380   3.754   8.250 -0.6065 -0.6651 -1.8835
 8885SOL     OW38287   2.527   4.449   6.286  0.5111  0.6460 -0.2642
 8885SOL    HW138288   2.482   4.368   6.308  2.1974 -0.5273 -1.1450
 8885SOL    HW238289   2.453   4.502   6.256 -0.0082 -1.3866 -2.5642
 8886SOL     OW38290   0.690   2.026  15.870 -0.4433  0.2707 -0.1505
 8886SOL    HW138291   0.627   2.084  15.827  1.3246  1.3015 -1.3577
 8886SOL    HW238292   0.734   1.983  15.796 -0.6232 -1.1042  0.5339
 8887SOL     OW38293   3.745   3.947  12.136 -0.2221  0.0780  0.0796
 8887SOL    HW138294   3.756   4.037  12.105 -0.0712  0.3985  1.0506
 8887SOL    HW238295   3.828   3.938  12.182 -0.6662 -1.0114  0.6733
 8888SOL     OW38296   2.109   0.597  16.113 -0.0754 -0.3740 -0.1159
 8888SOL    HW138297   2.093   0.528  16.177  0.1730 -1.2976 -1.0709
 8888SOL    HW238298   2.114   0.547  16.032  1.9848 -2.6616  1.4301
 8889SOL     OW38299   4.583   2.343   7.901  0.5749  0.3849 -0.5474
 8889SOL    HW138300   4.565   2.275   7.966 -0.1127  1.1903  0.0935
 8889SOL    HW238301   4.533   2.419   7.930 -0.1114 -0.6010  0.8488
 8890SOL     OW38302   3.895   3.674   2.376  0.0016 -0.3047  0.0495
 8890SOL    HW138303   3.904   3.598   2.434  1.6148  1.0309  1.5450
 8890SOL    HW238304   3.928   3.627   2.299  2.8818  2.7411 -0.5597
 8891SOL     OW38305   2.008   2.671   2.964 -0.1793 -0.2229 -0.3003
 8891SOL    HW138306   1.921   2.711   2.967 -0.7998 -1.5816 -0.2754
 8891SOL    HW238307   2.032   2.679   2.871  2.3922  4.5858  0.7699
 8892SOL     OW38308   1.984   2.190  15.407  0.4688  0.9254  0.0046
 8892SOL    HW138309   2.059   2.180  15.348  0.1529  0.4712 -0.3149
 8892SOL    HW238310   1.989   2.116  15.468 -1.9239 -0.1365 -1.1169
 8893SOL     OW38311   2.190   0.345  14.754  0.7708  0.0726 -0.0444
 8893SOL    HW138312   2.155   0.417  14.702  0.9496  1.5997  1.9335
 8893SOL    HW238313   2.121   0.350  14.820  0.4172  3.6475 -0.7187
 8894SOL     OW38314   2.137   1.984   4.396 -0.5351  0.2087  0.2671
 8894SOL    HW138315   2.126   2.063   4.448  0.5502 -0.3783  1.3905
 8894SOL    HW238316   2.149   1.916   4.462  0.2188  0.0731 -0.0110
 8895SOL     OW38317   2.455   1.044   1.415 -0.1907 -0.4487 -0.2404
 8895SOL    HW138318   2.545   1.033   1.444 -0.4652 -3.0424 -0.3654
 8895SOL    HW238319   2.419   1.096   1.486  1.6806 -1.8576  1.7127
 8896SOL     OW38320   4.218   2.037   9.473  1.1952  0.2596 -0.3671
 8896SOL    HW138321   4.253   1.950   9.495  1.1719  0.0525 -1.1457
 8896SOL    HW238322   4.290   2.092   9.502  3.0602 -1.7592 -1.1470
 8897SOL     OW38323   2.288   1.193   4.554 -0.8459  0.2432 -0.8546
 8897SOL    HW138324   2.318   1.259   4.492  0.5538  0.4882  0.0743
 8897SOL    HW238325   2.311   1.116   4.502 -0.8821  0.4270 -1.1413
 8898SOL     OW38326   2.822   4.562   3.491  0.1154 -0.1644  0.2299
 8898SOL    HW138327   2.873   4.578   3.411  0.0355  1.5960  0.5209
 8898SOL    HW238328   2.895   4.566   3.553 -1.1304  0.5877  1.6569
 8899SOL     OW38329   0.490   4.041   6.591 -0.1912 -0.1505  0.0422
 8899SOL    HW138330   0.509   4.085   6.508  1.6128  0.1977  0.6464
 8899SOL    HW238331   0.494   3.948   6.570  0.6780 -0.3374  1.0919
 8900SOL     OW38332   0.572   2.585  14.665 -0.1275 -0.4247 -0.5556
 8900SOL    HW138333   0.638   2.653  14.649  0.3227 -0.5344  0.8403
 8900SOL    HW238334   0.519   2.630  14.732  2.4134  1.2381  0.3470
 8901SOL     OW38335   3.399   2.413   6.571 -0.4182 -0.6300  0.4630
 8901SOL    HW138336   3.486   2.430   6.608  0.2854 -1.7549 -0.6814
 8901SOL    HW238337   3.364   2.502   6.581  0.9014 -0.0545 -0.0723
 8902SOL     OW38338   2.493   0.619  10.073  0.8411  0.0405 -0.2626
 8902SOL    HW138339   2.498   0.524  10.065  2.2844  0.1313 -0.4340
 8902SOL    HW238340   2.434   0.626  10.149  0.7965  2.0946 -0.4892
 8903SOL     OW38341   0.722   4.554  12.752  0.5425 -0.0334  0.1288
 8903SOL    HW138342   0.727   4.636  12.702  0.5348 -0.3171 -0.3308
 8903SOL    HW238343   0.703   4.484  12.689  1.2892 -0.3445  0.2533
 8904SOL     OW38344   0.706   4.156   8.721 -0.0994 -0.6061  0.2500
 8904SOL    HW138345   0.679   4.065   8.707 -1.1909 -0.5017  1.7308
 8904SOL    HW238346   0.790   4.163   8.767  1.0225 -0.4152 -1.7967
 8905SOL     OW38347   2.746   3.098   5.451  0.3798 -0.2737  0.2821
 8905SOL    HW138348   2.694   3.177   5.435 -1.3482 -1.6957 -1.2141
 8905SOL    HW238349   2.809   3.126   5.517  2.9926 -0.2512 -2.2368
 8906SOL     OW38350   3.221   3.311  13.027 -0.0601  0.0414 -0.4859
 8906SOL    HW138351   3.139   3.282  13.067 -0.2291 -0.9738 -1.5891
 8906SOL    HW238352   3.196   3.329  12.937  0.1176 -0.1507 -0.5741
 8907SOL     OW38353   0.619   4.003   9.647 -0.6841 -0.4493 -0.3333
 8907SOL    HW138354   0.625   4.055   9.727  1.1668 -0.6612 -0.3171
 8907SOL    HW238355   0.570   4.065   9.593 -0.4793  0.1440  0.1620
 8908SOL     OW38356   0.510   0.860   5.577  0.3556  0.3548 -0.1599
 8908SOL    HW138357   0.532   0.953   5.583 -0.8459  0.6260  0.1773
 8908SOL    HW238358   0.597   0.820   5.574  0.2855  0.1515  0.4003
 8909SOL     OW38359   1.413   0.085   7.816  0.2282 -0.2279 -0.3529
 8909SOL    HW138360   1.423   0.133   7.898  1.4134  3.3552 -2.5957
 8909SOL    HW238361   1.486   0.027   7.839 -1.9025 -2.4249  0.9279
 8910SOL     OW38362   2.530   1.244   8.534 -0.3550 -0.2132 -0.3220
 8910SOL    HW138363   2.589   1.275   8.465 -1.6266  1.9866 -0.4158
 8910SOL    HW238364   2.562   1.154   8.533  1.5901  0.4957 -2.0022
 8911SOL     OW38365   3.659   0.644   7.299 -0.7825 -0.2870  0.1533
 8911SOL    HW138366   3.641   0.735   7.275  1.3732 -0.1535 -1.0232
 8911SOL    HW238367   3.695   0.609   7.217 -1.2951  0.4118 -0.3696
 8912SOL     OW38368   0.149   0.807   5.213  0.6787  0.2435  0.0796
 8912SOL    HW138369   0.161   0.901   5.201 -0.6328  0.5071  0.7965
 8912SOL    HW238370   0.169   0.790   5.305  2.8108  0.1658 -0.3979
 8913SOL     OW38371   3.062   0.578  10.233 -0.3619  0.0652  0.2358
 8913SOL    HW138372   3.016   0.623  10.163 -0.4755  0.7782  0.7621
 8913SOL    HW238373   3.045   0.486  10.212 -0.1002  0.5036 -1.8841
 8914SOL     OW38374   3.978   4.395  10.374  0.2253 -0.3174 -0.1160
 8914SOL    HW138375   3.963   4.466  10.437 -0.9092 -2.2227  1.7432
 8914SOL    HW238376   4.003   4.446  10.296 -0.4053 -0.5236 -0.4487
 8915SOL     OW38377   1.353   0.354   7.979  0.1409  0.0659  0.2094
 8915SOL    HW138378   1.348   0.406   7.900  3.2631 -0.4474 -0.3221
 8915SOL    HW238379   1.445   0.329   7.990 -0.0932 -0.7930  0.2278
 8916SOL     OW38380   1.997   1.955   5.043  0.2687 -0.2910  0.6302
 8916SOL    HW138381   1.996   1.903   5.123  2.1870 -1.8052 -0.3279
 8916SOL    HW238382   2.031   1.898   4.974 -1.7071  0.6052 -1.0934
 8917SOL     OW38383   1.196   4.470   2.814 -0.9948 -0.4736  0.2195
 8917SOL    HW138384   1.148   4.505   2.739 -0.9162  1.7694  1.2098
 8917SOL    HW238385   1.236   4.400   2.763  1.8328  1.6355 -0.4842
 8918SOL     OW38386   2.941   2.962  15.916  0.0404  0.3726 -0.0643
 8918SOL    HW138387   2.977   2.917  15.839 -1.5378  0.6197 -0.9546
 8918SOL    HW238388   2.846   2.953  15.907  0.0195  0.0646  0.5003
 8919SOL     OW38389   0.713   1.924  12.130 -0.3730 -0.1135 -0.1897
 8919SOL    HW138390   0.641   1.984  12.148  1.7551  2.1525  0.9304
 8919SOL    HW238391   0.689   1.907  12.039  0.5134 -2.6167  0.0482
 8920SOL     OW38392   4.636   3.906  15.766  0.2559 -0.8756 -0.5920
 8920SOL    HW138393   4.718   3.948  15.793 -0.3529  0.2699 -0.5175
 8920SOL    HW238394   4.593   3.973  15.713 -0.4044  2.2101  3.8489
 8921SOL     OW38395   2.080   3.208   6.276  0.3401 -0.3030  0.1509
 8921SOL    HW138396   2.131   3.128   6.288 -0.4738 -0.6116  1.5500
 8921SOL    HW238397   2.042   3.189   6.190 -0.4329 -1.8885  0.8404
 8922SOL     OW38398   1.464   0.712   1.637  0.1055 -0.1927 -0.5867
 8922SOL    HW138399   1.543   0.666   1.608 -0.8347 -1.6683 -0.7532
 8922SOL    HW238400   1.393   0.649   1.631 -0.7984  0.9998 -2.4768
 8923SOL     OW38401   4.453   0.944   7.592 -0.0410  0.4333  0.0213
 8923SOL    HW138402   4.470   0.966   7.501 -0.4156 -0.4749 -0.2750
 8923SOL    HW238403   4.441   0.849   7.587  0.0428  0.3804  0.8029
 8924SOL     OW38404   1.840   3.350   5.935  0.3386 -0.0083 -0.2583
 8924SOL    HW138405   1.876   3.378   5.851  1.7771  1.0193  0.6999
 8924SOL    HW238406   1.903   3.386   5.997  0.6216 -1.2212  0.1633
 8925SOL     OW38407   0.638   1.806   6.907  0.4053  0.1480  0.6027
 8925SOL    HW138408   0.631   1.879   6.967  0.6869  0.6260  0.0584
 8925SOL    HW238409   0.730   1.805   6.881  0.7412 -0.0440  1.7888
 8926SOL     OW38410   2.783   3.989  13.589 -0.2838 -0.2256 -0.5202
 8926SOL    HW138411   2.707   3.984  13.646  0.0874  3.3376  0.2985
 8926SOL    HW238412   2.769   4.074  13.545 -2.8999 -0.5071 -0.2085
 8927SOL     OW38413   1.654   4.391   4.068  0.4271 -0.0430  0.0649
 8927SOL    HW138414   1.587   4.324   4.056  1.0285 -0.7347  0.5698
 8927SOL    HW238415   1.731   4.347   4.031 -0.0840  0.8572 -2.0749
 8928SOL     OW38416   2.358   4.541   3.114 -0.1422 -0.3899  0.0575
 8928SOL    HW138417   2.401   4.626   3.122 -0.6424 -0.2943  1.7162
 8928SOL    HW238418   2.263   4.554   3.118 -0.0956 -0.3532  1.0536
 8929SOL     OW38419   2.156   0.080   2.862 -0.1937 -0.6020 -0.4226
 8929SOL    HW138420   2.175   0.118   2.948  0.4042  0.1864 -0.8964
 8929SOL    HW238421   2.068   0.116   2.854  0.7016  1.3387 -1.5777
 8930SOL     OW38422   0.603   2.752  15.124  0.1387  0.8336 -0.5597
 8930SOL    HW138423   0.588   2.810  15.049 -0.4188  2.1553  0.5765
 8930SOL    HW238424   0.516   2.760  15.165 -0.1789  1.7373 -1.3929
 8931SOL     OW38425   3.356   2.634  10.983 -0.2465 -0.2564  0.3021
 8931SOL    HW138426   3.323   2.545  10.997 -0.6116 -0.5135 -2.2126
 8931SOL    HW238427   3.378   2.666  11.071 -0.5226 -2.9388  1.3521
 8932SOL     OW38428   0.549   3.025  14.146 -0.1221  0.3692 -0.2522
 8932SOL    HW138429   0.632   3.067  14.168 -1.5316  1.3399  3.2186
 8932SOL    HW238430   0.484   3.096  14.152 -1.2936 -0.5529 -2.0257
 8933SOL     OW38431   1.639   1.960   7.164 -0.4567 -0.7273  0.1478
 8933SOL    HW138432   1.721   1.924   7.198 -0.8511 -0.9871  0.8129
 8933SOL    HW238433   1.586   1.882   7.152 -2.4540  0.8453 -1.2488
 8934SOL     OW38434   1.952   2.295   0.805 -0.3670  0.0826  0.2343
 8934SOL    HW138435   1.891   2.364   0.829 -0.5173 -0.1945  0.6627
 8934SOL    HW238436   2.037   2.338   0.801 -1.1203  1.2690 -2.5754
 8935SOL     OW38437   0.007   3.447  17.076  0.4862  0.5333 -0.2924
 8935SOL    HW138438   4.695   3.502  17.016 -0.3753 -0.4380 -0.4819
 8935SOL    HW238439   0.026   3.521  17.133  2.3848  0.4965 -0.8803
 8936SOL     OW38440   2.128   2.689   0.200  0.4135 -0.0979 -0.0005
 8936SOL    HW138441   2.102   2.779   0.183 -0.7676 -0.2558  1.0697
 8936SOL    HW238442   2.222   2.708   0.191  0.5099 -0.5046  0.1107
 8937SOL     OW38443   3.949   2.085   9.563 -0.1374 -0.4542  0.0198
 8937SOL    HW138444   3.951   2.171   9.520  2.3253 -0.2148  0.5886
 8937SOL    HW238445   4.041   2.063   9.548  0.0288 -0.4084  0.9994
 8938SOL     OW38446   3.647   3.812   1.058 -0.0749 -0.0690  0.1914
 8938SOL    HW138447   3.656   3.877   0.989  0.3878  1.4238  1.6495
 8938SOL    HW238448   3.628   3.729   1.014 -2.9576  0.0385  1.2215
 8939SOL     OW38449   2.126   2.659   5.072  0.0767 -0.1477  0.7386
 8939SOL    HW138450   2.128   2.734   5.132 -2.5268 -1.2244  2.1661
 8939SOL    HW238451   2.081   2.691   4.995  0.3966 -0.4242  0.4362
 8940SOL     OW38452   4.652   4.439   5.908  0.5475  0.1632 -0.3731
 8940SOL    HW138453   4.668   4.360   5.959  0.5176  0.0774 -0.4961
 8940SOL    HW238454   4.584   4.405   5.850  0.8177  0.6186 -0.9546
 8941SOL     OW38455   3.701   1.567   5.509 -0.0147 -0.0155 -0.1923
 8941SOL    HW138456   3.664   1.536   5.592 -3.9551 -0.9620 -2.3148
 8941SOL    HW238457   3.626   1.577   5.451 -0.7232 -0.6486  0.6061
 8942SOL     OW38458   0.469   0.579   3.204 -0.0291 -0.7405  0.3165
 8942SOL    HW138459   0.437   0.653   3.256  1.6354 -0.9899  1.6935
 8942SOL    HW238460   0.423   0.504   3.240  1.6996 -1.2377  1.4644
 8943SOL     OW38461   2.183   3.047  16.791  0.3439  0.0426 -0.0408
 8943SOL    HW138462   2.141   2.963  16.807 -1.9085  1.4579  1.4997
 8943SOL    HW238463   2.177   3.072  16.883  1.5568  2.9996 -0.7704
 8944SOL     OW38464   1.781   3.615   5.179 -0.3035 -0.1927  0.0216
 8944SOL    HW138465   1.801   3.707   5.194  0.7563 -0.2056 -1.2871
 8944SOL    HW238466   1.695   3.598   5.218 -0.1443 -2.4825 -0.5750
 8945SOL     OW38467   3.547   0.684   6.823  0.0908 -0.0542  0.2558
 8945SOL    HW138468   3.626   0.735   6.839  1.1749 -1.8762  0.6950
 8945SOL    HW238469   3.558   0.664   6.730 -1.0879  0.7715 -0.0555
 8946SOL     OW38470   3.447   2.042  14.484 -0.2896  0.3537 -0.5537
 8946SOL    HW138471   3.436   1.947  14.487  0.4404  0.2213 -1.9178
 8946SOL    HW238472   3.383   2.069  14.418 -0.2507  1.1795 -0.2466
 8947SOL     OW38473   0.784   1.915  16.740  0.4531 -0.2647  0.2631
 8947SOL    HW138474   0.735   1.960  16.809  0.3063  2.3828 -1.5691
 8947SOL    HW238475   0.724   1.902  16.666  1.7215  0.7300 -0.9500
 8948SOL     OW38476   2.699   2.372   4.782  0.4322  0.5172 -0.0563
 8948SOL    HW138477   2.748   2.313   4.839 -0.1764 -0.0159 -0.0813
 8948SOL    HW238478   2.619   2.319   4.774  0.9501 -0.4632  1.2081
 8949SOL     OW38479   2.699   1.155   2.447  0.2268 -0.9851  0.0741
 8949SOL    HW138480   2.637   1.082   2.452 -1.3593  0.4203  1.0925
 8949SOL    HW238481   2.783   1.117   2.474  1.3187  1.0134 -0.5514
 8950SOL     OW38482   0.112   1.363   3.794  0.3855  0.4502 -0.3807
 8950SOL    HW138483   0.137   1.293   3.855  0.7484  0.0426 -0.9865
 8950SOL    HW238484   0.082   1.307   3.722 -2.7509  1.8315 -0.1340
 8951SOL     OW38485   4.323   4.587   6.354  0.1608  0.7501  0.1152
 8951SOL    HW138486   4.339   4.571   6.261 -2.5774 -0.2767 -0.1772
 8951SOL    HW238487   4.385   4.528   6.396  0.6905  1.5481  0.4523
 8952SOL     OW38488   2.058   2.784  16.839 -0.4732  0.0293  0.5334
 8952SOL    HW138489   2.041   2.689  16.842  0.0459 -0.0974 -0.4402
 8952SOL    HW238490   1.978   2.807  16.792  0.3128 -0.9832 -1.2867
 8953SOL     OW38491   4.389   1.715   3.968  0.0848  0.3431 -0.1293
 8953SOL    HW138492   4.397   1.758   4.053 -1.3079  1.3151 -0.4811
 8953SOL    HW238493   4.299   1.682   3.975 -0.0255  1.1091  2.1368
 8954SOL     OW38494   3.613   3.032   9.119  0.1737  0.2535  0.4657
 8954SOL    HW138495   3.707   3.019   9.110 -0.2429 -0.6978 -2.5902
 8954SOL    HW238496   3.570   3.033   9.033 -2.4108 -2.2806  1.7168
 8955SOL     OW38497   1.457   4.022   8.202 -0.3502  0.2152 -0.2093
 8955SOL    HW138498   1.363   4.026   8.222 -0.0959  0.9751  0.7984
 8955SOL    HW238499   1.471   4.116   8.203  0.9555  0.0344 -0.8783
 8956SOL     OW38500   1.410   1.689   6.059 -0.0121  0.5560  0.1995
 8956SOL    HW138501   1.439   1.647   6.140 -1.1575 -2.3919 -0.9223
 8956SOL    HW238502   1.317   1.667   6.070 -0.1461  1.8611  1.7106
 8957SOL     OW38503   3.093   1.616  17.406  0.0512 -0.0632 -0.5234
 8957SOL    HW138504   3.119   1.682  17.471 -0.3431 -1.9657  1.5429
 8957SOL    HW238505   3.174   1.585  17.365  0.1558 -0.9413  0.3426
 8958SOL     OW38506   3.391   3.108   3.630  0.0222 -0.2689 -0.1152
 8958SOL    HW138507   3.471   3.104   3.683 -0.2254 -0.2212  0.2577
 8958SOL    HW238508   3.335   3.040   3.667 -0.5787 -0.1030 -0.7174
 8959SOL     OW38509   1.643   4.598  16.904  0.4279 -0.0264  0.0509
 8959SOL    HW138510   1.733   4.590  16.937  0.2056 -1.1925  0.4070
 8959SOL    HW238511   1.611   4.655  16.974  1.1279  1.0563 -0.5166
 8960SOL     OW38512   3.783   0.122   8.629  0.0197 -0.1683 -0.1834
 8960SOL    HW138513   3.830   0.040   8.618  1.4270  0.7641 -1.1046
 8960SOL    HW238514   3.729   0.096   8.704 -1.8930 -1.5297 -2.0411
 8961SOL     OW38515   0.890   0.736   2.924 -0.2546  0.2987  0.3517
 8961SOL    HW138516   0.889   0.738   3.020 -0.4707 -2.9356  0.3943
 8961SOL    HW238517   0.830   0.664   2.904 -0.1495  0.2441  0.2367
 8962SOL     OW38518   4.373   2.721   9.455  0.2100 -0.6867 -0.1447
 8962SOL    HW138519   4.332   2.726   9.368 -0.9216 -0.0029  0.4252
 8962SOL    HW238520   4.335   2.797   9.499  2.2415  0.3156 -0.1646
 8963SOL     OW38521   2.987   2.037   3.814  0.2247  0.5198 -0.4206
 8963SOL    HW138522   2.914   1.979   3.794  0.8728 -0.4747  0.0978
 8963SOL    HW238523   2.958   2.113   3.762 -1.8735 -1.2431 -1.8161
 8964SOL     OW38524   0.760   0.799  12.768  0.1310  0.5110  0.6412
 8964SOL    HW138525   0.784   0.819  12.859  0.4754  0.9166  0.4645
 8964SOL    HW238526   0.835   0.842  12.725  0.7005 -0.5233  0.6054
 8965SOL     OW38527   2.348   2.029   3.196 -0.1438 -0.4994  0.4385
 8965SOL    HW138528   2.304   2.053   3.115  1.9518  1.5467 -0.0733
 8965SOL    HW238529   2.375   2.116   3.226  1.5918 -1.0278  0.4171
 8966SOL     OW38530   3.083   4.635   6.487 -0.3825 -0.1102 -0.8087
 8966SOL    HW138531   2.999   4.654   6.446 -1.8962 -1.6073  1.5919
 8966SOL    HW238532   3.139   4.690   6.432 -0.5269  0.2200 -0.6247
 8967SOL     OW38533   2.277   4.667  12.568 -0.3748  0.1345 -0.3390
 8967SOL    HW138534   2.268   4.578  12.602  0.3068  0.5451  0.9363
 8967SOL    HW238535   2.235   4.660  12.482 -0.4702 -0.3067 -0.2592
 8968SOL     OW38536   3.576   2.787  14.961 -0.3872  0.2598 -0.1146
 8968SOL    HW138537   3.659   2.748  14.934  0.0030  1.7124 -1.0482
 8968SOL    HW238538   3.558   2.866  14.909 -0.5530 -0.4127 -1.0768
 8969SOL     OW38539   2.981   2.995   4.815 -0.3285  0.1792 -0.1538
 8969SOL    HW138540   3.025   2.919   4.851  0.9875  0.6262 -0.8062
 8969SOL    HW238541   2.891   2.964   4.805 -0.8252  1.9651 -1.3787
 8970SOL     OW38542   3.254   1.217   8.087 -0.3826  0.1311  0.5104
 8970SOL    HW138543   3.241   1.206   7.993  0.1580 -0.0336  0.4550
 8970SOL    HW238544   3.333   1.270   8.094 -0.6007  0.6942 -1.2933
 8971SOL     OW38545   3.233   4.435   5.433 -0.4993  0.0082 -0.0693
 8971SOL    HW138546   3.150   4.422   5.478 -0.6911 -1.6254 -0.8809
 8971SOL    HW238547   3.293   4.363   5.453 -1.8940 -1.3555 -0.8164
 8972SOL     OW38548   0.682   3.555  16.187  0.1538  0.0047 -0.5035
 8972SOL    HW138549   0.773   3.529  16.178  0.4283  0.3098  1.3603
 8972SOL    HW238550   0.689   3.624  16.253  0.3746 -0.3251 -0.1806
 8973SOL     OW38551   3.694   3.146  12.781  0.1153  0.2460 -0.6592
 8973SOL    HW138552   3.770   3.177  12.829 -1.4708  1.3964  1.1273
 8973SOL    HW238553   3.630   3.213  12.805  1.6301  1.1529  0.7309
 8974SOL     OW38554   1.214   0.647   1.068  0.5073  0.2897 -0.4015
 8974SOL    HW138555   1.243   0.739   1.066 -2.4457  1.2285 -0.0940
 8974SOL    HW238556   1.256   0.617   1.149  0.2339 -1.3608 -0.8794
 8975SOL     OW38557   2.564   1.871   4.336  0.2881 -0.5772 -0.1355
 8975SOL    HW138558   2.510   1.916   4.270  0.1353 -0.5787 -0.0124
 8975SOL    HW238559   2.612   1.942   4.378 -0.2508 -1.3584  1.8196
 8976SOL     OW38560   2.385   1.621   4.449  0.3195  0.0451  0.3392
 8976SOL    HW138561   2.436   1.702   4.451 -1.5987  1.3047 -1.7197
 8976SOL    HW238562   2.399   1.594   4.540 -1.3442 -1.3642  0.1825
 8977SOL     OW38563   3.210   4.676  10.352  0.1368 -0.0686 -0.7788
 8977SOL    HW138564   3.294   4.668  10.308 -0.1160  1.5659 -1.5808
 8977SOL    HW238565   3.169   0.020  10.320 -1.6539 -0.6158  0.1013
 8978SOL     OW38566   2.394   3.071   7.771  0.3291  0.3015  0.1465
 8978SOL    HW138567   2.462   3.032   7.716  0.2267  1.3115 -0.7025
 8978SOL    HW238568   2.355   3.126   7.702 -0.6420  0.2505  0.6601
 8979SOL     OW38569   3.359   1.028   8.261 -0.1188 -0.4905 -0.0020
 8979SOL    HW138570   3.444   1.026   8.219  0.5359 -2.1672  1.4178
 8979SOL    HW238571   3.316   1.091   8.202  1.4971  0.5615 -0.0410
 8980SOL     OW38572   2.497   3.338   5.402 -0.3387  0.0143  0.4912
 8980SOL    HW138573   2.446   3.275   5.351  0.2423  0.2000 -0.3232
 8980SOL    HW238574   2.570   3.348   5.342  0.0089  1.2067  1.1122
 8981SOL     OW38575   0.957   1.528   8.852 -0.1573  0.2533  0.3843
 8981SOL    HW138576   0.880   1.531   8.909 -0.9214  1.0171 -0.6982
 8981SOL    HW238577   0.991   1.439   8.864  1.3753  0.5709 -1.6295
 8982SOL     OW38578   3.790   4.003   6.232 -0.0155  0.2963  0.4298
 8982SOL    HW138579   3.835   3.969   6.309 -0.5375  0.6683  0.9034
 8982SOL    HW238580   3.718   3.939   6.225 -1.0706  1.2563  2.2968
 8983SOL     OW38581   0.999   3.325   4.221  0.0387  0.8072  0.8286
 8983SOL    HW138582   1.006   3.243   4.172  0.3403  0.9720  0.5935
 8983SOL    HW238583   0.965   3.384   4.153 -1.4734 -1.9985 -0.8892
 8984SOL     OW38584   2.616   4.312   7.480 -0.3585 -0.0912 -0.0845
 8984SOL    HW138585   2.650   4.355   7.558  2.1395  3.8027 -3.3096
 8984SOL    HW238586   2.528   4.348   7.470  0.0410  0.9282  0.1028
 8985SOL     OW38587   1.680   4.484  12.509 -0.8064 -0.5016  0.4114
 8985SOL    HW138588   1.723   4.466  12.593 -0.4163 -0.6830  0.1719
 8985SOL    HW238589   1.681   4.579  12.503  3.5389 -0.7788 -3.7196
 8986SOL     OW38590   1.234   4.552   0.295  0.2672  0.2459  0.0289
 8986SOL    HW138591   1.312   4.496   0.290 -1.5039 -2.0713 -1.5739
 8986SOL    HW238592   1.274   4.624   0.246  1.1762 -0.8992 -0.9226
 8987SOL     OW38593   1.637   2.188   8.332 -0.6625 -0.2839  0.5121
 8987SOL    HW138594   1.639   2.235   8.249 -2.8866  2.2637  1.9256
 8987SOL    HW238595   1.549   2.171   8.364 -0.4734 -0.4835  0.9355
 8988SOL     OW38596   4.660   1.072   9.114  0.3247 -0.2207  0.2743
 8988SOL    HW138597   4.588   1.135   9.120 -0.3951 -0.9455 -0.7768
 8988SOL    HW238598   4.618   0.988   9.096  2.4480 -1.2849  0.3208
 8989SOL     OW38599   0.722   1.198   2.063 -0.3740  0.1068 -0.2044
 8989SOL    HW138600   0.708   1.126   2.124  0.5575 -0.2696 -0.4366
 8989SOL    HW238601   0.756   1.267   2.118  2.0958 -1.5669  0.3473
 8990SOL     OW38602   1.410   2.900   5.219  0.4360  0.5971  0.3351
 8990SOL    HW138603   1.364   2.827   5.175 -0.4576 -0.0843  2.3884
 8990SOL    HW238604   1.500   2.872   5.205 -0.0062  0.1650 -1.6338
 8991SOL     OW38605   3.253   4.604   4.566 -0.4347 -0.2410  0.1255
 8991SOL    HW138606   3.188   4.557   4.618 -1.2732  2.1108  1.1798
 8991SOL    HW238607   3.333   4.553   4.581 -0.5167 -0.2386  0.5897
 8992SOL     OW38608   3.247   3.869   8.702  0.3032  0.3180 -0.2710
 8992SOL    HW138609   3.224   3.848   8.611  2.0771  0.7607 -0.8163
 8992SOL    HW238610   3.320   3.808   8.707 -0.2898 -0.4745 -1.1712
 8993SOL     OW38611   3.898   2.986   9.887  0.1641 -0.0794 -0.2463
 8993SOL    HW138612   3.899   3.081   9.873 -0.1250  0.0764  0.7781
 8993SOL    HW238613   3.837   2.986   9.961 -0.9404  0.5642 -1.1562
 8994SOL     OW38614   4.130   1.467   6.545  0.8956 -0.8611  0.1517
 8994SOL    HW138615   4.148   1.547   6.593 -1.9364 -0.7249  1.0172
 8994SOL    HW238616   4.216   1.429   6.532  0.3341 -2.1621  0.2491
 8995SOL     OW38617   1.479   4.172   4.025 -0.5818 -0.2951  0.4880
 8995SOL    HW138618   1.528   4.094   3.998 -0.4041 -0.2816  0.7698
 8995SOL    HW238619   1.438   4.197   3.942  1.6684  0.6999 -0.3459
 8996SOL     OW38620   4.175   4.717   5.693 -0.0341  0.4980 -0.2189
 8996SOL    HW138621   4.090   4.679   5.717  1.1005 -0.2355  2.5440
 8996SOL    HW238622   4.146   0.004   5.604 -1.0862 -3.5214 -0.9821
 8997SOL     OW38623   4.354   0.732   3.416  0.1565 -0.0429 -0.4150
 8997SOL    HW138624   4.363   0.696   3.504  0.7844  1.6708  0.2154
 8997SOL    HW238625   4.303   0.811   3.435 -0.3927 -0.7289  0.9471
 8998SOL     OW38626   3.308   3.783   9.383 -0.2518  0.2972 -0.0142
 8998SOL    HW138627   3.311   3.708   9.323 -0.3830 -0.0967  0.4633
 8998SOL    HW238628   3.400   3.810   9.387 -0.7746  1.5894  3.0213
 8999SOL     OW38629   3.248   1.057   5.951 -0.0740  0.1257 -0.1040
 8999SOL    HW138630   3.305   1.133   5.943 -1.9617  1.5969  0.5566
 8999SOL    HW238631   3.291   1.009   6.022 -0.7777 -0.8578 -0.3380
 9000SOL     OW38632   4.406   1.171   9.081  0.3568 -0.4636  0.4033
 9000SOL    HW138633   4.328   1.132   9.120 -0.0551  0.7084  0.7461
 9000SOL    HW238634   4.406   1.129   8.994 -0.0281 -0.7918  0.5602
 9001SOL     OW38635   1.672   3.446   9.380 -0.8285 -0.1419  0.0666
 9001SOL    HW138636   1.735   3.377   9.362 -2.0529 -1.2076 -0.1727
 9001SOL    HW238637   1.592   3.403   9.409 -0.6834 -0.6422 -0.2768
 9002SOL     OW38638   0.723   3.861   1.124  0.9836 -0.4362  0.1231
 9002SOL    HW138639   0.706   3.942   1.173 -1.1252  1.0682 -3.1261
 9002SOL    HW238640   0.817   3.865   1.144  0.6466 -0.4196  1.7108
 9003SOL     OW38641   1.132   4.581  10.448 -0.0766 -0.4664 -0.8245
 9003SOL    HW138642   1.167   4.616  10.530  0.7481  1.2072 -1.8923
 9003SOL    HW238643   1.107   4.665  10.411 -0.1152 -0.1336 -0.0296
 9004SOL     OW38644   1.527   3.400   3.783  0.2504  0.1034 -0.1213
 9004SOL    HW138645   1.453   3.369   3.835 -0.8829  1.4417 -0.9369
 9004SOL    HW238646   1.542   3.323   3.729 -1.3934 -0.6108  0.4517
 9005SOL     OW38647   0.859   3.710   7.918  0.3299  0.4903 -0.2138
 9005SOL    HW138648   0.811   3.667   7.989 -1.6143 -0.0820 -1.8608
 9005SOL    HW238649   0.787   3.748   7.867  0.7270  1.8039  0.2103
 9006SOL     OW38650   0.958   3.929  12.572  0.1921 -0.0272  0.5000
 9006SOL    HW138651   1.034   3.968  12.529 -0.8766 -0.7458 -2.0149
 9006SOL    HW238652   0.885   3.923  12.510  2.2726 -3.0415 -1.6411
 9007SOL     OW38653   3.240   3.449   9.589  0.6383 -0.8233 -0.0310
 9007SOL    HW138654   3.295   3.523   9.564  1.8961 -1.2229  1.5050
 9007SOL    HW238655   3.286   3.428   9.670  1.0882 -1.8102 -0.5431
 9008SOL     OW38656   2.421   1.066  13.342 -0.5090  0.0759 -0.0367
 9008SOL    HW138657   2.464   1.114  13.412  0.1801  3.3529 -2.6827
 9008SOL    HW238658   2.331   1.072  13.374 -0.8534 -0.8367 -0.8355
 9009SOL     OW38659   4.050   0.512   8.151  0.5850 -0.4624  0.3432
 9009SOL    HW138660   3.981   0.564   8.111  1.0370 -0.6353 -0.6656
 9009SOL    HW238661   4.103   0.491   8.074  1.4197  1.7852  0.3032
 9010SOL     OW38662   0.277   1.426   8.027  0.0090  0.3194 -0.2253
 9010SOL    HW138663   0.194   1.473   8.036 -0.2525  0.0095 -1.0798
 9010SOL    HW238664   0.336   1.497   8.054  0.1307 -0.1631  0.7960
 9011SOL     OW38665   0.045   3.236   4.124  0.7506 -0.1055 -0.4675
 9011SOL    HW138666   0.035   3.142   4.142 -1.4629  0.2922  0.3690
 9011SOL    HW238667   0.075   3.265   4.210  1.7517  0.8857 -1.1572
 9012SOL     OW38668   0.325   0.607  13.836  0.1386  0.1821 -0.5731
 9012SOL    HW138669   0.355   0.671  13.771 -1.6523  1.4803 -0.1042
 9012SOL    HW238670   0.401   0.562  13.874 -2.9413 -3.3681  1.3287
 9013SOL     OW38671   2.599   3.123   4.289  0.1527 -0.2494 -0.5093
 9013SOL    HW138672   2.618   3.165   4.205 -1.5730 -0.8944 -1.2127
 9013SOL    HW238673   2.509   3.151   4.301  0.0055 -1.0665  0.2621
 9014SOL     OW38674   2.799   0.705  14.665 -0.3388 -0.4154  0.0421
 9014SOL    HW138675   2.728   0.765  14.644 -1.6055 -1.7453  0.5515
 9014SOL    HW238676   2.836   0.690  14.578  1.6753  0.3125  0.7589
 9015SOL     OW38677   0.115   0.636   4.675  0.5961 -0.1220  0.0274
 9015SOL    HW138678   0.151   0.575   4.739  0.0707 -1.4724 -0.9728
 9015SOL    HW238679   0.029   0.602   4.653  0.6808 -1.4652  1.7629
 9016SOL     OW38680   2.789   0.588  15.270 -0.4132  0.4651 -0.3422
 9016SOL    HW138681   2.738   0.644  15.329 -0.5797 -0.4683  0.4072
 9016SOL    HW238682   2.731   0.608  15.196  0.0468  1.5419 -0.4103
 9017SOL     OW38683   2.752   4.164   9.098  0.3132  0.1427  0.3913
 9017SOL    HW138684   2.717   4.228   9.160  0.1512  1.4774 -1.0861
 9017SOL    HW238685   2.771   4.088   9.153 -0.2832 -1.8209 -2.0997
 9018SOL     OW38686   1.624   1.322   1.484  0.4926 -0.0355 -0.0499
 9018SOL    HW138687   1.589   1.371   1.558 -0.9028  0.8289 -1.2886
 9018SOL    HW238688   1.565   1.351   1.414 -0.4169 -2.4923 -0.2947
 9019SOL     OW38689   0.469   4.576  10.125 -0.7298  0.5640  0.2793
 9019SOL    HW138690   0.477   4.659  10.078 -0.1182  0.3394 -0.0164
 9019SOL    HW238691   0.517   4.516  10.067  1.6455  1.2752  1.5247
 9020SOL     OW38692   4.217   1.267   1.119  0.2743  0.0523 -0.2644
 9020SOL    HW138693   4.227   1.200   1.187 -0.7156 -1.0124 -1.1806
 9020SOL    HW238694   4.126   1.263   1.093  0.3430  1.1853 -0.6903
 9021SOL     OW38695   2.765   0.141  16.753 -0.6345  0.2242 -0.4023
 9021SOL    HW138696   2.725   0.151  16.840  0.5372  1.3817 -0.0073
 9021SOL    HW238697   2.856   0.169  16.763 -0.2917 -0.4625 -1.6958
 9022SOL     OW38698   1.226   1.178   2.753 -0.3315  0.6626  0.0899
 9022SOL    HW138699   1.313   1.153   2.723 -0.4079 -2.8039  2.6698
 9022SOL    HW238700   1.188   1.091   2.768  0.5310 -0.0542 -1.9050
 9023SOL     OW38701   3.690   1.250   5.519 -0.2216 -0.6484  0.0474
 9023SOL    HW138702   3.734   1.332   5.497 -0.9472 -0.4239 -0.5674
 9023SOL    HW238703   3.656   1.270   5.606  1.9776  0.2563  0.6836
 9024SOL     OW38704   2.276   1.395   5.016  0.2485  0.0487 -0.2008
 9024SOL    HW138705   2.228   1.416   5.096 -2.8276 -2.7795 -1.3388
 9024SOL    HW238706   2.326   1.321   5.051 -0.5011  0.1041  0.9880
 9025SOL     OW38707   3.693   1.355  17.205 -0.4553  1.1530 -0.8573
 9025SOL    HW138708   3.761   1.309  17.255 -1.1489  0.5803 -0.4581
 9025SOL    HW238709   3.624   1.290  17.191 -0.1079  0.7059 -0.4800
 9026SOL     OW38710   3.591   3.562  13.907 -0.0587  0.0095  0.1481
 9026SOL    HW138711   3.647   3.486  13.894 -1.0519 -0.5797 -0.7591
 9026SOL    HW238712   3.583   3.561  14.002  0.6395 -1.4635  0.1792
 9027SOL     OW38713   3.246   3.967   4.221 -0.0204  0.1603  0.3238
 9027SOL    HW138714   3.222   3.886   4.265  0.9830 -1.6684 -2.5471
 9027SOL    HW238715   3.305   4.004   4.287  2.8517 -0.4678 -1.8647
 9028SOL     OW38716   2.102   2.093   0.914  0.0282 -0.1675 -0.0424
 9028SOL    HW138717   2.044   2.017   0.905 -0.7909  0.7830 -2.8867
 9028SOL    HW238718   2.046   2.163   0.880 -0.4730 -0.2440  0.6358
 9029SOL     OW38719   0.923   3.176  15.863  0.1551  0.1567  0.3034
 9029SOL    HW138720   0.878   3.261  15.856 -0.9635 -0.3719  1.0468
 9029SOL    HW238721   1.012   3.207  15.849  0.4839 -1.2753 -0.7912
 9030SOL     OW38722   4.026   4.038   1.070 -0.2883  0.3106  0.3233
 9030SOL    HW138723   3.958   4.045   1.137 -1.5538 -2.3555 -0.6607
 9030SOL    HW238724   3.978   3.979   1.011 -2.3133 -0.3341  2.6160
 9031SOL     OW38725   3.585   1.471   5.723  0.1050 -0.4761  0.2456
 9031SOL    HW138726   3.578   1.412   5.798  0.9525 -0.2166  0.5271
 9031SOL    HW238727   3.503   1.520   5.726 -0.3344 -1.0736 -1.5717
 9032SOL     OW38728   0.666   2.022  11.466  0.2418  0.3129  0.1707
 9032SOL    HW138729   0.639   1.940  11.508  0.0990 -0.3811 -1.2653
 9032SOL    HW238730   0.696   1.995  11.379  5.6940  2.9230  1.2127
 9033SOL     OW38731   0.319   2.535   6.810  0.0901 -0.1948 -0.8081
 9033SOL    HW138732   0.396   2.483   6.788  0.4768  0.2827 -0.5615
 9033SOL    HW238733   0.256   2.463   6.805 -0.1290 -0.0267 -0.4222
 9034SOL     OW38734   3.808   0.242   4.914  0.2792  0.4293 -0.4538
 9034SOL    HW138735   3.807   0.290   4.996 -0.0118 -1.8626  0.8605
 9034SOL    HW238736   3.718   0.257   4.884  1.3602  2.4197 -2.7348
 9035SOL     OW38737   0.469   2.835  10.064  0.1099 -0.2413 -0.5342
 9035SOL    HW138738   0.501   2.904  10.121 -1.0058 -0.3083  0.1838
 9035SOL    HW238739   0.486   2.869   9.976 -0.2876 -0.4252 -0.6844
 9036SOL     OW38740   0.045   3.819   8.790 -0.1442  0.0146  0.0482
 9036SOL    HW138741   4.736   3.808   8.707 -2.4044 -0.0054  1.3157
 9036SOL    HW238742   0.130   3.861   8.779  0.4832 -1.1515  0.4339
 9037SOL     OW38743   3.546   2.717   2.543  0.7995 -0.0383  0.1553
 9037SOL    HW138744   3.460   2.746   2.573 -0.2625 -1.7517 -1.2740
 9037SOL    HW238745   3.591   2.726   2.627 -1.6479 -2.0862  1.6942
 9038SOL     OW38746   2.508   4.736   1.545  0.7065  0.2113  0.7072
 9038SOL    HW138747   2.553   0.041   1.471  0.9456  0.8470  1.2171
 9038SOL    HW238748   2.569   4.667   1.573  1.0998 -1.1179 -3.3121
 9039SOL     OW38749   1.960   3.863   3.564  0.0451 -0.4232  0.4193
 9039SOL    HW138750   1.983   3.956   3.570 -1.7067  0.1527 -1.8232
 9039SOL    HW238751   1.964   3.853   3.469  0.3317  1.5779  0.2161
 9040SOL     OW38752   0.116   0.431   7.492  0.2250 -0.8417 -0.7181
 9040SOL    HW138753   0.157   0.373   7.427  2.9338  1.2908 -0.9002
 9040SOL    HW238754   0.144   0.518   7.464 -0.3706 -1.0872 -2.0933
 9041SOL     OW38755   1.220   2.773   7.025 -0.2358  0.3168 -0.2943
 9041SOL    HW138756   1.176   2.756   7.108  3.1664  0.1266  1.4713
 9041SOL    HW238757   1.201   2.691   6.980  0.0507 -0.4427  0.9810
 9042SOL     OW38758   2.401   3.319   2.957  0.1205  0.0515  0.2022
 9042SOL    HW138759   2.467   3.310   2.888 -0.9078 -0.8088 -0.6842
 9042SOL    HW238760   2.416   3.231   2.992 -0.8022 -0.7513 -1.3635
 9043SOL     OW38761   1.711   3.125   6.023  0.2444 -0.0148  0.2336
 9043SOL    HW138762   1.753   3.207   5.996  0.9313 -0.2830  0.5126
 9043SOL    HW238763   1.680   3.089   5.940 -0.6084 -1.8672  1.3734
 9044SOL     OW38764   0.766   4.435   3.290 -0.1261 -0.1938  0.5045
 9044SOL    HW138765   0.699   4.502   3.302  0.8378  1.2786 -2.3486
 9044SOL    HW238766   0.712   4.367   3.248  0.1702  0.0594 -0.2984
 9045SOL     OW38767   2.373   2.012   4.202  0.0267  0.3943  0.4685
 9045SOL    HW138768   2.307   1.956   4.242  0.0233 -0.0543 -0.1534
 9045SOL    HW238769   2.347   2.013   4.110 -1.5888 -0.7355  0.9142
 9046SOL     OW38770   0.173   0.942  11.513 -0.4432  0.2454 -0.2007
 9046SOL    HW138771   0.218   1.022  11.538 -1.4634  0.4962  0.8523
 9046SOL    HW238772   0.132   0.975  11.434 -0.7156  4.2961  1.6245
 9047SOL     OW38773   0.678   4.522   0.609  0.1190 -0.7677 -0.2352
 9047SOL    HW138774   0.659   4.510   0.702  0.3460 -1.9856 -0.3417
 9047SOL    HW238775   0.597   4.560   0.574  0.7770  2.0563  1.3204
 9048SOL     OW38776   2.371   4.317  14.261 -0.5788  0.0759 -0.0121
 9048SOL    HW138777   2.441   4.375  14.232  0.8989 -0.6470  2.1299
 9048SOL    HW238778   2.295   4.357  14.219 -0.5256 -0.3021 -0.4655
 9049SOL     OW38779   0.505   3.354  15.245  0.1960  0.1956  0.1696
 9049SOL    HW138780   0.458   3.359  15.328  0.1845 -0.5717  0.2123
 9049SOL    HW238781   0.506   3.261  15.220  3.5630  0.5722 -1.1289
 9050SOL     OW38782   4.107   1.381  11.252  0.2287  0.3942  0.7479
 9050SOL    HW138783   4.017   1.400  11.225 -0.6451 -1.6581  2.2264
 9050SOL    HW238784   4.114   1.434  11.331  2.3252 -0.9235  1.4399
 9051SOL     OW38785   0.740   3.452   5.140  0.1440 -0.0382  0.1010
 9051SOL    HW138786   0.744   3.366   5.181 -2.8597  0.3196  1.0958
 9051SOL    HW238787   0.833   3.473   5.130 -0.1640  1.4495  0.3565
 9052SOL     OW38788   1.260   2.320   4.510 -0.4393 -0.0519 -0.7977
 9052SOL    HW138789   1.293   2.246   4.459 -0.4292  0.1937 -1.1492
 9052SOL    HW238790   1.303   2.394   4.466 -0.2575 -1.3843 -2.8645
 9053SOL     OW38791   2.647   4.293  10.568 -0.4682  0.3966  0.5812
 9053SOL    HW138792   2.692   4.368  10.528  0.5205 -0.7629 -0.4942
 9053SOL    HW238793   2.615   4.241  10.494  0.1429  0.1099  0.5190
 9054SOL     OW38794   3.849   2.141   3.133  0.2585 -0.3616 -0.4204
 9054SOL    HW138795   3.786   2.203   3.096  0.9647  0.2550 -0.5966
 9054SOL    HW238796   3.832   2.153   3.226  0.7275 -2.2723 -0.0900
 9055SOL     OW38797   3.675   0.833  11.924 -0.0101 -0.6125  0.1961
 9055SOL    HW138798   3.719   0.917  11.938 -0.1711 -0.6058  0.6648
 9055SOL    HW238799   3.702   0.784  12.001 -0.6063  0.2120  0.9303
 9056SOL     OW38800   0.123   1.555  11.997  0.1994  0.2410 -0.5276
 9056SOL    HW138801   0.204   1.504  12.003 -0.4787 -1.0843 -2.5141
 9056SOL    HW238802   0.089   1.541  11.908 -2.2334 -0.5087  0.5399
 9057SOL     OW38803   1.861   1.231   3.873 -0.7217  0.3050 -0.3452
 9057SOL    HW138804   1.816   1.218   3.790 -0.4084  0.6051 -0.5623
 9057SOL    HW238805   1.811   1.304   3.909 -0.3638  1.5364 -2.3901
 9058SOL     OW38806   1.103   0.244   3.669  0.1404  0.7814 -0.2222
 9058SOL    HW138807   1.059   0.263   3.753 -0.8118 -1.3008 -0.2547
 9058SOL    HW238808   1.036   0.204   3.614 -1.0374  1.7394  0.4835
 9059SOL     OW38809   2.049   3.852   6.850 -0.3900 -0.3204  0.3944
 9059SOL    HW138810   1.988   3.879   6.780 -1.1158 -3.8999 -0.3568
 9059SOL    HW238811   2.086   3.773   6.811  1.5184 -0.2255  2.0442
 9060SOL     OW38812   2.932   4.484   4.387 -0.0987  0.1943  0.6030
 9060SOL    HW138813   2.910   4.456   4.476 -0.0217  0.1829  0.6190
 9060SOL    HW238814   3.014   4.532   4.399 -0.3481  1.0496 -1.0676
 9061SOL     OW38815   1.912   0.545  10.880 -0.4588 -0.5281 -0.1933
 9061SOL    HW138816   2.005   0.524  10.889 -0.3908 -0.2699 -0.2990
 9061SOL    HW238817   1.873   0.458  10.886 -2.1974  0.5314  3.3911
 9062SOL     OW38818   1.161   2.997   2.838 -0.8432 -0.6780  0.0194
 9062SOL    HW138819   1.096   3.049   2.885 -0.3206  2.2867 -2.5307
 9062SOL    HW238820   1.146   2.908   2.871 -0.6174 -1.3980 -1.8220
 9063SOL     OW38821   2.662   1.100  11.121 -0.3117 -0.5976 -0.0759
 9063SOL    HW138822   2.703   1.083  11.036  1.1883  0.4263  0.4458
 9063SOL    HW238823   2.580   1.131  11.083 -0.8499  0.5997  2.0827
 9064SOL     OW38824   2.207   2.125   6.782  0.0244 -0.4371 -0.1706
 9064SOL    HW138825   2.116   2.128   6.755 -0.4423  2.8068  1.7311
 9064SOL    HW238826   2.210   2.182   6.858  0.1955 -1.7592  0.8009
 9065SOL     OW38827   4.539   4.134  14.924  0.0351 -0.3625  0.5828
 9065SOL    HW138828   4.570   4.198  14.860  3.2931 -1.3997  1.1043
 9065SOL    HW238829   4.473   4.073  14.890 -0.1170 -1.7218  3.3047
 9066SOL     OW38830   4.599   2.118   3.484  0.2959 -0.5656 -0.2637
 9066SOL    HW138831   4.655   2.120   3.561 -0.9268 -1.5225  0.6305
 9066SOL    HW238832   4.665   2.070   3.434  0.1095 -0.8599 -0.2244
 9067SOL     OW38833   1.203   3.551   8.904 -0.3600 -0.2496 -0.1288
 9067SOL    HW138834   1.164   3.627   8.949  0.7994 -0.4139  1.1851
 9067SOL    HW238835   1.229   3.499   8.980  1.8774  1.6000  0.3725
 9068SOL     OW38836   1.918   3.304   6.458 -0.0047 -0.2477  0.0079
 9068SOL    HW138837   1.879   3.373   6.404  1.2220  0.7578  0.4165
 9068SOL    HW238838   1.991   3.283   6.400  0.2606 -0.7331  0.5192
 9069SOL     OW38839   1.965   3.746   0.939 -0.3887  0.4179  0.3721
 9069SOL    HW138840   1.925   3.823   0.898  0.7322  0.7388 -0.1053
 9069SOL    HW238841   1.911   3.674   0.905 -1.1096  2.0736 -1.9654
 9070SOL     OW38842   0.893   0.235  15.171 -0.0440  0.4072  0.3653
 9070SOL    HW138843   0.844   0.240  15.089 -1.7184 -0.7137  1.2846
 9070SOL    HW238844   0.818   0.236  15.231  0.4281  1.5731  0.9456
 9071SOL     OW38845   3.885   2.774   5.123  0.0831  0.0300 -0.4744
 9071SOL    HW138846   3.844   2.850   5.164  1.1606  0.8295 -0.8538
 9071SOL    HW238847   3.978   2.799   5.127 -0.3040  1.6121 -1.3705
 9072SOL     OW38848   3.312   4.597  10.761 -0.4702  0.2836 -0.2156
 9072SOL    HW138849   3.248   4.658  10.723  2.0972  2.9694 -0.2807
 9072SOL    HW238850   3.255   4.532  10.801 -1.2602  2.1700  1.7666
 9073SOL     OW38851   3.084   4.038   6.781 -0.3692  0.1930 -0.4195
 9073SOL    HW138852   2.990   4.046   6.765 -0.6391  2.5684  2.2532
 9073SOL    HW238853   3.099   4.029   6.876 -2.2691  1.5468  0.0145
 9074SOL     OW38854   0.168   2.492   4.649  0.0849  0.0654 -0.4486
 9074SOL    HW138855   0.133   2.526   4.566 -0.0714 -0.3986 -0.5709
 9074SOL    HW238856   0.263   2.497   4.641  0.1385 -0.2874 -0.0303
 9075SOL     OW38857   0.956   0.839   0.953 -0.0618 -0.2914 -0.5886
 9075SOL    HW138858   0.994   0.903   0.892  3.1736  0.8797  2.6877
 9075SOL    HW238859   0.979   0.875   1.038 -1.7253  0.4115 -0.4403
 9076SOL     OW38860   1.977   1.422  14.193 -0.0016  0.3867  0.0878
 9076SOL    HW138861   2.067   1.396  14.212 -0.0240  1.5766  1.8388
 9076SOL    HW238862   1.947   1.371  14.118  0.8014  1.3599 -0.9096
 9077SOL     OW38863   2.835   4.708   2.524  0.0576  0.3925  0.2866
 9077SOL    HW138864   2.844   4.629   2.577 -1.3194 -0.9144 -1.4461
 9077SOL    HW238865   2.868   0.040   2.582  1.6678 -0.0453 -0.1037
 9078SOL     OW38866   1.849   3.693   3.933  0.0846  0.5820  0.3256
 9078SOL    HW138867   1.847   3.638   3.855 -3.2966 -0.4595  1.1253
 9078SOL    HW238868   1.930   3.741   3.917  0.9004 -0.7617  0.4433
 9079SOL     OW38869   0.792   2.836   8.063 -0.4715 -0.0012 -0.5856
 9079SOL    HW138870   0.839   2.903   8.013  1.7234 -1.4905 -0.5392
 9079SOL    HW238871   0.722   2.814   8.002 -1.5157 -0.0210  0.6080
 9080SOL     OW38872   3.154   2.758   3.672  0.0559  0.2168 -0.5093
 9080SOL    HW138873   3.158   2.727   3.581 -4.5481  0.6034 -0.8340
 9080SOL    HW238874   3.231   2.721   3.716  0.7151  1.3922 -0.6708
 9081SOL     OW38875   3.439   1.237  13.215  0.4724 -0.2694 -0.8513
 9081SOL    HW138876   3.506   1.179  13.179 -0.0902 -1.2022 -0.4136
 9081SOL    HW238877   3.375   1.179  13.256  0.4491  0.8865  0.7645
 9082SOL     OW38878   2.970   4.106  17.635 -0.1314  0.1697  0.1434
 9082SOL    HW138879   3.000   4.193  17.608 -0.9401  0.8141  1.3537
 9082SOL    HW238880   2.892   4.112  17.580  0.6821  2.8117 -0.7847
 9083SOL     OW38881   0.815   3.308   4.525  0.4097  0.2210 -0.1183
 9083SOL    HW138882   0.898   3.327   4.482 -0.3732 -0.5513 -1.9555
 9083SOL    HW238883   0.838   3.295   4.617  0.8654 -0.0460 -0.2715
 9084SOL     OW38884   3.426   1.803   8.052 -0.1376  0.2854 -0.2687
 9084SOL    HW138885   3.336   1.816   8.083 -0.5866 -0.5082 -1.2351
 9084SOL    HW238886   3.465   1.887   8.074  0.4209 -0.4399  1.4805
 9085SOL     OW38887   2.764   0.623   0.670  0.2874 -0.6346 -0.2289
 9085SOL    HW138888   2.688   0.604   0.615 -0.7109  1.3026  0.4640
 9085SOL    HW238889   2.755   0.716   0.691 -1.2946 -0.9483  0.4692
 9086SOL     OW38890   0.620   4.338   3.568 -0.4313 -0.6092 -0.4752
 9086SOL    HW138891   0.543   4.292   3.535 -0.3511 -0.5820 -0.6982
 9086SOL    HW238892   0.650   4.285   3.642  0.0303  1.9767  1.1730
 9087SOL     OW38893   2.672   3.857   6.341 -0.1113 -0.2122 -0.0275
 9087SOL    HW138894   2.708   3.915   6.275  1.5253 -2.0141 -0.6953
 9087SOL    HW238895   2.619   3.796   6.290 -1.5399  1.2156 -0.2421
 9088SOL     OW38896   4.594   4.120   6.803 -0.2332  0.7030  0.0091
 9088SOL    HW138897   4.502   4.149   6.801 -0.1712  0.8582 -0.4432
 9088SOL    HW238898   4.617   4.175   6.729 -0.8244  1.7888  0.6188
 9089SOL     OW38899   2.919   0.583   9.397 -0.0333  0.1803  0.3450
 9089SOL    HW138900   2.904   0.588   9.492 -1.2934  1.1299  0.1032
 9089SOL    HW238901   2.950   0.671   9.376  1.1399 -0.9265 -2.5312
 9090SOL     OW38902   1.234   1.797   2.549 -0.0379 -0.2353  0.9495
 9090SOL    HW138903   1.276   1.786   2.634 -0.0209 -0.6999  0.8797
 9090SOL    HW238904   1.198   1.708   2.541  1.8056 -0.6681 -2.7449
 9091SOL     OW38905   0.860   3.403   7.166  0.2231  0.0559  0.3062
 9091SOL    HW138906   0.935   3.394   7.107  1.5906 -1.9183  2.3496
 9091SOL    HW238907   0.804   3.463   7.118  0.7230 -0.9922 -1.6041
 9092SOL     OW38908   0.745   1.547   9.035 -0.6000 -0.6518  0.7281
 9092SOL    HW138909   0.735   1.622   9.093  1.0904 -0.0862  0.2683
 9092SOL    HW238910   0.661   1.540   8.989 -0.0859 -1.7993 -0.0577
 9093SOL     OW38911   1.875   4.635   8.632 -0.3578  0.3830 -0.2183
 9093SOL    HW138912   1.861   4.614   8.724 -0.1964 -0.7944 -0.4636
 9093SOL    HW238913   1.794   4.620   8.584 -1.0984  0.1767  1.1061
 9094SOL     OW38914   2.277   0.450  15.947  0.5086 -0.4439  0.2905
 9094SOL    HW138915   2.249   0.394  15.874  1.5187 -0.4785 -0.0680
 9094SOL    HW238916   2.306   0.379  16.004 -0.9604  0.5190  2.2259
 9095SOL     OW38917   4.610   1.451  15.395  0.0844  0.3188  0.5235
 9095SOL    HW138918   4.668   1.397  15.449  0.2229 -0.8689 -0.7884
 9095SOL    HW238919   4.682   1.497  15.352 -0.7208  0.9322 -0.1596
 9096SOL     OW38920   2.891   0.426   3.300  0.5690 -0.3140  0.0374
 9096SOL    HW138921   2.945   0.403   3.376 -1.7935 -2.7747  0.9853
 9096SOL    HW238922   2.827   0.356   3.312  0.8018 -0.1774  2.1185
 9097SOL     OW38923   2.880   0.809   0.248 -0.5210 -0.2518  0.0587
 9097SOL    HW138924   2.815   0.739   0.259 -1.9240  1.3493  1.8048
 9097SOL    HW238925   2.959   0.757   0.230  0.6749  1.0595  1.5362
 9098SOL     OW38926   4.169   2.876  12.138  0.7765 -0.3771  0.2962
 9098SOL    HW138927   4.125   2.793  12.158  0.3564 -0.8684 -2.6362
 9098SOL    HW238928   4.120   2.943  12.185  0.6573  1.4452 -2.4287
 9099SOL     OW38929   2.142   1.446   2.200 -0.1055 -0.0406  0.0067
 9099SOL    HW138930   2.051   1.419   2.217  0.0655  0.7562  2.1604
 9099SOL    HW238931   2.154   1.520   2.259  1.8247  0.8670 -1.5510
 9100SOL     OW38932   4.262   1.045   5.155 -0.0203  0.0400 -0.0268
 9100SOL    HW138933   4.303   1.041   5.068 -1.5373 -0.0675 -0.7271
 9100SOL    HW238934   4.315   1.117   5.190 -0.0785 -1.2249  2.6465
 9101SOL     OW38935   3.432   4.286   4.364 -0.4459 -0.1837  0.7127
 9101SOL    HW138936   3.338   4.268   4.366 -1.0372  3.1890  2.6854
 9101SOL    HW238937   3.477   4.202   4.374  0.7303  0.5082  1.2353
 9102SOL     OW38938   4.350   1.808   6.153  0.2760  0.2341 -0.1796
 9102SOL    HW138939   4.289   1.761   6.097 -1.4409  1.4479  0.6896
 9102SOL    HW238940   4.402   1.864   6.095 -2.8683  2.3424 -0.9017
 9103SOL     OW38941   3.437   4.225   6.725  0.4482  0.0678  0.3890
 9103SOL    HW138942   3.469   4.211   6.636 -3.7545 -1.4308 -0.8776
 9103SOL    HW238943   3.428   4.134   6.754  1.9337  0.0679  0.8430
 9104SOL     OW38944   3.090   4.549   2.073 -0.3554  0.1065 -0.5085
 9104SOL    HW138945   3.167   4.501   2.104 -1.5065 -0.6650  1.1754
 9104SOL    HW238946   3.071   4.623   2.130 -1.5015 -0.0731 -0.6575
 9105SOL     OW38947   1.537   0.040   5.147  0.1754 -0.1802  0.0392
 9105SOL    HW138948   1.519   4.693   5.105 -2.0724  1.6708 -2.6679
 9105SOL    HW238949   1.467   0.099   5.117  0.2898 -0.6692 -1.1901
 9106SOL     OW38950   0.123   2.903  14.948 -0.2788 -0.3209 -0.2520
 9106SOL    HW138951   0.126   2.823  14.896 -0.6249  0.3413 -1.3001
 9106SOL    HW238952   0.048   2.953  14.914  0.8323  0.6231 -1.3345
 9107SOL     OW38953   0.574   2.601   8.517 -0.2202  0.3142  0.1712
 9107SOL    HW138954   0.614   2.516   8.496  1.1686  1.4194 -1.6456
 9107SOL    HW238955   0.563   2.630   8.427 -4.1269 -1.1261  0.1747
 9108SOL     OW38956   2.272   2.087   1.979  0.2529 -0.1441  0.1566
 9108SOL    HW138957   2.329   2.047   2.045  0.9511  1.1334  0.3249
 9108SOL    HW238958   2.315   2.103   1.895  1.0098 -0.5460  0.4667
 9109SOL     OW38959   4.259   2.897   6.041 -0.7231  0.0549 -0.7251
 9109SOL    HW138960   4.311   2.916   6.119 -0.8996  1.0895 -0.8600
 9109SOL    HW238961   4.250   2.985   6.003 -3.9525  0.5110  1.1238
 9110SOL     OW38962   0.370   0.034   5.416 -0.1312 -0.5726  0.2310
 9110SOL    HW138963   0.386   0.074   5.331  2.9828  0.5553  1.3599
 9110SOL    HW238964   0.365   0.113   5.471  0.5018 -2.5079  3.0793
 9111SOL     OW38965   2.814   1.864   3.714  0.0939 -0.2861  0.3762
 9111SOL    HW138966   2.843   1.876   3.623  1.6809  0.9741  1.0423
 9111SOL    HW238967   2.838   1.774   3.734 -1.3005 -0.6279  0.5106
 9112SOL     OW38968   1.989   1.489  17.524 -0.0564 -0.0684 -0.1670
 9112SOL    HW138969   2.010   1.579  17.545  0.3796 -0.1625 -0.2002
 9112SOL    HW238970   2.075   1.463  17.491 -0.0047 -1.7325  1.2729
 9113SOL     OW38971   1.583   4.601   1.427 -0.1288  0.5847 -0.7535
 9113SOL    HW138972   1.521   4.539   1.466  1.5260 -0.5552  0.0355
 9113SOL    HW238973   1.637   4.543   1.373 -0.9779 -2.5988  1.8130
 9114SOL     OW38974   1.240   3.442   7.103 -0.2710 -0.0022 -0.3559
 9114SOL    HW138975   1.204   3.515   7.153 -1.0272 -0.4548 -0.2367
 9114SOL    HW238976   1.176   3.371   7.094  0.2360 -0.4840 -0.1200
 9115SOL     OW38977   2.887   0.007   4.619 -0.0174 -0.1240 -0.7299
 9115SOL    HW138978   2.882   0.084   4.561 -0.1358 -1.0051 -1.8991
 9115SOL    HW238979   2.979   0.018   4.641 -0.3999 -0.2910  0.9695
 9116SOL     OW38980   3.431   1.412  13.005  0.0382 -0.5808 -0.9830
 9116SOL    HW138981   3.414   1.375  13.092 -0.4250  2.0581  0.0374
 9116SOL    HW238982   3.493   1.351  12.966  0.1565 -0.1983 -1.3904
 9117SOL     OW38983   0.656   2.134   2.875  0.3742 -0.5737  0.0299
 9117SOL    HW138984   0.619   2.141   2.963 -0.7600  0.0487 -0.5059
 9117SOL    HW238985   0.600   2.068   2.835 -0.5175  0.0084  0.3058
 9118SOL     OW38986   3.504   0.037   2.427  0.2438  0.3571  0.2383
 9118SOL    HW138987   3.434   0.097   2.403  0.1301 -0.3216 -1.0864
 9118SOL    HW238988   3.575   0.088   2.387 -0.6705  0.8884 -0.7008
 9119SOL     OW38989   4.122   4.619   2.404 -0.0713  0.0534  0.4964
 9119SOL    HW138990   4.130   4.563   2.327 -2.5132 -0.3048  0.5138
 9119SOL    HW238991   4.152   4.568   2.479  2.4939 -1.8588 -1.8413
 9120SOL     OW38992   2.590   3.250   7.935  0.0517 -0.0072  0.3300
 9120SOL    HW138993   2.563   3.341   7.919 -0.0720 -0.3380 -1.2754
 9120SOL    HW238994   2.536   3.211   7.867 -1.9652  0.9440  1.3792
 9121SOL     OW38995   3.444   3.231   8.177  0.6797  0.7861  0.0547
 9121SOL    HW138996   3.376   3.247   8.111  0.4375  1.7669  0.5432
 9121SOL    HW238997   3.393   3.191   8.247 -0.6689  0.6736 -0.9810
 9122SOL     OW38998   4.723   1.385   2.106 -0.0555 -0.5037  0.0943
 9122SOL    HW138999   0.010   1.359   2.017  0.9410  0.4076  0.0921
 9122SOL    HW239000   4.638   1.341   2.106  0.6005 -1.7916 -0.2691
 9123SOL     OW39001   4.718   1.398  11.088 -0.4808  0.2635  0.0648
 9123SOL    HW139002   0.030   1.445  11.156 -0.5180 -0.3232  0.4931
 9123SOL    HW239003   4.630   1.403  11.127 -0.0544 -1.0173  1.1656
 9124SOL     OW39004   2.566   2.816  17.370  0.3807 -0.4469  0.6280
 9124SOL    HW139005   2.579   2.793  17.278  0.4780  1.2806  0.2065
 9124SOL    HW239006   2.478   2.779  17.381 -0.0704  0.3468 -0.2321
 9125SOL     OW39007   2.234   3.940   6.020  0.4075 -0.0514  0.1420
 9125SOL    HW139008   2.146   3.929   6.054  1.2202  0.2372  2.3699
 9125SOL    HW239009   2.229   3.890   5.939 -0.2149  3.3248 -1.9014
 9126SOL     OW39010   3.031   1.222   3.685 -0.6394 -0.0920 -0.1224
 9126SOL    HW139011   3.050   1.179   3.768 -2.2378 -0.0565  0.2662
 9126SOL    HW239012   2.943   1.258   3.697 -0.4300  0.5029 -0.3542
 9127SOL     OW39013   2.342   3.592   7.074 -0.6336 -0.1298  0.1047
 9127SOL    HW139014   2.371   3.683   7.083 -0.5707 -0.1861  0.4629
 9127SOL    HW239015   2.415   3.556   7.124 -0.0784  0.2276 -0.4449
 9128SOL     OW39016   4.284   3.947   3.404  0.0806  0.3960  0.3804
 9128SOL    HW139017   4.222   3.925   3.334  3.2953 -0.6967 -2.1406
 9128SOL    HW239018   4.320   3.864   3.434 -2.9585 -0.0609  2.7579
 9129SOL     OW39019   2.556   3.275  15.598  0.2471 -0.3363  0.0078
 9129SOL    HW139020   2.483   3.217  15.620  0.5843 -0.8451 -0.2180
 9129SOL    HW239021   2.580   3.216  15.527  0.8155 -0.9543  0.7106
 9130SOL     OW39022   2.065   1.375   0.248 -0.4398 -0.5045  1.3801
 9130SOL    HW139023   2.088   1.333   0.165 -1.0486 -3.1900  2.5981
 9130SOL    HW239024   2.025   1.452   0.209  1.9828  0.1525  0.1386
 9131SOL     OW39025   0.330   3.825   2.894  0.6723  0.8232 -0.0266
 9131SOL    HW139026   0.257   3.801   2.951 -0.1007  0.5706 -1.1188
 9131SOL    HW239027   0.280   3.811   2.814 -0.0752 -1.1868  0.7910
 9132SOL     OW39028   0.356   4.473  10.920 -0.4732 -0.6858  0.2126
 9132SOL    HW139029   0.344   4.562  10.888  0.1763 -1.2338 -1.5451
 9132SOL    HW239030   0.267   4.438  10.924 -1.0167  1.0345  2.8925
 9133SOL     OW39031   3.302   1.652   6.739  0.5062  0.4814  0.2528
 9133SOL    HW139032   3.235   1.667   6.806 -0.1601  2.4183 -0.8520
 9133SOL    HW239033   3.375   1.610   6.784 -0.4594  1.5033  2.7764
 9134SOL     OW39034   0.715   4.078  12.411 -0.7076  0.3584 -0.5022
 9134SOL    HW139035   0.717   3.983  12.424 -1.4772  0.4972  0.6207
 9134SOL    HW239036   0.790   4.093  12.354 -0.8836 -0.2736 -0.9047
 9135SOL     OW39037   3.822   3.406   1.034  0.3057  0.2969  0.1506
 9135SOL    HW139038   3.918   3.407   1.038  0.3408 -1.5636 -0.3695
 9135SOL    HW239039   3.798   3.364   0.951  0.4154  0.8846 -0.1837
 9136SOL     OW39040   3.997   3.963   3.303 -0.2283 -0.1206  0.3116
 9136SOL    HW139041   4.022   3.883   3.257 -0.7555  0.5466 -1.1096
 9136SOL    HW239042   3.904   3.956   3.283 -0.3544 -1.7428  1.4266
 9137SOL     OW39043   3.033   0.058  16.878 -0.5144  0.0018  0.0303
 9137SOL    HW139044   3.063   0.044  16.789 -1.4381  0.8640 -0.4149
 9137SOL    HW239045   3.045   0.153  16.885  0.2502  0.1030 -2.6571
 9138SOL     OW39046   2.011   2.243  16.859 -0.1164  0.2313  0.2854
 9138SOL    HW139047   2.016   2.253  16.763  1.0131 -0.4427  0.2731
 9138SOL    HW239048   2.070   2.315  16.882  1.6145 -0.5808 -1.5618
 9139SOL     OW39049   3.756   0.454  11.637 -0.2528  0.8140  0.4654
 9139SOL    HW139050   3.779   0.501  11.717  1.2182  0.0012  0.5362
 9139SOL    HW239051   3.708   0.527  11.598  0.2357  1.8701  1.8340
 9140SOL     OW39052   3.481   3.254  12.992 -0.0890 -0.1309  0.6059
 9140SOL    HW139053   3.393   3.290  12.981  0.7071  0.4688 -3.8401
 9140SOL    HW239054   3.538   3.328  13.008  0.5908 -0.6418  0.5554
 9141SOL     OW39055   2.165   4.463  17.049 -0.4875  0.9861 -0.2484
 9141SOL    HW139056   2.129   4.390  17.099 -0.9591  0.5610 -1.2141
 9141SOL    HW239057   2.198   4.417  16.972 -0.5920 -1.6194  1.2803
 9142SOL     OW39058   2.649   0.951   5.022 -0.1459  0.4274 -0.0420
 9142SOL    HW139059   2.652   1.034   4.974 -0.6933  1.5016  1.7284
 9142SOL    HW239060   2.739   0.929   5.046 -0.4665  0.2500  1.0224
 9143SOL     OW39061   0.481   1.687  10.934 -0.5406  0.5816  0.4914
 9143SOL    HW139062   0.448   1.604  10.967  1.9366 -0.8795 -0.6952
 9143SOL    HW239063   0.422   1.751  10.975 -0.7366  0.3382  0.5867
 9144SOL     OW39064   2.991   3.737  15.795 -0.3815  0.0938 -0.0646
 9144SOL    HW139065   2.991   3.830  15.819  1.6175  0.2256 -0.5726
 9144SOL    HW239066   3.072   3.711  15.839 -1.5727 -2.4670  0.5615
 9145SOL     OW39067   2.692   0.179   1.982 -0.2688 -0.1038 -0.2330
 9145SOL    HW139068   2.659   0.229   1.907 -1.7100 -0.3977  0.1952
 9145SOL    HW239069   2.634   0.207   2.053 -0.0876  1.9036 -0.8894
 9146SOL     OW39070   1.888   1.549   8.124  0.0274  0.2711 -0.6555
 9146SOL    HW139071   1.888   1.635   8.166  1.1061 -0.7116  1.3795
 9146SOL    HW239072   1.796   1.549   8.100 -0.1560 -2.5099  0.1267
 9147SOL     OW39073   4.710   0.095   1.161 -0.1178 -0.3961 -0.2536
 9147SOL    HW139074   0.042   0.092   1.227 -0.5013 -2.9839  0.0276
 9147SOL    HW239075   0.008   0.155   1.095 -1.4692  0.7378  0.0678
 9148SOL     OW39076   1.558   0.562   2.010  0.1060  0.4374 -0.6944
 9148SOL    HW139077   1.573   0.655   2.028 -1.1927  0.8768 -1.8667
 9148SOL    HW239078   1.539   0.521   2.094  1.4549  0.4343 -0.3907
 9149SOL     OW39079   3.570   1.862   4.062 -0.4545  0.0120  0.4015
 9149SOL    HW139080   3.619   1.916   4.000  1.0403  0.8713  2.3357
 9149SOL    HW239081   3.488   1.910   4.049  0.2879  1.0142 -0.5681
 9150SOL     OW39082   3.291   3.526   6.161  0.3548  0.1172 -0.1779
 9150SOL    HW139083   3.270   3.523   6.067 -2.5652 -1.6348  0.5300
 9150SOL    HW239084   3.268   3.436   6.184  1.9624 -0.1736  0.2937
 9151SOL     OW39085   0.895   1.488   1.134  0.3908 -0.3336  0.1977
 9151SOL    HW139086   0.939   1.555   1.186 -0.1595 -0.2698  0.5740
 9151SOL    HW239087   0.803   1.513   1.127  0.8872  1.3923 -0.0522
 9152SOL     OW39088   2.403   2.207   5.056 -0.0063 -0.2722 -0.1762
 9152SOL    HW139089   2.453   2.246   5.127 -0.0094 -0.2563 -0.1827
 9152SOL    HW239090   2.339   2.276   5.038  0.1339  0.4315  2.1085
 9153SOL     OW39091   2.705   2.527   2.073  0.1136 -0.5656  0.2530
 9153SOL    HW139092   2.712   2.579   1.993 -0.1668 -2.7244 -1.1796
 9153SOL    HW239093   2.785   2.475   2.071  0.7038  0.2297  2.8796
 9154SOL     OW39094   2.918   0.493  12.198  0.1649  0.6369 -0.4377
 9154SOL    HW139095   2.823   0.492  12.194  0.1566  3.3015 -0.7544
 9154SOL    HW239096   2.949   0.456  12.116  0.6883 -0.7041  0.3550
 9155SOL     OW39097   2.651   0.777   1.856 -0.0228 -0.4655  0.0450
 9155SOL    HW139098   2.646   0.684   1.837  3.6422 -0.5901 -0.2846
 9155SOL    HW239099   2.695   0.813   1.779  0.6855  1.3793  1.3031
 9156SOL     OW39100   2.820   0.411   5.894  0.5761 -0.1492  0.0039
 9156SOL    HW139101   2.771   0.350   5.949  0.1211 -0.7930 -1.1327
 9156SOL    HW239102   2.816   0.498   5.934 -0.4153  0.2411 -0.9595
 9157SOL     OW39103   3.847   1.031   5.444 -0.1284 -0.0364  0.6405
 9157SOL    HW139104   3.932   1.069   5.424  0.2830 -1.6510 -0.7295
 9157SOL    HW239105   3.800   1.111   5.467  1.3589  1.0266 -0.0301
 9158SOL     OW39106   0.141   1.695   3.044 -0.5659  0.4581 -0.3394
 9158SOL    HW139107   0.202   1.769   3.043 -0.2655  0.2244  0.7634
 9158SOL    HW239108   0.126   1.682   3.138  2.4838  0.8943  0.2022
 9159SOL     OW39109   1.030   3.310  13.277 -0.4496  0.2045 -0.1086
 9159SOL    HW139110   0.990   3.223  13.281 -1.9124  0.9350  1.3405
 9159SOL    HW239111   1.119   3.276  13.269 -0.9739 -1.0629 -0.6372
 9160SOL     OW39112   0.430   4.527   2.403 -0.3596  0.3691  0.2769
 9160SOL    HW139113   0.361   4.525   2.337  1.8338  0.6265 -2.0097
 9160SOL    HW239114   0.496   4.469   2.366  1.2246  1.5961  1.1975
 9161SOL     OW39115   0.771   4.672  16.506  0.3115  0.3749 -0.4916
 9161SOL    HW139116   0.741   4.642  16.420  1.5226  1.2399 -1.2152
 9161SOL    HW239117   0.720   0.015  16.518  0.0711  0.2469 -0.6568
 9162SOL     OW39118   1.217   1.751   8.485 -0.0011 -0.3373  0.4497
 9162SOL    HW139119   1.189   1.755   8.393 -1.0083  2.7495  0.8757
 9162SOL    HW239120   1.146   1.795   8.531 -1.8285 -1.6617 -1.1357
 9163SOL     OW39121   2.516   4.718  14.444 -0.3087 -0.1925  0.5430
 9163SOL    HW139122   2.562   4.650  14.493  0.4052 -0.9695 -1.2113
 9163SOL    HW239123   2.431   4.676  14.457 -0.7248  1.1693  2.2803
 9164SOL     OW39124   0.625   4.399   5.944 -0.2303  0.4469  0.3929
 9164SOL    HW139125   0.580   4.315   5.953  1.6014 -0.5928 -0.1056
 9164SOL    HW239126   0.694   4.382   6.007 -0.9180  1.1361  1.3367
 9165SOL     OW39127   1.451   1.528   6.298  0.8280  0.3307  0.0269
 9165SOL    HW139128   1.496   1.482   6.369 -0.9962 -1.5111 -0.0168
 9165SOL    HW239129   1.370   1.549   6.344  0.8082 -1.1611  0.6639
 9166SOL     OW39130   4.586   0.278   3.605  0.3915  0.4318 -1.1576
 9166SOL    HW139131   4.629   0.339   3.545  1.1144  0.5919 -0.4750
 9166SOL    HW239132   4.584   0.199   3.551  2.5052 -1.9223  2.1857
 9167SOL     OW39133   1.531   0.737   8.257 -0.2700  0.0791  0.0450
 9167SOL    HW139134   1.535   0.830   8.234  1.4744 -0.0025  0.0152
 9167SOL    HW239135   1.624   0.714   8.252 -0.0348  0.9655  0.2265
 9168SOL     OW39136   2.916   3.501   1.400  0.3207  0.0059  0.2418
 9168SOL    HW139137   2.874   3.574   1.356 -0.0052 -0.6894 -0.5938
 9168SOL    HW239138   3.005   3.537   1.404  0.1734  0.5388 -1.7857
 9169SOL     OW39139   3.062   2.494   3.843  0.4416  0.3731 -0.4610
 9169SOL    HW139140   3.147   2.462   3.812  0.5476 -0.4014  0.6378
 9169SOL    HW239141   3.098   2.533   3.923  0.7756 -0.6910 -0.0915
 9170SOL     OW39142   1.263   0.479  13.570 -0.2735  0.4462 -0.4870
 9170SOL    HW139143   1.327   0.411  13.594 -0.4881  0.1700 -0.6948
 9170SOL    HW239144   1.277   0.542  13.640 -4.2467  1.6946 -0.8609
 9171SOL     OW39145   4.164   1.839  13.483 -0.0738  0.0972  0.0827
 9171SOL    HW139146   4.134   1.750  13.467  0.2091  0.0011  0.0769
 9171SOL    HW239147   4.192   1.838  13.575  2.4287  2.8533 -0.6282
 9172SOL     OW39148   0.852   3.498   3.226 -0.5480  0.6029 -0.1323
 9172SOL    HW139149   0.892   3.413   3.207 -0.4107  0.2201  1.9172
 9172SOL    HW239150   0.828   3.513   3.135 -0.7883 -2.1830 -0.5258
 9173SOL     OW39151   2.254   4.318   2.086  0.1330 -0.3060 -0.2506
 9173SOL    HW139152   2.286   4.385   2.025 -0.1771 -0.3600 -0.4742
 9173SOL    HW239153   2.226   4.376   2.157 -0.0966 -0.5604 -0.1352
 9174SOL     OW39154   4.129   2.417   8.739 -0.1465  0.0484  0.6797
 9174SOL    HW139155   4.098   2.372   8.660 -1.1459  1.6750  0.1509
 9174SOL    HW239156   4.100   2.354   8.805 -3.2854  0.0272 -0.7138
 9175SOL     OW39157   0.889   2.529   7.461  0.1098 -0.0868 -0.2204
 9175SOL    HW139158   0.875   2.618   7.430 -1.1119 -0.4857 -0.8536
 9175SOL    HW239159   0.984   2.538   7.465  0.0569  0.6996 -0.7593
 9176SOL     OW39160   1.286   2.928   4.673  0.6150  0.5507 -0.0910
 9176SOL    HW139161   1.274   2.978   4.592 -0.6877 -0.1834 -0.3569
 9176SOL    HW239162   1.270   3.004   4.730  2.4259  1.0458 -0.2596
 9177SOL     OW39163   1.536   0.356   6.198  0.2782  0.3720 -0.5650
 9177SOL    HW139164   1.590   0.277   6.189 -1.9859 -1.2959  0.2201
 9177SOL    HW239165   1.609   0.411   6.226  0.6438  0.5504 -1.8562
 9178SOL     OW39166   0.552   1.863  11.698  0.5059 -0.2587 -0.6053
 9178SOL    HW139167   0.646   1.857  11.717  0.4139  0.5688  0.0869
 9178SOL    HW239168   0.528   1.831  11.785 -2.3785  1.0308 -0.9378
 9179SOL     OW39169   4.652   0.932  12.768 -0.4094 -0.0914 -0.1998
 9179SOL    HW139170   0.008   0.909  12.767 -0.4611 -0.3811  1.1828
 9179SOL    HW239171   4.645   0.951  12.675  2.2950 -2.7349 -0.9601
 9180SOL     OW39172   0.577   0.666  17.031 -0.3202  0.1921  0.2822
 9180SOL    HW139173   0.589   0.609  16.954  2.6103  2.3749 -0.9032
 9180SOL    HW239174   0.543   0.744  16.989  1.1163  0.8775  0.3788
 9181SOL     OW39175   3.368   1.750   8.740  0.6102  0.0191  0.2650
 9181SOL    HW139176   3.297   1.719   8.684 -1.2474  0.5770  2.3031
 9181SOL    HW239177   3.336   1.839   8.754 -0.9552 -0.4204 -0.4932
 9182SOL     OW39178   1.736   0.177  11.834 -0.8881  0.1342 -0.2301
 9182SOL    HW139179   1.766   0.095  11.874 -3.0293 -0.6570 -0.2589
 9182SOL    HW239180   1.813   0.201  11.783 -0.1895  0.9531  1.1876
 9183SOL     OW39181   3.889   0.017   4.356 -0.0859 -0.1724 -0.0583
 9183SOL    HW139182   3.874   4.660   4.346 -0.3654  0.0255 -1.4495
 9183SOL    HW239183   3.798   0.044   4.343  0.0298 -0.6348 -1.8039
 9184SOL     OW39184   4.298   3.786   4.514 -0.0653 -0.1127 -0.3487
 9184SOL    HW139185   4.349   3.798   4.594  0.6261  0.5955 -0.9041
 9184SOL    HW239186   4.302   3.691   4.514 -2.3511 -0.2162 -2.0423
 9185SOL     OW39187   2.264   0.349   4.109 -0.1436  0.5244  0.4395
 9185SOL    HW139188   2.352   0.380   4.088 -0.6459  1.0741 -0.8998
 9185SOL    HW239189   2.216   0.376   4.030 -0.8220  2.1923  1.4075
 9186SOL     OW39190   4.517   2.934   6.234 -0.0817 -0.2735  0.0976
 9186SOL    HW139191   4.518   2.845   6.268  0.1354  0.5729  2.3244
 9186SOL    HW239192   4.594   2.947   6.178 -1.2207 -0.6659 -1.5565
 9187SOL     OW39193   2.130   4.528  13.667 -0.3326 -0.2902  0.3912
 9187SOL    HW139194   2.121   4.565  13.579 -0.5208 -2.7874 -0.6370
 9187SOL    HW239195   2.042   4.545  13.702 -0.5182  2.3145 -1.3378
 9188SOL     OW39196   2.418   3.303   1.116  0.3165 -0.2633 -0.1240
 9188SOL    HW139197   2.406   3.214   1.083 -1.3929 -0.3105  0.6478
 9188SOL    HW239198   2.327   3.316   1.142 -0.5618 -0.5043 -3.1657
 9189SOL     OW39199   2.039   0.722  12.859  0.2955  0.2964  0.5131
 9189SOL    HW139200   1.957   0.721  12.811  0.4969 -0.4923  0.1944
 9189SOL    HW239201   2.059   0.815  12.868  1.9498  0.0867 -1.1084
 9190SOL     OW39202   1.702   4.358   9.748 -0.3119  0.2653  0.2751
 9190SOL    HW139203   1.649   4.286   9.714 -0.6815  0.8123 -0.2812
 9190SOL    HW239204   1.697   4.414   9.671  0.3343 -0.5118 -0.3314
 9191SOL     OW39205   1.602   3.133   3.135  0.0130  0.2070 -0.3283
 9191SOL    HW139206   1.512   3.118   3.107  0.0382 -0.1719 -0.2038
 9191SOL    HW239207   1.624   3.045   3.165  0.8340  0.5671  0.1429
 9192SOL     OW39208   2.606   3.624   2.467  0.0865 -0.2260 -0.0729
 9192SOL    HW139209   2.650   3.691   2.415 -1.2972  0.0513 -0.8656
 9192SOL    HW239210   2.591   3.660   2.555 -2.0793  2.6282 -1.6349
 9193SOL     OW39211   2.237   3.784   3.720 -0.2802  0.3933  0.1868
 9193SOL    HW139212   2.151   3.824   3.706 -0.3295  0.0412 -0.5530
 9193SOL    HW239213   2.224   3.714   3.655 -1.1573 -0.4072  1.2042
 9194SOL     OW39214   2.799   0.943   8.705  0.1807  0.8037  0.0491
 9194SOL    HW139215   2.873   0.893   8.671 -0.3093  0.1875 -0.0997
 9194SOL    HW239216   2.841   1.029   8.713 -0.3783  1.2852 -2.2882
 9195SOL     OW39217   2.773   3.060  11.828 -0.4539 -0.2185  0.1877
 9195SOL    HW139218   2.824   3.114  11.768  0.6088  0.2546  1.5196
 9195SOL    HW239219   2.693   3.049  11.778 -0.2491 -0.8715  0.0017
 9196SOL     OW39220   3.333   4.333  14.232 -0.0412 -0.0069  0.4522
 9196SOL    HW139221   3.278   4.309  14.157  1.9220 -0.8028 -0.7197
 9196SOL    HW239222   3.258   4.336  14.292 -1.1647  2.4051 -1.0478
 9197SOL     OW39223   4.186   3.675   6.519 -0.1439 -0.4972  0.1962
 9197SOL    HW139224   4.225   3.682   6.431  0.9493 -0.6770  0.6742
 9197SOL    HW239225   4.134   3.595   6.510  0.6268 -0.9272 -0.4317
 9198SOL     OW39226   1.287   4.353   2.563  0.0132  0.3803  0.0700
 9198SOL    HW139227   1.323   4.267   2.542 -1.2879 -0.0757 -0.3369
 9198SOL    HW239228   1.193   4.333   2.566  0.2025 -0.7067 -1.0143
 9199SOL     OW39229   1.189   1.995   4.546  0.3105  0.4853  0.4970
 9199SOL    HW139230   1.156   1.964   4.462  1.4983  1.5049 -0.3602
 9199SOL    HW239231   1.282   1.970   4.545  0.4009  0.8776 -1.1439
 9200SOL     OW39232   4.452   3.956   9.433 -0.1710  0.1824  0.4130
 9200SOL    HW139233   4.451   4.049   9.456 -0.8581 -0.3803  2.6461
 9200SOL    HW239234   4.379   3.926   9.487  0.7572 -0.1851  1.4714
 9201SOL     OW39235   1.927   2.062   3.499 -0.6181  0.2296  0.3866
 9201SOL    HW139236   1.937   2.138   3.441 -0.8962  0.9819  1.3293
 9201SOL    HW239237   1.858   2.018   3.450  1.5219 -2.1270 -0.5122
 9202SOL     OW39238   2.153   2.387  17.372  0.4620 -0.1654  0.2536
 9202SOL    HW139239   2.136   2.466  17.321  1.6322 -1.2014 -1.7622
 9202SOL    HW239240   2.099   2.326  17.321  1.9465  0.1764 -1.7306
 9203SOL     OW39241   2.943   2.425   6.592  0.3375 -0.2557 -0.3192
 9203SOL    HW139242   2.979   2.383   6.514 -2.2037  1.5619 -2.4545
 9203SOL    HW239243   2.849   2.423   6.574  0.2081 -1.1229  0.4210
 9204SOL     OW39244   2.030   1.143  15.969  0.5074  1.2482  0.1035
 9204SOL    HW139245   1.935   1.135  15.974  0.6691 -0.9832 -0.2744
 9204SOL    HW239246   2.053   1.059  15.928  2.0569  0.7788  1.9356
 9205SOL     OW39247   0.155   3.316   3.169 -0.8845 -0.5568 -0.4329
 9205SOL    HW139248   0.092   3.387   3.157 -1.4484 -1.0498 -0.4104
 9205SOL    HW239249   0.221   3.372   3.210 -2.1988  0.2931  0.5074
 9206SOL     OW39250   2.819   0.298   9.364  0.4104 -0.5752  0.2527
 9206SOL    HW139251   2.778   0.221   9.404  0.9546 -0.7061  0.5538
 9206SOL    HW239252   2.749   0.361   9.382 -0.9149 -1.7802 -0.6828
 9207SOL     OW39253   3.917   1.740   5.393 -0.0060 -0.3527 -0.2716
 9207SOL    HW139254   3.839   1.709   5.438  0.4597 -0.0928  0.7208
 9207SOL    HW239255   3.966   1.760   5.473  1.6065  0.5214 -1.4731
 9208SOL     OW39256   0.645   1.818   8.118  0.0582  0.2435  0.7836
 9208SOL    HW139257   0.666   1.820   8.024  1.7583  3.3161  1.2109
 9208SOL    HW239258   0.611   1.906   8.134 -0.9389 -0.2874  1.5994
 9209SOL     OW39259   1.605   1.329   5.694  0.8386  0.2022  0.1026
 9209SOL    HW139260   1.662   1.401   5.666  0.4354  0.9396  1.1737
 9209SOL    HW239261   1.561   1.380   5.762  0.4221 -2.1333  1.5727
 9210SOL     OW39262   0.253   3.238   2.780 -0.3362  0.0719  0.1679
 9210SOL    HW139263   0.247   3.154   2.825 -0.5972 -0.0832 -0.1537
 9210SOL    HW239264   0.298   3.290   2.846  0.1649 -1.2005  0.8239
 9211SOL     OW39265   0.414   0.259   5.561  0.0588  0.5120 -0.2613
 9211SOL    HW139266   0.456   0.181   5.596 -0.0556  1.0234  1.0219
 9211SOL    HW239267   0.476   0.325   5.591  0.4559  0.6201 -1.3331
 9212SOL     OW39268   1.133   0.872  11.090  0.0528  0.2311 -0.3005
 9212SOL    HW139269   1.098   0.860  11.178 -0.5717 -0.6673 -0.6728
 9212SOL    HW239270   1.080   0.818  11.031 -1.5017  0.9119  0.4892
 9213SOL     OW39271   1.475   1.249   4.682  0.2072  0.3870  0.1652
 9213SOL    HW139272   1.537   1.211   4.745 -1.4143  1.4846  2.4225
 9213SOL    HW239273   1.436   1.314   4.740 -0.5989 -0.8458  1.0139
 9214SOL     OW39274   2.338   3.416  10.691  0.3474 -0.6072  0.1162
 9214SOL    HW139275   2.312   3.387  10.778  0.8220  0.3893  0.5860
 9214SOL    HW239276   2.251   3.431  10.655  1.5401  0.7797 -2.2284
 9215SOL     OW39277   1.864   0.638   5.598 -0.2362 -0.3703  0.3437
 9215SOL    HW139278   1.917   0.718   5.604 -2.7679  1.3019  0.6540
 9215SOL    HW239279   1.786   0.673   5.642  0.1972 -0.0078  0.8170
 9216SOL     OW39280   1.037   4.589   0.491  0.2217 -0.1323 -0.1213
 9216SOL    HW139281   1.096   4.604   0.418 -1.5389 -2.4499 -2.0133
 9216SOL    HW239282   1.021   4.496   0.474  0.6834 -0.1567 -0.3880
 9217SOL     OW39283   1.108   2.024   2.080  0.3103 -0.0535  0.2326
 9217SOL    HW139284   1.095   1.949   2.138 -0.0101 -0.9757 -1.0456
 9217SOL    HW239285   1.204   2.027   2.077  0.4295 -2.7788  2.0925
 9218SOL     OW39286   3.879   0.572   3.185  0.2576 -0.3927 -0.2271
 9218SOL    HW139287   3.885   0.550   3.278  1.0529 -1.0321 -0.4213
 9218SOL    HW239288   3.927   0.655   3.193  0.2237 -0.7374  3.2206
 9219SOL     OW39289   2.978   2.414   3.187  0.4047  0.3318 -0.2759
 9219SOL    HW139290   3.010   2.346   3.246  2.0574  0.4629 -1.0206
 9219SOL    HW239291   2.925   2.368   3.122 -0.5801 -1.8148  2.0825
 9220SOL     OW39292   1.957   2.204   8.118 -0.0462  0.1575 -0.1658
 9220SOL    HW139293   1.953   2.156   8.201 -0.5821  0.2954 -0.1131
 9220SOL    HW239294   1.912   2.285   8.144  1.2782  0.7885  0.1609
 9221SOL     OW39295   3.084   4.171  15.386 -0.3260 -0.5013  0.0491
 9221SOL    HW139296   3.127   4.256  15.392 -2.6159  0.4518  3.2047
 9221SOL    HW239297   3.048   4.171  15.297  0.2522  2.1708 -0.1830
 9222SOL     OW39298   4.061   0.446   7.015 -0.5425 -0.1038 -0.4513
 9222SOL    HW139299   4.132   0.389   7.045 -0.6043  1.2317  2.1748
 9222SOL    HW239300   4.111   0.519   6.978  1.7206 -2.0028 -1.1443
 9223SOL     OW39301   3.735   3.626  10.326  0.1837  0.5236 -0.0841
 9223SOL    HW139302   3.830   3.621  10.338  0.0655 -0.8479  0.2837
 9223SOL    HW239303   3.708   3.551  10.274  4.5015  0.4669 -2.2492
 9224SOL     OW39304   1.304   4.287   5.908  0.1991  0.4128 -0.5506
 9224SOL    HW139305   1.301   4.308   5.814 -1.3627  1.9348 -0.1531
 9224SOL    HW239306   1.385   4.330   5.938  1.8843 -0.7953 -3.3405
 9225SOL     OW39307   2.797   2.128   5.171 -0.2632  0.2957  1.0617
 9225SOL    HW139308   2.770   2.183   5.245 -1.0844  1.9760 -0.5008
 9225SOL    HW239309   2.770   2.039   5.192 -1.9009  0.5845  0.1880
 9226SOL     OW39310   3.873   2.634  17.104 -0.4418 -0.2314 -0.4634
 9226SOL    HW139311   3.795   2.679  17.071 -2.8082 -1.2705  3.7388
 9226SOL    HW239312   3.945   2.657  17.046 -0.1302 -1.4496 -0.5483
 9227SOL     OW39313   3.765   2.597  10.022  0.5426 -0.0228 -0.3971
 9227SOL    HW139314   3.800   2.636  10.102 -0.6093 -0.3757  0.2787
 9227SOL    HW239315   3.845   2.600   9.969  0.6379 -3.2847 -0.4760
 9228SOL     OW39316   3.492   0.411   7.396 -0.5412 -0.0806  0.5375
 9228SOL    HW139317   3.543   0.476   7.348  0.0121 -0.5041  0.5452
 9228SOL    HW239318   3.434   0.471   7.444 -1.9617 -0.7948 -0.2743
 9229SOL     OW39319   0.512   3.038   4.690  0.2379 -0.0656 -0.3493
 9229SOL    HW139320   0.439   3.096   4.671 -0.0949 -0.2165  0.4764
 9229SOL    HW239321   0.540   3.015   4.601  1.5608  1.3747 -0.3247
 9230SOL     OW39322   3.931   3.524   8.885  0.2131 -0.0483  0.5372
 9230SOL    HW139323   4.025   3.517   8.866 -0.3795 -0.5454 -2.1910
 9230SOL    HW239324   3.929   3.608   8.930  0.4467 -0.0841  0.6136
 9231SOL     OW39325   4.703   4.102   8.214 -0.5234 -0.1345  0.0252
 9231SOL    HW139326   0.055   4.131   8.231 -1.3156  1.9243  0.5726
 9231SOL    HW239327   4.659   4.186   8.201  0.4795 -0.0448 -2.7572
 9232SOL     OW39328   2.194   0.576  12.319  0.3037 -0.0710 -0.0640
 9232SOL    HW139329   2.240   0.587  12.236  0.4431 -1.8030 -0.2144
 9232SOL    HW239330   2.274   0.556  12.369  0.7361  0.9364 -0.3411
 9233SOL     OW39331   1.928   1.787   8.253  0.2377 -0.2931 -0.2376
 9233SOL    HW139332   1.944   1.854   8.186  2.2333 -1.2195 -0.6920
 9233SOL    HW239333   1.952   1.833   8.334  1.3208 -1.2104 -0.0371
 9234SOL     OW39334   4.629   2.999   4.176 -0.1818  0.5357 -0.5174
 9234SOL    HW139335   4.550   3.010   4.229 -0.6867 -0.4626 -1.0584
 9234SOL    HW239336   4.597   3.031   4.092 -2.9725 -1.2769 -0.1663
 9235SOL     OW39337   0.666   0.262   8.028 -0.4640  0.3124  0.2651
 9235SOL    HW139338   0.758   0.254   8.053 -0.1504 -2.2207 -1.7599
 9235SOL    HW239339   0.662   0.244   7.934 -0.0786 -1.5249  0.6132
 9236SOL     OW39340   0.464   2.020   7.742 -0.2688  0.1019 -0.2014
 9236SOL    HW139341   0.411   2.019   7.822 -1.2982 -1.5675 -0.9161
 9236SOL    HW239342   0.502   1.933   7.741  0.7353  0.5151  1.8418
 9237SOL     OW39343   1.925   0.465   3.104 -0.3042  0.6840 -0.8285
 9237SOL    HW139344   1.965   0.400   3.162 -2.3764 -0.5062 -0.7384
 9237SOL    HW239345   1.850   0.416   3.072 -0.7548  0.8403 -0.0138
 9238SOL     OW39346   2.305   1.628   7.203 -0.0805 -0.2117  0.1877
 9238SOL    HW139347   2.390   1.657   7.170 -0.4091  2.0025  1.2624
 9238SOL    HW239348   2.267   1.583   7.127  0.1263 -1.0150  0.5717
 9239SOL     OW39349   1.380   1.293  17.625  0.3279 -0.1787  0.3590
 9239SOL    HW139350   1.379   1.369  17.683 -0.2864  0.8218 -0.9501
 9239SOL    HW239351   1.293   1.308  17.587  0.6705 -0.6317 -0.6146
 9240SOL     OW39352   3.576   3.410   4.907 -0.0679 -0.1404 -0.1918
 9240SOL    HW139353   3.517   3.376   4.974  0.1720 -0.9133 -0.3754
 9240SOL    HW239354   3.542   3.353   4.838 -1.5931  0.3994  0.1086
 9241SOL     OW39355   1.401   1.863   9.223 -0.0489  0.1505 -0.1396
 9241SOL    HW139356   1.481   1.836   9.177 -1.7432  1.0281 -3.6468
 9241SOL    HW239357   1.432   1.880   9.312  1.6765  0.4982 -0.7943
 9242SOL     OW39358   1.806   4.262   6.426 -0.1381 -0.7561  0.3050
 9242SOL    HW139359   1.753   4.323   6.477  0.8922 -1.0213  1.6890
 9242SOL    HW239360   1.892   4.288   6.459  0.3251  1.4475 -2.6356
 9243SOL     OW39361   2.247   0.758  13.986 -0.4819  0.1449 -0.4484
 9243SOL    HW139362   2.182   0.693  14.012  0.1202  0.3428  1.5398
 9243SOL    HW239363   2.225   0.827  14.049 -0.0582 -0.9110  0.8520
 9244SOL     OW39364   4.691   0.307   9.475  0.7528 -0.0757 -0.0599
 9244SOL    HW139365   4.635   0.384   9.467 -0.0586 -0.7063 -0.4040
 9244SOL    HW239366   4.654   0.233   9.428 -1.1015  1.4611 -1.0188
 9245SOL     OW39367   2.477   2.196   2.541 -0.0161 -0.3279  0.6758
 9245SOL    HW139368   2.450   2.288   2.537  0.1789 -0.3231 -0.6255
 9245SOL    HW239369   2.563   2.202   2.500 -1.4499  3.5802 -1.7944
 9246SOL     OW39370   4.734   2.423   6.819 -0.5855 -0.0329  0.3263
 9246SOL    HW139371   4.702   2.453   6.904  1.6756 -3.1685  2.2687
 9246SOL    HW239372   0.008   2.334   6.852  0.4395  0.3548  1.0236
 9247SOL     OW39373   4.635   2.287   2.482  0.2170  0.6271  0.5931
 9247SOL    HW139374   4.613   2.310   2.391  1.8618  0.7019  0.2244
 9247SOL    HW239375   4.599   2.361   2.532  0.3387  1.7271 -0.9261
 9248SOL     OW39376   0.354   2.168  16.825  0.1625  0.5879 -0.4768
 9248SOL    HW139377   0.324   2.190  16.913 -0.6973 -1.2491 -0.3029
 9248SOL    HW239378   0.350   2.255  16.787  0.0340  0.5000 -0.6668
 9249SOL     OW39379   4.205   1.574   5.731  0.0768 -0.3674 -0.6730
 9249SOL    HW139380   4.203   1.479   5.736 -1.2550 -0.4339 -2.4420
 9249SOL    HW239381   4.297   1.587   5.707  0.4747 -1.9371 -0.0109
 9250SOL     OW39382   1.131   4.259  16.004 -0.3832  0.4069  0.0678
 9250SOL    HW139383   1.040   4.274  16.029 -0.6537  0.8043 -1.1701
 9250SOL    HW239384   1.180   4.270  16.086 -1.4687  2.8385  0.3819
 9251SOL     OW39385   2.917   3.444  15.137 -0.5871  0.0823  0.4620
 9251SOL    HW139386   2.897   3.437  15.230  0.2295 -0.0002  0.6302
 9251SOL    HW239387   2.967   3.363  15.127  0.1852  0.6247 -0.0118
 9252SOL     OW39388   3.788   0.939   5.198  0.2542  0.2124 -0.3637
 9252SOL    HW139389   3.749   1.018   5.162 -0.6406  0.1074  0.3797
 9252SOL    HW239390   3.787   0.965   5.290 -2.1436  0.3784 -0.4586
 9253SOL     OW39391   1.152   0.009   7.779  0.5251 -0.3007 -0.3187
 9253SOL    HW139392   1.149   4.652   7.797  1.7891 -0.3324 -0.2924
 9253SOL    HW239393   1.234   0.028   7.824  0.5752 -1.7529  0.1965
 9254SOL     OW39394   3.827   3.275   4.078  0.2393  0.1213 -0.1638
 9254SOL    HW139395   3.801   3.289   3.987 -3.2846  0.5096  0.8977
 9254SOL    HW239396   3.855   3.184   4.071  0.2718 -0.0175  1.7801
 9255SOL     OW39397   2.423   2.972  14.806  0.0651  0.0870  0.0142
 9255SOL    HW139398   2.411   3.037  14.737 -1.9208  0.2650  0.5107
 9255SOL    HW239399   2.383   2.894  14.766  0.5632 -0.9632  1.5540
 9256SOL     OW39400   3.078   2.992  13.725 -0.1823 -0.2950  0.7719
 9256SOL    HW139401   3.046   3.082  13.717  1.1669  0.1953  0.9946
 9256SOL    HW239402   3.121   2.989  13.640  1.0067 -0.8619  1.3838
 9257SOL     OW39403   3.273   1.076  13.542  0.4168  0.2992 -0.3424
 9257SOL    HW139404   3.244   1.078  13.451 -1.2696 -2.5857  0.1191
 9257SOL    HW239405   3.291   1.166  13.568  2.0969  0.3816 -1.7722
 9258SOL     OW39406   0.199   1.316   2.908  0.6232  0.0287 -0.0527
 9258SOL    HW139407   0.279   1.367   2.896  1.1595 -0.3872  1.7241
 9258SOL    HW239408   0.189   1.257   2.832  0.3028 -0.5738  0.4539
 9259SOL     OW39409   0.683   1.283   4.750  0.1000  0.0899 -0.2298
 9259SOL    HW139410   0.757   1.310   4.696  1.6231  2.7143  3.1508
 9259SOL    HW239411   0.660   1.358   4.806 -0.2150 -0.1457 -0.0431
 9260SOL     OW39412   0.715   2.011  14.869 -0.1970  0.0733 -0.3090
 9260SOL    HW139413   0.790   1.971  14.913 -1.4512 -2.2542 -0.3167
 9260SOL    HW239414   0.644   1.955  14.901 -0.8644  0.3733 -1.2714
 9261SOL     OW39415   0.520   1.866   2.794 -0.6144 -0.3815 -0.1099
 9261SOL    HW139416   0.482   1.864   2.882  1.6534 -2.8600  0.8213
 9261SOL    HW239417   0.449   1.817   2.751 -2.7057  1.2059  1.5315
 9262SOL     OW39418   0.026   1.889  14.632 -0.6690  0.4146 -0.3541
 9262SOL    HW139419   0.043   1.851  14.546  0.4374  0.9961 -0.3936
 9262SOL    HW239420   4.717   1.972  14.618 -0.3557  0.9604  1.9276
 9263SOL     OW39421   0.165   0.753  16.773  0.0919 -0.2595  0.3123
 9263SOL    HW139422   0.185   0.827  16.716  0.2035 -0.3980  0.1711
 9263SOL    HW239423   0.093   0.797  16.817 -0.6843 -1.3572  0.1292
 9264SOL     OW39424   3.871   4.379   4.488 -0.6769  0.6054  0.4536
 9264SOL    HW139425   3.786   4.348   4.518 -0.3638 -1.4673 -0.8272
 9264SOL    HW239426   3.871   4.455   4.547 -0.0992  2.0558 -1.4204
 9265SOL     OW39427   4.117   1.550   7.930  0.0419  0.0844  0.1654
 9265SOL    HW139428   4.203   1.529   7.894 -0.4313 -0.1696 -0.8314
 9265SOL    HW239429   4.126   1.632   7.978  0.6952 -1.1287  2.1175
 9266SOL     OW39430   1.190   0.848  12.189 -0.0923  0.1479 -0.4279
 9266SOL    HW139431   1.241   0.775  12.225  3.2402  1.5866 -2.2399
 9266SOL    HW239432   1.255   0.898  12.138 -0.3036  0.0385 -0.8031
 9267SOL     OW39433   0.001   1.376   5.563  0.1606  0.1060 -0.2343
 9267SOL    HW139434   0.025   1.284   5.563 -1.4711 -0.3156 -0.3129
 9267SOL    HW239435   4.646   1.373   5.536  0.2630 -0.2361 -0.5362
 9268SOL     OW39436   3.433   2.430  16.058  0.5306  0.2925  0.1164
 9268SOL    HW139437   3.384   2.508  16.085 -1.0516 -0.7250  0.1686
 9268SOL    HW239438   3.523   2.463  16.060 -0.3463  2.9128 -3.8027
 9269SOL     OW39439   0.771   1.349   4.440  0.0164  0.2379  0.5251
 9269SOL    HW139440   0.824   1.418   4.399 -2.3201  0.0768 -2.7687
 9269SOL    HW239441   0.822   1.338   4.520 -2.9911  0.9085  2.5291
 9270SOL     OW39442   3.339   3.250   2.118 -0.1328 -0.2340  0.1583
 9270SOL    HW139443   3.416   3.195   2.129 -1.7771 -2.6721 -0.4897
 9270SOL    HW239444   3.357   3.299   2.199 -0.2109  1.7709 -1.0314
 9271SOL     OW39445   3.547   3.408  14.504  0.2176 -0.1720  0.2752
 9271SOL    HW139446   3.511   3.359  14.430 -0.4677  3.1947 -1.6084
 9271SOL    HW239447   3.640   3.411  14.480  0.2355  2.1174  0.6515
 9272SOL     OW39448   1.244   4.289   1.281 -0.5178 -0.6092 -0.0482
 9272SOL    HW139449   1.159   4.312   1.245 -0.8869 -2.6774 -0.4841
 9272SOL    HW239450   1.270   4.377   1.309 -1.2081 -0.4698  0.1524
 9273SOL     OW39451   1.607   0.679   4.999  0.5045  0.1188 -0.2713
 9273SOL    HW139452   1.630   0.772   5.008 -3.5405  1.2508 -1.5989
 9273SOL    HW239453   1.613   0.668   4.904  1.0993  1.0692 -0.3465
 9274SOL     OW39454   1.745   1.181  15.536 -0.1238  0.1495 -0.4758
 9274SOL    HW139455   1.799   1.260  15.535 -1.0091  0.7408 -2.0890
 9274SOL    HW239456   1.806   1.108  15.531  0.2416  0.2649  1.9926
 9275SOL     OW39457   4.293   0.258  16.434 -0.0765  0.2661 -0.5377
 9275SOL    HW139458   4.201   0.269  16.412 -0.6509  0.9679  2.2166
 9275SOL    HW239459   4.307   0.348  16.465 -0.5306 -0.2665  1.1817
 9276SOL     OW39460   2.196   0.944  13.770 -0.1176 -0.1364 -0.0697
 9276SOL    HW139461   2.274   0.996  13.786  0.2785 -0.1809 -1.8857
 9276SOL    HW239462   2.209   0.869  13.829 -0.9228 -0.9159 -0.8963
 9277SOL     OW39463   0.047   3.326   6.470 -0.1720 -0.0235 -0.7182
 9277SOL    HW139464   0.010   3.400   6.421 -0.2988  0.6818  0.4362
 9277SOL    HW239465   4.726   3.252   6.453 -2.2024  1.2264  0.7739
 9278SOL     OW39466   1.626   1.529   4.793  0.1075 -0.1316 -0.0535
 9278SOL    HW139467   1.542   1.483   4.791 -0.2967  0.5842  0.4203
 9278SOL    HW239468   1.679   1.485   4.727 -1.3557 -0.4848 -0.9784
 9279SOL     OW39469   3.337   2.186   3.466 -0.4799 -0.2338 -0.2284
 9279SOL    HW139470   3.351   2.141   3.383  0.7467  0.3718 -0.3626
 9279SOL    HW239471   3.364   2.275   3.442 -0.4460 -0.0547  0.4804
 9280SOL     OW39472   0.259   4.667  16.908 -0.6092 -0.7925  0.2145
 9280SOL    HW139473   0.277   4.672  16.814 -0.7875  2.8285  0.3686
 9280SOL    HW239474   0.171   4.703  16.899 -1.3535 -2.8612 -0.7557
 9281SOL     OW39475   1.037   1.185  14.155  0.0824 -0.6219 -0.4515
 9281SOL    HW139476   1.017   1.095  14.182  0.3509 -0.4154  0.4440
 9281SOL    HW239477   0.990   1.211  14.076 -1.4808  1.8766  1.3007
 9282SOL     OW39478   2.403   1.329   0.752 -0.3536  0.5084 -0.3874
 9282SOL    HW139479   2.375   1.238   0.742 -0.6257  0.5957 -0.4160
 9282SOL    HW239480   2.340   1.366   0.691  0.5242  1.5703 -0.6548
 9283SOL     OW39481   0.383   3.239   3.966  0.4407  0.7460 -0.0656
 9283SOL    HW139482   0.382   3.202   3.877 -2.1553 -0.2747  0.4006
 9283SOL    HW239483   0.342   3.324   3.954 -0.2341  0.0527 -2.8021
 9284SOL     OW39484   1.668   0.671  13.088  0.4165 -0.3106 -0.1146
 9284SOL    HW139485   1.742   0.611  13.086  0.7984  0.1073  1.5476
 9284SOL    HW239486   1.602   0.629  13.033  0.5640 -0.1776 -0.3952
 9285SOL     OW39487   3.792   3.706   5.503 -0.0574  0.2586  0.4809
 9285SOL    HW139488   3.832   3.767   5.565 -1.2083  0.8243  0.6707
 9285SOL    HW239489   3.875   3.662   5.481  0.6229  2.3042 -1.0737
 9286SOL     OW39490   0.328   3.367   5.903 -0.4867 -0.2932  0.2975
 9286SOL    HW139491   0.412   3.321   5.905 -1.0571 -1.2640  1.2814
 9286SOL    HW239492   0.342   3.454   5.864  1.0890  0.1535  1.8567
 9287SOL     OW39493   2.058   4.181   3.160 -0.1731 -0.5899  0.6287
 9287SOL    HW139494   1.987   4.235   3.195 -0.9172 -0.4746 -1.0569
 9287SOL    HW239495   2.026   4.166   3.071  1.1980  0.8133 -0.1033
 9288SOL     OW39496   2.508   2.459   7.689  0.4759  0.9118  0.3368
 9288SOL    HW139497   2.495   2.554   7.692  1.7926  1.1116 -0.4087
 9288SOL    HW239498   2.503   2.443   7.783  4.2637 -2.0334  0.0308
 9289SOL     OW39499   3.436   0.841   3.786 -0.0022 -0.0853 -0.9393
 9289SOL    HW139500   3.439   0.825   3.880  0.3302 -1.7098 -1.2145
 9289SOL    HW239501   3.484   0.765   3.753  1.3113  1.2073 -1.9869
 9290SOL     OW39502   4.652   4.032   5.574  0.2906  0.1428 -0.3078
 9290SOL    HW139503   4.562   4.015   5.604  1.6269 -2.1012  2.4059
 9290SOL    HW239504   4.696   3.985   5.645  1.5582  2.1719  0.2524
 9291SOL     OW39505   2.078   3.445   9.555 -0.2411 -0.0609  0.4384
 9291SOL    HW139506   2.166   3.409   9.567  0.2822  0.8439 -0.6579
 9291SOL    HW239507   2.027   3.368   9.580 -0.6828  0.4251  1.0661
 9292SOL     OW39508   1.330   2.176  12.955 -0.6073  0.5800  0.4030
 9292SOL    HW139509   1.320   2.270  12.971 -0.1675  0.5887  0.6259
 9292SOL    HW239510   1.262   2.151  13.018 -0.2516 -0.0901  0.5147
 9293SOL     OW39511   0.624   2.128   9.240 -0.1374  0.0032  0.0732
 9293SOL    HW139512   0.668   2.046   9.258  1.0904  0.7812  0.6287
 9293SOL    HW239513   0.646   2.171   9.322  0.9352 -0.5090  0.0560
 9294SOL     OW39514   1.394   2.723   5.520 -0.1980 -0.0943  0.2620
 9294SOL    HW139515   1.413   2.738   5.427 -1.9405  2.1790  0.2729
 9294SOL    HW239516   1.315   2.670   5.508  0.4684 -1.1466  0.4959
 9295SOL     OW39517   0.730   0.284   4.288  0.0991 -0.2894  0.2310
 9295SOL    HW139518   0.699   0.213   4.344 -5.3557  1.6049 -0.4758
 9295SOL    HW239519   0.681   0.352   4.335  1.5864  0.8254  0.1766
 9296SOL     OW39520   1.064   2.717   0.382  0.0817 -0.4536  0.2322
 9296SOL    HW139521   1.070   2.714   0.477 -0.6431 -0.3539  0.2834
 9296SOL    HW239522   1.013   2.796   0.359  1.7945  0.6525  0.2292
 9297SOL     OW39523   0.927   2.163  12.935 -0.5023  0.2239  0.2877
 9297SOL    HW139524   0.932   2.084  12.881 -1.5605 -0.0271  0.5640
 9297SOL    HW239525   0.991   2.219  12.891 -1.0413  1.2745  0.8186
 9298SOL     OW39526   3.883   0.465   4.693  0.0054 -0.3705 -0.4908
 9298SOL    HW139527   3.952   0.403   4.713  1.4997  1.8886  1.4163
 9298SOL    HW239528   3.850   0.488   4.780 -1.0468  1.6536 -1.4122
 9299SOL     OW39529   0.893   2.681  10.736 -0.0954 -0.7206 -0.3326
 9299SOL    HW139530   0.900   2.776  10.733  0.8192 -0.8029 -0.9614
 9299SOL    HW239531   0.907   2.661  10.829 -1.9433  0.8287  0.2665
 9300SOL     OW39532   3.470   3.303   3.925  0.1148  0.6207  0.1834
 9300SOL    HW139533   3.399   3.360   3.894 -1.9490 -1.7350  0.5952
 9300SOL    HW239534   3.435   3.239   3.987  2.8561 -1.8366 -0.8114
 9301SOL     OW39535   4.587   4.609   1.111 -0.0774  0.1779 -0.0125
 9301SOL    HW139536   4.494   4.623   1.092  0.7585  2.3825 -2.6174
 9301SOL    HW239537   4.604   4.691   1.157  0.5092  0.0615 -0.0232
 9302SOL     OW39538   2.003   3.960   3.913 -0.3766  0.4078 -0.1018
 9302SOL    HW139539   1.961   3.961   3.999  1.3021 -0.0311  0.7245
 9302SOL    HW239540   1.951   4.011   3.851  2.1617 -0.6843 -3.1451
 9303SOL     OW39541   2.114   1.147  17.458  0.0671  0.6166 -0.0280
 9303SOL    HW139542   2.092   1.060  17.423 -0.8119  1.2321 -1.0328
 9303SOL    HW239543   2.027   1.183  17.437  0.1358  1.1689  0.6574
 9304SOL     OW39544   3.336   0.399  12.991 -0.0007 -0.1403  0.0247
 9304SOL    HW139545   3.267   0.334  12.982 -0.7189  0.8769 -2.0393
 9304SOL    HW239546   3.418   0.351  12.976  1.2181  1.5951  1.0256
 9305SOL     OW39547   1.474   4.219   9.669 -0.2960  0.0477 -0.1254
 9305SOL    HW139548   1.423   4.263   9.737 -1.2935 -0.8925 -0.2598
 9305SOL    HW239549   1.412   4.156   9.631 -1.7794  0.8121  1.0048
 9306SOL     OW39550   4.385   4.010   5.615  0.3679  0.7685  0.1816
 9306SOL    HW139551   4.348   3.988   5.700 -0.1077  0.2889 -0.1436
 9306SOL    HW239552   4.311   4.061   5.583  0.2556  0.6314  0.2232
 9307SOL     OW39553   4.690   0.340  13.927 -0.0460  0.2978  0.2233
 9307SOL    HW139554   0.027   0.285  13.902  1.0918  1.4861  0.9945
 9307SOL    HW239555   4.632   0.338  13.851 -0.7412 -1.6926  0.8026
 9308SOL     OW39556   0.948   0.107  11.656  0.2650  0.4043 -0.2987
 9308SOL    HW139557   0.927   0.177  11.594 -0.9721 -0.0283 -0.3742
 9308SOL    HW239558   1.043   0.115  11.662  0.1477 -0.0708  2.0423
 9309SOL     OW39559   0.897   1.655   8.616  0.3654 -0.4384 -0.6286
 9309SOL    HW139560   0.901   1.600   8.694  1.4236  0.4746 -0.0307
 9309SOL    HW239561   0.909   1.741   8.656 -3.3600  1.0174 -2.6477
 9310SOL     OW39562   3.024   3.057   8.881 -0.2808 -1.0727 -0.7604
 9310SOL    HW139563   2.947   3.112   8.895  0.2689 -0.3884 -0.4170
 9310SOL    HW239564   2.996   2.967   8.896 -0.7746 -0.9712 -1.1045
 9311SOL     OW39565   4.309   0.091  12.349 -0.8094  0.0851 -0.8925
 9311SOL    HW139566   4.390   0.045  12.326 -0.0543  1.5542 -1.2240
 9311SOL    HW239567   4.332   0.104  12.441  0.3719  0.8018 -1.2880
 9312SOL     OW39568   3.374   2.789   4.170 -0.1540  0.2651 -0.0190
 9312SOL    HW139569   3.407   2.707   4.134 -3.0433 -1.0558  0.3374
 9312SOL    HW239570   3.449   2.840   4.139  0.6021 -1.0301 -0.3064
 9313SOL     OW39571   0.182   1.636   2.206 -0.1068  0.4735  0.2086
 9313SOL    HW139572   0.191   1.653   2.112 -2.0410  2.0055  0.3048
 9313SOL    HW239573   0.138   1.551   2.209 -0.7407  0.7937 -0.0757
 9314SOL     OW39574   0.517   4.547   9.496  0.1951  0.6914  0.3057
 9314SOL    HW139575   0.547   4.459   9.473 -0.2741  0.6267 -0.0618
 9314SOL    HW239576   0.517   4.586   9.409  0.6019 -1.3775 -0.6282
 9315SOL     OW39577   4.624   2.963   5.140  0.1696  0.0235 -0.0669
 9315SOL    HW139578   4.582   2.956   5.226 -0.8950 -0.3545 -0.6103
 9315SOL    HW239579   4.693   2.898   5.147 -0.3356 -0.7728 -2.2824
 9316SOL     OW39580   2.455   1.509  15.656  0.1724  0.2834 -0.7837
 9316SOL    HW139581   2.529   1.456  15.687  1.5843  3.3289  1.0884
 9316SOL    HW239582   2.435   1.464  15.574  1.5532 -2.8408  0.5837
 9317SOL     OW39583   1.209   4.558   4.846 -0.0604 -0.0057 -0.0554
 9317SOL    HW139584   1.178   4.484   4.793  0.8119  1.7118 -2.9583
 9317SOL    HW239585   1.277   4.585   4.784  0.8004 -0.1167  0.8432
 9318SOL     OW39586   0.766   2.717   4.983  0.3813  0.1645  0.1647
 9318SOL    HW139587   0.780   2.764   5.065 -0.9655 -0.0925  0.5417
 9318SOL    HW239588   0.806   2.632   5.003 -1.2129 -1.0005 -1.6555
 9319SOL     OW39589   3.317   0.001   2.634 -0.3389  0.1871 -0.7125
 9319SOL    HW139590   3.388   4.725   2.571  0.3951  1.1208 -0.0781
 9319SOL    HW239591   3.365   0.072   2.679 -1.0924  0.1733  0.1041
 9320SOL     OW39592   0.827   2.224  12.062  0.1960  0.1176  0.1343
 9320SOL    HW139593   0.766   2.220  12.135  0.9980  0.2998  0.8172
 9320SOL    HW239594   0.905   2.182  12.097  0.2519  2.0516  2.2977
 9321SOL     OW39595   0.909   1.279   3.661 -0.4328  0.0709  0.3838
 9321SOL    HW139596   0.853   1.220   3.612  0.3141 -1.9039  1.9198
 9321SOL    HW239597   0.989   1.268   3.609 -0.8813 -0.8125 -0.1217
 9322SOL     OW39598   3.308   0.161   8.681  0.3929 -0.3937 -0.2254
 9322SOL    HW139599   3.322   0.254   8.695 -1.7241 -0.4762  2.4299
 9322SOL    HW239600   3.218   0.142   8.708  0.6436 -0.0099  0.8561
 9323SOL     OW39601   0.014   3.680   9.022  0.2886  0.4636 -0.2214
 9323SOL    HW139602   0.026   3.717   8.935  0.7474  1.2200  0.1597
 9323SOL    HW239603   4.668   3.635   9.011 -0.1318  1.3286 -0.5547
 9324SOL     OW39604   2.728   2.911   7.786  0.3585  0.2825 -0.1609
 9324SOL    HW139605   2.809   2.870   7.754  0.3987 -1.6693  2.4483
 9324SOL    HW239606   2.748   2.907   7.879 -0.9475 -0.8226  0.0774
 9325SOL     OW39607   2.358   0.617   0.687 -0.4046 -0.2054  0.0055
 9325SOL    HW139608   2.409   0.658   0.757  0.5076 -0.0838 -0.7356
 9325SOL    HW239609   2.328   0.694   0.638  0.1307 -0.1877 -0.2964
 9326SOL     OW39610   0.106   2.400   7.161 -0.3188 -0.0974 -0.5100
 9326SOL    HW139611   0.035   2.347   7.125 -0.1621  0.6278 -1.8675
 9326SOL    HW239612   0.055   2.439   7.233 -0.3707 -1.5753  0.2447
 9327SOL     OW39613   1.389   3.457   6.029  0.5922  0.1460 -0.1525
 9327SOL    HW139614   1.308   3.446   5.980  0.5024 -0.1518  0.0649
 9327SOL    HW239615   1.392   3.550   6.006  0.2619 -0.0301 -0.9131
 9328SOL     OW39616   1.791   0.255  10.869  0.6511 -0.3614 -0.2154
 9328SOL    HW139617   1.883   0.237  10.852  1.1218  1.5881  0.2009
 9328SOL    HW239618   1.769   0.199  10.943 -0.1210 -0.1704 -0.3016
 9329SOL     OW39619   3.528   0.566   4.606  0.2363  0.3295 -0.0914
 9329SOL    HW139620   3.493   0.604   4.526  0.2174 -1.0404 -0.7327
 9329SOL    HW239621   3.567   0.640   4.654  0.7993 -0.2029  0.2752
 9330SOL     OW39622   2.682   2.044   0.941 -0.1455 -0.5932 -0.6833
 9330SOL    HW139623   2.775   2.048   0.961 -0.6006 -0.8585  1.4647
 9330SOL    HW239624   2.651   2.012   1.026  1.4823 -3.3236 -1.1619
 9331SOL     OW39625   3.398   2.797  10.775 -0.0477 -0.1139  0.1428
 9331SOL    HW139626   3.314   2.830  10.744  0.3560  2.5109  1.8538
 9331SOL    HW239627   3.361   2.730  10.833  1.5697  0.5771  1.9776
 9332SOL     OW39628   1.036   1.037   7.844 -0.0680 -0.2339 -0.1217
 9332SOL    HW139629   0.980   1.086   7.783 -1.6116  0.5421  1.9395
 9332SOL    HW239630   1.098   0.992   7.787  0.8513 -0.1212  0.8013
 9333SOL     OW39631   4.207   2.420  17.291  0.7323 -0.0635 -0.0140
 9333SOL    HW139632   4.220   2.512  17.269  3.0238 -0.6017 -0.9674
 9333SOL    HW239633   4.112   2.410  17.286  0.9304 -0.9315 -2.2846
 9334SOL     OW39634   0.910   3.614   3.475 -0.0696  0.3287 -0.4675
 9334SOL    HW139635   0.888   3.586   3.386 -1.2769  1.2709 -0.4602
 9334SOL    HW239636   0.984   3.669   3.450  0.3406 -0.4627 -0.9891
 9335SOL     OW39637   0.887   0.915  11.967 -0.1434 -0.4805  0.1129
 9335SOL    HW139638   0.868   0.831  11.926  0.3045 -1.3350  1.6663
 9335SOL    HW239639   0.972   0.923  11.924 -0.7942  1.8670 -0.7303
 9336SOL     OW39640   4.675   0.587   1.224 -0.0190 -0.2964 -0.2113
 9336SOL    HW139641   4.636   0.500   1.218  0.5990 -0.7264  1.7305
 9336SOL    HW239642   0.027   0.568   1.256 -0.3040 -0.5401  0.4474
 9337SOL     OW39643   0.841   3.822   7.016  0.3625 -0.2120 -0.1866
 9337SOL    HW139644   0.851   3.903   6.966 -2.0043 -0.3696 -0.9406
 9337SOL    HW239645   0.931   3.790   7.013  0.1551 -0.9018  0.9450
 9338SOL     OW39646   2.677   3.804   4.923 -0.1367  0.3204 -0.1302
 9338SOL    HW139647   2.680   3.709   4.912 -3.5674  0.3162 -0.8411
 9338SOL    HW239648   2.597   3.821   4.874 -0.3744  1.9546  0.8068
 9339SOL     OW39649   1.963   4.076   5.806 -0.2770 -0.0764 -0.4035
 9339SOL    HW139650   1.893   4.055   5.868 -1.7518  1.0411 -1.7123
 9339SOL    HW239651   1.935   4.154   5.760  0.9033  0.4477 -0.2390
 9340SOL     OW39652   1.403   4.389  12.934 -0.4971 -0.0436 -0.3389
 9340SOL    HW139653   1.377   4.386  13.026 -0.8422 -0.3255 -0.4444
 9340SOL    HW239654   1.458   4.311  12.926 -0.1207  0.3737 -1.8113
 9341SOL     OW39655   0.060   0.128   6.983  0.1149 -0.2550  0.1913
 9341SOL    HW139656   0.014   0.191   7.039 -1.8428 -1.5235  0.0325
 9341SOL    HW239657   0.022   0.153   6.899 -1.7874 -0.4355  1.0018
 9342SOL     OW39658   1.066   2.353  13.606  0.3031  0.4890 -0.3309
 9342SOL    HW139659   1.004   2.357  13.679  2.6039 -0.1006  1.6665
 9342SOL    HW239660   1.086   2.259  13.610 -2.1574  0.0415  1.5378
 9343SOL     OW39661   0.345   3.245   6.442 -0.0222  0.2827 -0.3701
 9343SOL    HW139662   0.315   3.154   6.441  0.1318  0.2091  1.8189
 9343SOL    HW239663   0.269   3.302   6.440 -1.7927 -1.9380  2.1288
 9344SOL     OW39664   2.135   4.129   2.507 -0.1160  0.0248  0.4121
 9344SOL    HW139665   2.048   4.108   2.472  0.4830 -2.1387  0.2188
 9344SOL    HW239666   2.182   4.162   2.431  2.9464 -0.9878  1.8580
 9345SOL     OW39667   1.749   0.078   1.335  0.2430  0.2452  0.0087
 9345SOL    HW139668   1.719   0.121   1.415  1.1266  0.6812  0.1109
 9345SOL    HW239669   1.691   0.003   1.324  0.5074 -0.1422  1.3260
 9346SOL     OW39670   1.371   4.639  11.939 -0.0275  0.1451  0.0453
 9346SOL    HW139671   1.344   4.675  12.024  0.2528  1.4968 -0.4360
 9346SOL    HW239672   1.314   4.684  11.877 -0.4125  0.6562  0.7681
 9347SOL     OW39673   0.552   4.464   2.640 -0.2131  0.3367  0.2908
 9347SOL    HW139674   0.524   4.392   2.584 -0.4105  1.3164 -0.8640
 9347SOL    HW239675   0.515   4.538   2.591  0.1448  0.8988  0.8695
 9348SOL     OW39676   3.782   3.711   6.510 -0.0368 -0.3337  0.0366
 9348SOL    HW139677   3.772   3.754   6.595  2.3334 -1.4875  0.8919
 9348SOL    HW239678   3.703   3.657   6.515  0.6262 -1.4165 -1.2501
 9349SOL     OW39679   3.183   4.590  16.288 -0.4866 -0.2374 -0.2072
 9349SOL    HW139680   3.174   4.684  16.306  1.8742  0.4492 -2.5500
 9349SOL    HW239681   3.238   4.589  16.210 -0.7025  1.1082 -0.3859
 9350SOL     OW39682   2.726   0.303   3.662  0.7262  0.0858 -0.2118
 9350SOL    HW139683   2.682   0.219   3.652  1.0084 -0.0414 -0.4164
 9350SOL    HW239684   2.813   0.265   3.677  0.7324  0.2200  0.0815
 9351SOL     OW39685   1.181   4.663   2.568  0.1331 -0.5672  0.0110
 9351SOL    HW139686   1.105   4.715   2.540  0.2228  0.3892  1.5238
 9351SOL    HW239687   1.219   4.622   2.491  0.0963 -1.6009  0.5365
 9352SOL     OW39688   1.194   1.139  12.307 -0.3879  0.0127 -0.6110
 9352SOL    HW139689   1.235   1.055  12.327 -0.9119  0.1089  0.8581
 9352SOL    HW239690   1.241   1.166  12.228  2.8916  0.2601  1.4507
 9353SOL     OW39691   0.218   1.997   5.715  0.0294 -0.1147 -0.1024
 9353SOL    HW139692   0.167   1.963   5.641  0.7887  0.7540 -1.0160
 9353SOL    HW239693   0.178   2.083   5.726 -0.1508 -0.2804  0.5677
 9354SOL     OW39694   3.383   1.068   3.523 -0.3193  0.1363  0.7552
 9354SOL    HW139695   3.355   1.002   3.460 -3.7065  2.9484 -0.7262
 9354SOL    HW239696   3.308   1.071   3.583  1.2843  0.8898  2.7154
 9355SOL     OW39697   3.538   0.318   8.059  0.3215 -0.5233  0.5333
 9355SOL    HW139698   3.563   0.261   8.131 -0.5842 -0.8598  0.5801
 9355SOL    HW239699   3.458   0.277   8.028 -0.5022  1.3556  0.1713
 9356SOL     OW39700   0.063   1.848   7.550 -0.3665  0.5069  0.6179
 9356SOL    HW139701   0.090   1.933   7.516  0.7373 -0.3114 -0.5175
 9356SOL    HW239702   0.138   1.812   7.598  0.6588 -1.3938 -2.4455
 9357SOL     OW39703   4.579   2.546   5.319  0.6861 -0.1682 -0.2813
 9357SOL    HW139704   4.590   2.487   5.244  1.3174 -1.7191  1.0180
 9357SOL    HW239705   4.487   2.573   5.314  0.6192 -0.2331  0.5888
 9358SOL     OW39706   2.640   4.155   4.858 -0.4862 -0.4655 -0.1302
 9358SOL    HW139707   2.575   4.182   4.923  0.1312  0.0950  0.2459
 9358SOL    HW239708   2.701   4.100   4.907  0.7818  1.7738  0.7576
 9359SOL     OW39709   1.557   1.523   7.546 -0.1156 -0.2740 -0.5814
 9359SOL    HW139710   1.611   1.586   7.595 -1.4684 -0.3786  1.0500
 9359SOL    HW239711   1.578   1.440   7.589 -0.1633  0.0423  0.0506
 9360SOL     OW39712   0.219   1.766   8.934 -0.2248 -0.5988 -0.8386
 9360SOL    HW139713   0.192   1.732   8.848  0.1654 -2.0559 -0.3761
 9360SOL    HW239714   0.262   1.690   8.972  1.4376  0.2878 -0.9562
 9361SOL     OW39715   2.340   4.579   5.550 -0.1245 -0.2082  0.4613
 9361SOL    HW139716   2.319   4.633   5.627  1.7825  1.9344 -0.5308
 9361SOL    HW239717   2.266   4.521   5.565 -1.2406  1.9883  3.4533
 9362SOL     OW39718   3.108   1.484  11.094 -0.1401 -0.3759  0.9958
 9362SOL    HW139719   3.022   1.443  11.094 -1.0985  1.6161 -1.6517
 9362SOL    HW239720   3.090   1.569  11.134 -0.3791  1.2685 -2.5546
 9363SOL     OW39721   0.080   4.589   0.933 -0.4645 -0.1059 -0.3658
 9363SOL    HW139722   0.002   4.612   0.984 -1.1695 -0.3620 -1.3306
 9363SOL    HW239723   0.047   4.600   0.844  0.5705 -0.1758 -0.7516
 9364SOL     OW39724   1.026   0.119   7.321  0.3493  0.2693  0.1758
 9364SOL    HW139725   1.102   0.172   7.342  0.6561 -0.3349  0.5871
 9364SOL    HW239726   1.033   0.061   7.397  2.8250 -0.1581 -0.3889
 9365SOL     OW39727   4.144   2.509   5.060  0.0069  0.0411  0.0880
 9365SOL    HW139728   4.212   2.569   5.028 -1.4138  0.6978 -1.6997
 9365SOL    HW239729   4.084   2.511   4.986  0.8079 -1.8592 -0.6072
 9366SOL     OW39730   2.573   2.259   7.307  0.0476 -0.1823 -0.0701
 9366SOL    HW139731   2.547   2.270   7.399 -0.4198  1.6474 -0.4103
 9366SOL    HW239732   2.490   2.255   7.259  2.3169 -2.1125 -3.7790
 9367SOL     OW39733   1.232   2.404   5.260 -0.8149 -0.5116  0.2991
 9367SOL    HW139734   1.223   2.320   5.305 -0.9200  0.6437  2.4579
 9367SOL    HW239735   1.203   2.375   5.174  0.2727  0.3345 -0.3537
 9368SOL     OW39736   2.812   3.674   3.545  0.3751 -0.3434 -0.3978
 9368SOL    HW139737   2.819   3.590   3.500 -2.6478 -1.3616  1.0499
 9368SOL    HW239738   2.779   3.731   3.475  0.9924 -0.7077 -0.9800
 9369SOL     OW39739   2.188   0.387   2.199  0.1302 -0.4140  0.4309
 9369SOL    HW139740   2.204   0.438   2.278  0.8093  1.6491 -1.0667
 9369SOL    HW239741   2.178   0.297   2.232  0.8330 -0.0019  1.7826
 9370SOL     OW39742   1.073   1.290  15.324 -0.4273  0.4955 -0.4265
 9370SOL    HW139743   1.049   1.198  15.323 -1.4702  0.7699 -0.4857
 9370SOL    HW239744   1.149   1.284  15.381 -0.3946 -0.7738 -0.6127
 9371SOL     OW39745   2.289   0.003   2.631 -0.3365  0.1727  0.6943
 9371SOL    HW139746   2.234   0.023   2.706 -2.4796  0.1791 -0.8637
 9371SOL    HW239747   2.357   4.684   2.669 -0.4790  1.4587  2.8157
 9372SOL     OW39748   3.686   4.225   6.138 -0.2905 -0.5180 -0.1570
 9372SOL    HW139749   3.640   4.247   6.219  0.3122 -0.8490  0.2780
 9372SOL    HW239750   3.740   4.154   6.173 -1.1187 -0.4589  1.2474
 9373SOL     OW39751   0.843   3.080  15.615 -0.2038  0.5461 -0.0268
 9373SOL    HW139752   0.868   3.071  15.707 -0.6562  0.7147  0.1083
 9373SOL    HW239753   0.756   3.118  15.623 -1.6855 -2.6420 -1.1328
 9374SOL     OW39754   4.065   0.588  10.837  0.0477 -0.1177  0.0153
 9374SOL    HW139755   3.974   0.561  10.850 -0.5264  1.1431 -1.3970
 9374SOL    HW239756   4.085   0.565  10.746  2.9628 -1.1550  0.9219
 9375SOL     OW39757   4.451   4.379   3.517 -0.2214  0.4188  0.3211
 9375SOL    HW139758   4.500   4.297   3.525  0.1493  0.5154 -1.0468
 9375SOL    HW239759   4.369   4.360   3.471 -1.4448  0.8600  2.2861
 9376SOL     OW39760   2.895   2.826   4.185  0.1767  0.2562 -0.4250
 9376SOL    HW139761   2.817   2.791   4.142 -0.2912  0.0658  0.5892
 9376SOL    HW239762   2.891   2.779   4.268 -0.7821 -0.4850 -0.8814
 9377SOL     OW39763   0.029   3.431   8.670  0.0638 -0.5226 -0.5035
 9377SOL    HW139764   4.705   3.402   8.738  0.1654 -1.3870 -0.7750
 9377SOL    HW239765   0.009   3.386   8.588 -0.5554 -1.1883  0.0136
 9378SOL     OW39766   1.270   0.585   5.695  0.4193  0.4858 -0.1947
 9378SOL    HW139767   1.198   0.616   5.641  1.2316  0.8385 -1.0679
 9378SOL    HW239768   1.343   0.627   5.650  2.2968 -1.0333  1.4195
 9379SOL     OW39769   3.656   3.306   5.476 -0.6220 -0.1138 -0.4690
 9379SOL    HW139770   3.665   3.340   5.387  2.1724  1.2873  0.3569
 9379SOL    HW239771   3.722   3.238   5.467  0.7055  0.7941  2.1962
 9380SOL     OW39772   2.638   3.681   8.306 -0.5724  0.2464 -0.7666
 9380SOL    HW139773   2.617   3.737   8.380 -0.9813 -0.7306 -0.1517
 9380SOL    HW239774   2.623   3.596   8.348 -0.5313  0.5553 -0.1297
 9381SOL     OW39775   4.050   2.250   3.511 -0.1949 -0.0413 -0.3227
 9381SOL    HW139776   3.962   2.213   3.504 -0.9154  1.6328 -0.1379
 9381SOL    HW239777   4.034   2.332   3.559  0.1150 -0.6283  0.7902
 9382SOL     OW39778   3.112   3.054   1.974  0.6825  0.6256  0.1437
 9382SOL    HW139779   3.204   3.062   1.948  1.2548  1.4600  2.4488
 9382SOL    HW239780   3.127   3.031   2.066  0.6715  0.8251  0.1946
 9383SOL     OW39781   2.026   3.126  17.275 -0.6289  0.7073 -0.0616
 9383SOL    HW139782   2.066   3.179  17.344  1.3224  1.3648 -1.6869
 9383SOL    HW239783   1.980   3.061  17.328 -1.9606  0.9340 -0.9475
 9384SOL     OW39784   3.892   1.573   4.302 -0.3849  0.6126 -0.3728
 9384SOL    HW139785   3.929   1.531   4.380  0.9804  0.2074 -1.2364
 9384SOL    HW239786   3.962   1.634   4.275  0.4186 -0.0786  0.1507
 9385SOL     OW39787   0.674   2.682   2.260 -0.2232 -0.2472  0.7179
 9385SOL    HW139788   0.632   2.740   2.324  0.0971  1.0717 -0.2609
 9385SOL    HW239789   0.712   2.734   2.190  0.0840  2.2105  2.7091
 9386SOL     OW39790   3.422   3.503   8.988 -0.0369  0.3916 -0.0177
 9386SOL    HW139791   3.514   3.479   8.990 -0.3859 -0.9619 -0.6569
 9386SOL    HW239792   3.388   3.481   8.901 -0.5720  1.4803 -0.0901
 9387SOL     OW39793   4.003   3.289  16.494 -0.3438  0.3082 -0.8367
 9387SOL    HW139794   4.061   3.274  16.569 -0.0597 -0.3328 -1.1762
 9387SOL    HW239795   4.063   3.311  16.423 -1.6276 -5.0316 -3.5945
 9388SOL     OW39796   4.483   2.375   1.933  0.0482 -0.5874 -0.2481
 9388SOL    HW139797   4.547   2.446   1.922  1.0623 -1.1974  1.8832
 9388SOL    HW239798   4.487   2.334   1.846 -1.6663 -0.1367 -0.5266
 9389SOL     OW39799   3.947   1.879   5.872 -0.0314 -0.6505  0.9079
 9389SOL    HW139800   3.854   1.894   5.852 -0.1416 -1.2932  0.9403
 9389SOL    HW239801   3.976   1.970   5.875  0.2555 -0.6778 -1.8036
 9390SOL     OW39802   3.978   0.884   6.935 -0.1768  0.3991  0.3431
 9390SOL    HW139803   4.038   0.958   6.931 -0.9860  1.0321 -0.2462
 9390SOL    HW239804   3.891   0.921   6.921 -0.6240 -1.0042 -0.5463
 9391SOL     OW39805   2.573   2.385   2.792 -0.0446 -0.1955 -0.3458
 9391SOL    HW139806   2.602   2.295   2.802  2.7976  0.8042  0.2731
 9391SOL    HW239807   2.654   2.432   2.810 -0.0401 -0.6003  0.6656
 9392SOL     OW39808   1.436   0.884   0.428  0.0834 -0.0768  0.2483
 9392SOL    HW139809   1.419   0.800   0.470 -0.6998 -0.3002 -0.5298
 9392SOL    HW239810   1.527   0.865   0.403 -0.9748 -2.5921 -1.5744
 9393SOL     OW39811   1.139   4.204   7.436 -0.6139  0.0734 -0.3129
 9393SOL    HW139812   1.174   4.146   7.503 -0.6585  0.6315  0.2016
 9393SOL    HW239813   1.072   4.147   7.398 -1.2276  0.4648  0.1820
 9394SOL     OW39814   2.141   0.949  12.672 -0.3710 -1.2752 -0.2651
 9394SOL    HW139815   2.095   0.991  12.599 -1.4261  1.3030  1.8995
 9394SOL    HW239816   2.092   0.978  12.749  1.4682 -0.7458  0.6802
 9395SOL     OW39817   2.053   1.279   7.572  0.7020 -0.0066  0.9406
 9395SOL    HW139818   2.090   1.276   7.484 -1.7347  0.3676 -0.1044
 9395SOL    HW239819   2.063   1.371   7.596 -0.2271  0.5137 -0.7027
 9396SOL     OW39820   2.430   3.034   5.574 -0.7193 -0.5149  0.6938
 9396SOL    HW139821   2.524   3.018   5.587 -0.3677  1.0937  0.0359
 9396SOL    HW239822   2.397   2.957   5.527 -1.7723  0.8676 -0.7957
 9397SOL     OW39823   2.847   0.305   4.682  0.6016 -0.2319 -0.6392
 9397SOL    HW139824   2.849   0.341   4.594 -1.6427 -0.1322 -0.6403
 9397SOL    HW239825   2.763   0.261   4.672  0.7731 -0.8372  0.5236
 9398SOL     OW39826   2.277   4.241   5.481  0.8594 -0.2424  0.1047
 9398SOL    HW139827   2.209   4.183   5.447  2.3536 -1.7358 -0.3525
 9398SOL    HW239828   2.261   4.235   5.575 -1.4593 -0.4789 -0.3136
 9399SOL     OW39829   4.450   0.697   7.681 -0.2405 -0.5633 -0.0309
 9399SOL    HW139830   4.538   0.730   7.700  0.2847 -0.9038 -1.8789
 9399SOL    HW239831   4.475   0.605   7.689  0.4731 -0.3193  0.6299
 9400SOL     OW39832   1.919   4.252   1.729  0.3529 -0.1542 -0.2084
 9400SOL    HW139833   1.838   4.291   1.762  0.2713  0.2569 -0.9162
 9400SOL    HW239834   1.959   4.209   1.805 -0.5939  0.6315  0.7267
 9401SOL     OW39835   2.500   4.087   5.523  0.6765  0.3506 -0.0038
 9401SOL    HW139836   2.531   4.069   5.434  1.2517 -0.2051  0.3070
 9401SOL    HW239837   2.425   4.144   5.506  0.2924 -0.3794 -0.7034
 9402SOL     OW39838   0.994   0.617   7.738 -0.4425 -0.0154  0.4610
 9402SOL    HW139839   0.942   0.583   7.665  2.6445 -1.1598 -1.1967
 9402SOL    HW239840   0.923   0.604   7.801 -2.7436 -0.4844 -2.2215
 9403SOL     OW39841   1.593   0.396   8.513  0.4728 -0.2624 -0.4210
 9403SOL    HW139842   1.507   0.372   8.546  0.5498 -1.5027 -1.1641
 9403SOL    HW239843   1.609   0.315   8.465  1.9021 -0.6053  0.6222
 9404SOL     OW39844   1.358   3.439   4.077 -0.0931 -0.2122  0.0190
 9404SOL    HW139845   1.274   3.472   4.047 -0.4358  0.8603  2.1584
 9404SOL    HW239846   1.416   3.488   4.019  0.2272 -1.1996 -0.5111
 9405SOL     OW39847   2.161   0.581   7.498 -0.3197  0.2968  0.6879
 9405SOL    HW139848   2.206   0.520   7.439  0.8298 -0.7202  2.6358
 9405SOL    HW239849   2.103   0.522   7.547  0.1200 -3.4630 -3.3322
 9406SOL     OW39850   0.083   4.010  12.623 -1.0270  0.0637 -0.1421
 9406SOL    HW139851   0.013   4.068  12.593 -1.4023 -0.0009  0.6065
 9406SOL    HW239852   0.098   4.031  12.715  0.2105 -0.3300 -0.2509
 9407SOL     OW39853   4.218   1.532   1.023 -0.3256 -0.1925  0.4025
 9407SOL    HW139854   4.269   1.509   0.945 -0.1027 -0.4285  0.6188
 9407SOL    HW239855   4.221   1.450   1.072  2.3545 -0.2077  0.2085
 9408SOL     OW39856   4.675   4.621  14.564  0.3877  0.0511  0.1549
 9408SOL    HW139857   4.614   4.691  14.545  1.3425  1.2370  1.4561
 9408SOL    HW239858   4.705   4.597  14.476 -0.4809 -4.6135  1.1262
 9409SOL     OW39859   3.140   4.316  14.455 -0.3824 -0.0800  0.1109
 9409SOL    HW139860   3.098   4.385  14.507 -1.6388  0.6104 -1.7870
 9409SOL    HW239861   3.088   4.241  14.484 -1.4263  0.5800 -0.0610
 9410SOL     OW39862   4.625   3.101   8.607 -0.1922 -0.3232 -0.2036
 9410SOL    HW139863   4.657   3.190   8.591  3.5342 -1.9237 -1.6631
 9410SOL    HW239864   4.550   3.103   8.549  0.4434 -1.3881 -1.0590
 9411SOL     OW39865   1.816   0.386   2.394 -0.3746  0.6527  0.3014
 9411SOL    HW139866   1.870   0.446   2.342  0.9947  0.1268  1.1289
 9411SOL    HW239867   1.727   0.393   2.357 -0.0177 -3.7957 -1.3818
 9412SOL     OW39868   3.565   3.897   2.410 -0.6032  0.4332  0.1113
 9412SOL    HW139869   3.483   3.855   2.438 -0.6247 -0.5693 -1.4669
 9412SOL    HW239870   3.537   3.981   2.374 -2.3361  2.0133  5.1233
 9413SOL     OW39871   2.369   4.396   3.867 -0.0601 -0.0120  0.0667
 9413SOL    HW139872   2.427   4.337   3.915 -0.7603 -0.1666  0.7340
 9413SOL    HW239873   2.383   4.480   3.911 -1.4937 -0.0949  0.6948
 9414SOL     OW39874   0.966   3.049   6.624 -0.5337  0.0581 -0.1253
 9414SOL    HW139875   0.914   3.101   6.563 -0.3019 -0.8536 -1.1049
 9414SOL    HW239876   1.030   3.018   6.560  0.3330 -0.1634  0.8494
 9415SOL     OW39877   0.664   0.007  13.399  0.1653  0.3375 -0.0779
 9415SOL    HW139878   0.591   0.034  13.343 -0.2883 -3.4621 -1.3265
 9415SOL    HW239879   0.737   0.032  13.343  1.6611 -0.7017  1.4276
 9416SOL     OW39880   0.351   3.127  13.084  0.4056 -0.2499  0.2311
 9416SOL    HW139881   0.330   3.038  13.113 -3.0215 -0.0212 -1.5486
 9416SOL    HW239882   0.287   3.135  13.013 -0.3224  0.5776  0.9980
 9417SOL     OW39883   2.912   2.137  10.809  0.3062  0.1082 -0.1975
 9417SOL    HW139884   2.829   2.143  10.762  1.1261 -1.8473 -1.9318
 9417SOL    HW239885   2.878   2.096  10.888  0.3620  1.8275  0.7260
 9418SOL     OW39886   2.829   0.467   9.925 -0.4944 -0.2610 -0.2326
 9418SOL    HW139887   2.846   0.531   9.994  1.9130 -0.0492 -1.0061
 9418SOL    HW239888   2.737   0.446   9.943 -0.4106  1.3360  1.9467
 9419SOL     OW39889   4.584   3.459   4.761  0.6430 -0.0612  0.5108
 9419SOL    HW139890   4.676   3.432   4.754  0.6994  0.2526  0.0350
 9419SOL    HW239891   4.579   3.528   4.695  1.3078 -0.1854  0.3270
 9420SOL     OW39892   1.037   2.491   6.448 -0.4608  0.1516  0.1796
 9420SOL    HW139893   1.110   2.430   6.465  0.1456  0.1732 -2.2917
 9420SOL    HW239894   1.013   2.517   6.537  0.0006  0.3371  0.2501
 9421SOL     OW39895   4.667   1.111   8.677 -0.5213 -0.6368  0.5410
 9421SOL    HW139896   4.685   1.180   8.741 -0.4878  0.7943 -0.9877
 9421SOL    HW239897   4.666   1.029   8.725  2.5272 -0.4765  0.8356
 9422SOL     OW39898   0.855   2.411  10.156 -0.4397 -0.3459  0.4345
 9422SOL    HW139899   0.833   2.489  10.106 -0.7159 -0.2230  0.7474
 9422SOL    HW239900   0.929   2.381  10.103  0.5407  0.6238  1.2575
 9423SOL     OW39901   1.405   1.441   1.370 -0.0592 -0.4473 -0.2990
 9423SOL    HW139902   1.351   1.365   1.388 -0.7855  0.3890  1.1045
 9423SOL    HW239903   1.357   1.482   1.298  0.3837 -0.7035 -0.7385
 9424SOL     OW39904   1.089   0.449   9.406  0.8574 -0.2453  0.1427
 9424SOL    HW139905   1.076   0.406   9.322 -1.5142  0.5501  0.1009
 9424SOL    HW239906   1.008   0.500   9.416 -0.4356 -2.4571  0.8867
 9425SOL     OW39907   0.819   0.766  14.206  0.1120 -0.3671 -0.3816
 9425SOL    HW139908   0.839   0.810  14.124  0.4951  1.4996  0.7135
 9425SOL    HW239909   0.805   0.838  14.267 -0.6973 -1.2019  0.4217
 9426SOL     OW39910   3.466   3.569   9.784  0.6168  0.7290 -0.2060
 9426SOL    HW139911   3.404   3.533   9.848 -1.0925 -0.4035 -2.4859
 9426SOL    HW239912   3.462   3.661   9.812  1.6369  0.2487  1.4892
 9427SOL     OW39913   0.101   0.142   0.284 -0.0592 -1.0207 -0.1677
 9427SOL    HW139914   0.173   0.175   0.230  1.6705  0.3542  2.9873
 9427SOL    HW239915   0.057   0.090   0.217 -2.0080  0.1527  0.2338
 9428SOL     OW39916   3.766   0.292   1.954  0.3818 -0.3358  0.5519
 9428SOL    HW139917   3.755   0.285   1.859 -1.8890 -1.1664  0.8732
 9428SOL    HW239918   3.859   0.275   1.967  0.5085 -0.7866 -1.0221
 9429SOL     OW39919   4.291   3.476   9.818  0.6753  0.3634  0.6406
 9429SOL    HW139920   4.351   3.466   9.745  0.8677  1.4091  0.6487
 9429SOL    HW239921   4.285   3.572   9.825  0.8026  0.1803  3.4520
 9430SOL     OW39922   0.588   0.701   6.821  0.5495  0.1382  0.2027
 9430SOL    HW139923   0.680   0.707   6.844  1.1777 -0.4367 -2.1639
 9430SOL    HW239924   0.569   0.787   6.784 -3.3016 -1.1155 -0.8284
 9431SOL     OW39925   4.170   0.755   5.648  0.7892 -0.8911  0.9524
 9431SOL    HW139926   4.082   0.756   5.612  0.3263 -0.5463  2.1013
 9431SOL    HW239927   4.192   0.848   5.656 -0.6545 -0.5496  0.9199
 9432SOL     OW39928   2.982   3.727   9.351  0.2769 -0.7547 -0.2003
 9432SOL    HW139929   3.067   3.771   9.354  0.3268 -0.9945  1.6807
 9432SOL    HW239930   2.966   3.719   9.257  1.4694  0.5158 -0.5230
 9433SOL     OW39931   1.946   0.885  12.460 -0.2880 -0.7827  0.0011
 9433SOL    HW139932   1.903   0.930  12.388  0.0910  0.0982  0.3161
 9433SOL    HW239933   1.866   0.841  12.488  0.5035 -1.7861  0.7007
 9434SOL     OW39934   3.280   3.242   6.179 -0.0449 -0.3305 -0.5790
 9434SOL    HW139935   3.222   3.183   6.131  2.1375 -0.5076 -3.0109
 9434SOL    HW239936   3.319   3.184   6.244 -1.2671  1.0888  1.4175
 9435SOL     OW39937   0.191   4.231   8.291  0.5311 -0.5823 -0.0739
 9435SOL    HW139938   0.228   4.307   8.336  2.9656 -0.2542 -2.6658
 9435SOL    HW239939   0.260   4.210   8.229  1.1195 -0.2357  0.4584
 9436SOL     OW39940   0.049   3.251  14.916 -0.1020 -0.2898  0.1191
 9436SOL    HW139941   0.053   3.184  14.985  5.9682  0.8587  0.9708
 9436SOL    HW239942   0.132   3.296  14.934  0.3124 -0.6966 -0.7846
 9437SOL     OW39943   4.128   4.219   2.225  0.1505  0.5444 -0.6706
 9437SOL    HW139944   4.081   4.301   2.207 -1.2880 -0.1754 -0.2253
 9437SOL    HW239945   4.211   4.264   2.241  0.0616  0.7687 -0.8410
 9438SOL     OW39946   4.633   2.145   4.104 -0.1457  0.3215 -0.4376
 9438SOL    HW139947   4.569   2.118   4.170  1.3609  0.0927  0.9289
 9438SOL    HW239948   4.708   2.153   4.163 -0.5976  0.5901  0.0965
 9439SOL     OW39949   0.115   3.051   7.880 -0.5504 -0.2595  0.2867
 9439SOL    HW139950   0.180   2.997   7.925 -0.0752 -0.7575 -1.0117
 9439SOL    HW239951   0.120   3.023   7.789 -1.8399  0.9438 -0.1428
 9440SOL     OW39952   1.279   2.231  15.151  0.1120 -0.2145 -0.4284
 9440SOL    HW139953   1.360   2.195  15.114 -0.8849 -2.1662 -0.7099
 9440SOL    HW239954   1.312   2.237  15.241 -0.1104 -1.0862 -0.2871
 9441SOL     OW39955   0.738   1.043  15.071 -0.3832 -0.1498 -0.3856
 9441SOL    HW139956   0.765   1.134  15.056 -1.3154  0.1409 -0.3237
 9441SOL    HW239957   0.643   1.048  15.084  0.0375  0.2798  2.5908
 9442SOL     OW39958   2.226   0.062   9.388  0.2862 -0.1776  0.0994
 9442SOL    HW139959   2.225   0.002   9.462 -1.6305  1.2685  1.2157
 9442SOL    HW239960   2.222   4.734   9.318 -0.3193  1.3833 -1.3144
 9443SOL     OW39961   0.931   1.141  12.363 -0.2480 -0.3813 -0.1327
 9443SOL    HW139962   0.916   1.049  12.342  0.4858  0.0008 -2.3075
 9443SOL    HW239963   1.026   1.159  12.364 -0.0544 -1.3923 -0.1295
 9444SOL     OW39964   0.401   0.456   4.815  0.2952 -0.1199 -0.1041
 9444SOL    HW139965   0.472   0.445   4.879 -0.0245  0.6700  0.3872
 9444SOL    HW239966   0.339   0.506   4.868 -1.6766 -3.1086  0.4244
 9445SOL     OW39967   0.844   0.335   2.182 -0.6339 -0.0658 -0.1521
 9445SOL    HW139968   0.803   0.413   2.146 -0.5343  0.3978  0.7555
 9445SOL    HW239969   0.831   0.277   2.106 -0.7839  1.7180 -1.4794
 9446SOL     OW39970   0.610   3.431  11.488  0.3171 -0.4748 -0.3728
 9446SOL    HW139971   0.540   3.495  11.474  0.2458 -0.3205  0.6659
 9446SOL    HW239972   0.556   3.352  11.488  0.0202 -0.2741 -1.5555
 9447SOL     OW39973   2.625   0.950   4.569 -0.1142  0.9323  0.1670
 9447SOL    HW139974   2.698   0.979   4.515 -0.5033  1.7009  0.0477
 9447SOL    HW239975   2.618   0.859   4.541  0.3413  1.1125 -0.5047
 9448SOL     OW39976   0.067   2.544   2.499 -0.0369 -0.0336 -0.1299
 9448SOL    HW139977   0.009   2.513   2.569 -0.0570  0.4668  0.0757
 9448SOL    HW239978   0.020   2.616   2.457 -3.0587 -2.0063 -0.1399
 9449SOL     OW39979   2.963   1.357  14.526 -0.0220 -0.1875  0.6722
 9449SOL    HW139980   3.007   1.426  14.476  0.2501  1.8349  3.6849
 9449SOL    HW239981   3.027   1.290  14.546  0.4397 -0.1875 -0.8328
 9450SOL     OW39982   1.892   4.022  11.123  0.2857 -0.3725  0.2356
 9450SOL    HW139983   1.836   4.095  11.096  2.9338  1.1667 -1.1653
 9450SOL    HW239984   1.981   4.047  11.098 -0.4006  2.7042  0.8357
 9451SOL     OW39985   2.483   3.484   0.756  0.3366 -0.1836 -0.1190
 9451SOL    HW139986   2.503   3.574   0.730 -0.7123  0.1916  0.4119
 9451SOL    HW239987   2.410   3.508   0.812  0.6063  0.7996 -0.1824
 9452SOL     OW39988   2.238   1.550  16.213 -0.6952 -0.2017 -0.2959
 9452SOL    HW139989   2.146   1.577  16.210 -1.3796 -2.5403 -0.3550
 9452SOL    HW239990   2.255   1.486  16.143 -2.0939 -1.2131  0.2760
 9453SOL     OW39991   3.328   3.796   4.644  0.2249 -0.5839  0.3272
 9453SOL    HW139992   3.369   3.733   4.704 -1.8980 -1.2743  1.0348
 9453SOL    HW239993   3.320   3.758   4.557  1.3410  0.0936 -0.0779
 9454SOL     OW39994   2.925   4.110   5.069 -0.1862  0.5931 -0.1061
 9454SOL    HW139995   2.937   4.017   5.089  1.7995  0.7423 -0.6115
 9454SOL    HW239996   2.923   4.148   5.157 -1.9841  2.5624 -1.0016
 9455SOL     OW39997   2.184   4.232   7.177 -0.5763 -0.3636 -0.2249
 9455SOL    HW139998   2.228   4.153   7.209  0.6122  0.0486 -0.8770
 9455SOL    HW239999   2.093   4.203   7.184 -1.3009  1.7229 -0.8599
 9456SOL     OW40000   4.320   2.309   4.344 -0.1445  0.2910 -0.2565
 9456SOL    HW140001   4.243   2.257   4.319  1.0753 -0.9796 -1.3352
 9456SOL    HW240002   4.276   2.343   4.422  1.3741  3.2050 -0.6526
 9457SOL     OW40003   0.078   1.512   7.104  0.0205 -0.0324 -0.1610
 9457SOL    HW140004   0.082   1.602   7.072 -0.9036 -0.1524 -0.6064
 9457SOL    HW240005   0.167   1.493   7.134 -0.1828  0.7584  0.9245
 9458SOL     OW40006   1.899   0.424   3.494  0.5388  0.0270 -0.0644
 9458SOL    HW140007   1.955   0.500   3.477 -1.2624  1.5950  0.9429
 9458SOL    HW240008   1.911   0.412   3.588 -3.2352  0.3173  0.4344
 9459SOL     OW40009   3.526   4.551   4.390 -0.3257  0.5250  0.0792
 9459SOL    HW140010   3.475   4.471   4.405  0.0141  0.2647 -0.1680
 9459SOL    HW240011   3.516   4.569   4.296 -1.3060  3.7184  0.7833
 9460SOL     OW40012   3.692   3.389  17.279  0.7875  0.4050 -0.3664
 9460SOL    HW140013   3.673   3.462  17.338  1.4823  2.3055 -2.4973
 9460SOL    HW240014   3.638   3.327  17.328 -1.7779  2.6913 -0.3056
 9461SOL     OW40015   1.977   3.990   8.998  0.0778 -0.2619 -0.1994
 9461SOL    HW140016   1.931   3.944   9.068  0.0856 -2.4980 -1.6398
 9461SOL    HW240017   2.011   3.916   8.948 -1.9115 -1.2508 -0.1148
 9462SOL     OW40018   0.065   4.062  16.436 -0.5893 -0.4055  0.3142
 9462SOL    HW140019   0.048   3.971  16.413 -0.4436 -0.2493 -0.4383
 9462SOL    HW240020   0.133   4.097  16.378 -2.0081  0.5704 -0.7713
 9463SOL     OW40021   4.088   3.260   7.738  0.4050 -0.2622 -0.1469
 9463SOL    HW140022   4.149   3.233   7.669  0.7749  0.1074  0.0348
 9463SOL    HW240023   4.062   3.342   7.697  0.4184 -0.1669  0.0326
 9464SOL     OW40024   0.815   0.762   5.559 -0.4892 -0.2334 -0.5936
 9464SOL    HW140025   0.826   0.785   5.466  2.1723 -0.7776 -0.4188
 9464SOL    HW240026   0.839   0.670   5.546  0.5298  0.2115 -1.9368
 9465SOL     OW40027   1.035   1.551  15.893  0.4139  0.3610  0.1241
 9465SOL    HW140028   0.968   1.595  15.841 -0.0531 -0.1418  0.2981
 9465SOL    HW240029   1.077   1.501  15.823 -0.4855  1.1831 -0.9976
 9466SOL     OW40030   1.854   3.944   6.674 -0.6381  0.6044  0.2111
 9466SOL    HW140031   1.795   4.012   6.705 -0.9779  0.2905  0.2623
 9466SOL    HW240032   1.790   3.882   6.637  1.5678 -0.7291 -1.4027
 9467SOL     OW40033   4.100   4.539   3.137 -0.0654  0.1854 -0.2921
 9467SOL    HW140034   4.050   4.534   3.055 -0.4121 -0.3658 -0.0427
 9467SOL    HW240035   4.103   4.447   3.163 -1.4017  0.5418  1.1239
 9468SOL     OW40036   1.311   4.697  13.798  0.4655 -0.0454 -0.1701
 9468SOL    HW140037   1.358   0.003  13.870  0.6151  0.0884 -0.3456
 9468SOL    HW240038   1.364   4.724  13.723  0.8558  2.1463  0.8894
 9469SOL     OW40039   0.766   0.938   7.101 -0.2947 -0.1611 -0.1166
 9469SOL    HW140040   0.775   1.032   7.085 -1.4802  0.3348  2.1454
 9469SOL    HW240041   0.839   0.907   7.047 -1.5866 -0.7973 -1.4874
 9470SOL     OW40042   3.215   0.739   4.362 -0.4121  0.4819  0.0652
 9470SOL    HW140043   3.174   0.818   4.397 -0.3079  0.3582  0.4714
 9470SOL    HW240044   3.157   0.672   4.399 -0.4314 -0.0514 -0.9263
 9471SOL     OW40045   2.285   2.369  15.698  0.3101 -0.2489 -0.7000
 9471SOL    HW140046   2.226   2.412  15.636 -0.8519 -0.6297  0.1498
 9471SOL    HW240047   2.230   2.292  15.714 -0.6799  1.1155  2.4560
 9472SOL     OW40048   1.403   3.293   4.654  0.0998 -0.5111 -0.0381
 9472SOL    HW140049   1.382   3.386   4.661 -1.9015 -0.9052 -0.8640
 9472SOL    HW240050   1.487   3.288   4.700 -0.5593 -1.8464  1.0136
 9473SOL     OW40051   2.894   4.121  10.663 -0.5290 -0.2212 -0.0045
 9473SOL    HW140052   2.970   4.173  10.636 -0.0358  0.1215  2.0611
 9473SOL    HW240053   2.893   4.074  10.579 -0.3572  0.9789 -0.6869
 9474SOL     OW40054   1.262   2.703  14.233  0.1900  0.0764 -0.0321
 9474SOL    HW140055   1.312   2.656  14.166  2.3579  0.5417  1.2617
 9474SOL    HW240056   1.233   2.773  14.175  1.1301  1.1468  0.7758
 9475SOL     OW40057   3.570   1.116   4.089  0.2263 -0.3406 -0.0535
 9475SOL    HW140058   3.662   1.099   4.108  0.1357 -0.2089  0.5041
 9475SOL    HW240059   3.549   1.127   4.182  0.0928 -1.1301  0.0143
 9476SOL     OW40060   1.125   1.259   0.145  0.0970  0.4125  0.0597
 9476SOL    HW140061   1.066   1.335   0.144 -1.5062 -0.8503 -0.9250
 9476SOL    HW240062   1.201   1.290   0.195  0.1473  2.1076 -1.0762
 9477SOL     OW40063   2.420   4.519   4.449 -0.1456 -0.2440 -0.2210
 9477SOL    HW140064   2.480   4.527   4.524  0.6858  0.3013 -0.9427
 9477SOL    HW240065   2.475   4.534   4.372  1.3054 -0.2916  0.8092
 9478SOL     OW40066   3.994   2.294   1.907  0.7157  0.3127  0.1141
 9478SOL    HW140067   3.935   2.228   1.872 -1.0934 -0.0096  3.7510
 9478SOL    HW240068   4.080   2.270   1.873  0.7452 -0.2399  0.5753
 9479SOL     OW40069   3.787   4.591   7.276 -0.2546 -0.2412  0.3502
 9479SOL    HW140070   3.723   4.659   7.253 -0.8233 -1.6543 -2.2482
 9479SOL    HW240071   3.755   4.507   7.245 -0.0398 -0.4745  0.7680
 9480SOL     OW40072   0.811   2.756  11.182  0.0582  0.6534  0.4027
 9480SOL    HW140073   0.871   2.822  11.217  0.0209  0.8153  0.1645
 9480SOL    HW240074   0.782   2.721  11.266  2.8542 -1.6992  0.3571
 9481SOL     OW40075   2.319   3.455   8.064 -0.3917  0.3264 -0.3708
 9481SOL    HW140076   2.276   3.478   8.147 -2.4672  1.1145 -1.6655
 9481SOL    HW240077   2.240   3.438   8.012 -0.8511  2.2815 -0.3201
 9482SOL     OW40078   4.109   2.151   4.330  0.0310 -0.5072  0.2793
 9482SOL    HW140079   4.066   2.072   4.296 -0.8083 -0.1926  0.6206
 9482SOL    HW240080   4.076   2.143   4.419 -2.3315 -0.7410 -0.6374
 9483SOL     OW40081   0.181   3.218  10.227  0.1690  0.5860  0.3428
 9483SOL    HW140082   0.105   3.266  10.193 -0.2817  0.2193  0.8206
 9483SOL    HW240083   0.141   3.141  10.268  1.9595  0.2053  1.3690
 9484SOL     OW40084   0.111   4.217   5.803  0.4356 -0.2915  0.4317
 9484SOL    HW140085   0.179   4.205   5.736 -0.2380  0.2093 -0.3355
 9484SOL    HW240086   0.056   4.274   5.750  1.2039  0.9827  0.9998
 9485SOL     OW40087   3.739   1.591   3.873  0.0847  0.1967  0.0717
 9485SOL    HW140088   3.818   1.642   3.890 -0.5216  1.4604 -0.8837
 9485SOL    HW240089   3.696   1.574   3.957 -0.0460  0.8899  0.1492
 9486SOL     OW40090   4.032   1.211   9.658 -0.0932  0.2282 -0.9589
 9486SOL    HW140091   3.993   1.215   9.745 -0.2309  2.1530 -1.1288
 9486SOL    HW240092   3.966   1.249   9.601  0.0943  1.4487 -0.3462
 9487SOL     OW40093   1.212   1.133   1.776  0.0467 -0.5139 -0.6136
 9487SOL    HW140094   1.151   1.206   1.781 -0.4662 -0.9080 -1.1322
 9487SOL    HW240095   1.287   1.176   1.736  0.8320  1.4307  2.9457
 9488SOL     OW40096   3.790   4.404  16.005  0.1503  0.4622  0.4837
 9488SOL    HW140097   3.802   4.422  15.911  0.5434 -1.6197  0.1308
 9488SOL    HW240098   3.717   4.342  16.004  1.3693 -0.9881 -0.5908
 9489SOL     OW40099   1.598   2.622   2.393  0.5439  0.5292 -0.6787
 9489SOL    HW140100   1.676   2.676   2.404  0.0430  1.1664 -0.2930
 9489SOL    HW240101   1.615   2.566   2.469  1.4516 -0.7066 -1.8027
 9490SOL     OW40102   1.477   2.968   5.564  0.1501  0.0775 -0.3006
 9490SOL    HW140103   1.475   2.873   5.578 -4.7877  0.4833  1.6076
 9490SOL    HW240104   1.406   2.989   5.503  1.6678  0.7758 -1.8434
 9491SOL     OW40105   1.419   3.153  13.711 -0.1425  0.2399  0.2577
 9491SOL    HW140106   1.395   3.063  13.686  4.3071 -0.1509 -2.5036
 9491SOL    HW240107   1.380   3.175  13.796 -2.1610 -1.5143 -0.2043
 9492SOL     OW40108   4.539   3.443   3.030 -0.7660  0.1795 -0.4793
 9492SOL    HW140109   4.524   3.429   2.937  0.8510  2.2493 -1.0539
 9492SOL    HW240110   4.534   3.353   3.062  0.5420  0.4038  0.3771
 9493SOL     OW40111   1.422   1.131  14.465 -0.5666 -0.3058  0.3956
 9493SOL    HW140112   1.396   1.176  14.385  0.2465 -1.2265 -0.3864
 9493SOL    HW240113   1.338   1.119  14.509 -0.6489 -2.4474 -0.3544
 9494SOL     OW40114   2.134   1.438  14.478 -0.4402  0.1905 -0.2135
 9494SOL    HW140115   2.058   1.384  14.455 -1.4570  1.3804  0.3837
 9494SOL    HW240116   2.152   1.423  14.571  1.9005 -1.3153 -0.9059
 9495SOL     OW40117   0.193   4.093   8.717  0.2993 -0.1078 -0.5420
 9495SOL    HW140118   0.153   4.133   8.639  0.1301  0.3278 -0.2352
 9495SOL    HW240119   0.262   4.036   8.682  0.2604 -1.0007  0.8884
 9496SOL     OW40120   0.819   2.582   5.239  0.6055  0.0942 -0.3796
 9496SOL    HW140121   0.832   2.677   5.237  2.3761 -0.1104  0.9585
 9496SOL    HW240122   0.862   2.555   5.320 -1.0655 -2.4632 -0.3634
 9497SOL     OW40123   2.695   4.655   6.644  0.5350  0.4034  0.5603
 9497SOL    HW140124   2.641   4.596   6.696  1.5598  1.1751  2.5500
 9497SOL    HW240125   2.631   4.723   6.621  0.0935 -0.4259 -0.6205
 9498SOL     OW40126   2.036   1.179   1.831  0.0918 -0.0687 -0.6556
 9498SOL    HW140127   1.980   1.142   1.899  1.6426  1.6019  1.4994
 9498SOL    HW240128   2.022   1.118   1.758  2.3902  0.6434 -1.6973
 9499SOL     OW40129   4.353   1.448   7.411  0.1176 -0.3175  1.2516
 9499SOL    HW140130   4.382   1.518   7.352 -0.6147 -0.6972  0.4244
 9499SOL    HW240131   4.376   1.372   7.357 -2.0142  0.6615 -1.0763
 9500SOL     OW40132   1.667   0.524   8.858  0.2468  0.5040 -0.0357
 9500SOL    HW140133   1.749   0.571   8.843  1.5465 -1.7827  0.0550
 9500SOL    HW240134   1.694   0.434   8.843  1.1734  0.9884 -1.3601
 9501SOL     OW40135   1.917   1.231  15.035  0.0048  0.6467  0.1160
 9501SOL    HW140136   1.947   1.242  14.945 -2.7292  1.3390 -0.7143
 9501SOL    HW240137   2.000   1.233  15.083  1.0763 -0.3842 -1.7303
 9502SOL     OW40138   0.621   2.504   6.544  0.8025  0.1742 -0.1045
 9502SOL    HW140139   0.677   2.446   6.492 -0.0509  0.8574 -1.8032
 9502SOL    HW240140   0.677   2.581   6.551  1.1003  0.0008 -0.6097
 9503SOL     OW40141   1.557   3.616   3.612 -0.5315  0.1213 -0.0714
 9503SOL    HW140142   1.518   3.582   3.532  0.0398  0.1045 -0.3422
 9503SOL    HW240143   1.550   3.543   3.675 -2.3952 -0.4168 -0.9120
 9504SOL     OW40144   2.026   4.135  15.368  0.6329  0.3003 -0.1002
 9504SOL    HW140145   1.967   4.155  15.295 -0.7315  1.6059  1.3661
 9504SOL    HW240146   2.006   4.211  15.423  1.2760  1.5321 -1.5589
 9505SOL     OW40147   3.435   1.590  13.540 -0.3263  0.5433 -0.5230
 9505SOL    HW140148   3.454   1.646  13.615  1.2281  3.0335 -2.7811
 9505SOL    HW240149   3.373   1.652  13.500 -0.9161  0.4671  0.2740
 9506SOL     OW40150   2.904   2.438   4.245 -0.2323 -0.3742 -0.0947
 9506SOL    HW140151   2.838   2.415   4.178  0.0745 -0.9945 -0.1831
 9506SOL    HW240152   2.866   2.516   4.286 -1.5481 -1.3150  0.4710
 9507SOL     OW40153   2.131   0.090   5.617 -0.1764  0.6927  0.5988
 9507SOL    HW140154   2.223   0.104   5.595 -0.5483  1.5170 -0.4278
 9507SOL    HW240155   2.099   0.169   5.575 -2.2064 -0.0227  0.7958
 9508SOL     OW40156   4.208   1.118   1.388 -0.3971  0.3079  0.3261
 9508SOL    HW140157   4.249   1.119   1.475  2.6753  1.8222 -1.1204
 9508SOL    HW240158   4.187   1.025   1.393 -0.5075  0.3166  0.0190
 9509SOL     OW40159   4.033   3.649   3.882 -0.6644 -0.3398 -0.0430
 9509SOL    HW140160   4.033   3.740   3.913 -0.5977 -0.1639 -0.5526
 9509SOL    HW240161   4.065   3.670   3.794  1.0962  1.5584  1.0459
 9510SOL     OW40162   1.089   0.579   5.494 -0.2283 -0.1921 -0.5084
 9510SOL    HW140163   1.041   0.612   5.418  2.1338  1.1799 -1.4285
 9510SOL    HW240164   1.167   0.543   5.451 -1.0328 -1.3724 -0.9494
 9511SOL     OW40165   1.518   4.401  12.306  0.5769 -0.2368 -0.0201
 9511SOL    HW140166   1.580   4.409  12.379 -1.4172 -1.0529  1.7550
 9511SOL    HW240167   1.448   4.447  12.352 -0.3351 -0.7751 -0.8863
 9512SOL     OW40168   2.188   2.993   4.983 -0.1396  0.2692  0.7009
 9512SOL    HW140169   2.191   3.084   5.013  0.9687  0.9140 -1.3128
 9512SOL    HW240170   2.192   2.955   5.070  0.0622 -0.0219  0.5657
 9513SOL     OW40171   1.964   0.628   4.774 -0.1592 -0.0425 -0.1965
 9513SOL    HW140172   1.938   0.679   4.698 -1.7028  0.6510  0.8006
 9513SOL    HW240173   1.969   0.699   4.838 -0.7707 -1.0044  0.9237
 9514SOL     OW40174   0.810   1.303   5.229  0.7443 -0.5752  0.5416
 9514SOL    HW140175   0.857   1.377   5.267 -0.1768  1.1827 -1.6903
 9514SOL    HW240176   0.870   1.269   5.162  1.8836  0.0406  1.2451
 9515SOL     OW40177   4.593   2.236   9.310 -0.1555 -0.3646  0.0662
 9515SOL    HW140178   4.535   2.217   9.237 -0.3336 -1.0087  0.3726
 9515SOL    HW240179   4.645   2.156   9.318  1.5482  0.8442  1.0452
 9516SOL     OW40180   2.326   2.056   1.517 -0.4569  0.2636  0.4127
 9516SOL    HW140181   2.242   2.077   1.476  0.3045  1.6408 -0.4659
 9516SOL    HW240182   2.341   1.973   1.471 -1.4333  1.5017 -2.1470
 9517SOL     OW40183   0.450   0.270  14.066  0.1066  0.1435  0.0173
 9517SOL    HW140184   0.463   0.224  13.983  3.8883 -1.7556  1.6620
 9517SOL    HW240185   0.378   0.324  14.035  0.1034  0.0389 -0.1597
 9518SOL     OW40186   1.258   1.596   3.242 -0.1287 -0.7860 -0.5775
 9518SOL    HW140187   1.288   1.648   3.168 -0.2178 -2.0973 -1.5423
 9518SOL    HW240188   1.247   1.511   3.199 -2.4446 -0.7041 -0.1408
 9519SOL     OW40189   0.011   0.565   9.660 -0.4157 -0.0089 -0.5147
 9519SOL    HW140190   0.064   0.645   9.663 -0.6212  0.1864 -2.0161
 9519SOL    HW240191   0.068   0.488   9.654  1.5941  1.3535  0.9408
 9520SOL     OW40192   3.822   4.308   7.640 -0.1469 -0.3962  0.5016
 9520SOL    HW140193   3.770   4.316   7.720 -0.1140 -1.0606  0.5876
 9520SOL    HW240194   3.775   4.234   7.602 -0.0634  0.2454 -0.8544
 9521SOL     OW40195   2.782   2.032   9.380 -0.0121 -0.3438  0.2284
 9521SOL    HW140196   2.692   2.020   9.348 -1.5640  2.3815  3.5731
 9521SOL    HW240197   2.832   2.002   9.304 -0.6449 -2.3453  0.5941
 9522SOL     OW40198   3.415   2.150   5.489 -0.0204 -0.2695 -0.2514
 9522SOL    HW140199   3.430   2.238   5.523  0.1954 -0.4552  0.1414
 9522SOL    HW240200   3.384   2.167   5.401 -2.3647 -1.4425  0.3288
 9523SOL     OW40201   0.029   2.727   5.234 -0.1323  0.5012  0.5315
 9523SOL    HW140202   4.698   2.686   5.288 -0.5923  0.9104  0.2572
 9523SOL    HW240203   0.109   2.705   5.282 -0.8687  1.2251  2.0894
 9524SOL     OW40204   2.366   1.728   2.466  0.2854  0.2165 -0.0470
 9524SOL    HW140205   2.423   1.695   2.396 -1.7343  4.3035 -3.6070
 9524SOL    HW240206   2.414   1.806   2.493 -0.9349  0.9830 -0.1053
 9525SOL     OW40207   2.535   4.714   2.191 -0.4409 -0.3354  0.4079
 9525SOL    HW140208   2.450   4.698   2.150 -0.2992 -1.4246  0.5322
 9525SOL    HW240209   2.527   0.066   2.226  1.3063  0.1208 -0.3560
 9526SOL     OW40210   2.304   2.926  14.191 -0.2470 -0.0006 -0.0328
 9526SOL    HW140211   2.390   2.947  14.156 -0.2315 -1.5044 -0.8604
 9526SOL    HW240212   2.323   2.926  14.285  2.5865  0.3279 -0.6214
 9527SOL     OW40213   1.750   0.933   1.219  0.3115 -0.5280  0.1562
 9527SOL    HW140214   1.774   1.018   1.256  1.2931 -1.3171  1.3226
 9527SOL    HW240215   1.657   0.955   1.223  0.2243 -1.2070  2.0544
 9528SOL     OW40216   1.014   4.255   2.413 -0.3286  0.3897  0.8886
 9528SOL    HW140217   0.961   4.315   2.361  1.7606  0.5181 -1.1147
 9528SOL    HW240218   1.000   4.169   2.374  3.1674  0.6007 -0.8525
 9529SOL     OW40219   4.033   4.298   6.284  0.4834  0.4658 -0.1538
 9529SOL    HW140220   4.046   4.358   6.357 -0.9165  0.6033 -0.0207
 9529SOL    HW240221   3.987   4.230   6.333  1.2417 -0.5096 -0.7908
 9530SOL     OW40222   1.662   1.005   4.323 -0.1864  0.1525 -0.5086
 9530SOL    HW140223   1.588   1.042   4.371  1.8809 -0.3518  3.0314
 9530SOL    HW240224   1.636   1.014   4.231 -1.6914  0.0192 -0.0947
 9531SOL     OW40225   1.821   4.380  15.878  0.1051  0.0983 -0.5457
 9531SOL    HW140226   1.822   4.305  15.819 -1.1708  0.1430 -0.6131
 9531SOL    HW240227   1.869   4.445  15.828  1.1654 -1.1863 -1.1989
 9532SOL     OW40228   1.159   0.467   4.003 -0.1826  0.2256  0.2886
 9532SOL    HW140229   1.110   0.442   3.924  2.2017  0.6047 -1.3188
 9532SOL    HW240230   1.141   0.386   4.050  0.1826 -1.2114 -2.0256
 9533SOL     OW40231   2.284   4.510  10.849 -0.4496  0.9435 -0.0871
 9533SOL    HW140232   2.339   4.577  10.890  0.4273  0.5404 -0.6156
 9533SOL    HW240233   2.324   4.506  10.762  0.9581  0.7580  0.5753
 9534SOL     OW40234   3.114   1.838   3.945 -0.1308 -0.4492 -0.0184
 9534SOL    HW140235   3.020   1.842   3.962 -0.3148 -0.8673 -0.9244
 9534SOL    HW240236   3.112   1.918   3.893 -1.2059 -1.9470 -2.2997
 9535SOL     OW40237   1.304   0.225   9.149  0.0767 -0.5205 -0.2125
 9535SOL    HW140238   1.373   0.270   9.198  0.4008 -1.3528  0.0848
 9535SOL    HW240239   1.342   0.224   9.061 -1.7269 -1.4723 -0.9898
 9536SOL     OW40240   2.608   3.774   2.699  0.0180  0.0377 -0.0182
 9536SOL    HW140241   2.682   3.834   2.689  0.8536 -1.0481 -0.3361
 9536SOL    HW240242   2.596   3.772   2.794 -2.1605  0.3284 -0.2688
 9537SOL     OW40243   1.846   0.857  15.318 -0.4936  0.3105  0.5916
 9537SOL    HW140244   1.877   0.889  15.403 -0.3194  2.3975 -0.2697
 9537SOL    HW240245   1.754   0.881  15.314 -0.0177  1.7031 -2.1781
 9538SOL     OW40246   0.634   1.558  11.692  0.2613  0.4656 -0.1917
 9538SOL    HW140247   0.604   1.605  11.614  2.7650  1.0515 -0.8042
 9538SOL    HW240248   0.558   1.555  11.750  0.9561  0.3389  0.7177
 9539SOL     OW40249   0.236   1.653   5.842 -0.1771 -0.2238 -0.0470
 9539SOL    HW140250   0.199   1.565   5.834 -1.1381  0.2398 -0.8140
 9539SOL    HW240251   0.300   1.653   5.770 -2.0033  3.0969 -1.7024
 9540SOL     OW40252   3.309   2.068   4.430 -0.6058  0.3180  0.2193
 9540SOL    HW140253   3.338   2.160   4.432 -0.1007  0.1515  0.6039
 9540SOL    HW240254   3.258   2.049   4.509  0.3315 -2.3972  0.1723
 9541SOL     OW40255   2.776   3.058   2.217  0.0273  0.1226  0.3649
 9541SOL    HW140256   2.730   3.041   2.300  2.5017 -2.6283  1.1529
 9541SOL    HW240257   2.813   2.971   2.202 -2.7015 -0.9009 -0.5517
 9542SOL     OW40258   1.638   1.336   6.172  0.1353  0.3040 -0.0011
 9542SOL    HW140259   1.544   1.326   6.152  0.1707 -0.6478  0.3182
 9542SOL    HW240260   1.659   1.268   6.236  0.4047 -0.1468 -0.5714
 9543SOL     OW40261   2.459   4.499   5.320 -0.1296  0.7774 -0.2081
 9543SOL    HW140262   2.373   4.497   5.279 -0.6407  1.9332  0.7867
 9543SOL    HW240263   2.431   4.514   5.411  0.8259  1.4909 -0.0310
 9544SOL     OW40264   0.719   3.391  14.925  0.1741 -0.5182  0.5335
 9544SOL    HW140265   0.643   3.449  14.918  0.2224 -0.1307  3.2553
 9544SOL    HW240266   0.745   3.389  14.833 -0.7317 -0.5634  0.2770
 9545SOL     OW40267   1.346   3.825   3.369  0.1038 -0.4220  0.3356
 9545SOL    HW140268   1.360   3.885   3.296 -0.2293 -0.3544  0.3270
 9545SOL    HW240269   1.434   3.791   3.386  1.3052  2.7360  0.5669
 9546SOL     OW40270   4.240   3.249   5.542  0.7098 -0.4457 -0.0073
 9546SOL    HW140271   4.322   3.296   5.550  1.4354 -1.4715 -1.5764
 9546SOL    HW240272   4.181   3.321   5.564  1.3392  0.1548 -0.2989
 9547SOL     OW40273   2.343   0.120  14.789 -0.1313  0.8793  0.1156
 9547SOL    HW140274   2.293   0.202  14.793 -1.9594 -0.2844  1.3594
 9547SOL    HW240275   2.418   0.142  14.734 -0.4409  1.0521 -0.2422
 9548SOL     OW40276   2.022   3.360   2.061  0.8784  0.3296 -0.0894
 9548SOL    HW140277   1.974   3.278   2.072  0.5105  0.2725 -2.1804
 9548SOL    HW240278   2.074   3.365   2.142  1.2059  0.0240 -0.2796
 9549SOL     OW40279   4.051   3.787   7.245  0.3496 -0.2514 -0.3072
 9549SOL    HW140280   4.137   3.765   7.280  0.7225  2.1712  0.3476
 9549SOL    HW240281   4.030   3.703   7.204  1.7513 -0.0128 -1.5101
 9550SOL     OW40282   4.269   3.474  11.972 -0.1015  0.7122 -0.0678
 9550SOL    HW140283   4.223   3.497  11.891 -0.4107  0.7249  0.1100
 9550SOL    HW240284   4.213   3.404  12.007  1.9116 -2.1017 -2.5091
 9551SOL     OW40285   4.368   1.396  11.558 -0.1302 -0.4675 -0.7648
 9551SOL    HW140286   4.321   1.466  11.514  1.4707  0.3304 -1.2302
 9551SOL    HW240287   4.412   1.454  11.620  0.3438 -0.7214 -0.8552
 9552SOL     OW40288   1.523   3.993   6.841  0.5836 -0.4386  0.1261
 9552SOL    HW140289   1.469   4.009   6.764  0.1578  0.9656  0.6962
 9552SOL    HW240290   1.522   3.898   6.840  2.0758 -0.4740  1.5525
 9553SOL     OW40291   1.306   0.333  16.257  0.0652 -0.6316 -0.7286
 9553SOL    HW140292   1.368   0.297  16.319 -0.8069 -0.5869  0.1757
 9553SOL    HW240293   1.336   0.300  16.173 -5.5258  0.7260 -3.2971
 9554SOL     OW40294   2.518   2.126   7.876  0.0883 -0.6599 -0.2323
 9554SOL    HW140295   2.467   2.158   7.950  0.4928 -0.1790 -0.1562
 9554SOL    HW240296   2.575   2.060   7.914  1.5244 -0.0589 -1.3242
 9555SOL     OW40297   2.091   1.324   4.695  0.5952 -0.0545  0.2585
 9555SOL    HW140298   2.162   1.314   4.632  0.8005 -1.5149  0.7235
 9555SOL    HW240299   2.068   1.231   4.704 -1.2068  0.3994  0.4109
 9556SOL     OW40300   2.529   0.483   9.340 -0.3347  0.7373  0.3486
 9556SOL    HW140301   2.484   0.402   9.319 -2.2365  1.6509  0.8663
 9556SOL    HW240302   2.466   0.544   9.300  1.8639  3.1101  0.4734
 9557SOL     OW40303   2.715   1.844   3.378 -0.7849 -0.1254 -0.5403
 9557SOL    HW140304   2.624   1.829   3.352 -0.9143 -0.1449 -0.0889
 9557SOL    HW240305   2.753   1.810   3.297  1.9242  2.4794 -0.3566
 9558SOL     OW40306   2.452   1.717   7.496  0.6845  0.1128  0.1536
 9558SOL    HW140307   2.451   1.680   7.407  0.1773 -0.7394  0.5173
 9558SOL    HW240308   2.462   1.808   7.469  3.5872 -0.3240 -0.2962
 9559SOL     OW40309   3.102   3.469   2.579  0.3347 -0.4188  0.2876
 9559SOL    HW140310   3.185   3.479   2.627  2.2562 -2.3269 -2.6222
 9559SOL    HW240311   3.061   3.555   2.583  0.4260 -0.3395 -0.5881
 9560SOL     OW40312   1.354   1.066  13.613  0.1636  0.0066  0.2382
 9560SOL    HW140313   1.344   1.161  13.624 -1.0520 -0.0625 -0.1655
 9560SOL    HW240314   1.353   1.066  13.517 -0.5281 -1.6793  0.2419
 9561SOL     OW40315   0.336   3.440   7.740 -0.3079 -0.7781  0.8987
 9561SOL    HW140316   0.279   3.453   7.664  1.7751  0.9347 -0.3706
 9561SOL    HW240317   0.409   3.495   7.709  0.6701 -2.4171  0.3031
 9562SOL     OW40318   2.780   0.431   5.348 -0.1683  0.3284 -0.1190
 9562SOL    HW140319   2.728   0.352   5.333  1.6580 -0.8340 -0.3508
 9562SOL    HW240320   2.793   0.463   5.259  0.0130  0.4254 -0.0595
 9563SOL     OW40321   0.119   1.139  11.136  0.3326 -0.0030 -0.1920
 9563SOL    HW140322   0.087   1.223  11.104 -0.7237  0.2627  1.5481
 9563SOL    HW240323   0.077   1.140  11.222 -2.0520  0.0864 -1.3820
 9564SOL     OW40324   2.696   0.371   7.858  0.4034 -0.1888  0.6122
 9564SOL    HW140325   2.659   0.391   7.944 -0.1223 -0.9074  0.5510
 9564SOL    HW240326   2.713   0.460   7.826 -0.1390 -0.1981  0.3045
 9565SOL     OW40327   2.425   3.962   2.431 -0.0708  0.5009  0.5846
 9565SOL    HW140328   2.392   4.048   2.408 -0.2560  1.3398  4.0056
 9565SOL    HW240329   2.519   3.978   2.427 -0.4252  2.0522 -1.0195
 9566SOL     OW40330   4.085   0.572   3.700 -0.0009 -0.6522 -0.1640
 9566SOL    HW140331   4.054   0.486   3.729  0.2382 -1.0314 -1.0316
 9566SOL    HW240332   4.116   0.596   3.788  1.9586  1.6554 -1.4721
 9567SOL     OW40333   1.010   4.410   9.594 -0.1379 -0.1949 -0.8752
 9567SOL    HW140334   0.973   4.322   9.582 -1.1439  0.0056  0.8151
 9567SOL    HW240335   0.923   4.451   9.590  0.0269 -0.0255 -2.7167
 9568SOL     OW40336   2.913   0.900   5.082  0.3831  0.1747 -0.0160
 9568SOL    HW140337   2.999   0.903   5.041 -0.1940  0.2159 -1.2168
 9568SOL    HW240338   2.924   0.810   5.114 -0.5352  0.2012  0.3884
 9569SOL     OW40339   4.349   1.153  12.897  0.4033  0.0419 -0.2114
 9569SOL    HW140340   4.424   1.132  12.951 -1.4482  0.2054  2.4086
 9569SOL    HW240341   4.321   1.238  12.931  0.9674  0.1569 -0.0532
 9570SOL     OW40342   4.492   4.586   2.296 -0.7245 -0.6608 -1.0305
 9570SOL    HW140343   4.493   4.590   2.391  0.5562  0.0688 -1.0756
 9570SOL    HW240344   4.587   4.599   2.290 -0.6694  0.1570  1.9702
 9571SOL     OW40345   3.426   3.625   2.987 -0.1000  0.1557  0.2415
 9571SOL    HW140346   3.482   3.701   2.967 -0.2725  0.4655  0.9384
 9571SOL    HW240347   3.471   3.571   3.051 -1.5328 -0.5143  0.6790
   4.73704   4.73704  17.74652
