Membrane in water
40347
    1TMC1    C1    1   0.579   3.795  11.627  0.0644  0.5016  0.2536
    1TMC1    C2    2   0.675   3.714  11.576  0.4476  0.7274  0.1846
    1TMC1    C3    3   0.630   3.642  11.465 -0.5113 -0.4798 -0.2470
    1TMC1    C4    4   0.454   3.815  11.572  0.8813 -0.3536 -0.7726
    1TMC1    C5    5   0.425   3.747  11.457  0.3636 -0.6252  0.2259
    1TMC1    C6    6   0.509   3.646  11.409  0.5367 -0.6707  0.5064
    1TMC1     C    7   0.598   3.861  11.758  0.4783  0.1555  0.2844
    1TMC1     O    8   0.510   3.940  11.791  0.7033 -0.1811 -0.6682
    1TMC1     H    9   0.777   3.707  11.613 -0.9694  0.6199  4.1534
    1TMC1    H1   10   0.381   3.883  11.615  1.4361  0.1044 -0.5426
    1TMC1    H2   11   0.479   3.594  11.318 -0.4130  0.6709  0.0548
    1TMC1    C7   12   0.293   3.771  11.418  0.2959 -0.8440 -0.0148
    1TMC1    C8   13   0.730   3.564  11.398  0.4495 -0.1978  0.2427
    1TMC1    O1   14   0.204   3.786  11.499 -0.0131  0.0337 -0.5184
    1TMC1    O2   15   0.832   3.529  11.461  0.4283  0.5502 -0.2114
    1TMC1    O3   16   0.286   3.764  11.287 -0.1341  0.4287 -0.0716
    1TMC1    H3   17   0.371   3.755  11.239 -0.4514 -2.5270 -0.0990
    1TMC1    O5   18   0.731   3.613  11.271  0.5417  0.2827  0.6941
    1TMC1    H5   19   0.647   3.636  11.227  0.0578 -2.2089  0.3242
    2MPD2     C   20   0.799   3.925  12.209 -0.0554 -0.3748  0.4349
    2MPD2    C1   21   0.724   4.010  12.135 -0.2665 -0.1683 -0.6895
    2MPD2    C2   22   0.691   3.980  12.007 -0.1232  0.1603 -0.2076
    2MPD2    C3   23   0.739   3.858  11.958 -0.1858  0.6520 -0.2782
    2MPD2    C4   24   0.810   3.769  12.032  0.4522 -0.1711  0.2603
    2MPD2    C5   25   0.846   3.811  12.150  0.1685  0.0686 -0.0994
    2MPD2     H   26   0.629   4.050  11.951  1.2612  2.1086  0.6717
    2MPD2    H1   27   0.834   3.670  11.994  0.5792 -0.0944  0.1395
    2MPD2    H2   28   0.828   3.929  12.313  0.7095  0.0441  0.2050
    2MPD2    H3   29   0.902   3.741  12.211 -0.5074 -1.2854 -1.0509
    2MPD2     N   30   0.708   3.810  11.831  0.2870 -0.2090 -0.5693
    2MPD2    H5   31   0.745   3.720  11.803  0.9180 -0.2093  0.2539
    2MPD2    N1   32   0.676   4.135  12.184 -0.5967 -0.3221  0.1001
    2MPD2    H7   33   0.621   4.195  12.122 -0.7626 -0.2554  0.3086
    3TMC1    C1   34   0.578   1.534  10.906 -0.0041 -0.2153 -0.4961
    3TMC1    C2   35   0.637   1.437  10.833  0.2836  0.1115  0.2581
    3TMC1    C3   36   0.660   1.448  10.696 -0.1473 -0.0353 -0.3660
    3TMC1    C4   37   0.539   1.646  10.833  0.3794  1.1250  0.1021
    3TMC1    C5   38   0.546   1.647  10.700 -0.4164 -0.2762  0.0166
    3TMC1    C6   39   0.611   1.554  10.624  0.0170 -0.4718  0.4230
    3TMC1     C   40   0.483   1.475  11.003  0.8746  0.2642 -0.6267
    3TMC1     O   41   0.499   1.356  11.028 -0.1545 -0.0349  0.1152
    3TMC1     H   42   0.672   1.346  10.881  0.6477  0.0690 -0.0874
    3TMC1    H1   43   0.502   1.731  10.889 -0.0196  0.9139  0.1639
    3TMC1    H2   44   0.609   1.553  10.516 -0.1743 -0.4073  0.4265
    3TMC1    C7   45   0.510   1.768  10.628  0.2869  0.0943 -0.5536
    3TMC1    C8   46   0.689   1.329  10.622  0.4295  0.1968 -0.0491
    3TMC1    O1   47   0.567   1.801  10.531  0.4789 -0.1400  0.0640
    3TMC1    O2   48   0.638   1.314  10.510  0.3291  0.7013  0.4306
    3TMC1    O3   49   0.392   1.812  10.677 -0.2756 -0.3148  0.2509
    3TMC1    H3   50   0.344   1.750  10.737  0.9049 -0.7041  0.8008
    3TMC1    O5   51   0.819   1.292  10.653  0.5155  0.5622  0.0905
    3TMC1    H5   52   0.859   1.350  10.722 -0.3057  0.4844  0.6336
    4MPD2     C   53   0.037   1.482  11.263 -0.6790  0.0096 -0.0215
    4MPD2    C1   54   0.084   1.611  11.262  0.1076 -0.5548  0.0247
    4MPD2    C2   55   0.206   1.636  11.197 -0.0893 -0.3155  0.0269
    4MPD2    C3   56   0.272   1.535  11.126 -0.0322 -0.3329  0.1268
    4MPD2    C4   57   0.219   1.411  11.125 -0.1219  0.6860  0.4752
    4MPD2    C5   58   0.097   1.384  11.191  0.6708 -0.1604  0.0956
    4MPD2     H   59   0.243   1.738  11.196 -2.0225  0.4156  2.1287
    4MPD2    H1   60   0.264   1.336  11.061 -1.4605  0.1697  0.1513
    4MPD2    H2   61   4.685   1.459  11.323 -1.2614 -0.3399 -1.0021
    4MPD2    H3   62   0.048   1.288  11.182  0.6880  0.0434 -2.1210
    4MPD2     N   63   0.393   1.566  11.056  0.0567 -0.3799  0.1567
    4MPD2    H5   64   0.411   1.664  11.035  0.2098 -0.7836 -1.6300
    4MPD2    N1   65   0.019   1.727  11.316  0.6433 -0.4810 -0.1604
    4MPD2    H7   66   0.073   1.812  11.330 -0.0957  0.1702 -1.2388
    5TCq1    O1   67   1.223   2.806  11.979  0.3681 -0.1079 -0.7968
    5TCq1    C1   68   1.136   2.838  12.070  0.0948 -0.4415 -0.4377
    5TCq1    O2   69   1.131   2.791  12.183 -0.6545 -0.3788  0.1637
    5TCq1    C2   70   1.022   2.917  12.008 -0.0496  0.4375  0.3347
    5TCq1    C3   71   0.911   2.946  12.092  1.3357  0.6170 -0.0044
    5TCq1    C4   72   0.813   3.024  12.040 -0.2782  0.1562 -0.0058
    5TCq1    C5   73   0.814   3.075  11.914 -0.1638  0.4563 -0.0448
    5TCq1    C6   74   0.917   3.036  11.837  0.5499 -0.0981  0.7442
    5TCq1    C7   75   1.023   2.965  11.881  0.1169 -0.4030 -1.0930
    5TCq1    C8   76   0.911   3.082  11.701  0.0107  0.1742 -0.8971
    5TCq1    O4   77   1.013   3.092  11.639  0.2657  0.7754 -0.0247
    5TCq1    C9   78   0.691   3.043  12.121  0.2783  0.7549 -0.2974
    5TCq1    O5   79   0.592   3.088  12.061 -0.3036  0.6885  0.2415
    5TCq1    O6   80   0.690   2.982  12.232 -0.4478 -0.2560  0.3837
    5TCq1    H1   81   1.227   2.876  11.910  0.2751  0.1463 -0.5420
    5TCq1    H2   82   0.903   2.902  12.191 -0.0763  0.9153  0.0088
    5TCq1    H3   83   0.735   3.140  11.878  0.8297  1.8426  0.2553
    5TCq1    H4   84   1.101   2.943  11.809 -0.7195 -1.2107 -1.7513
    6MPD2     C   85   0.631   3.203  11.483 -0.4911 -0.3271 -0.6413
    6MPD2    C1   86   0.764   3.172  11.513 -0.6845  0.3209  0.8909
    6MPD2    C2   87   0.864   3.177  11.410  0.5063  0.5024  0.0249
    6MPD2    C3   88   0.820   3.202  11.276  0.3541  0.7119 -0.5463
    6MPD2    C4   89   0.686   3.239  11.246 -0.1898  0.2301  0.2544
    6MPD2    C5   90   0.597   3.238  11.354  0.3101 -0.2596 -0.7335
    6MPD2     H   91   0.969   3.152  11.418  0.4434  0.3481  0.3474
    6MPD2    H1   92   0.653   3.271  11.148  1.1571 -1.4209 -0.7394
    6MPD2    H2   93   0.552   3.195  11.557  1.2800  0.3746  1.3386
    6MPD2    H3   94   0.497   3.268  11.324 -0.1249 -1.4202 -0.4620
    6MPD2     N   95   0.916   3.201  11.176 -0.7302 -0.2755 -0.5795
    6MPD2    H5   96   1.000   3.148  11.194  0.6421  2.6086  1.5921
    6MPD2    N1   97   0.789   3.123  11.643  0.3325 -0.2684  0.6183
    6MPD2    H7   98   0.702   3.122  11.694  0.2560 -1.6269  0.4787
    7TCq1    O1   99   2.740   2.661  12.950  0.2885  0.1335 -0.4292
    7TCq1    C1  100   2.867   2.698  12.906  0.1856  0.3847  0.3653
    7TCq1    O2  101   2.898   2.803  12.854 -0.3755  0.3956  0.2932
    7TCq1    C2  102   2.974   2.633  12.987  0.5717 -0.3145  0.4432
    7TCq1    C3  103   3.081   2.708  13.025 -0.2585 -0.3329 -0.2558
    7TCq1    C4  104   3.173   2.664  13.112  1.1045  0.7045 -0.3620
    7TCq1    C5  105   3.164   2.528  13.143  0.2486 -0.7012 -0.4243
    7TCq1    C6  106   3.063   2.451  13.098 -0.7855 -0.3564 -0.0366
    7TCq1    C7  107   2.966   2.500  13.017  0.4028  0.0362  0.3935
    7TCq1    C8  108   3.034   2.320  13.165 -0.1364 -0.8114  0.2062
    7TCq1    O4  109   2.944   2.250  13.116  0.4694 -0.2091  0.3038
    7TCq1    C9  110   3.278   2.753  13.154  0.8374 -0.4741 -0.2586
    7TCq1    O5  111   3.316   2.740  13.272  0.3399 -0.1776  0.3499
    7TCq1    O6  112   3.323   2.835  13.070 -0.5847 -0.1066  0.4434
    7TCq1    H1  113   2.738   2.583  13.010 -2.0579  1.0469  0.6648
    7TCq1    H2  114   3.073   2.816  13.011  0.9323 -0.2543 -0.3260
    7TCq1    H3  115   3.250   2.483  13.192 -0.2228  0.2883  1.3118
    7TCq1    H4  116   2.881   2.442  12.983  1.6277 -1.4647 -0.1099
    8MPD2     C  117   3.058   2.024  13.581  0.6152  0.4322  0.2650
    8MPD2    C1  118   2.973   2.013  13.472  0.4941 -0.4137  0.2439
    8MPD2    C2  119   2.994   2.102  13.367  0.5420  1.2477 -0.3250
    8MPD2    C3  120   3.092   2.200  13.375 -0.2718  0.9810  0.3109
    8MPD2    C4  121   3.166   2.217  13.492  0.1131  0.2640 -0.1712
    8MPD2    C5  122   3.161   2.117  13.586 -0.2699  0.0098  0.1157
    8MPD2     H  123   2.926   2.106  13.282  0.0960 -2.6362 -0.1621
    8MPD2    H1  124   3.239   2.297  13.504 -0.2086  0.4012  0.8679
    8MPD2    H2  125   3.053   1.953  13.663 -2.5719  0.4642  0.1168
    8MPD2    H3  126   3.237   2.115  13.663 -1.0161 -0.5034  0.8395
    8MPD2     N  127   3.107   2.302  13.278  0.6539 -0.1631  0.0096
    8MPD2    H5  128   3.170   2.380  13.295 -0.4273  0.2061  2.2990
    8MPD2    N1  129   2.887   1.900  13.483 -0.2813  0.7597 -0.3722
    8MPD2    H7  130   2.897   1.844  13.567 -0.6670 -0.4475 -1.1292
    9TMC1    C1  131   1.143   0.688  10.942 -0.4220  0.4352 -0.0375
    9TMC1    C2  132   1.065   0.584  10.908 -0.7768  0.3300  0.4980
    9TMC1    C3  133   1.084   0.511  10.798  0.8491 -0.0772 -0.3100
    9TMC1    C4  134   1.237   0.725  10.860 -0.1573 -0.5482  0.6522
    9TMC1    C5  135   1.250   0.648  10.745  0.4728  0.1134  0.1151
    9TMC1    C6  136   1.181   0.540  10.713  0.5751 -0.0293 -0.1619
    9TMC1     C  137   1.124   0.764  11.060  0.8078 -0.6947  0.5169
    9TMC1     O  138   1.166   0.880  11.056  0.1396 -0.1212  0.0709
    9TMC1     H  139   0.983   0.556  10.974 -0.0477 -2.6884  0.1447
    9TMC1    H1  140   1.305   0.809  10.873 -1.2284  0.3777  0.2528
    9TMC1    H2  141   1.206   0.479  10.627 -0.5715 -1.9504  0.8684
    9TMC1    C7  142   1.286   0.730  10.634 -0.2437  0.2269 -0.3425
    9TMC1    C8  143   0.971   0.421  10.764 -0.1454 -0.3969  0.0862
    9TMC1    O1  144   1.291   0.852  10.643 -0.6551 -0.2487  0.4335
    9TMC1    O2  145   0.904   0.365  10.851 -0.5220  0.4143  0.5594
    9TMC1    O3  146   1.356   0.658  10.549 -0.3665  0.1552 -0.5885
    9TMC1    H3  147   1.396   0.574  10.579 -1.2229 -0.2783 -0.6771
    9TMC1    O5  148   0.940   0.456  10.637  0.0442 -0.6624 -0.2167
    9TMC1    H5  149   0.962   0.544  10.599 -1.4718  0.1227  0.7165
   10MPD2     C  150   1.041   0.874  11.328  0.3869  0.1670  0.3416
   10MPD2    C1  151   1.000   0.753  11.279  0.1923  0.5956 -0.5450
   10MPD2    C2  152   0.908   0.681  11.347  0.2692  0.6158 -0.2932
   10MPD2    C3  153   0.853   0.738  11.465 -0.4231 -0.0834  0.2444
   10MPD2    C4  154   0.908   0.847  11.517 -0.4737  0.0825  0.3500
   10MPD2    C5  155   0.991   0.923  11.439 -0.1123  0.0006 -0.0929
   10MPD2     H  156   0.863   0.592  11.307 -0.0709  1.1557 -1.1107
   10MPD2    H1  157   0.884   0.886  11.616  0.9308  0.6092  0.4765
   10MPD2    H2  158   1.113   0.940  11.280  0.1312 -1.2986 -2.0198
   10MPD2    H3  159   1.035   1.012  11.484 -0.1462 -0.5867  1.1070
   10MPD2     N  160   0.749   0.688  11.547  0.1645  0.2847 -0.6432
   10MPD2    H5  161   0.727   0.734  11.635  2.7048  1.6087 -0.6754
   10MPD2    N1  162   1.045   0.696  11.154  0.6365 -0.3956  0.5635
   10MPD2    H7  163   1.038   0.595  11.142  0.6937 -0.3915  0.4930
   11TCq1    O1  164   1.148   0.707  13.917 -0.2460  0.5717 -0.0645
   11TCq1    C1  165   1.123   0.576  13.924 -0.1911  0.0353 -0.5899
   11TCq1    O2  166   1.206   0.489  13.913  0.2987 -0.1733  0.5948
   11TCq1    C2  167   0.977   0.557  13.945 -0.4417 -0.0945 -0.7204
   11TCq1    C3  168   0.908   0.642  14.025 -0.4102  0.2476  0.1426
   11TCq1    C4  169   0.777   0.619  14.036 -0.0157 -0.7059  1.0128
   11TCq1    C5  170   0.713   0.513  13.978 -0.1920  0.1803  0.0724
   11TCq1    C6  171   0.788   0.423  13.915  0.0230 -0.3140 -0.6818
   11TCq1    C7  172   0.924   0.442  13.895  0.3031  0.5795 -0.7549
   11TCq1    C8  173   0.714   0.316  13.848 -0.4607  0.0371 -0.1808
   11TCq1    O4  174   0.590   0.328  13.834 -0.3735 -0.0845 -0.6685
   11TCq1    C9  175   0.690   0.716  14.112  0.0099 -0.3103  0.4481
   11TCq1    O5  176   0.744   0.829  14.142  0.2544 -0.4866 -0.0313
   11TCq1    O6  177   0.587   0.670  14.168 -0.7521  0.0554  0.0263
   11TCq1    H1  178   1.058   0.741  13.898 -0.9546 -0.5491  1.2047
   11TCq1    H2  179   0.949   0.732  14.071  0.1680 -1.4518  2.9185
   11TCq1    H3  180   0.608   0.490  13.989  0.1731 -1.5374  0.0111
   11TCq1    H4  181   0.991   0.380  13.836  1.6445  2.1444 -0.8730
   12MPD2     C  182   0.615   0.055  13.755  0.6018 -0.6731 -0.8115
   12MPD2    C1  183   0.742   0.075  13.802 -0.6007  0.8481  0.4339
   12MPD2    C2  184   0.823   4.703  13.825 -0.9644  0.5198 -0.0275
   12MPD2    C3  185   0.790   4.582  13.781  0.8026 -0.1465 -0.0993
   12MPD2    C4  186   0.670   4.565  13.718  0.2851  0.0146  0.5179
   12MPD2    C5  187   0.580   4.670  13.709  0.3635  0.4249  0.2263
   12MPD2     H  188   0.920   4.722  13.871 -0.8313 -1.4881  0.5043
   12MPD2    H1  189   0.645   4.466  13.681 -0.6408 -0.1100  1.4433
   12MPD2    H2  190   0.544   0.137  13.755  1.1971 -0.1554  0.2019
   12MPD2    H3  191   0.492   4.662  13.647  0.2329  0.6674  0.3822
   12MPD2     N  192   0.875   4.468  13.783  0.5973 -0.1206 -0.2499
   12MPD2    H5  193   0.839   4.383  13.742  1.3076 -1.9157  2.8256
   12MPD2    N1  194   0.793   0.205  13.844 -0.4586 -0.2429 -0.6026
   12MPD2    H7  195   0.886   0.214  13.886 -0.5049 -1.6008 -0.2026
   13TCq1    O1  196   1.772   1.826  11.079 -0.5964 -0.2447 -0.8428
   13TCq1    C1  197   1.672   1.749  11.132  0.4567 -0.0614  0.4110
   13TCq1    O2  198   1.675   1.675  11.226  0.1382 -0.5116 -0.3171
   13TCq1    C2  199   1.557   1.824  11.094 -0.0758  0.2941 -0.5474
   13TCq1    C3  200   1.556   1.961  11.096 -0.4643  0.3606 -0.1721
   13TCq1    C4  201   1.437   2.022  11.081  0.1092  0.3767 -0.0401
   13TCq1    C5  202   1.322   1.956  11.059  0.3205  0.6149 -0.1194
   13TCq1    C6  203   1.330   1.818  11.066 -0.5778 -0.2446  0.3890
   13TCq1    C7  204   1.447   1.748  11.082 -0.0490  0.0381 -0.6064
   13TCq1    C8  205   1.203   1.746  11.081 -0.1223  0.0067  0.3234
   13TCq1    O4  206   1.097   1.809  11.094  0.2409  0.4673 -0.3436
   13TCq1    C9  207   1.439   2.161  11.079  0.3905  0.6785  0.1498
   13TCq1    O5  208   1.533   2.223  11.132  1.2828  0.7790 -0.1696
   13TCq1    O6  209   1.328   2.212  11.057 -0.5967 -0.4668 -0.5180
   13TCq1    H1  210   1.728   1.862  10.999 -1.6661 -0.0114 -0.1400
   13TCq1    H2  211   1.645   2.023  11.105 -0.1029 -0.2104  0.2672
   13TCq1    H3  212   1.228   2.005  11.037 -0.6907 -1.0175  0.5576
   13TCq1    H4  213   1.475   1.644  11.071  1.2956  0.6831 -3.4681
   14MPD2     C  214   1.214   1.400  11.211  0.4118 -0.4162  0.0011
   14MPD2    C1  215   1.156   1.517  11.179  0.0556 -0.0386  0.1330
   14MPD2    C2  216   1.021   1.537  11.210  0.4929 -0.5003 -0.0942
   14MPD2    C3  217   0.957   1.434  11.281  1.0920  0.6108 -0.0503
   14MPD2    C4  218   1.023   1.309  11.306  0.9937 -0.5259  0.3844
   14MPD2    C5  219   1.154   1.298  11.278  0.1353 -0.1936  1.0471
   14MPD2     H  220   0.970   1.633  11.202  0.7233 -0.1970  2.0463
   14MPD2    H1  221   0.975   1.221  11.347  0.3475  0.2997  1.3821
   14MPD2    H2  222   1.322   1.397  11.201  0.2701  1.0802 -1.9993
   14MPD2    H3  223   1.216   1.212  11.303 -0.5547 -0.8833  0.3948
   14MPD2     N  224   0.817   1.451  11.305 -0.3235  0.5285 -0.0895
   14MPD2    H5  225   0.773   1.536  11.272  0.6187  1.2022  0.3709
   14MPD2    N1  226   1.234   1.618  11.116  0.0834 -0.4954 -0.3929
   14MPD2    H7  227   1.327   1.588  11.090  0.2932 -0.6127  0.5050
   15TCq1    O1  228   2.483   4.339   2.401  0.4526  0.1929  0.1997
   15TCq1    C1  229   2.514   4.391   2.278  0.5768  0.8056  0.3634
   15TCq1    O2  230   2.622   4.429   2.242  0.5371  0.0784  0.5666
   15TCq1    C2  231   2.409   4.355   2.179  0.1495  0.1821  0.2474
   15TCq1    C3  232   2.277   4.385   2.205  0.5203  0.0631  0.1448
   15TCq1    C4  233   2.188   4.362   2.103  0.8534  0.1350  0.2256
   15TCq1    C5  234   2.225   4.328   1.980 -0.4170  0.7393  0.8732
   15TCq1    C6  235   2.362   4.308   1.959  0.1763 -0.7670  0.4873
   15TCq1    C7  236   2.455   4.321   2.058 -0.1120 -0.5157  0.2863
   15TCq1    C8  237   2.412   4.255   1.835 -0.5830 -0.1417  0.0247
   15TCq1    O4  238   2.484   4.162   1.843 -0.4835 -0.7212 -0.0999
   15TCq1    C9  239   2.047   4.387   2.121 -0.5086 -0.3706  0.1658
   15TCq1    O5  240   2.000   4.362   2.235 -0.5550  0.0715  0.2319
   15TCq1    O6  241   1.986   4.452   2.028  0.1610 -0.7177 -0.5977
   15TCq1    H1  242   2.394   4.299   2.406  0.4371  0.3368  1.1028
   15TCq1    H2  243   2.253   4.437   2.297 -1.9810  0.4061 -0.6987
   15TCq1    H3  244   2.139   4.312   1.915  0.3133 -0.5395  0.2073
   15TCq1    H4  245   2.560   4.298   2.039  0.3602  2.1001 -0.3350
   16MPD2     C  246   2.263   4.340   1.508 -0.0470  0.0745  0.0742
   16MPD2    C1  247   2.340   4.263   1.597  0.5811  0.4866 -0.4319
   16MPD2    C2  248   2.443   4.178   1.552 -0.6240  0.2054 -0.1469
   16MPD2    C3  249   2.449   4.152   1.420 -0.3712 -0.1087 -0.2801
   16MPD2    C4  250   2.372   4.226   1.327 -0.5232  1.1031 -0.3853
   16MPD2    C5  251   2.286   4.324   1.371  0.4857  0.6661  0.0501
   16MPD2     H  252   2.502   4.127   1.627  0.2737  0.2858 -0.7978
   16MPD2    H1  253   2.375   4.208   1.220  1.8480 -0.1770 -0.1101
   16MPD2    H2  254   2.208   4.425   1.545 -1.4152 -0.6607 -0.2656
   16MPD2    H3  255   2.224   4.379   1.301  1.0167  1.3416  0.1092
   16MPD2     N  256   2.552   4.066   1.383  0.2140 -0.0246  0.0817
   16MPD2    H5  257   2.596   4.017   1.461  2.2060  1.6521 -0.0059
   16MPD2    N1  258   2.328   4.302   1.731 -0.7915 -0.0001  0.7636
   16MPD2    H7  259   2.261   4.378   1.741 -0.8388 -0.0742  1.0066
   17TMC1    C1  260   4.696   0.068  11.835 -0.5666 -0.4613 -0.0514
   17TMC1    C2  261   4.686   4.731  11.720  0.5799 -0.4398  0.1911
   17TMC1    C3  262   4.705   4.601  11.735 -0.4328  0.8004 -0.5774
   17TMC1    C4  263   4.708   0.011  11.961  0.2119  0.3895 -0.5725
   17TMC1    C5  264   4.721   4.610  11.964 -0.0770  0.1104 -0.0362
   17TMC1    C6  265   4.728   4.535  11.850  0.0265 -0.0067 -1.1123
   17TMC1     C  266   0.000   0.206  11.820 -0.5556 -0.4964 -0.3931
   17TMC1     O  267   0.026   0.262  11.924  0.4434 -0.0552 -0.3556
   17TMC1     H  268   4.641   0.042  11.633  0.5711  1.2032  1.0602
   17TMC1    H1  269   4.693   0.069  12.052 -1.4569 -0.7492 -0.1199
   17TMC1    H2  270   0.026   4.433  11.841  0.9925  0.0132  2.0720
   17TMC1    C7  271   0.025   4.560  12.090  0.8636 -0.2853  0.2619
   17TMC1    C8  272   4.676   4.514  11.620  0.4490  0.1051  0.0451
   17TMC1    O1  273   0.061   4.628  12.187  0.2689  0.1344 -0.3368
   17TMC1    O2  274   4.622   4.403  11.627  0.0058 -0.1233  0.0319
   17TMC1    O3  275   4.711   4.434  12.097  0.3518  0.0024 -0.1659
   17TMC1    H3  276   4.706   4.379  12.016  1.3633 -1.0965  0.5187
   17TMC1    O5  277   4.674   4.584  11.510 -0.0692  0.5462  0.1762
   17TMC1    H5  278   4.734   4.662  11.516  1.4043 -0.6014  0.4806
   18MPD2     C  279   0.083   0.473  11.726 -0.7758  0.4397 -0.1382
   18MPD2    C1  280   0.095   0.359  11.651 -0.1225  0.7661 -0.2242
   18MPD2    C2  281   0.135   0.367  11.521 -0.8675 -0.4854  0.1838
   18MPD2    C3  282   0.184   0.482  11.473 -0.6535 -0.4797  0.2116
   18MPD2    C4  283   0.171   0.596  11.549 -0.4152  0.2544  0.7923
   18MPD2    C5  284   0.117   0.591  11.672  0.4335 -0.3742 -0.6034
   18MPD2     H  285   0.138   0.280  11.457  0.9587 -0.6278  0.4643
   18MPD2    H1  286   0.222   0.683  11.507 -2.5966  1.4201  0.5459
   18MPD2    H2  287   0.051   0.478  11.829  0.9136 -1.4952  0.4859
   18MPD2    H3  288   0.110   0.687  11.723 -0.1790  0.0042 -1.3996
   18MPD2     N  289   0.258   0.492  11.351  0.5102  0.1460 -0.5887
   18MPD2    H5  290   0.308   0.580  11.342 -1.1916  0.9960 -1.6866
   18MPD2    N1  291   0.052   0.235  11.696 -0.0504  0.0473  0.7644
   18MPD2    H7  292   0.058   0.162  11.626 -0.9494 -0.4885  1.2481
   19TMC2    C1  293   2.512   0.672  13.853  1.1120 -0.0083  0.3203
   19TMC2    C2  294   2.444   0.783  13.887  0.0775 -0.0252 -0.0064
   19TMC2    C3  295   2.320   0.773  13.942  0.8069  0.7859  0.5162
   19TMC2    C4  296   2.448   0.550  13.850  0.5271 -0.4023  0.6285
   19TMC2    C5  297   2.325   0.549  13.908 -0.0229 -0.3780  0.0591
   19TMC2    C6  298   2.253   0.652  13.955 -0.5340  0.1706  0.3517
   19TMC2     C  299   2.644   0.682  13.919  0.0649  0.0200 -0.1745
   19TMC2     O  300   2.709   0.787  13.921 -1.0775  0.0396 -0.1061
   19TMC2     H  301   2.505   0.873  13.887 -1.0129  0.7033  1.6017
   19TMC2    H1  302   2.503   0.465  13.811  0.9237 -0.4605  1.3224
   19TMC2    H2  303   2.154   0.643  13.997 -0.1449  1.2830  1.5189
   19TMC2    C7  304   2.270   0.411  13.921  0.2108 -0.1666 -0.8055
   19TMC2    C8  305   2.255   0.891  13.988 -0.0083  0.2395 -0.1213
   19TMC2    O1  306   2.216   0.387  14.027 -0.6204  0.3841  0.3933
   19TMC2    O2  307   2.135   0.918  13.962 -0.0718  0.0882  0.1825
   19TMC2    O5  308   2.352   0.984  14.022  0.1946 -0.1026 -0.4125
   19TMC2    H5  309   2.419   0.928  14.067 -1.1664  0.3775  2.2236
   20MPD2     C  310   2.870   0.627  14.099  0.0333 -0.4474 -0.8566
   20MPD2    C1  311   2.762   0.543  14.085 -0.5846 -0.6488 -0.5298
   20MPD2    C2  312   2.758   0.427  14.162  0.1186 -0.0560 -1.0565
   20MPD2    C3  313   2.843   0.408  14.269 -0.2066 -0.3715 -0.4260
   20MPD2    C4  314   2.935   0.507  14.288 -0.1730 -0.4788  0.2068
   20MPD2    C5  315   2.955   0.606  14.197  0.1138  0.2764  0.1957
   20MPD2     H  316   2.675   0.358  14.151  1.3129 -1.9002  1.5873
   20MPD2    H1  317   3.005   0.506  14.370 -0.0167  2.7945  0.0822
   20MPD2    H2  318   2.892   0.703  14.025  2.0095 -2.4425 -2.3241
   20MPD2    H3  319   3.042   0.670  14.210 -0.1235  1.0135 -1.8921
   20MPD2     N  320   2.823   0.307  14.363 -0.3776 -0.3639  0.2962
   20MPD2    H5  321   2.878   0.317  14.448  0.6148 -1.4585 -0.2161
   20MPD2    N1  322   2.659   0.571  13.995 -0.4550 -0.3067 -0.7486
   20MPD2    H7  323   2.585   0.502  13.989 -0.2375 -0.6820  0.9455
   21TMC2    C1  324   4.125   0.773  14.894  0.4083  0.0400  0.4792
   21TMC2    C2  325   4.170   0.668  14.968 -0.1101  0.0892  0.1839
   21TMC2    C3  326   4.125   0.649  15.097  0.2298 -0.6713  0.4186
   21TMC2    C4  327   4.033   0.862  14.946  0.3557  0.0353  0.6472
   21TMC2    C5  328   3.975   0.821  15.065  0.1365  0.1258  0.5454
   21TMC2    C6  329   4.022   0.725  15.151  0.1388 -0.4848  0.0771
   21TMC2     C  330   4.167   0.793  14.759 -0.7656 -1.1449  0.7953
   21TMC2     O  331   4.100   0.871  14.697 -0.0593  0.0877 -0.0862
   21TMC2     H  332   4.256   0.608  14.944  0.9939  0.9538  1.9764
   21TMC2    H1  333   3.992   0.936  14.878  0.2390 -0.6379 -0.0150
   21TMC2    H2  334   3.979   0.716  15.250 -0.9277  0.2214 -0.3241
   21TMC2    C7  335   3.854   0.888  15.119  0.3444 -0.1649  0.1923
   21TMC2    C8  336   4.221   0.587  15.189 -0.3002 -0.0047  0.2875
   21TMC2    O1  337   3.803   0.824  15.209  0.6078  0.5560 -0.0628
   21TMC2    O2  338   4.337   0.571  15.159 -0.7070 -0.5977 -0.3004
   21TMC2    O5  339   4.165   0.573  15.307 -0.3390  0.2080 -0.1697
   21TMC2    H5  340   4.068   0.582  15.300 -0.6081 -3.2406 -0.8696
   22MPD2     C  341   4.422   0.690  14.330 -0.4199  0.4474 -0.0108
   22MPD2    C1  342   4.509   0.676  14.434 -0.3346 -0.1404  0.0591
   22MPD2    C2  343   4.462   0.676  14.566  0.0124 -0.3787  0.2717
   22MPD2    C3  344   4.329   0.713  14.595  0.1469  0.8399 -0.0771
   22MPD2    C4  345   4.246   0.740  14.487 -0.2316 -0.4133 -0.0110
   22MPD2    C5  346   4.294   0.725  14.357  0.3025  0.3649 -0.6420
   22MPD2     H  347   4.534   0.654  14.644  0.6084 -0.5777 -0.3278
   22MPD2    H1  348   4.141   0.767  14.492 -0.5508 -1.6061 -0.2717
   22MPD2    H2  349   4.452   0.693  14.226 -0.2141  1.0635  0.0659
   22MPD2    H3  350   4.226   0.737  14.273 -1.5622  1.1069  0.9619
   22MPD2     N  351   4.278   0.720  14.723  1.0849  0.8983 -0.1164
   22MPD2    H5  352   4.336   0.676  14.794 -1.5318 -3.1614 -0.5728
   22MPD2    N1  353   4.643   0.646  14.406  0.1545  0.3942 -0.0095
   22MPD2    H7  354   4.712   0.639  14.480 -1.4411  0.5646  1.4940
   23TMC2    C1  355   1.057   1.923  14.183  0.0700  0.0252 -0.5061
   23TMC2    C2  356   1.085   2.055  14.184 -0.5906  0.5797 -0.7972
   23TMC2    C3  357   0.998   2.136  14.129  0.0281 -0.2931 -0.2780
   23TMC2    C4  358   0.942   1.861  14.145 -0.0803  0.0369  0.6252
   23TMC2    C5  359   0.845   1.957  14.097 -0.2830 -0.0952  0.2315
   23TMC2    C6  360   0.875   2.094  14.090 -0.0308  0.7842  0.0362
   23TMC2     C  361   1.151   1.838  14.252  0.3422 -0.8298  0.0146
   23TMC2     O  362   1.239   1.892  14.322  0.5903 -0.0739  0.2448
   23TMC2     H  363   1.171   2.097  14.235  0.2249 -0.1056 -1.6051
   23TMC2    H1  364   0.918   1.757  14.162  1.9711 -0.4382  0.6125
   23TMC2    H2  365   0.810   2.172  14.052  0.1886  0.4768 -0.9719
   23TMC2    C7  366   0.711   1.909  14.059 -0.2734  0.2815  0.0599
   23TMC2    C8  367   1.033   2.277  14.138  0.4831  0.0968 -0.6693
   23TMC2    O1  368   0.699   1.787  14.044 -0.3763  0.8210 -0.2243
   23TMC2    O2  369   1.149   2.311  14.132 -0.8674 -0.4745  0.4093
   23TMC2    O5  370   0.928   2.358  14.166  0.7543 -0.1550  0.4396
   23TMC2    H5  371   0.845   2.306  14.174 -0.4355  1.3581 -1.9283
   24MPD2     C  372   1.242   1.374  14.452  0.4243  0.3775 -0.5336
   24MPD2    C1  373   1.258   1.501  14.506  0.1378  1.0723 -0.1320
   24MPD2    C2  374   1.226   1.614  14.431 -0.8051 -0.5987  0.3043
   24MPD2    C3  375   1.181   1.600  14.302  0.2506 -0.6399  0.4341
   24MPD2    C4  376   1.183   1.474  14.248  0.6765  0.0640 -0.6425
   24MPD2    C5  377   1.201   1.364  14.322  0.4029  0.8012 -0.2906
   24MPD2     H  378   1.246   1.705  14.485 -0.3559 -0.6508  0.2299
   24MPD2    H1  379   1.139   1.456  14.151  0.9325  0.3624 -0.8126
   24MPD2    H2  380   1.263   1.284  14.508 -0.5769 -0.4120 -1.4301
   24MPD2    H3  381   1.191   1.266  14.276 -2.6709 -0.1550  2.4199
   24MPD2     N  382   1.145   1.707  14.221 -0.0216 -0.0825  0.9190
   24MPD2    H5  383   1.096   1.683  14.135  1.1782  0.0993  0.1942
   24MPD2    N1  384   1.295   1.529  14.640  0.9595  0.6496 -0.1481
   24MPD2    H7  385   1.284   1.626  14.666 -2.2028  0.4931 -0.8565
   25TMC2    C1  386   4.437   0.056  12.289  0.1507  0.9276 -0.0991
   25TMC2    C2  387   4.568   0.037  12.328 -0.3852 -0.7008  0.0633
   25TMC2    C3  388   4.593   4.731  12.454  0.3240  0.1435  0.1001
   25TMC2    C4  389   4.331   0.009  12.361  0.0763 -0.3448  0.4696
   25TMC2    C5  390   4.356   4.709  12.492 -0.1004 -0.0903  0.0895
   25TMC2    C6  391   4.489   4.704  12.545  0.2545  0.7730 -0.3737
   25TMC2     C  392   4.426   0.087  12.147  0.5445  0.9535 -0.2116
   25TMC2     O  393   4.460   0.204  12.119  0.0923 -0.1518  0.3416
   25TMC2     H  394   4.654   0.049  12.264 -0.8462 -0.5649 -0.5351
   25TMC2    H1  395   4.232   0.017  12.316 -0.1806 -1.2065  0.8704
   25TMC2    H2  396   4.517   4.675  12.645 -0.3119  0.1290 -0.4020
   25TMC2    C7  397   4.260   4.653  12.581  0.7117 -0.4131  0.7666
   25TMC2    C8  398   4.723   0.037  12.495  0.5093 -0.0170 -0.4093
   25TMC2    O1  399   4.303   4.590  12.676  0.0205 -0.0748 -0.1282
   25TMC2    O2  400   0.008   0.095  12.600 -0.0458  0.1029 -0.4111
   25TMC2    O5  401   0.052   4.656  12.458  0.1788 -0.7390  0.0549
   25TMC2    H5  402   0.036   4.624  12.367  0.4572 -0.3939 -0.1095
   26MPD2     C  403   4.333   0.007  11.650 -0.1559 -0.1962 -0.3902
   26MPD2    C1  404   4.335   4.619  11.716 -0.1422  0.3631  0.2372
   26MPD2    C2  405   4.349   4.610  11.856 -0.4801  0.1711 -0.3068
   26MPD2    C3  406   4.359   4.730  11.928  0.1537  0.2220  0.8953
   26MPD2    C4  407   4.361   0.116  11.860 -0.3529  0.0761  0.4117
   26MPD2    C5  408   4.337   0.125  11.731  0.5883  0.4175  0.5500
   26MPD2     H  409   4.351   4.515  11.908 -1.8556  0.3743  0.1325
   26MPD2    H1  410   4.373   0.211  11.910 -0.6813  0.2248  0.2058
   26MPD2    H2  411   4.332   0.020  11.542 -0.7681  1.7171 -0.1399
   26MPD2    H3  412   4.324   0.221  11.684 -1.4849  0.2044  0.6633
   26MPD2     N  413   4.385   4.723  12.064  0.4556 -0.3367 -0.5147
   26MPD2    H5  414   4.376   4.633  12.109  0.0656  0.7792  1.6375
   26MPD2    N1  415   4.326   4.513  11.631  0.4361  0.4605 -0.3430
   26MPD2    H7  416   4.321   4.539  11.533 -2.5229 -1.7171 -0.7654
   27TMC2    C1  417   4.059   1.515  12.206  0.0176  0.1279  0.6122
   27TMC2    C2  418   4.031   1.612  12.109  0.0204  0.2423 -0.1758
   27TMC2    C3  419   4.053   1.744  12.142  0.4509 -0.3875  0.5216
   27TMC2    C4  420   4.103   1.560  12.332  0.4279 -0.0536 -0.5006
   27TMC2    C5  421   4.110   1.694  12.356 -0.0133  0.6650  0.4827
   27TMC2    C6  422   4.103   1.785  12.258  0.1318  0.4014 -0.8326
   27TMC2     C  423   3.980   1.400  12.231  0.0037  0.4174 -0.1444
   27TMC2     O  424   4.022   1.306  12.299  0.6214 -0.0997  0.0325
   27TMC2     H  425   4.000   1.576  12.012 -0.0392  1.1330 -0.4837
   27TMC2    H1  426   4.103   1.489  12.414 -0.6012  0.6465  0.0953
   27TMC2    H2  427   4.102   1.892  12.276 -0.7078 -0.0183  1.5758
   27TMC2    C7  428   4.018   1.711  12.466 -0.9001  0.0970  0.1858
   27TMC2    C8  429   3.938   1.823  12.110  0.5747  0.2573  1.1086
   27TMC2    O1  430   4.020   1.642  12.569 -0.1364 -0.4775 -0.4874
   27TMC2    O2  431   3.917   1.939  12.142  0.0518 -0.3932 -0.1592
   27TMC2    O5  432   3.845   1.732  12.081  0.4569  0.0920  0.0945
   27TMC2    H5  433   3.752   1.764  12.084  0.2810 -0.5165  1.0814
   28MPD2     C  434   3.519   1.246  12.389 -1.0024  0.2258 -0.4410
   28MPD2    C1  435   3.512   1.373  12.340 -0.2902  0.3645  0.4716
   28MPD2    C2  436   3.617   1.433  12.274  0.5820  0.1902 -0.0014
   28MPD2    C3  437   3.734   1.363  12.261 -0.3376 -0.4125  0.2799
   28MPD2    C4  438   3.746   1.240  12.314 -0.2102  0.0552  0.4786
   28MPD2    C5  439   3.639   1.177  12.379 -0.0625 -0.2218  0.0351
   28MPD2     H  440   3.616   1.540  12.253 -0.8452  0.0789 -0.4688
   28MPD2    H1  441   3.833   1.177  12.301 -0.4973 -1.0320  3.8486
   28MPD2    H2  442   3.436   1.200  12.441 -1.3624  0.0101 -1.2099
   28MPD2    H3  443   3.638   1.079  12.425 -1.0971 -0.9868 -1.5942
   28MPD2     N  444   3.851   1.436  12.214 -0.0058  0.3183  0.2756
   28MPD2    H5  445   3.834   1.530  12.181 -0.0176  0.6340  1.1800
   28MPD2    N1  446   3.385   1.439  12.358  0.1272  0.3964  0.0055
   28MPD2    H7  447   3.311   1.386  12.401  0.7920 -0.2990  0.2948
   29TMC2    C1  448   3.046   3.893  14.526 -0.0542 -0.7460  0.6505
   29TMC2    C2  449   3.013   3.902  14.655  0.3142  0.3516 -0.3665
   29TMC2    C3  450   3.022   4.028  14.717 -0.2723  0.9109 -0.0334
   29TMC2    C4  451   3.090   3.996  14.448  0.3112 -0.5224 -0.1426
   29TMC2    C5  452   3.114   4.112  14.517  0.6384 -0.5905 -0.1510
   29TMC2    C6  453   3.077   4.134  14.652  0.4415 -0.4910  0.6981
   29TMC2     C  454   3.055   3.755  14.474 -0.7597 -0.1807  0.1510
   29TMC2     O  455   3.088   3.663  14.548 -0.0251  0.3408 -0.2132
   29TMC2     H  456   2.984   3.813  14.710  0.0658  0.1222 -0.8648
   29TMC2    H1  457   3.114   3.980  14.344  0.7638  1.5646 -0.3451
   29TMC2    H2  458   3.077   4.233  14.695 -1.2629 -0.6764  1.1343
   29TMC2    C7  459   3.165   4.222  14.431 -0.2187 -0.4030 -0.3702
   29TMC2    C8  460   3.009   4.027  14.858  0.2448 -0.2757  0.7014
   29TMC2    O1  461   3.144   4.211  14.314  0.4582 -0.1208  0.4725
   29TMC2    O2  462   3.083   4.092  14.931 -0.0365 -0.4834  0.1183
   29TMC2    O5  463   2.895   3.964  14.891 -0.5765 -0.2488  0.7496
   29TMC2    H5  464   2.836   3.962  14.813 -1.0136 -2.4134  1.1560
   30MPD2     C  465   3.031   3.413  14.089  0.5033  0.1339  0.1859
   30MPD2    C1  466   3.093   3.402  14.216 -0.3774 -0.1894 -0.0914
   30MPD2    C2  467   3.096   3.513  14.299 -0.5858  0.1238 -0.3750
   30MPD2    C3  468   3.044   3.637  14.256  0.7024 -0.3068  0.0388
   30MPD2    C4  469   2.991   3.642  14.130 -0.1031  0.6849  0.4621
   30MPD2    C5  470   2.981   3.533  14.048 -0.4641 -0.0181 -0.4921
   30MPD2     H  471   3.132   3.498  14.400 -2.9916  0.3500  0.5289
   30MPD2    H1  472   2.956   3.739  14.096  2.3716  2.2488  2.3240
   30MPD2    H2  473   3.012   3.334  14.017  2.1679 -0.6107  0.5656
   30MPD2    H3  474   2.934   3.546  13.951 -2.1557  1.3145  0.4855
   30MPD2     N  475   3.029   3.751  14.336 -0.2998 -0.5266 -0.5690
   30MPD2    H5  476   2.997   3.837  14.292  0.8477  0.9938  1.5607
   30MPD2    N1  477   3.159   3.280  14.251 -0.4450 -0.1833  0.8576
   30MPD2    H7  478   3.214   3.277  14.336  1.1312 -0.2498 -0.1556
   31TMC2    C1  479   0.884   2.599  15.689  0.4829 -0.1530 -0.2507
   31TMC2    C2  480   0.751   2.571  15.696 -0.3519 -0.1503 -0.4600
   31TMC2    C3  481   0.691   2.561  15.815  0.2205  0.6083 -0.1446
   31TMC2    C4  482   0.957   2.611  15.807 -0.1277 -0.4960  0.0982
   31TMC2    C5  483   0.887   2.589  15.925  0.0115  0.6763 -0.8490
   31TMC2    C6  484   0.753   2.558  15.932  0.1759 -0.1485  0.3128
   31TMC2     C  485   0.936   2.594  15.552  0.2161 -0.6562  0.7008
   31TMC2     O  486   0.863   2.622  15.462 -0.0465  0.4420  0.3171
   31TMC2     H  487   0.691   2.563  15.607 -2.9606 -0.3966  1.3194
   31TMC2    H1  488   1.064   2.623  15.794 -0.1189  0.4834  1.1339
   31TMC2    H2  489   0.698   2.560  16.025 -0.2439  0.6150  0.0571
   31TMC2    C7  490   0.939   2.634  16.044  0.0847  0.6099  0.4150
   31TMC2    C8  491   0.543   2.541  15.814  0.0361 -0.5183  0.2168
   31TMC2    O1  492   0.899   2.589  16.150 -0.3169  0.1505 -0.5709
   31TMC2    O2  493   0.486   2.508  15.918 -0.1177  0.3236 -0.0479
   31TMC2    O5  494   0.509   2.653  15.748 -0.2575 -0.3294 -0.1910
   31TMC2    H5  495   0.559   2.680  15.668  1.3967 -1.3477  0.4836
   32MPD2     C  496   1.322   2.589  15.212 -0.3808  1.0288  1.1615
   32MPD2    C1  497   1.203   2.651  15.207 -0.4232 -0.1250  0.2058
   32MPD2    C2  498   1.120   2.641  15.317  0.6974 -0.3883  0.5533
   32MPD2    C3  499   1.154   2.577  15.429  0.2925  0.5964 -0.0392
   32MPD2    C4  500   1.279   2.516  15.430 -0.6349  0.3092 -0.2641
   32MPD2    C5  501   1.363   2.525  15.323 -0.5816 -0.5788 -0.5719
   32MPD2     H  502   1.026   2.693  15.305  0.8413 -0.1300  0.5489
   32MPD2    H1  503   1.302   2.449  15.512  1.4686 -1.3393 -2.2069
   32MPD2    H2  504   1.395   2.579  15.132 -0.6853 -0.5189  1.0619
   32MPD2    H3  505   1.455   2.468  15.325  0.1218  0.5455 -0.8528
   32MPD2     N  506   1.068   2.556  15.540  0.2261  0.5058  0.1109
   32MPD2    H5  507   1.111   2.498  15.612 -1.3803 -0.0172  0.6630
   32MPD2    N1  508   1.176   2.730  15.092 -0.4326 -0.1626 -0.0701
   32MPD2    H7  509   1.247   2.721  15.021  2.1204  2.7416  2.1493
   33TMC2    C1  510   1.027   0.900  10.415  0.4369  1.0082 -0.1981
   33TMC2    C2  511   1.103   0.814  10.340 -0.1274  0.4574  0.1387
   33TMC2    C3  512   1.142   0.858  10.221  0.3033  0.7324 -0.1146
   33TMC2    C4  513   1.005   1.028  10.383  0.2291 -0.3798 -0.3246
   33TMC2    C5  514   1.064   1.075  10.270 -0.1304 -0.0243 -0.5278
   33TMC2    C6  515   1.142   0.990  10.195  1.1658 -0.2543  0.0376
   33TMC2     C  516   0.974   0.849  10.543 -0.1338 -0.0305  0.4851
   33TMC2     O  517   0.956   0.726  10.547 -0.3622  0.2677 -0.1878
   33TMC2     H  518   1.122   0.713  10.375 -0.9718 -0.7112 -2.8379
   33TMC2    H1  519   0.948   1.095  10.447  0.4852  0.8549 -1.3857
   33TMC2    H2  520   1.185   1.025  10.102  1.3317 -0.3280  0.0878
   33TMC2    C7  521   1.060   1.215  10.234 -0.7529  0.1512 -0.3202
   33TMC2    C8  522   1.238   0.783  10.142 -0.1617  0.4467  0.4426
   33TMC2    O1  523   1.099   1.238  10.116 -0.3517  0.4439  0.0495
   33TMC2    O2  524   1.342   0.820  10.090  0.4411 -0.6544 -0.3200
   33TMC2    O5  525   1.202   0.658  10.158  0.2536  0.1717  0.0259
   33TMC2    H5  526   1.108   0.654  10.185  0.5820  2.2076  1.4910
   34MPD2     C  527   0.790   0.893  11.025  0.3795 -0.6113  0.6088
   34MPD2    C1  528   0.770   0.796  10.931 -0.7332  0.3557  0.1557
   34MPD2    C2  529   0.823   0.805  10.798 -0.6121  0.1183  0.0792
   34MPD2    C3  530   0.898   0.918  10.762 -0.5253  0.6320  0.1402
   34MPD2    C4  531   0.914   1.025  10.855 -0.4429 -0.2127  0.2012
   34MPD2    C5  532   0.847   1.011  10.974 -0.5730 -0.2543 -0.0949
   34MPD2     H  533   0.808   0.724  10.728 -1.0513  1.6055 -1.5219
   34MPD2    H1  534   0.971   1.114  10.831  0.8714 -0.5180  2.2895
   34MPD2    H2  535   0.747   0.878  11.124 -0.4137  1.0407  0.5105
   34MPD2    H3  536   0.855   1.092  11.046 -2.5421 -0.5296  0.4380
   34MPD2     N  537   0.965   0.943  10.645  0.1116 -0.2832  0.3486
   34MPD2    H5  538   1.008   1.035  10.638  0.5464 -0.4346  0.9874
   34MPD2    N1  539   0.686   0.684  10.945  0.1113 -0.2823 -0.3715
   34MPD2    H7  540   0.665   0.622  10.867 -0.7186 -1.0094  0.4133
   35TMC2    C1  541   1.463   1.889  11.472 -0.1414 -0.0140  0.6001
   35TMC2    C2  542   1.374   1.981  11.501  0.3094 -0.0743 -0.5927
   35TMC2    C3  543   1.258   1.946  11.563  0.2359 -0.4076 -0.1247
   35TMC2    C4  544   1.429   1.758  11.491  0.3121 -0.3991  0.4844
   35TMC2    C5  545   1.309   1.722  11.550 -0.6072  0.3125 -0.1182
   35TMC2    C6  546   1.213   1.818  11.588  0.3969  0.2633  0.1496
   35TMC2     C  547   1.600   1.938  11.476 -0.3582  0.6635  0.7691
   35TMC2     O  548   1.619   2.052  11.434  0.4990  0.0543 -0.0507
   35TMC2     H  549   1.421   2.078  11.515  0.5531 -0.2779  0.0155
   35TMC2    H1  550   1.497   1.677  11.467  0.8280  1.0280 -2.8166
   35TMC2    H2  551   1.128   1.797  11.652 -0.1164  1.1296 -0.2385
   35TMC2    C7  552   1.284   1.585  11.570 -0.0405 -0.7032 -0.9937
   35TMC2    C8  553   1.192   2.056  11.629  0.7582 -0.0427  0.2467
   35TMC2    O1  554   1.379   1.508  11.575  0.2994 -0.2164 -0.2002
   35TMC2    O2  555   1.249   2.152  11.674  0.2592 -0.0158  0.4122
   35TMC2    O5  556   1.079   2.070  11.549 -0.7945  0.2340  0.3489
   35TMC2    H5  557   1.075   2.005  11.476  0.7528  2.0060 -1.3433
   36MPD2     C  558   2.042   1.942  11.726 -0.6768  0.5369 -0.2190
   36MPD2    C1  559   1.998   1.817  11.743 -0.0741  0.3899 -0.2327
   36MPD2    C2  560   1.880   1.791  11.681 -0.0615  0.2828  0.5297
   36MPD2    C3  561   1.814   1.890  11.603  0.0454 -0.3428 -0.1076
   36MPD2    C4  562   1.853   2.016  11.605  0.0778  1.1752  0.3718
   36MPD2    C5  563   1.967   2.041  11.670  0.7715 -0.1958  0.2843
   36MPD2     H  564   1.835   1.693  11.688 -0.5502  0.5120  0.6612
   36MPD2    H1  565   1.799   2.103  11.568 -2.6247 -1.3305 -1.5249
   36MPD2    H2  566   2.137   1.958  11.777 -1.1138  0.6410  0.5652
   36MPD2    H3  567   2.004   2.143  11.662 -0.1056  0.1191  0.1814
   36MPD2     N  568   1.687   1.856  11.544  0.4045  0.5203  0.2024
   36MPD2    H5  569   1.662   1.760  11.565 -0.4386  0.0100 -3.0753
   36MPD2    N1  570   2.065   1.727  11.833  0.2688  0.3335 -0.2661
   36MPD2    H7  571   2.156   1.755  11.869  0.7847 -0.5267 -0.8762
   37TMC2    C1  572   0.074   2.402  11.877 -1.2765  0.0959 -0.6346
   37TMC2    C2  573   0.090   2.526  11.818  0.0070 -0.1849  0.2066
   37TMC2    C3  574   0.218   2.549  11.776 -0.4092  0.4372  0.2385
   37TMC2    C4  575   0.180   2.314  11.903  0.6442 -0.1544  0.0287
   37TMC2    C5  576   0.301   2.342  11.852 -0.0767  0.4738 -0.1850
   37TMC2    C6  577   0.327   2.467  11.800  0.4381 -0.0276 -0.3556
   37TMC2     C  578   4.697   2.392  11.969 -0.2237 -0.4632 -0.4624
   37TMC2     O  579   4.608   2.470  11.943  0.4674  0.1116  0.2464
   37TMC2     H  580   0.015   2.604  11.816 -0.2093 -0.3489  1.5578
   37TMC2    H1  581   0.152   2.218  11.945  0.7127 -0.7722 -1.3347
   37TMC2    H2  582   0.420   2.512  11.768  0.9310  0.5385  1.8144
   37TMC2    C7  583   0.413   2.270  11.899 -0.0634  0.3979  0.1844
   37TMC2    C8  584   0.243   2.678  11.720  0.2855 -0.5838 -0.4136
   37TMC2    O1  585   0.387   2.181  11.978 -0.5264 -0.2925  0.2704
   37TMC2    O2  586   0.350   2.736  11.710  0.2230 -0.1036  0.3986
   37TMC2    O5  587   0.154   2.698  11.622 -0.2756 -0.0510  0.3028
   37TMC2    H5  588   0.076   2.639  11.614 -0.4604  0.4460 -1.4634
   38MPD2     C  589   4.402   2.164  12.326 -0.0973 -0.4681 -0.1426
   38MPD2    C1  590   4.529   2.108  12.325  1.2666  0.4033  0.0044
   38MPD2    C2  591   4.622   2.166  12.245  0.2644  0.0806 -0.0610
   38MPD2    C3  592   4.591   2.266  12.152  0.3760 -0.7093 -0.5886
   38MPD2    C4  593   4.470   2.321  12.155  0.5445  0.9328 -0.3501
   38MPD2    C5  594   4.380   2.274  12.248 -0.2214 -0.0508  0.3420
   38MPD2     H  595   4.723   2.130  12.256  0.0397 -1.1708 -2.1225
   38MPD2    H1  596   4.442   2.398  12.084  0.1358  0.8932 -0.2317
   38MPD2    H2  597   4.316   2.131  12.383  1.7979 -2.8732  1.3173
   38MPD2    H3  598   4.282   2.319  12.261  0.2740  0.9414  0.6575
   38MPD2     N  599   4.700   2.302  12.072  0.6855 -0.0708 -0.1077
   38MPD2    H5  600   0.054   2.255  12.081 -0.7075 -2.6575  0.2543
   38MPD2    N1  601   4.562   1.992  12.397 -0.4016 -0.1005  0.9793
   38MPD2    H7  602   4.653   1.955  12.374 -0.3665 -1.8475  3.9788
   39TMC2    C1  603   2.846   4.007   1.773 -0.5237 -0.8938 -0.0530
   39TMC2    C2  604   2.807   4.136   1.763  0.5996  0.1295  0.1371
   39TMC2    C3  605   2.890   4.237   1.805  0.2372 -0.0389  0.0701
   39TMC2    C4  606   2.972   3.979   1.820 -0.4271  0.2917  0.3683
   39TMC2    C5  607   3.053   4.083   1.858  0.3242 -0.8770 -0.2199
   39TMC2    C6  608   3.015   4.212   1.849 -0.0014  0.4678  0.2985
   39TMC2     C  609   2.768   3.911   1.700  0.6990  0.0034  0.1859
   39TMC2     O  610   2.676   3.961   1.640 -0.2414  0.1845  0.1818
   39TMC2     H  611   2.714   4.167   1.717  1.7862  2.4668 -0.7007
   39TMC2    H1  612   3.010   3.877   1.822  1.4004  0.9431 -0.9554
   39TMC2    H2  613   3.078   4.289   1.893  0.6182 -1.1502  2.2698
   39TMC2    C7  614   3.192   4.047   1.877 -0.1898 -0.4694 -0.4430
   39TMC2    C8  615   2.826   4.359   1.847  0.1475  0.9636 -0.0711
   39TMC2    O1  616   3.211   3.949   1.946  0.6847 -0.0862 -0.2606
   39TMC2    O2  617   2.756   4.429   1.775 -0.2014 -0.3615  0.1542
   39TMC2    O5  618   2.836   4.363   1.979  0.2129 -0.1127 -0.7501
   39TMC2    H5  619   2.879   4.294   2.033  0.4190 -0.3463 -1.2165
   40MPD2     C  620   2.744   3.546   1.688 -0.5127 -0.6673  0.2837
   40MPD2    C1  621   2.712   3.672   1.660  0.4719  0.4275  0.1461
   40MPD2    C2  622   2.604   3.695   1.574 -0.2343  0.0506  0.1786
   40MPD2    C3  623   2.545   3.594   1.500  0.0741 -0.6946 -0.1292
   40MPD2    C4  624   2.603   3.468   1.512  0.8141  0.5810 -0.2638
   40MPD2    C5  625   2.689   3.443   1.618 -0.6692  0.2514 -0.1760
   40MPD2     H  626   2.561   3.794   1.566  1.9142  1.1879  2.5224
   40MPD2    H1  627   2.577   3.386   1.445  0.6031  0.9962 -0.6940
   40MPD2    H2  628   2.832   3.519   1.746  0.2704  0.4777 -0.3758
   40MPD2    H3  629   2.719   3.342   1.642  1.1230  1.2499  1.7250
   40MPD2     N  630   2.439   3.625   1.404 -0.0265  0.1643  0.3956
   40MPD2    H5  631   2.417   3.549   1.339 -2.7017  1.3448 -0.0885
   40MPD2    N1  632   2.780   3.777   1.731  0.6110  0.4416 -0.1268
   40MPD2    H7  633   2.861   3.757   1.788 -0.6611 -0.9917  1.1887
   41TMC2    C1  634   2.067   2.012  14.080 -0.1251 -0.1445 -0.2059
   41TMC2    C2  635   2.163   2.091  14.014  0.0581 -0.4422  0.0090
   41TMC2    C3  636   2.131   2.104  13.878 -0.5477  0.7616  0.2994
   41TMC2    C4  637   1.954   1.949  14.021  0.3986 -0.6209 -0.3139
   41TMC2    C5  638   1.932   1.971  13.888  0.6058 -0.1016 -0.3230
   41TMC2    C6  639   2.014   2.055  13.818 -0.0211 -0.0950  0.0820
   41TMC2     C  640   2.083   2.014  14.220 -0.8944  0.4648 -0.3825
   41TMC2     O  641   2.194   2.044  14.261 -1.0354 -0.4020  0.1238
   41TMC2     H  642   2.250   2.135  14.060  1.1847 -1.9026 -0.7520
   41TMC2    H1  643   1.903   1.864  14.066  1.3946 -1.5958 -1.0301
   41TMC2    H2  644   1.990   2.081  13.716  0.8210  1.4472  0.2765
   41TMC2    C7  645   1.816   1.913  13.830  0.0285 -0.2030  0.0722
   41TMC2    C8  646   2.220   2.173  13.785  0.4595  0.1759  0.3883
   41TMC2    O1  647   1.717   1.882  13.896  0.9105 -0.5828  0.3199
   41TMC2    O2  648   2.209   2.140  13.671  0.6592  0.4978 -0.0171
   41TMC2    O5  649   2.232   2.298  13.837 -0.0773  0.2252 -0.1155
   41TMC2    H5  650   2.222   2.298  13.935 -0.7003 -1.6966 -0.1889
   42MPD2     C  651   2.090   1.950  14.504 -0.6564  0.6531 -1.1109
   42MPD2    C1  652   1.975   1.984  14.439 -0.7569  0.3272 -0.9508
   42MPD2    C2  653   1.859   1.979  14.517  0.1616  0.8220 -0.4632
   42MPD2    C3  654   1.854   1.959  14.654  0.3998  0.2962 -0.4759
   42MPD2    C4  655   1.980   1.943  14.713  0.3843 -0.2499 -0.1905
   42MPD2    C5  656   2.091   1.924  14.636  0.0971  0.6759  0.2256
   42MPD2     H  657   1.763   1.994  14.468 -0.8010  1.0633  1.4830
   42MPD2    H1  658   1.988   1.935  14.821  1.1669 -0.0248 -0.2326
   42MPD2    H2  659   2.184   1.935  14.452  0.8764 -0.0687  1.8392
   42MPD2    H3  660   2.186   1.912  14.687 -0.8854 -2.8898  1.2508
   42MPD2     N  661   1.737   1.986  14.737  0.1399 -0.3968 -0.0701
   42MPD2    H5  662   1.748   1.965  14.836  2.8035 -1.2749 -0.5321
   42MPD2    N1  663   1.971   2.000  14.299  0.2495  0.2178  0.3873
   42MPD2    H7  664   1.886   1.991  14.244  0.9481 -1.5246 -0.4360
   43TMC2    C1  665   3.126   4.538   1.223  0.6140 -0.5814 -0.0275
   43TMC2    C2  666   3.055   4.653   1.210  0.2661 -0.3697 -0.0134
   43TMC2    C3  667   3.033   4.720   1.326 -0.6434 -0.3211 -0.3567
   43TMC2    C4  668   3.158   4.492   1.352  0.2660  0.7087  0.4006
   43TMC2    C5  669   3.134   4.565   1.466 -0.1530 -0.1711 -0.3302
   43TMC2    C6  670   3.065   4.684   1.456 -0.8174 -0.0844  0.1743
   43TMC2     C  671   3.143   4.450   1.113 -0.4532 -0.4270  0.6153
   43TMC2     O  672   3.228   4.363   1.124 -0.4636  0.0688  0.1146
   43TMC2     H  673   3.006   4.679   1.117 -0.5796 -0.9843  0.2577
   43TMC2    H1  674   3.213   4.398   1.356  0.9507  1.0447 -0.9634
   43TMC2    H2  675   3.057   0.019   1.537  0.2765  0.1285  0.1036
   43TMC2    C7  676   3.179   4.504   1.595 -0.4360 -0.3819 -0.5711
   43TMC2    C8  677   2.941   0.094   1.299  0.2006 -0.1683 -0.1746
   43TMC2    O1  678   3.208   4.389   1.592 -0.7875  0.0205  0.3477
   43TMC2    O2  679   2.932   0.163   1.201 -0.1160 -0.3993 -0.3382
   43TMC2    O5  680   2.838   0.079   1.387  0.2108 -0.4650  0.2501
   43TMC2    H5  681   2.846   0.014   1.460 -0.1573 -1.5951 -0.7195
   44MPD2     C  682   2.971   4.214   0.691 -1.1879  0.1305  0.3671
   44MPD2    C1  683   3.086   4.199   0.768 -0.1353 -0.6933  0.0581
   44MPD2    C2  684   3.116   4.285   0.869 -0.6175  0.1657 -0.7422
   44MPD2    C3  685   3.025   4.383   0.908 -0.1024 -0.1404 -0.9284
   44MPD2    C4  686   2.918   4.410   0.829 -0.3643 -0.1819 -0.0428
   44MPD2    C5  687   2.889   4.323   0.722  0.3156  0.1084  0.1509
   44MPD2     H  688   3.207   4.281   0.929 -0.9276 -0.9359 -0.3515
   44MPD2    H1  689   2.840   4.482   0.854 -1.1647 -0.8694 -0.5331
   44MPD2    H2  690   2.946   4.141   0.616  2.1793  1.6901 -2.2492
   44MPD2    H3  691   2.805   4.345   0.656  0.1010  0.5102  0.5545
   44MPD2     N  692   3.044   4.468   1.019  0.1489 -0.4597  0.6486
   44MPD2    H5  693   2.974   4.541   1.030  0.3079 -0.2717  0.4187
   44MPD2    N1  694   3.181   4.097   0.751 -0.6386 -0.3120  0.2001
   44MPD2    H7  695   3.261   4.108   0.813 -1.1959  0.8745  0.7186
   45TMC2    C1  696   4.320   2.609   9.989 -0.0686  1.0917  0.5843
   45TMC2    C2  697   4.456   2.579   9.987  0.4192 -0.7261 -0.5758
   45TMC2    C3  698   4.538   2.666  10.047 -0.0110 -0.2176  0.0674
   45TMC2    C4  699   4.266   2.724  10.047  0.6515 -0.1622 -0.2868
   45TMC2    C5  700   4.356   2.807  10.101 -0.6053 -0.8027  0.4636
   45TMC2    C6  701   4.491   2.780  10.103 -0.2767 -0.5268 -0.8481
   45TMC2     C  702   4.239   2.500   9.934  0.4591 -0.1234  0.3137
   45TMC2     O  703   4.302   2.401   9.900 -0.2417  0.4181  0.7481
   45TMC2     H  704   4.501   2.501   9.927 -1.5282  0.3579 -3.4106
   45TMC2    H1  705   4.160   2.741  10.062  0.9684 -0.5635  2.4717
   45TMC2    H2  706   4.565   2.855  10.131 -0.0344 -1.0801 -0.0261
   45TMC2    C7  707   4.319   2.946  10.128  0.1927  0.4848 -0.3873
   45TMC2    C8  708   4.673   2.671   9.995  0.1652  0.1729  0.0802
   45TMC2    O1  709   4.384   3.008  10.211  0.3644 -0.0023  0.7452
   45TMC2    O2  710   4.701   2.640   9.883  0.0211  0.5689  0.3758
   45TMC2    O5  711   0.021   2.684  10.093  0.2351 -0.2570 -1.1021
   45TMC2    H5  712   4.705   2.692  10.176 -1.0575 -0.2864 -1.9100
   46MPD2     C  713   4.047   2.318   9.797 -0.5368 -0.6987  0.5046
   46MPD2    C1  714   4.020   2.452   9.828  0.8174 -0.4881 -0.6873
   46MPD2    C2  715   3.917   2.516   9.770  0.6404 -0.1537  0.1425
   46MPD2    C3  716   3.831   2.444   9.684 -0.3810  0.0861  0.4683
   46MPD2    C4  717   3.860   2.311   9.652  0.2349  0.2603  0.2936
   46MPD2    C5  718   3.971   2.253   9.704  0.2809 -0.0254 -0.3955
   46MPD2     H  719   3.887   2.618   9.794 -2.7560 -0.9550 -0.6693
   46MPD2    H1  720   3.800   2.259   9.578  0.7653  0.0300  0.0293
   46MPD2    H2  721   4.124   2.264   9.851 -1.9308 -1.4017  1.7927
   46MPD2    H3  722   3.982   2.148   9.681  3.5198  0.0286  0.8424
   46MPD2     N  723   3.721   2.513   9.631 -0.5653 -0.3760  0.5617
   46MPD2    H5  724   3.722   2.614   9.629  0.7666 -0.3835  0.8770
   46MPD2    N1  725   4.107   2.529   9.913  0.4632 -0.0324  1.0778
   46MPD2    H7  726   4.066   2.618   9.940 -1.2334 -0.7824  0.9679
   47TMC2    C1  727   1.949   3.100   9.201  0.5241  0.0220 -0.0350
   47TMC2    C2  728   1.944   3.193   9.098  0.6641 -1.2891 -0.4871
   47TMC2    C3  729   1.822   3.228   9.054 -0.5135  0.2030  0.1624
   47TMC2    C4  730   1.841   3.062   9.272 -0.5901  0.2139 -0.1789
   47TMC2    C5  731   1.718   3.095   9.230  0.0120  0.2381  1.2965
   47TMC2    C6  732   1.709   3.173   9.111 -0.4304  0.5457 -0.3020
   47TMC2     C  733   2.083   3.051   9.233 -0.5280  0.9743 -0.2049
   47TMC2     O  734   2.187   3.103   9.192 -0.1740  0.6884  0.2538
   47TMC2     H  735   2.028   3.222   9.036  0.6718  0.5009  0.3623
   47TMC2    H1  736   1.857   2.999   9.358  0.6443 -0.3691 -0.8347
   47TMC2    H2  737   1.614   3.202   9.069  0.2087  0.9692 -1.4414
   47TMC2    C7  738   1.603   3.090   9.321  0.1530  0.3514  0.9845
   47TMC2    C8  739   1.816   3.322   8.950 -0.2924  0.1448  0.2054
   47TMC2    O1  740   1.491   3.106   9.277  0.2322  0.2307 -0.2390
   47TMC2    O2  741   1.830   3.302   8.830 -0.5338 -0.5886 -0.1549
   47TMC2    O5  742   1.852   3.435   9.018 -0.4175 -0.3555  0.3588
   47TMC2    H5  743   1.841   3.436   9.116  0.6834 -1.3635  0.4911
   48MPD2     C  744   2.303   2.891   9.380 -0.4380 -0.3083  0.0885
   48MPD2    C1  745   2.171   2.853   9.369  0.1719 -0.0132  0.8892
   48MPD2    C2  746   2.135   2.744   9.450  0.3644  0.4824  0.4023
   48MPD2    C3  747   2.219   2.666   9.526  0.6847  0.0259  0.3772
   48MPD2    C4  748   2.347   2.718   9.543  0.1294  0.3705  0.1318
   48MPD2    C5  749   2.385   2.831   9.477 -0.5668 -0.3635 -0.0678
   48MPD2     H  750   2.032   2.717   9.467 -0.0068  0.9905 -0.9892
   48MPD2    H1  751   2.416   2.689   9.621 -0.3838 -1.2340 -0.0113
   48MPD2    H2  752   2.337   2.960   9.304  0.4561 -0.3787  0.4240
   48MPD2    H3  753   2.485   2.868   9.498  0.0795 -1.5047 -1.1234
   48MPD2     N  754   2.159   2.557   9.593 -0.0961  0.0817  0.2546
   48MPD2    H5  755   2.059   2.548   9.575  0.0237  0.0175 -0.4038
   48MPD2    N1  756   2.070   2.932   9.303  0.0764 -0.4745 -0.0093
   48MPD2    H7  757   1.976   2.894   9.311 -0.4213  0.8699  0.4119
   49TMC2    C1  758   3.944   0.874  12.158 -0.3461 -0.1623 -0.0145
   49TMC2    C2  759   3.990   0.767  12.223  0.0810 -0.4059 -0.1350
   49TMC2    C3  760   3.901   0.690  12.293 -0.2978  0.1669 -0.0055
   49TMC2    C4  761   3.809   0.911  12.166 -0.2048 -0.3172  0.5755
   49TMC2    C5  762   3.722   0.842  12.244  0.3308  0.0317 -0.8700
   49TMC2    C6  763   3.771   0.721  12.298  0.2189  0.0648  0.1146
   49TMC2     C  764   4.034   0.943  12.066  0.1152 -1.0947 -0.5348
   49TMC2     O  765   4.145   0.899  12.045 -0.5626  0.1064 -0.0614
   49TMC2     H  766   4.093   0.734  12.234  0.5044  0.5009 -1.3446
   49TMC2    H1  767   3.778   0.996  12.107  0.0347 -0.3535  0.3953
   49TMC2    H2  768   3.703   0.649  12.342  0.3359 -0.1699 -0.0912
   49TMC2    C7  769   3.588   0.840  12.196  0.3728  0.4852 -0.0451
   49TMC2    C8  770   3.943   0.558  12.338  0.3246  0.2057 -0.1015
   49TMC2    O1  771   3.565   0.857  12.073  0.0455  0.2163 -0.2410
   49TMC2    O2  772   4.041   0.543  12.409 -0.2256  0.0035 -0.0152
   49TMC2    O5  773   3.931   0.492  12.221  0.3365 -0.3483  0.0922
   49TMC2    H5  774   3.855   0.525  12.170  0.7442 -1.3156 -1.1398
   50MPD2     C  775   4.166   1.128  11.875  0.4405  0.3615  1.1736
   50MPD2    C1  776   4.044   1.151  11.936 -0.3773  0.6263  0.5524
   50MPD2    C2  777   3.979   1.269  11.906  0.1970  0.2425 -0.4665
   50MPD2    C3  778   4.030   1.364  11.813 -0.3227 -0.1634 -0.1041
   50MPD2    C4  779   4.143   1.329  11.744  0.1832 -0.2411 -0.3696
   50MPD2    C5  780   4.215   1.223  11.781  0.3531 -0.5019  0.0660
   50MPD2     H  781   3.890   1.288  11.964  1.8657  0.7333  1.9452
   50MPD2    H1  782   4.190   1.396  11.671 -1.0332  2.0338  0.9417
   50MPD2    H2  783   4.228   1.042  11.897  0.4201 -0.4624 -2.0084
   50MPD2    H3  784   4.313   1.202  11.739  0.0790  1.5196 -1.5340
   50MPD2     N  785   3.962   1.483  11.780 -0.2191  0.0694 -0.4517
   50MPD2    H5  786   4.000   1.537  11.703  0.0403 -1.2456 -1.2576
   50MPD2    N1  787   3.986   1.064  12.028 -0.2182  0.2727  0.0352
   50MPD2    H7  788   3.890   1.075  12.057  0.3841  2.9039  1.0338
   51TMC2    C1  789   4.672   0.102   0.552  0.2895 -0.5306 -0.6869
   51TMC2    C2  790   4.639   0.238   0.538 -0.0865 -0.0321 -0.0911
   51TMC2    C3  791   0.004   0.326   0.557  0.0966 -0.0397  0.0523
   51TMC2    C4  792   0.059   0.066   0.602  0.5116  0.4977 -0.6427
   51TMC2    C5  793   0.143   0.160   0.642  0.0693 -0.1324  0.1703
   51TMC2    C6  794   0.117   0.293   0.621  0.8307 -0.7969 -0.0967
   51TMC2     C  795   4.569   0.021   0.616 -0.3163  0.4006  0.6493
   51TMC2     O  796   4.570   4.634   0.596  0.5969 -0.1618 -0.0388
   51TMC2     H  797   4.553   0.253   0.474  0.0094  1.6313  0.1620
   51TMC2    H1  798   0.059   4.698   0.635  1.8745  0.7378  0.0655
   51TMC2    H2  799   0.190   0.367   0.650 -1.1374  0.2757  2.1127
   51TMC2    C7  800   0.244   0.137   0.748 -1.0076 -0.3103  0.5908
   51TMC2    C8  801   4.697   0.456   0.540  0.4916  0.3367  0.1167
   51TMC2    O1  802   0.260   0.229   0.827 -0.1475  0.4802  0.1976
   51TMC2    O2  803   4.579   0.480   0.510 -0.3323  0.2275  0.3126
   51TMC2    O5  804   0.064   0.537   0.524  0.4039 -0.7069  0.0419
   51TMC2    H5  805   0.141   0.484   0.492  3.6459  2.3621  2.6874
   52MPD2     C  806   4.277   4.725   1.025 -0.6201 -0.2728  0.1624
   52MPD2    C1  807   4.341   4.628   0.946 -0.1517  0.3383  0.3905
   52MPD2    C2  808   4.414   4.665   0.838 -0.3300 -0.3267 -0.1963
   52MPD2    C3  809   4.421   0.061   0.801 -0.2400  0.1958 -0.4097
   52MPD2    C4  810   4.361   0.158   0.875 -0.3215 -0.2236  0.0353
   52MPD2    C5  811   4.297   0.120   0.988 -0.6866 -0.1024  0.2588
   52MPD2     H  812   4.465   4.585   0.784  1.8448 -0.1973  1.6520
   52MPD2    H1  813   4.360   0.264   0.854  3.2079 -0.3788 -0.9132
   52MPD2    H2  814   4.228   4.711   1.121 -1.3913 -1.0326 -0.3432
   52MPD2    H3  815   4.255   0.187   1.063  0.7761 -0.3115  1.2689
   52MPD2     N  816   4.492   0.106   0.691 -0.1976  0.3531 -0.2506
   52MPD2    H5  817   4.515   0.205   0.690 -0.2889  0.3680 -0.5953
   52MPD2    N1  818   4.318   4.490   0.964 -0.9393  0.2711  0.2560
   52MPD2    H7  819   4.352   4.428   0.892 -2.0517 -1.5830  1.3023
   53TMC2    C1  820   0.888   2.037  12.426  0.8567  0.0148 -0.0227
   53TMC2    C2  821   0.997   1.997  12.496  0.6062 -0.0801 -0.8702
   53TMC2    C3  822   0.981   1.944  12.620 -0.0849  0.8282  0.3800
   53TMC2    C4  823   0.764   2.020  12.471 -0.1092 -0.0582  0.6614
   53TMC2    C5  824   0.749   1.957  12.590  0.7913 -0.2177 -0.8796
   53TMC2    C6  825   0.858   1.919  12.668 -0.1203  0.1244  0.0126
   53TMC2     C  826   0.909   2.116  12.304 -0.3137  0.7019 -0.1143
   53TMC2     O  827   1.026   2.152  12.290 -0.0572  0.1150 -0.6910
   53TMC2     H  828   1.095   2.028  12.462  1.5351 -3.4300 -1.2751
   53TMC2    H1  829   0.677   2.053  12.416 -0.1067  0.2792  0.8590
   53TMC2    H2  830   0.847   1.870  12.764  1.3850 -2.0310 -0.8987
   53TMC2    C7  831   0.612   1.950  12.647  0.4623  0.0670  0.3391
   53TMC2    C8  832   1.104   1.904  12.692  0.2847 -0.4146 -0.5693
   53TMC2    O1  833   0.527   2.009  12.578  0.3654 -0.3020  0.5899
   53TMC2    O2  834   1.214   1.955  12.673 -0.1396 -0.2265  0.3054
   53TMC2    O5  835   1.076   1.809  12.783 -0.5277 -0.2392  0.5471
   53TMC2    H5  836   0.988   1.766  12.773 -1.4532  1.5331  1.0138
   54MPD2     C  837   0.907   2.225  12.023 -0.0525 -0.3825 -0.0383
   54MPD2    C1  838   0.792   2.194  12.096 -0.3831  0.1991  0.6834
   54MPD2    C2  839   0.669   2.208  12.035 -0.9281 -0.0011 -0.9964
   54MPD2    C3  840   0.657   2.265  11.911 -0.0209  0.1266  0.1080
   54MPD2    C4  841   0.777   2.308  11.841 -0.4145  0.1794 -0.4546
   54MPD2    C5  842   0.896   2.279  11.894 -0.2091 -0.0401  0.2879
   54MPD2     H  843   0.580   2.175  12.088  0.7491 -0.2187  1.6880
   54MPD2    H1  844   0.769   2.360  11.746 -0.7323  0.4072 -0.3057
   54MPD2    H2  845   1.004   2.221  12.070 -0.1619 -3.3084 -0.0842
   54MPD2    H3  846   0.984   2.308  11.837  0.6066 -1.0485  1.0246
   54MPD2     N  847   0.533   2.309  11.857  0.5841 -0.0869  0.0585
   54MPD2    H5  848   0.533   2.366  11.773  1.3976 -1.7217 -1.0567
   54MPD2    N1  849   0.793   2.148  12.231  0.5722 -0.4555  0.6408
   54MPD2    H7  850   0.707   2.103  12.260  0.1274 -1.0832 -1.6917
   55TMC2    C1  851   1.818   0.283   0.385 -0.0605  0.2842  0.2742
   55TMC2    C2  852   1.933   0.228   0.334  0.2320  0.3790  0.2528
   55TMC2    C3  853   1.972   0.105   0.380  0.3927  0.4102 -0.0087
   55TMC2    C4  854   1.742   0.218   0.485 -0.1313 -0.4451  0.8627
   55TMC2    C5  855   1.783   0.089   0.512 -0.3902 -0.1938 -0.2432
   55TMC2    C6  856   1.885   0.023   0.450 -0.1384 -0.2349 -0.2338
   55TMC2     C  857   1.775   0.421   0.360  0.6420  0.4277 -0.1838
   55TMC2     O  858   1.656   0.448   0.383  0.2759 -0.0159 -0.1746
   55TMC2     H  859   1.985   0.267   0.248 -0.9296  0.4390 -0.4315
   55TMC2    H1  860   1.655   0.259   0.533  0.6761 -0.0332  1.9687
   55TMC2    H2  861   1.918   4.663   0.487  0.1718 -0.3075 -0.6946
   55TMC2    C7  862   1.708   0.013   0.611  0.8194  0.6314 -0.2146
   55TMC2    C8  863   2.070   0.024   0.309  0.0723  0.3017 -0.0476
   55TMC2    O1  864   1.729   4.627   0.619  0.2918  0.1847  1.0925
   55TMC2    O2  865   2.064   4.643   0.277  0.2025 -0.1196 -0.2103
   55TMC2    O5  866   2.160   0.114   0.258 -0.1578  0.1859 -1.0109
   55TMC2    H5  867   2.157   0.197   0.310 -0.3729 -2.3309  3.0497
   56MPD2     C  868   2.005   0.720   0.360 -0.2509 -0.0271 -0.5565
   56MPD2    C1  869   1.882   0.650   0.360 -0.1963  0.4462 -0.0477
   56MPD2    C2  870   1.765   0.729   0.366 -0.2833  0.4929 -0.8055
   56MPD2    C3  871   1.768   0.863   0.390  0.0371 -0.2820 -0.5879
   56MPD2    C4  872   1.892   0.924   0.395  0.0533 -0.8317 -0.9764
   56MPD2    C5  873   2.006   0.854   0.383 -1.0380  0.0036 -0.8560
   56MPD2     H  874   1.667   0.682   0.359  0.7376 -1.4839 -1.7281
   56MPD2    H1  875   1.901   1.031   0.404  0.0823 -0.7636 -1.8154
   56MPD2    H2  876   2.095   0.661   0.343 -0.1887 -0.4089  1.1474
   56MPD2    H3  877   2.100   0.904   0.402 -1.4227 -1.2264  4.1860
   56MPD2     N  878   1.647   0.932   0.393  0.0307  0.2031  0.9301
   56MPD2    H5  879   1.558   0.884   0.399 -0.8685  1.8021  0.3893
   56MPD2    N1  880   1.882   0.506   0.350  0.1155 -0.1702 -0.4568
   56MPD2    H7  881   1.978   0.473   0.353 -0.3520 -1.5496 -0.4126
   57TMC2    C1  882   0.195   0.700  13.883 -0.0437 -0.3126  0.4726
   57TMC2    C2  883   0.150   0.567  13.883  0.1930  0.3149  0.5034
   57TMC2    C3  884   0.230   0.477  13.822  0.3460 -0.2792 -0.1696
   57TMC2    C4  885   0.318   0.736  13.837 -0.4193  0.3168 -0.0307
   57TMC2    C5  886   0.399   0.644  13.775  0.7121  0.4136 -0.4454
   57TMC2    C6  887   0.349   0.516  13.761  0.2161  0.0004 -0.5364
   57TMC2     C  888   0.121   0.810  13.946 -0.4797 -0.0397  0.9734
   57TMC2     O  889   0.184   0.908  13.990  0.2241 -0.3203  0.4391
   57TMC2     H  890   0.059   0.536  13.932  0.3289  0.3614  0.7840
   57TMC2    H1  891   0.344   0.841  13.844  0.9346 -0.0006 -0.4900
   57TMC2    H2  892   0.400   0.435  13.710  2.0626  0.3356  0.7476
   57TMC2    C7  893   0.522   0.688  13.709  0.7803 -0.0709  0.0859
   57TMC2    C8  894   0.213   0.347  13.881  1.3179 -0.4258 -0.2085
   57TMC2    O1  895   0.549   0.807  13.703  0.2018 -0.2765  0.2807
   57TMC2    O2  896   0.106   0.317  13.940  0.0953 -0.1200 -0.2283
   57TMC2    O5  897   0.329   0.283  13.908 -0.0034 -0.4626  0.3081
   57TMC2    H5  898   0.418   0.313  13.879  0.8078 -2.2752  0.9236
   58MPD2     C  899   4.413   0.976  14.136  0.2719 -0.0924  0.0863
   58MPD2    C1  900   4.543   1.025  14.147  0.0962 -0.0976  0.0023
   58MPD2    C2  901   4.644   0.960  14.085  0.4179 -0.8458 -0.4877
   58MPD2    C3  902   4.616   0.852  14.007  0.3709  0.3620 -0.3350
   58MPD2    C4  903   4.484   0.809  13.995 -0.0323  0.6511  0.2702
   58MPD2    C5  904   4.383   0.871  14.053 -0.1987 -0.1195 -0.0621
   58MPD2     H  905   0.007   1.002  14.074 -0.2191  0.6547 -0.5416
   58MPD2    H1  906   4.456   0.723  13.935 -0.4021  0.1254  1.1933
   58MPD2    H2  907   4.323   1.020  14.177 -0.3627 -0.9420 -0.4059
   58MPD2    H3  908   4.282   0.834  14.048 -0.7522  1.2084  1.4267
   58MPD2     N  909   4.719   0.779  13.946  0.2689  0.3907 -0.5037
   58MPD2    H5  910   4.690   0.698  13.892  1.0045  0.7504 -1.4564
   58MPD2    N1  911   4.574   1.140  14.214 -0.3812  0.0808 -0.0347
   58MPD2    H7  912   4.671   1.170  14.215 -0.1895 -0.6154  1.7319
   59TMC2    C1  913   2.540   0.990  12.874 -0.6157  0.2397  1.2072
   59TMC2    C2  914   2.536   0.913  12.987  0.1415  0.4609  0.1890
   59TMC2    C3  915   2.430   0.825  12.996  0.8374  0.7300  0.2599
   59TMC2    C4  916   2.448   0.985  12.776  0.1256  0.1578 -0.0100
   59TMC2    C5  917   2.339   0.891  12.794 -0.4644  0.2577  0.7850
   59TMC2    C6  918   2.329   0.811  12.904  0.1741  0.4639  0.2403
   59TMC2     C  919   2.642   1.081  12.859 -0.1439 -0.0261 -0.1663
   59TMC2     O  920   2.675   1.112  12.746  0.6897  0.2887  0.4698
   59TMC2     H  921   2.604   0.917  13.071  1.5839  0.7448 -0.9940
   59TMC2    H1  922   2.451   1.062  12.699  0.1008  0.9476  0.7764
   59TMC2    H2  923   2.248   0.742  12.925 -0.1603  0.3667 -1.3815
   59TMC2    C7  924   2.206   0.933  12.745 -0.2564 -0.1056  0.1282
   59TMC2    C8  925   2.417   0.735  13.108  0.8809  0.3761  0.4768
   59TMC2    O1  926   2.107   0.901  12.814  0.3670  0.1799  0.0215
   59TMC2    O2  927   2.417   0.771  13.224 -0.3653  0.1932 -0.2258
   59TMC2    O5  928   2.476   0.622  13.075  0.0454 -0.1835  0.1145
   59TMC2    H5  929   2.485   0.622  12.977  0.8558  0.4768  0.1878
   60MPD2     C  930   2.809   1.335  12.901  0.7117  0.6428 -0.1475
   60MPD2    C1  931   2.790   1.234  12.994 -0.3012  0.1714 -1.0548
   60MPD2    C2  932   2.854   1.236  13.116  0.7226 -0.7230  0.4244
   60MPD2    C3  933   2.923   1.355  13.152 -0.4469 -0.0068  0.3554
   60MPD2    C4  934   2.921   1.462  13.072  0.5426  0.0152  0.3056
   60MPD2    C5  935   2.877   1.446  12.940  0.4112 -0.1821  0.2570
   60MPD2     H  936   2.841   1.148  13.178 -2.1955 -0.7961 -0.3016
   60MPD2    H1  937   2.975   1.551  13.101 -0.9556  1.0947 -0.2340
   60MPD2    H2  938   2.755   1.339  12.807 -1.8855  1.1358  1.3666
   60MPD2    H3  939   2.885   1.522  12.863 -0.0585 -0.1172  0.2733
   60MPD2     N  940   2.993   1.362  13.269 -0.0404  0.1479 -0.3341
   60MPD2    H5  941   3.058   1.441  13.274 -0.2824  0.3546 -0.4699
   60MPD2    N1  942   2.697   1.120  12.974 -0.0849 -0.0591  0.2967
   60MPD2    H7  943   2.683   1.076  13.064 -0.9542 -1.0159 -0.3142
   61TMC2    C1  944   2.784   2.216  15.813 -0.2198  0.0241 -0.2274
   61TMC2    C2  945   2.807   2.137  15.928 -0.2221  0.4292 -0.4669
   61TMC2    C3  946   2.783   2.198  16.051  0.2611 -0.2666  0.1185
   61TMC2    C4  947   2.738   2.341  15.819  0.1996 -0.0577  0.2410
   61TMC2    C5  948   2.703   2.394  15.940  0.2982 -0.3076  0.6477
   61TMC2    C6  949   2.733   2.326  16.058 -0.4774  0.3911 -0.0225
   61TMC2     C  950   2.790   2.142  15.685  0.3032  0.4259  0.6351
   61TMC2     O  951   2.843   2.029  15.694 -0.0326 -0.0329  0.6230
   61TMC2     H  952   2.862   2.044  15.919 -1.3431 -0.1563 -1.1496
   61TMC2    H1  953   2.729   2.414  15.740  0.6265 -0.3399 -0.0667
   61TMC2    H2  954   2.715   2.368  16.156  0.8443  1.2942 -0.1652
   61TMC2    C7  955   2.604   2.498  15.942  0.4582  0.3979 -0.2767
   61TMC2    C8  956   2.790   2.135  16.178 -0.2370  0.0732  0.3672
   61TMC2    O1  957   2.596   2.576  15.848 -0.3120  0.0426 -0.3565
   61TMC2    O2  958   2.742   2.181  16.283  0.5735  0.5342  0.6042
   61TMC2    O5  959   2.880   2.042  16.179  0.0541  0.0083 -0.3891
   61TMC2    H5  960   2.930   2.028  16.096  1.9334  1.2509  0.5382
   62MPD2     C  961   2.868   2.087  15.398  0.0696  0.7655  0.5778
   62MPD2    C1  962   2.791   2.190  15.438 -0.3210 -0.2268  0.0943
   62MPD2    C2  963   2.736   2.270  15.340 -0.0888 -0.3209 -0.1149
   62MPD2    C3  964   2.762   2.244  15.206  0.6810  0.1277  0.6005
   62MPD2    C4  965   2.855   2.148  15.172  0.1484  0.2985 -0.0395
   62MPD2    C5  966   2.911   2.067  15.268  0.2329 -0.2531  0.0621
   62MPD2     H  967   2.671   2.350  15.372  1.1739  0.7471 -0.2154
   62MPD2    H1  968   2.868   2.121  15.068  0.0011 -3.7848  0.9778
   62MPD2    H2  969   2.913   2.019  15.469 -1.2953  1.6400  2.2850
   62MPD2    H3  970   2.967   1.980  15.236 -1.5061 -1.6340  0.7758
   62MPD2     N  971   2.724   2.321  15.101  0.6931  0.2370 -0.1194
   62MPD2    H5  972   2.772   2.309  15.013  1.3384 -0.2384  0.3007
   62MPD2    N1  973   2.755   2.214  15.574  0.6200  0.1052  0.5693
   62MPD2    H7  974   2.706   2.300  15.597 -0.0791  0.0042 -0.5309
   63TMC2    C1  975   1.901   3.154  10.209 -0.7027 -0.0180 -0.8046
   63TMC2    C2  976   2.019   3.081  10.205  0.0645  0.1286 -0.1111
   63TMC2    C3  977   2.133   3.148  10.169  0.1413  0.8916  0.4628
   63TMC2    C4  978   1.888   3.273  10.155 -0.0794  0.3393 -0.3903
   63TMC2    C5  979   2.004   3.335  10.109 -0.0755 -0.1936 -0.2452
   63TMC2    C6  980   2.130   3.279  10.127 -0.2708  0.8802 -0.2454
   63TMC2     C  981   1.781   3.075  10.196  0.0705 -0.5339 -0.0840
   63TMC2     O  982   1.702   3.116  10.110  0.3514  0.0971 -0.5506
   63TMC2     H  983   2.032   2.979  10.239 -0.9740 -0.5256 -1.6708
   63TMC2    H1  984   1.792   3.319  10.132 -0.9606 -1.2024  0.1464
   63TMC2    H2  985   2.221   3.323  10.089 -0.3824 -1.3543 -3.0548
   63TMC2    C7  986   1.983   3.463  10.054 -0.1911 -0.2275 -0.6902
   63TMC2    C8  987   2.256   3.087  10.225 -0.9922  1.0527 -0.5750
   63TMC2    O1  988   2.050   3.498   9.954 -0.4140  0.1940 -0.8301
   63TMC2    O2  989   2.251   3.027  10.332 -0.5615  0.6855  0.3240
   63TMC2    O5  990   2.360   3.158  10.182  0.1060 -0.2594 -0.5697
   63TMC2    H5  991   2.351   3.184  10.088 -0.4790  3.5422  0.5421
   64MPD2     C  992   1.527   2.641  10.206 -0.9877  0.7493 -0.2102
   64MPD2    C1  993   1.653   2.616  10.253 -0.1091 -0.5347 -0.0656
   64MPD2    C2  994   1.734   2.722  10.266 -0.5501  0.3182 -0.4916
   64MPD2    C3  995   1.698   2.849  10.228 -0.7562  0.2193 -0.2391
   64MPD2    C4  996   1.572   2.872  10.174 -0.1448 -0.3187 -0.4872
   64MPD2    C5  997   1.484   2.769  10.166 -0.5395  0.2645  0.0921
   64MPD2     H  998   1.832   2.706  10.310 -0.7192 -0.7317 -0.5005
   64MPD2    H1  999   1.541   2.970  10.140  1.2779  0.9022  1.7236
   64MPD2    H2 1000   1.451   2.564  10.194  3.4056 -3.5342 -0.5407
   64MPD2    H3 1001   1.386   2.787  10.123 -1.3984 -0.1452  1.9072
   64MPD2     N 1002   1.792   2.951  10.255 -0.2821 -0.3740  0.4037
   64MPD2    H5 1003   1.872   2.940  10.317  0.0480  0.5642  0.1404
   64MPD2    N1 1004   1.701   2.492  10.297  0.5010 -0.0229  0.2722
   64MPD2    H7 1005   1.800   2.498  10.321 -0.1882  1.3966  2.8028
   65TMC2    C1 1006   3.155   2.038  15.773 -0.1508 -0.0235 -0.0898
   65TMC2    C2 1007   3.203   1.981  15.659 -0.2093 -0.3717  0.9868
   65TMC2    C3 1008   3.224   2.057  15.547 -0.6923  0.0278 -0.3060
   65TMC2    C4 1009   3.132   2.174  15.771 -0.1766  0.2974 -0.8459
   65TMC2    C5 1010   3.168   2.248  15.661 -0.7693  0.3275 -0.3486
   65TMC2    C6 1011   3.204   2.193  15.546  0.4793 -0.3556 -0.0782
   65TMC2     C 1012   3.116   1.958  15.886 -0.6374  0.0614  0.9808
   65TMC2     O 1013   3.095   2.016  15.993 -0.5433  0.0985  0.1948
   65TMC2     H 1014   3.243   1.880  15.663 -0.8149 -0.6980 -1.8343
   65TMC2    H1 1015   3.097   2.218  15.864  0.1002  0.9218 -1.0400
   65TMC2    H2 1016   3.200   2.250  15.454  0.3136  1.3558  0.9816
   65TMC2    C7 1017   3.144   2.389  15.666  0.2753 -0.1930 -0.2485
   65TMC2    C8 1018   3.253   1.994  15.426  0.3845 -0.2126  0.1735
   65TMC2    O1 1019   3.188   2.464  15.577 -0.3668 -0.1439 -0.1635
   65TMC2    O2 1020   3.293   2.053  15.326  0.7718  0.0709  0.4572
   65TMC2    O5 1021   3.163   1.889  15.421 -0.5058 -0.5678 -0.0025
   65TMC2    H5 1022   3.135   1.859  15.510  1.3994  1.6882  1.3414
   66MPD2     C 1023   3.111   1.727  16.070 -0.3535 -0.2948  0.3031
   66MPD2    C1 1024   3.093   1.711  15.933  0.1720 -0.7322  0.0176
   66MPD2    C2 1025   3.060   1.588  15.879 -0.6589  0.0269  0.3200
   66MPD2    C3 1026   3.072   1.472  15.956  0.3883 -0.0574  0.0421
   66MPD2    C4 1027   3.079   1.485  16.092  0.8593 -0.1444 -0.0638
   66MPD2    C5 1028   3.091   1.613  16.143 -0.5900 -0.2071  0.4225
   66MPD2     H 1029   3.054   1.578  15.771  1.1785 -0.7872  0.2942
   66MPD2    H1 1030   3.072   1.397  16.156  2.1451 -1.8637 -2.2930
   66MPD2    H2 1031   3.133   1.819  16.123 -2.4983  0.4148 -0.0190
   66MPD2    H3 1032   3.102   1.624  16.250 -2.6199 -0.0500  0.6250
   66MPD2     N 1033   3.062   1.345  15.895  0.1885 -0.6570  0.3099
   66MPD2    H5 1034   3.045   1.270  15.961  0.2818  0.1200  1.2265
   66MPD2    N1 1035   3.100   1.823  15.848  0.1898 -0.1184  0.0866
   66MPD2    H7 1036   3.083   1.818  15.748  0.2267 -2.2291  0.1970
   67TMC2    C1 1037   3.039   2.046  14.771 -0.2647 -0.3476  0.2031
   67TMC2    C2 1038   3.052   2.162  14.836 -0.1600  0.4024 -0.1535
   67TMC2    C3 1039   3.128   2.154  14.954 -0.4929  0.2116 -0.1619
   67TMC2    C4 1040   3.083   1.926  14.808 -0.4676  0.0230 -0.3850
   67TMC2    C5 1041   3.133   1.917  14.935  0.5826 -1.4034 -0.5390
   67TMC2    C6 1042   3.176   2.033  15.005 -0.0154  0.2944 -0.4130
   67TMC2     C 1043   3.015   2.071  14.628  0.0657  0.0753 -0.2150
   67TMC2     O 1044   3.034   2.183  14.584 -0.1200  0.3486 -0.5155
   67TMC2     H 1045   3.012   2.260  14.816 -1.0256 -0.2663 -1.6536
   67TMC2    H1 1046   3.054   1.837  14.755 -1.3788  0.2224 -0.2240
   67TMC2    H2 1047   3.222   2.019  15.102  0.5962 -0.5106 -0.8203
   67TMC2    C7 1048   3.208   1.792  14.957 -0.3719  0.1169  0.3763
   67TMC2    C8 1049   3.129   2.276  15.035 -0.0414 -0.1264 -0.4948
   67TMC2    O1 1050   3.209   1.710  14.864  0.4250  0.2059 -0.9338
   67TMC2    O2 1051   3.071   2.380  15.002  0.0053  0.3878  0.0237
   67TMC2    O5 1052   3.172   2.247  15.160  0.1076 -0.0019 -0.0473
   67TMC2    H5 1053   3.210   2.157  15.168 -0.3919 -0.2241 -0.2313
   68MPD2     C 1054   2.987   2.053  14.337 -0.5792  0.3303 -1.0152
   68MPD2    C1 1055   2.947   1.955  14.422  0.7746 -0.5251 -0.6488
   68MPD2    C2 1056   2.871   1.850  14.382  0.2295  0.2294 -0.1271
   68MPD2    C3 1057   2.829   1.848  14.247  0.7254 -0.3122 -0.4016
   68MPD2    C4 1058   2.859   1.958  14.169 -0.1510 -0.3664 -0.3420
   68MPD2    C5 1059   2.937   2.060  14.211  0.4100 -0.0634  0.2436
   68MPD2     H 1060   2.847   1.768  14.449  2.3504 -0.1852  0.1199
   68MPD2    H1 1061   2.817   1.966  14.069 -1.2880  0.2537  0.1817
   68MPD2    H2 1062   3.065   2.121  14.371 -1.5832  1.0506 -0.1242
   68MPD2    H3 1063   2.946   2.143  14.142  1.7923 -0.2953  0.1449
   68MPD2     N 1064   2.743   1.752  14.189  0.3192 -0.2385 -0.1571
   68MPD2    H5 1065   2.699   1.769  14.099 -0.6051  1.3956  0.5947
   68MPD2    N1 1066   2.979   1.963  14.561  0.1327  0.7266  0.1636
   68MPD2    H7 1067   2.937   1.885  14.611 -1.0217  0.8633 -0.5866
   69TMC2    C1 1068   0.654   2.531  12.517  0.3739  0.1280  0.0100
   69TMC2    C2 1069   0.560   2.625  12.530 -0.1752 -0.2012  0.4347
   69TMC2    C3 1070   0.542   2.714  12.429 -0.1182  0.4641  0.3500
   69TMC2    C4 1071   0.723   2.513  12.400 -0.3046 -0.6230  0.2264
   69TMC2    C5 1072   0.695   2.598  12.297  0.4711  0.4883  0.0868
   69TMC2    C6 1073   0.611   2.706  12.310 -0.3236 -0.4088  0.0882
   69TMC2     C 1074   0.662   2.436  12.619  0.8491 -0.2902 -0.2054
   69TMC2     O 1075   0.563   2.415  12.685  0.3303  0.2478 -0.3164
   69TMC2     H 1076   0.516   2.640  12.628 -0.3705  0.6884  0.2124
   69TMC2    H1 1077   0.794   2.432  12.382  2.1875  1.5629  0.2991
   69TMC2    H2 1078   0.589   2.768  12.224  0.8920  2.3876  1.7713
   69TMC2    C7 1079   0.776   2.577  12.179 -0.1313  0.3078 -0.0815
   69TMC2    C8 1080   0.445   2.819  12.444  0.1061 -0.3340 -0.9570
   69TMC2    O1 1081   0.874   2.512  12.185 -0.1360  0.3948 -0.2953
   69TMC2    O2 1082   0.369   2.822  12.541 -0.3722 -0.4684  0.1456
   69TMC2    O5 1083   0.471   2.917  12.357  0.8705  0.2975  0.0379
   69TMC2    H5 1084   0.562   2.919  12.319  0.1358  1.8836 -1.6108
   70MPD2     C 1085   0.980   2.268  12.727 -0.9617 -0.7704 -0.3741
   70MPD2    C1 1086   0.852   2.299  12.728 -0.1193  1.2083 -0.5068
   70MPD2    C2 1087   0.775   2.236  12.830  0.1241  0.7482 -0.3328
   70MPD2    C3 1088   0.829   2.144  12.911 -0.4465  0.0879  0.2833
   70MPD2    C4 1089   0.956   2.114  12.898  0.3832  0.1345  0.2042
   70MPD2    C5 1090   1.034   2.185  12.814 -0.1783 -0.6499 -0.8769
   70MPD2     H 1091   0.667   2.245  12.833  0.1665  0.6672  1.3921
   70MPD2    H1 1092   1.006   2.044  12.963 -0.9966 -0.5461  0.5460
   70MPD2    H2 1093   1.033   2.317  12.645  0.7387  1.9300  2.3577
   70MPD2    H3 1094   1.140   2.170  12.800  0.1282  1.7348 -1.2131
   70MPD2     N 1095   0.755   2.076  13.005  0.2336 -0.8275 -1.2992
   70MPD2    H5 1096   0.804   2.011  13.066  2.7713  0.6478 -1.7989
   70MPD2    N1 1097   0.796   2.384  12.624  0.0762 -0.9395  0.3928
   70MPD2    H7 1098   0.863   2.409  12.552 -0.0656  3.2102  1.7068
   71TMC2    C1 1099   1.779   3.220   1.477 -0.3332 -0.2028  0.5464
   71TMC2    C2 1100   1.840   3.181   1.593 -0.3318  0.2944  0.0488
   71TMC2    C3 1101   1.792   3.241   1.705  0.3929  0.0745 -0.0156
   71TMC2    C4 1102   1.665   3.299   1.474 -0.2477  0.2018  0.5225
   71TMC2    C5 1103   1.622   3.348   1.596  0.4327  0.3575  0.1132
   71TMC2    C6 1104   1.676   3.315   1.710  0.5598 -0.1138  0.4301
   71TMC2     C 1105   1.830   3.156   1.356 -0.2471 -0.5719 -0.0806
   71TMC2     O 1106   1.938   3.101   1.377 -0.3566  0.3301  0.0690
   71TMC2     H 1107   1.923   3.112   1.603 -0.1069 -0.0045 -3.9573
   71TMC2    H1 1108   1.628   3.341   1.381 -0.5981 -0.6907  0.2551
   71TMC2    H2 1109   1.631   3.352   1.801  1.0176  0.5449  0.3899
   71TMC2    C7 1110   1.493   3.414   1.604  0.1578  0.3857  0.7961
   71TMC2    C8 1111   1.827   3.167   1.831 -0.5159  0.0952 -0.4894
   71TMC2    O1 1112   1.474   3.493   1.695  0.1093 -0.2972 -0.2160
   71TMC2    O2 1113   1.814   3.047   1.845  0.8361  0.4200 -0.1298
   71TMC2    O5 1114   1.804   3.257   1.929  0.7963 -0.1252 -1.0406
   71TMC2    H5 1115   1.824   3.348   1.899  0.2674 -0.3834 -2.1574
   72MPD2     C 1116   1.806   3.044   0.850 -0.3665  0.1545  0.2137
   72MPD2    C1 1117   1.906   3.027   0.946 -0.4497 -0.5952 -0.6335
   72MPD2    C2 1118   1.881   3.050   1.079 -0.1408 -0.3514  0.5727
   72MPD2    C3 1119   1.760   3.094   1.124 -0.3787 -0.3783  0.2851
   72MPD2    C4 1120   1.652   3.101   1.029  0.4558 -0.1630  0.5904
   72MPD2    C5 1121   1.685   3.081   0.897 -0.7820 -0.7605 -0.1258
   72MPD2     H 1122   1.969   3.039   1.142  0.1887  0.0995  0.1960
   72MPD2    H1 1123   1.550   3.135   1.042  0.2453 -0.7639  0.5188
   72MPD2    H2 1124   1.819   3.041   0.743  1.7805  1.8698  0.4093
   72MPD2    H3 1125   1.609   3.105   0.823 -0.4806 -0.6800 -0.4097
   72MPD2     N 1126   1.737   3.147   1.257 -0.0519  0.1280 -0.6114
   72MPD2    H5 1127   1.643   3.183   1.270 -0.2214 -1.1399  1.6743
   72MPD2    N1 1128   2.036   2.999   0.904  0.6011 -0.1046 -0.0766
   72MPD2    H7 1129   2.102   2.994   0.982  0.8505  0.5625 -0.2425
   73TMC2    C1 1130   2.806   0.008  13.710  0.3570 -0.8396  0.0145
   73TMC2    C2 1131   2.712   4.693  13.791  0.2473 -0.5964 -0.0660
   73TMC2    C3 1132   2.736   4.701  13.926 -0.2876  0.0571  0.0317
   73TMC2    C4 1133   2.926   0.060  13.759 -0.3398 -0.1772  0.1742
   73TMC2    C5 1134   2.943   0.059  13.894 -0.2111  1.1973 -0.5286
   73TMC2    C6 1135   2.850   0.011  13.986 -0.2085 -0.4834  0.2156
   73TMC2     C 1136   2.758   0.104  13.615 -0.1801  0.2163 -0.0935
   73TMC2     O 1137   2.817   0.213  13.624  0.2354  0.2378 -0.4469
   73TMC2     H 1138   2.617   4.652  13.758  0.2422  0.1966 -1.0362
   73TMC2    H1 1139   3.000   0.102  13.692 -0.6280  0.4088  0.2244
   73TMC2    H2 1140   2.881   0.000  14.089  0.4425 -3.5568 -0.2978
   73TMC2    C7 1141   3.021   0.175  13.932  0.2337 -0.3425 -0.5239
   73TMC2    C8 1142   2.644   4.621  14.008 -0.5524  0.1154 -0.4093
   73TMC2    O1 1143   3.077   0.182  14.040 -0.5460  0.1316 -0.1881
   73TMC2    O2 1144   2.587   4.526  13.960  0.1496 -0.2640  0.5319
   73TMC2    O5 1145   2.599   4.688  14.116  0.5393 -0.0767 -0.3204
   73TMC2    H5 1146   2.644   0.035  14.142  1.1474 -0.2942 -0.6803
   74MPD2     C 1147   2.439   0.342  13.291 -0.1275 -0.0315  0.3432
   74MPD2    C1 1148   2.530   0.392  13.379 -0.0576  0.3345  0.0788
   74MPD2    C2 1149   2.589   0.311  13.474 -1.2517 -0.0645 -0.0801
   74MPD2    C3 1150   2.568   0.174  13.465  0.2156  0.0286 -0.2851
   74MPD2    C4 1151   2.462   0.126  13.388 -0.1641  0.4189 -0.7778
   74MPD2    C5 1152   2.398   0.220  13.306  0.6112  0.2544  0.0539
   74MPD2     H 1153   2.663   0.351  13.542  0.1498  1.6046 -2.5796
   74MPD2    H1 1154   2.424   0.025  13.394  1.5668 -0.2109 -0.3073
   74MPD2    H2 1155   2.400   0.400  13.207 -1.8390  0.5976  1.5706
   74MPD2    H3 1156   2.334   0.191  13.224 -1.0097 -0.3523  1.5427
   74MPD2     N 1157   2.638   0.082  13.551 -0.0608 -0.0907 -0.2542
   74MPD2    H5 1158   2.605   4.722  13.544  0.3384 -0.3280  1.2190
   74MPD2    N1 1159   2.570   0.529  13.372 -0.8902 -0.6553  0.4264
   74MPD2    H7 1160   2.542   0.576  13.286  0.4594  0.8622  0.8228
   75TMC2    C1 1161   2.647   1.545  14.150 -0.2429  0.0896 -0.7637
   75TMC2    C2 1162   2.572   1.435  14.201 -0.3272  0.3153 -0.9097
   75TMC2    C3 1163   2.500   1.351  14.112 -0.4815 -0.9348  0.1725
   75TMC2    C4 1164   2.633   1.579  14.013  0.2133 -0.1739 -0.0111
   75TMC2    C5 1165   2.566   1.494  13.930  0.1217  0.1495 -0.8308
   75TMC2    C6 1166   2.499   1.383  13.978  0.5659 -0.5703 -0.4027
   75TMC2     C 1167   2.720   1.628  14.244 -0.7832  0.0130 -0.4223
   75TMC2     O 1168   2.757   1.574  14.346 -0.0021 -0.0727 -0.5508
   75TMC2     H 1169   2.565   1.421  14.308  0.7636 -0.7058 -0.9708
   75TMC2    H1 1170   2.689   1.660  13.968 -1.0332  1.5743  1.5645
   75TMC2    H2 1171   2.443   1.329  13.902 -0.3673  0.6258 -0.5503
   75TMC2    C7 1172   2.532   1.537  13.795 -0.3365 -0.3779 -0.2242
   75TMC2    C8 1173   2.406   1.259  14.164 -0.3076  0.2100 -0.4068
   75TMC2    O1 1174   2.484   1.456  13.722 -0.3335  0.2072  0.0481
   75TMC2    O2 1175   2.289   1.268  14.142  0.5315  0.4893 -0.3225
   75TMC2    O5 1176   2.458   1.220  14.284 -0.2941  0.2413 -0.0615
   75TMC2    H5 1177   2.556   1.224  14.294 -0.1000 -0.8898 -1.4838
   76TMC2    C1 1178   1.357   1.612  11.989  0.8027 -0.7916 -0.4778
   76TMC2    C2 1179   1.235   1.569  11.943 -0.1638 -0.4913 -0.6361
   76TMC2    C3 1180   1.176   1.472  12.017  0.0739  0.0475  0.7623
   76TMC2    C4 1181   1.414   1.564  12.110 -0.1938 -0.0901 -0.2063
   76TMC2    C5 1182   1.357   1.451  12.168  0.5601  0.6820  0.9548
   76TMC2    C6 1183   1.235   1.406  12.121 -0.1102 -0.3142 -0.3492
   76TMC2     C 1184   1.381   1.751  11.950 -0.3090 -0.1255 -0.0118
   76TMC2     O 1185   1.285   1.817  11.909 -0.3086  0.1846  0.1182
   76TMC2     H 1186   1.199   1.598  11.845  1.3305 -0.5117 -1.1940
   76TMC2    H1 1187   1.505   1.607  12.151 -0.2311  0.4141 -0.6516
   76TMC2    H2 1188   1.175   1.344  12.187  0.6639  0.0270  0.6871
   76TMC2    C7 1189   1.400   1.396  12.295  0.2980 -0.4221  0.5515
   76TMC2    C8 1190   1.045   1.414  11.984 -0.0576  0.0531  0.1047
   76TMC2    O1 1191   1.336   1.297  12.335 -0.2564  0.1626  0.3969
   76TMC2    O2 1192   1.007   1.310  12.033  0.3796  0.0707 -0.2747
   76TMC2    O5 1193   0.967   1.524  11.965 -0.7632 -0.7064  0.2669
   76TMC2    H5 1194   1.005   1.611  11.940 -1.5085 -1.4162 -3.2807
   77MPD2     C 1195   1.719   2.143  11.878  0.0007  0.3369 -0.9493
   77MPD2    C1 1196   1.585   2.130  11.831  0.4755  0.1720 -0.2332
   77MPD2    C2 1197   1.513   2.015  11.863 -0.1804  0.2605  0.3876
   77MPD2    C3 1198   1.574   1.912  11.935 -0.0377 -0.8717 -0.2008
   77MPD2    C4 1199   1.703   1.927  11.974  0.1598  1.2039  0.7474
   77MPD2    C5 1200   1.773   2.043  11.949 -0.1102  0.4477  0.3951
   77MPD2     H 1201   1.410   2.002  11.833 -0.3932 -0.9373  1.6524
   77MPD2    H1 1202   1.760   1.845  12.016 -0.1118 -0.2055 -1.6424
   77MPD2    H2 1203   1.784   2.226  11.853 -0.3243 -0.0630 -3.1258
   77MPD2    H3 1204   1.876   2.048  11.983  0.2455  1.6871 -0.8758
   77MPD2     N 1205   1.515   1.788  11.973  0.3551 -0.4112  0.1169
   77MPD2    H5 1206   1.572   1.710  12.005 -1.4123 -2.0286 -0.7036
   77MPD2    N1 1207   1.519   2.230  11.764  0.3280  0.3115 -0.3097
   77MPD2    H7 1208   1.421   2.217  11.739  0.5208  1.4561 -1.6479
   78TMC2    C1 1209   2.185   3.326   1.563 -0.0168 -0.3059  0.1192
   78TMC2    C2 1210   2.139   3.322   1.691 -0.3163  0.1369 -0.3941
   78TMC2    C3 1211   2.209   3.240   1.773  0.0470 -0.2681 -0.3087
   78TMC2    C4 1212   2.287   3.238   1.519 -0.8967 -0.4307 -0.0017
   78TMC2    C5 1213   2.338   3.148   1.609  1.0971 -0.4771  0.0251
   78TMC2    C6 1214   2.302   3.148   1.741 -0.3051 -0.0352 -0.2261
   78TMC2     C 1215   2.124   3.416   1.467  0.2433  0.1257  0.1716
   78TMC2     O 1216   2.062   3.509   1.516  0.3796 -0.0655 -0.1765
   78TMC2     H 1217   2.054   3.384   1.717  0.4554  0.1623  2.1261
   78TMC2    H1 1218   2.327   3.242   1.418  3.4546 -0.3998  1.7570
   78TMC2    H2 1219   2.348   3.088   1.819 -0.5481  0.8236  0.5752
   78TMC2    C7 1220   2.445   3.058   1.563 -0.2624  0.1331 -0.0907
   78TMC2    C8 1221   2.192   3.254   1.913 -0.4945  0.0266 -0.4447
   78TMC2    O1 1222   2.519   3.106   1.477  0.4507  0.0881 -0.2888
   78TMC2    O2 1223   2.191   3.166   1.999 -0.3615  0.1384 -0.1885
   78TMC2    O5 1224   2.143   3.376   1.933 -0.2520  0.0793 -0.0166
   78TMC2    H5 1225   2.181   3.437   1.866  0.4684  0.1417  0.4426
   79MPD1     C 1226   1.919   3.502   1.010  0.0926 -0.5053 -0.4735
   79MPD1    C1 1227   1.898   3.570   1.127 -0.7210  0.4711 -0.0085
   79MPD1    C2 1228   1.977   3.535   1.235 -0.2851  0.1783  0.0626
   79MPD1    C3 1229   2.054   3.422   1.229  0.2121  0.0009 -0.4065
   79MPD1    C4 1230   2.073   3.354   1.109  0.4975 -0.0208  0.5309
   79MPD1    C5 1231   1.999   3.390   1.004 -0.1788 -0.7378  0.0019
   79MPD1     H 1232   1.993   3.606   1.315 -1.5751  1.9731 -1.2742
   79MPD1    H1 1233   2.128   3.261   1.100  0.6826  0.2817 -1.4454
   79MPD1    H2 1234   1.862   3.526   0.921  0.0044 -1.3712 -0.6574
   79MPD1    H3 1235   2.023   3.335   0.913 -1.2009  0.0900 -0.7777
   79MPD1     N 1236   2.121   3.367   1.336 -0.1884 -0.3434  0.0234
   79MPD1    H5 1237   2.178   3.290   1.302  1.1427  1.4520 -1.8163
   79MPD1    N1 1238   1.815   3.685   1.119  0.0628 -0.9418  0.3436
   79MPD1    H6 1239   1.783   3.716   1.210 -0.2166 -1.5680  0.4586
   79MPD1    H7 1240   1.743   3.677   1.047 -0.1744 -2.1066  0.7206
   80TMC2    C1 1241   0.665   1.634  12.073  0.9165  0.0482 -1.0578
   80TMC2    C2 1242   0.664   1.735  11.977 -0.4266  0.4466  0.1419
   80TMC2    C3 1243   0.638   1.694  11.848 -0.0224  1.3871 -0.0123
   80TMC2    C4 1244   0.633   1.506  12.043 -0.1113  0.4004  0.0142
   80TMC2    C5 1245   0.630   1.467  11.911 -0.1893  0.1263  0.3462
   80TMC2    C6 1246   0.630   1.564  11.810 -0.0394 -0.2784  0.2000
   80TMC2     C 1247   0.615   1.681  12.204 -0.4260  0.4251  0.4752
   80TMC2     O 1248   0.554   1.788  12.219 -0.1849  0.3390 -0.2554
   80TMC2     H 1249   0.692   1.838  11.994  2.6424 -0.5929  1.2741
   80TMC2    H1 1250   0.620   1.439  12.128  1.7967 -0.4144 -0.3471
   80TMC2    H2 1251   0.600   1.535  11.710  0.4936  2.5626 -0.7953
   80TMC2    C7 1252   0.597   1.336  11.866 -0.2627  0.1854  0.1238
   80TMC2    C8 1253   0.649   1.789  11.743  0.2156 -0.4041 -0.7122
   80TMC2    O1 1254   0.623   1.305  11.750  0.0794 -0.7703  0.0048
   80TMC2    O2 1255   0.692   1.759  11.631 -0.0132 -0.8333  0.3443
   80TMC2    O5 1256   0.600   1.914  11.780  0.0691 -0.0575  0.2306
   80TMC2    H5 1257   0.534   1.913  11.852 -0.4377 -3.2600 -0.2925
   81MPD2     C 1258   0.630   1.464  12.505  0.0080 -0.0828  0.0184
   81MPD2    C1 1259   0.579   1.559  12.424 -0.2274  0.2732 -0.3947
   81MPD2    C2 1260   0.452   1.608  12.448 -0.2324 -0.0497 -0.1505
   81MPD2    C3 1261   0.378   1.558  12.552  0.9845  0.2782 -0.2717
   81MPD2    C4 1262   0.439   1.487  12.651 -0.2279  0.2237  0.2904
   81MPD2    C5 1263   0.559   1.431  12.619 -0.3628  0.2201  0.1357
   81MPD2     H 1264   0.407   1.680  12.381  2.0690  0.6897 -0.8973
   81MPD2    H1 1265   0.381   1.447  12.734 -0.0564 -0.3225  0.1472
   81MPD2    H2 1266   0.726   1.421  12.479  0.1302 -0.6605  1.4474
   81MPD2    H3 1267   0.594   1.353  12.686  0.0198 -0.7694 -1.2329
   81MPD2     N 1268   0.240   1.596  12.572 -0.4975 -0.0405  0.4766
   81MPD2    H5 1269   0.192   1.549  12.648 -2.7331  2.1638  0.4334
   81MPD2    N1 1270   0.648   1.587  12.303  0.3904  0.3394 -0.7377
   81MPD2    H7 1271   0.720   1.520  12.277 -0.3624 -2.2079  3.5345
   82TMC2    C1 1272   2.772   0.832  11.732 -0.3529 -0.1241 -0.2053
   82TMC2    C2 1273   2.774   0.868  11.862  0.4325 -0.0696 -0.4200
   82TMC2    C3 1274   2.761   0.776  11.956 -0.3476 -0.0682 -0.0504
   82TMC2    C4 1275   2.724   0.710  11.694  0.3219 -0.5796 -0.8672
   82TMC2    C5 1276   2.698   0.623  11.796  0.3864 -0.3292  0.4054
   82TMC2    C6 1277   2.717   0.651  11.926  0.0071  0.4705 -0.2783
   82TMC2     C 1278   2.777   0.939  11.625 -0.1998 -0.2686  0.6105
   82TMC2     O 1279   2.734   0.913  11.515 -0.0974 -0.0287 -0.8803
   82TMC2     H 1280   2.782   0.972  11.892  1.3803 -0.6134  1.1913
   82TMC2    H1 1281   2.715   0.685  11.589  1.5589  1.6018 -1.4827
   82TMC2    H2 1282   2.712   0.576  12.004 -1.7623 -0.2155 -1.0360
   82TMC2    C7 1283   2.673   0.486  11.764  0.0735 -0.6448  0.2734
   82TMC2    C8 1284   2.736   0.823  12.090 -0.7263 -0.3762  0.4178
   82TMC2    O1 1285   2.656   0.411  11.854  0.1378 -0.4635  0.4632
   82TMC2    O2 1286   2.678   0.744  12.168  0.2620 -0.3598  0.3074
   82TMC2    O5 1287   2.807   0.935  12.125  0.0465  0.3241 -0.4032
   82TMC2    H5 1288   2.863   0.986  12.063  0.7949 -1.1625 -0.9470
   83MPD2     C 1289   2.847   1.444  11.468  0.0260  0.4088  0.2798
   83MPD2    C1 1290   2.775   1.338  11.416 -0.5943  0.2601 -0.3722
   83MPD2    C2 1291   2.773   1.209  11.477 -0.2231 -0.0045  0.2926
   83MPD2    C3 1292   2.824   1.187  11.604 -0.4655  0.6073 -0.2157
   83MPD2    C4 1293   2.900   1.290  11.654 -0.0721  0.3434 -0.6941
   83MPD2    C5 1294   2.909   1.416  11.592 -0.0304  0.1104 -0.4072
   83MPD2     H 1295   2.725   1.123  11.433 -1.4579  0.2060  1.2245
   83MPD2    H1 1296   2.962   1.281  11.742 -0.3278 -1.4035 -0.7022
   83MPD2    H2 1297   2.849   1.538  11.416 -1.5218  0.4148  0.2344
   83MPD2    H3 1298   2.959   1.499  11.641  0.1228 -0.9725  1.2739
   83MPD2     N 1299   2.816   1.062  11.676 -0.2238 -0.5289 -0.0476
   83MPD2    H5 1300   2.863   1.073  11.765  1.8372  2.7079 -1.5173
   83MPD2    N1 1301   2.721   1.355  11.282 -0.0233 -0.0433  0.3903
   83MPD2    H7 1302   2.733   1.442  11.232 -1.7217  0.3939  0.7361
   84TMC2    C1 1303   3.608   1.776  11.727  0.5355  0.7019  0.3342
   84TMC2    C2 1304   3.686   1.880  11.693  0.0328 -0.3648  0.3751
   84TMC2    C3 1305   3.822   1.856  11.698  0.3332  0.0050  0.0268
   84TMC2    C4 1306   3.655   1.658  11.776 -0.7216 -0.1896  0.6584
   84TMC2    C5 1307   3.790   1.643  11.777  0.5335 -0.1605  0.0530
   84TMC2    C6 1308   3.874   1.736  11.733  0.3201  0.6013  0.3908
   84TMC2     C 1309   3.472   1.786  11.667  0.1434 -0.2832 -0.2246
   84TMC2     O 1310   3.430   1.901  11.639 -0.0120  0.5800  0.4290
   84TMC2     H 1311   3.651   1.969  11.642  1.7575  1.7714  2.9157
   84TMC2    H1 1312   3.595   1.572  11.803 -1.9714  0.7798  0.9379
   84TMC2    H2 1313   3.982   1.728  11.741  0.1263 -1.6026  0.8073
   84TMC2    C7 1314   3.836   1.512  11.824 -0.4932  0.1244  0.4944
   84TMC2    C8 1315   3.896   1.970  11.739  0.3609  0.2440 -0.1133
   84TMC2    O1 1316   3.765   1.452  11.904  0.2119  0.2010  0.1838
   84TMC2    O2 1317   3.994   1.959  11.810  0.1722 -0.1352  0.5833
   84TMC2    O5 1318   3.908   2.029  11.618 -0.1392 -0.4981 -0.1414
   84TMC2    H5 1319   3.836   2.053  11.555  0.8964  2.2472 -0.2419
   85TMC2    C1 1320   0.819   3.016  16.361  0.5806 -0.9206  0.8184
   85TMC2    C2 1321   0.860   3.096  16.466 -0.2265 -0.3238  0.1368
   85TMC2    C3 1322   0.929   3.209  16.443  0.6052 -0.1463  0.2108
   85TMC2    C4 1323   0.844   3.054  16.232 -0.0461  0.3355  0.1305
   85TMC2    C5 1324   0.919   3.167  16.211 -0.1524 -0.2148  0.6357
   85TMC2    C6 1325   0.949   3.254  16.313 -0.4477 -0.3518  0.8365
   85TMC2     C 1326   0.753   2.893  16.404  0.2177 -0.2974  0.2939
   85TMC2     O 1327   0.776   2.865  16.520 -0.0531 -0.6616  0.2829
   85TMC2     H 1328   0.833   3.078  16.570 -2.1282  0.3085 -0.2532
   85TMC2    H1 1329   0.811   3.000  16.143 -0.4756  1.1991 -0.2331
   85TMC2    H2 1330   0.995   3.352  16.310  1.3097 -1.1964  0.4647
   85TMC2    C7 1331   0.934   3.222  16.073  0.4345  0.3218 -0.3135
   85TMC2    C8 1332   0.910   3.309  16.546 -0.2495  0.3842  0.1225
   85TMC2    O1 1333   0.878   3.157  15.985 -0.4990 -0.2420  0.1592
   85TMC2    O2 1334   0.862   3.414  16.502  0.3420 -0.0212  0.0653
   85TMC2    O5 1335   1.028   3.306  16.613  0.2104  0.0919  0.0945
   85TMC2    H5 1336   1.057   3.213  16.601  0.6779  0.1934  0.4427
   86MPD2     C 1337   0.391   2.538  16.404 -0.0057  0.1361 -0.2449
   86MPD2    C1 1338   0.417   2.576  16.278 -1.0640 -0.1533  0.4367
   86MPD2    C2 1339   0.514   2.666  16.246  0.0628 -0.1962  0.0074
   86MPD2    C3 1340   0.568   2.737  16.348 -0.0261  0.1437  0.4696
   86MPD2    C4 1341   0.548   2.697  16.475  0.8418  0.6008 -0.2892
   86MPD2    C5 1342   0.459   2.595  16.508  0.0312  0.2882  0.2946
   86MPD2     H 1343   0.540   2.700  16.146 -4.9670 -0.8189 -1.5253
   86MPD2    H1 1344   0.604   2.754  16.548  1.3494 -0.0585 -0.1612
   86MPD2    H2 1345   0.321   2.462  16.436  0.1589 -0.4360 -1.2545
   86MPD2    H3 1346   0.450   2.571  16.613  0.0183  1.3263  0.5205
   86MPD2     N 1347   0.665   2.835  16.316  0.1757  0.6360 -0.4299
   86MPD2    H5 1348   0.675   2.861  16.218  1.8011  0.7942 -0.2201
   86MPD2    N1 1349   0.339   2.517  16.170 -0.3819  0.2323  0.7261
   86MPD2    H7 1350   0.372   2.503  16.075 -1.3044 -0.6425  0.5338
   87TMC2    C1 1351   2.933   1.779   1.315 -0.1890  0.0893 -1.0673
   87TMC2    C2 1352   3.006   1.761   1.431  1.1148  0.2017 -0.2389
   87TMC2    C3 1353   2.925   1.779   1.547  0.0979 -0.2485 -0.0422
   87TMC2    C4 1354   2.808   1.837   1.311 -0.5528  0.1140 -0.3249
   87TMC2    C5 1355   2.741   1.856   1.431 -0.1330 -0.4265 -0.9156
   87TMC2    C6 1356   2.794   1.822   1.552 -0.0627  0.7132  0.0212
   87TMC2     C 1357   3.011   1.775   1.194 -0.4545  0.5352 -0.1587
   87TMC2     O 1358   2.947   1.752   1.088  0.4379 -0.4607  0.1454
   87TMC2     H 1359   3.105   1.719   1.445  1.9100  0.5490 -4.8164
   87TMC2    H1 1360   2.764   1.842   1.212  2.7755 -2.1217 -1.9497
   87TMC2    H2 1361   2.743   1.811   1.647  0.4678 -0.3527  0.1738
   87TMC2    C7 1362   2.630   1.945   1.429  0.2077  0.2917 -0.2246
   87TMC2    C8 1363   2.975   1.738   1.677  0.4348  0.4272  0.4858
   87TMC2    O1 1364   2.611   2.003   1.322  0.0190 -0.2878 -0.0656
   87TMC2    O2 1365   2.901   1.697   1.767  0.0840 -0.1228 -0.5324
   87TMC2    O5 1366   3.106   1.756   1.689 -0.3417 -0.3330  0.3207
   87TMC2    H5 1367   3.152   1.800   1.614  0.7204  0.3255  1.3526
   88MPD2     C 1368   2.408   2.036   1.704 -0.8185 -0.1943 -0.1715
   88MPD2    C1 1369   2.489   2.056   1.594 -0.7343 -0.4636 -0.5860
   88MPD2    C2 1370   2.498   2.183   1.539  0.0560  0.1051  0.3084
   88MPD2    C3 1371   2.418   2.285   1.585  0.1993  0.6407  0.4736
   88MPD2    C4 1372   2.336   2.263   1.689 -0.0767 -0.4977 -0.8550
   88MPD2    C5 1373   2.329   2.136   1.752 -0.2772  0.6604  0.1847
   88MPD2     H 1374   2.570   2.202   1.461 -1.3389 -0.3303 -1.0662
   88MPD2    H1 1375   2.278   2.346   1.727  0.9982  0.5886 -1.5808
   88MPD2    H2 1376   2.402   1.938   1.749  0.4260 -0.8464 -1.4455
   88MPD2    H3 1377   2.273   2.126   1.845  0.5362 -0.9800  0.4934
   88MPD2     N 1378   2.432   2.415   1.537 -0.1014 -0.1368  0.4619
   88MPD2    H5 1379   2.369   2.482   1.580  0.3957  0.3876  0.3820
   88MPD2    N1 1380   2.562   1.943   1.551  0.2224  0.3501 -0.3318
   88MPD2    H7 1381   2.566   1.853   1.597  2.7990 -0.6685 -2.5960
   89TMC2    C1 1382   3.904   4.368   1.540 -0.0485 -0.7102 -0.0809
   89TMC2    C2 1383   4.029   4.415   1.566 -1.1474 -1.0723  0.3935
   89TMC2    C3 1384   4.093   4.493   1.472  0.0463  0.2549 -0.2958
   89TMC2    C4 1385   3.846   4.380   1.421 -0.4118  0.1941 -0.3439
   89TMC2    C5 1386   3.899   4.474   1.336  0.6202  0.5844  0.5576
   89TMC2    C6 1387   4.020   4.536   1.368  0.4282  0.0456 -0.9071
   89TMC2     C 1388   3.855   4.270   1.632  0.0160  0.0298  0.7470
   89TMC2     O 1389   3.929   4.200   1.700 -0.1524  0.1501  0.3297
   89TMC2     H 1390   4.085   4.402   1.658  0.2899  0.4581 -0.2623
   89TMC2    H1 1391   3.744   4.345   1.409 -0.2155 -0.1494 -1.0277
   89TMC2    H2 1392   4.059   4.612   1.300 -0.4491 -0.1286 -1.5986
   89TMC2    C7 1393   3.828   4.507   1.208 -0.5597 -0.7993  0.0842
   89TMC2    C8 1394   4.218   4.551   1.517 -0.6244 -0.6854 -0.3414
   89TMC2    O1 1395   3.731   4.438   1.172 -0.0196  0.0173  0.3886
   89TMC2    O2 1396   4.269   4.533   1.627  0.0710 -0.1380 -0.1394
   89TMC2    O5 1397   4.288   4.580   1.411  0.2881  0.3697  0.2195
   89TMC2    H5 1398   4.248   4.554   1.325 -1.6853 -2.7260  2.1095
   90MPD2     C 1399   3.485   4.042   1.919  0.4207  0.2057 -0.0415
   90MPD2    C1 1400   3.424   4.104   1.814 -0.1200  0.2830  0.1740
   90MPD2    C2 1401   3.505   4.171   1.716  1.1037 -0.7203  1.1521
   90MPD2    C3 1402   3.640   4.182   1.725  0.3318 -0.0977  0.6780
   90MPD2    C4 1403   3.702   4.114   1.834 -0.3267 -0.7594  0.1525
   90MPD2    C5 1404   3.621   4.049   1.924  0.9551  0.1745  0.0779
   90MPD2     H 1405   3.453   4.214   1.631 -1.0578  1.1438  3.4300
   90MPD2    H1 1406   3.807   4.124   1.860 -0.2567  2.2844 -1.2766
   90MPD2    H2 1407   3.433   3.985   1.996 -1.1076 -0.2165 -1.3880
   90MPD2    H3 1408   3.667   4.007   2.013  1.8809 -2.8225 -1.8308
   90MPD2     N 1409   3.718   4.259   1.630  0.6354  0.4165  0.1174
   90MPD2    H5 1410   3.665   4.312   1.563  3.1469 -0.3211 -2.4641
   90MPD2    N1 1411   3.281   4.123   1.807 -0.2869  0.0630 -0.8054
   90MPD2    H7 1412   3.246   4.180   1.730 -0.1196 -0.8614 -1.5716
   91TMC2    C1 1413   0.418   4.192  16.399 -0.4561 -0.1612  0.4741
   91TMC2    C2 1414   0.425   4.278  16.500 -0.5798 -0.0950  0.0390
   91TMC2    C3 1415   0.336   4.254  16.599 -0.2378 -0.2443  0.2189
   91TMC2    C4 1416   0.334   4.088  16.392 -0.0187  0.3198 -0.3795
   91TMC2    C5 1417   0.263   4.058  16.507 -0.5173 -0.0570  0.0030
   91TMC2    C6 1418   0.259   4.143  16.614 -0.6594  0.0792 -0.3891
   91TMC2     C 1419   0.492   4.228  16.278  0.2845 -0.1913  0.3661
   91TMC2     O 1420   0.442   4.204  16.172 -0.0834 -0.2538 -0.1537
   91TMC2     H 1421   0.480   4.372  16.498  0.2716 -0.5764  1.0526
   91TMC2    H1 1422   0.349   4.026  16.305 -1.6000  0.9587 -1.0974
   91TMC2    H2 1423   0.205   4.118  16.704  1.4951  0.0921  0.9008
   91TMC2    C7 1424   0.180   3.939  16.512 -0.5257 -0.0488  0.9550
   91TMC2    C8 1425   0.351   4.342  16.716  0.8614 -0.3276 -0.2249
   91TMC2    O1 1426   0.128   3.913  16.620  0.3956  0.4474  0.6186
   91TMC2    O2 1427   0.446   4.415  16.728  0.5183 -0.0469 -0.0856
   91TMC2    O5 1428   0.237   4.333  16.794 -0.4554 -0.2036 -0.1948
   91TMC2    H5 1429   0.158   4.293  16.753 -0.9623  0.3324  0.2490
   92MPD2     C 1430   0.634   4.400  16.075  0.0948 -0.1861 -0.5749
   92MPD2    C1 1431   0.679   4.374  16.205 -0.2849  0.1723 -0.0655
   92MPD2    C2 1432   0.803   4.412  16.236 -0.6243 -0.0941 -0.4495
   92MPD2    C3 1433   0.878   4.497  16.150 -0.4041 -0.1573 -0.2275
   92MPD2    C4 1434   0.834   4.528  16.027  0.6659  0.5020  0.2068
   92MPD2    C5 1435   0.713   4.476  15.991 -0.1006  0.3532  0.2391
   92MPD2     H 1436   0.858   4.379  16.323 -4.3481  0.0675  1.9651
   92MPD2    H1 1437   0.895   4.586  15.958 -0.3497  3.1956  1.5589
   92MPD2    H2 1438   0.541   4.360  16.036  1.1065 -2.2891 -0.7878
   92MPD2    H3 1439   0.693   4.492  15.886  0.5235  0.8694  0.1982
   92MPD2     N 1440   1.013   4.523  16.186  0.0098 -0.3490  0.2917
   92MPD2    H5 1441   1.049   4.487  16.274 -0.9746 -1.8052  0.0946
   92MPD2    N1 1442   0.610   4.298  16.300 -0.1762  0.7179  0.2369
   92MPD2    H7 1443   0.639   4.295  16.397 -1.6664  0.2866  0.6834
   93TMC2    C1 1444   2.545   3.830  13.690 -0.0942  0.8216  0.3087
   93TMC2    C2 1445   2.456   3.835  13.589 -0.4773 -0.2468  0.2866
   93TMC2    C3 1446   2.487   3.899  13.469 -0.2002  0.2742  0.6517
   93TMC2    C4 1447   2.669   3.889  13.680 -0.6569  0.1516  0.5197
   93TMC2    C5 1448   2.691   3.967  13.568  0.4593 -0.0709  0.1591
   93TMC2    C6 1449   2.607   3.963  13.457  0.7005 -0.0461 -0.1772
   93TMC2     C 1450   2.515   3.778  13.821  0.4994 -0.4643 -0.0874
   93TMC2     O 1451   2.611   3.730  13.887  0.5374  0.6898  0.0493
   93TMC2     H 1452   2.360   3.790  13.613 -2.0218  1.2369 -3.1219
   93TMC2    H1 1453   2.738   3.894  13.764  0.6504  1.3757 -0.6405
   93TMC2    H2 1454   2.610   4.033  13.375 -0.9525 -0.5372 -0.6465
   93TMC2    C7 1455   2.805   4.061  13.571  0.3699 -0.1780  0.1190
   93TMC2    C8 1456   2.375   3.930  13.374 -0.1938 -0.5494 -0.1739
   93TMC2    O1 1457   2.891   4.030  13.647  0.3300 -0.2660 -0.0914
   93TMC2    O2 1458   2.384   4.013  13.290  0.0615  0.7441 -0.1043
   93TMC2    O5 1459   2.296   3.821  13.364 -1.0185 -0.1187  0.1645
   93TMC2    H5 1460   2.314   3.755  13.435  1.7550  0.0047 -0.3937
   94MPD2     C 1461   2.393   3.659  14.059 -0.2036  0.2189 -0.2861
   94MPD2    C1 1462   2.324   3.740  13.969 -0.5880  0.6094 -0.0692
   94MPD2    C2 1463   2.190   3.769  13.996 -0.1891  0.3995  0.1694
   94MPD2    C3 1464   2.123   3.711  14.100 -0.9316  0.7708  0.5383
   94MPD2    C4 1465   2.196   3.629  14.186  0.8987 -0.6593  0.1438
   94MPD2    C5 1466   2.330   3.603  14.168 -0.0280 -0.2449 -0.0758
   94MPD2     H 1467   2.142   3.822  13.915  1.3670  1.0465 -0.3369
   94MPD2    H1 1468   2.146   3.581  14.269 -0.7291  1.5252  0.4430
   94MPD2    H2 1469   2.499   3.637  14.051  0.0597  1.4421 -0.1844
   94MPD2    H3 1470   2.391   3.534  14.225 -0.0211 -1.1507 -1.1786
   94MPD2     N 1471   1.987   3.708  14.121  0.6004  0.6023  0.9464
   94MPD2    H5 1472   1.944   3.655  14.196 -1.9258 -1.3370 -1.8774
   94MPD2    N1 1473   2.384   3.782  13.843 -0.1908  0.3019  0.8759
   94MPD2    H7 1474   2.329   3.836  13.777 -1.4838 -0.5219  1.2967
   95TMC2    C1 1475   2.125   1.075  16.035 -0.2016 -0.1068 -0.3861
   95TMC2    C2 1476   2.018   1.009  15.985 -0.0537  0.7012  0.0891
   95TMC2    C3 1477   1.905   1.007  16.053 -0.1044  0.7303 -0.5892
   95TMC2    C4 1478   2.117   1.152  16.150 -0.0150  0.0660  0.3693
   95TMC2    C5 1479   1.997   1.146  16.218  0.2776  1.0602  0.1876
   95TMC2    C6 1480   1.890   1.081  16.174 -0.7300  0.6691  0.0524
   95TMC2     C 1481   2.256   1.056  15.972  0.2718 -0.2620  0.8280
   95TMC2     O 1482   2.335   1.148  15.982  0.0652  0.3671  0.4797
   95TMC2     H 1483   2.032   0.945  15.899  0.8462 -1.0179  1.5285
   95TMC2    H1 1484   2.206   1.203  16.184  0.3100  1.1644 -2.1619
   95TMC2    H2 1485   1.795   1.102  16.222 -1.2235  2.3375 -1.6846
   95TMC2    C7 1486   2.001   1.197  16.349  0.6149 -0.0541 -0.4380
   95TMC2    C8 1487   1.796   0.951  15.978  0.5058  0.0229 -0.0919
   95TMC2    O1 1488   1.902   1.267  16.375  0.2018  0.5049  0.3727
   95TMC2    O2 1489   1.785   0.970  15.859 -0.2840  0.0925 -0.0543
   95TMC2    O5 1490   1.693   0.961  16.067  0.4582  0.5579 -0.5978
   95TMC2    H5 1491   1.719   0.941  16.160  4.6420 -1.9433 -2.2944
   96MPD2     C 1492   2.580   0.703  15.756  0.0147 -1.0987 -0.2201
   96MPD2    C1 1493   2.590   0.838  15.775  0.3292 -0.8148  0.1900
   96MPD2    C2 1494   2.496   0.917  15.831 -0.0890 -0.1503  0.1210
   96MPD2    C3 1495   2.378   0.857  15.880 -0.6878  0.8471 -0.4872
   96MPD2    C4 1496   2.369   0.724  15.858 -0.4197  0.5532 -0.4318
   96MPD2    C5 1497   2.461   0.652  15.792 -0.2912 -0.1086 -0.1947
   96MPD2     H 1498   2.514   1.023  15.847 -2.2921  0.1614  0.5126
   96MPD2    H1 1499   2.282   0.670  15.894  0.9632 -2.1738 -1.1108
   96MPD2    H2 1500   2.653   0.636  15.712  1.9497  0.8325  0.0358
   96MPD2    H3 1501   2.444   0.548  15.764 -0.5893  0.0634 -0.6587
   96MPD2     N 1502   2.264   0.927  15.930  0.0302  0.1537  0.6058
   96MPD2    H5 1503   2.189   0.865  15.960 -0.8125  0.8481 -0.0716
   96MPD2    N1 1504   2.715   0.890  15.743 -0.4220  0.7229  0.5495
   96MPD2    H7 1505   2.789   0.826  15.715 -0.5850  1.3269 -1.2497
   97TMC2    C1 1506   4.733   4.085   0.076  0.0090  0.4177  0.0788
   97TMC2    C2 1507   4.680   4.082  17.697  0.0891  0.1072 -0.1674
   97TMC2    C3 1508   4.671   4.203  17.637 -0.0425  0.0854 -0.1439
   97TMC2    C4 1509   0.041   4.197   0.141  0.1594  1.0684 -0.8186
   97TMC2    C5 1510   0.028   4.316   0.074 -0.1639 -0.0126 -0.7355
   97TMC2    C6 1511   4.711   4.321  17.692 -0.2520 -0.1607 -0.1764
   97TMC2     C 1512   0.013   3.966   0.149 -0.6713 -0.0393  0.2445
   97TMC2     O 1513   4.714   3.963   0.267  0.1123 -0.1063 -0.1592
   97TMC2     H 1514   4.614   4.002  17.665  1.5656 -1.2355  0.1242
   97TMC2    H1 1515   0.087   4.191   0.240  1.7120 -1.5069 -1.6810
   97TMC2    H2 1516   4.706   4.413  17.635 -0.1170 -0.8296 -1.2671
   97TMC2    C7 1517   0.087   4.436   0.134  0.7289 -0.1054 -0.1225
   97TMC2    C8 1518   4.610   4.208  17.505  0.1375 -0.0746 -0.7952
   97TMC2    O1 1519   0.170   4.417   0.215 -0.2192  0.1116  0.3140
   97TMC2    O2 1520   4.544   4.303  17.462  0.1563  0.4764 -0.1611
   97TMC2    O5 1521   4.667   4.112  17.426 -0.2078  0.8227 -0.4998
   97TMC2    H5 1522   4.703   4.034  17.474 -0.6476  0.9896  0.0992
   98MPD2     C 1523   4.660   3.468   0.085  0.9092 -0.8263  0.8756
   98MPD2    C1 1524   4.629   3.550   0.190  0.0191 -0.3161  0.7088
   98MPD2    C2 1525   4.673   3.675   0.184 -0.7888  0.4142  0.6912
   98MPD2    C3 1526   0.013   3.725   0.077  0.2554  0.4893  0.1415
   98MPD2    C4 1527   0.041   3.641  17.714 -0.0768 -0.2044 -0.1955
   98MPD2    C5 1528   4.731   3.512  17.719 -1.1291  0.5952 -0.2637
   98MPD2     H 1529   4.653   3.745   0.264  0.6121  0.0533  1.3516
   98MPD2    H1 1530   0.090   3.676  17.624 -0.7140 -0.4169 -0.6231
   98MPD2    H2 1531   4.616   3.369   0.077  0.5735 -0.5798 -0.3286
   98MPD2    H3 1532   0.025   3.447  17.637 -1.0672  1.9111 -1.2853
   98MPD2     N 1533   0.037   3.867   0.059  0.2078  0.2776  0.6745
   98MPD2    H5 1534   0.071   3.905  17.713 -0.0287  2.0235  1.3285
   98MPD2    N1 1535   4.545   3.500   0.296  0.1871 -0.0439  0.1028
   98MPD2    H7 1536   4.533   3.400   0.300 -0.7331  0.1134  1.0461
   99TMC2    C1 1537   2.987   4.609   2.407  0.1187 -0.4677 -0.1460
   99TMC2    C2 1538   3.008   4.590   2.540 -0.0744 -0.0656 -0.4645
   99TMC2    C3 1539   2.909   4.615   2.627 -0.0784 -0.1831 -0.0617
   99TMC2    C4 1540   2.866   4.648   2.363  0.4155  0.5885 -0.0275
   99TMC2    C5 1541   2.764   4.667   2.455 -0.0552 -0.5942  0.6891
   99TMC2    C6 1542   2.786   4.652   2.589 -0.2439 -0.3326  0.1096
   99TMC2     C 1543   3.089   4.565   2.314 -0.1256  0.5156 -0.3758
   99TMC2     O 1544   3.181   4.505   2.372 -0.0713  0.5858  0.6050
   99TMC2     H 1545   3.100   4.549   2.579  0.7855  1.8002 -0.5438
   99TMC2    H1 1546   2.849   4.670   2.258  0.0403 -0.7891 -0.2539
   99TMC2    H2 1547   2.717   4.677   2.668  2.0513  1.2320  1.6258
   99TMC2    C7 1548   2.634   4.725   2.421  0.2696 -0.0950 -0.5379
   99TMC2    C8 1549   2.915   4.548   2.754  0.0300  0.1701 -0.4592
   99TMC2    O1 1550   2.566   0.042   2.509 -0.4784  0.7450  0.7656
   99TMC2    O2 1551   3.027   4.521   2.790  0.1775  0.4230 -0.6167
   99TMC2    O5 1552   2.811   4.469   2.778  0.4202  0.5435 -0.1677
   99TMC2    H5 1553   2.736   4.487   2.718 -0.0592  0.6223  0.4538
  100MPD2     C 1554   3.240   4.451   2.081 -0.3686  0.5656 -0.2882
  100MPD2    C1 1555   3.132   4.535   2.071  0.3886 -0.9991 -0.4663
  100MPD2    C2 1556   3.099   4.574   1.941  0.5998 -0.3076  0.7118
  100MPD2    C3 1557   3.176   4.538   1.832 -0.1503  0.1536  0.1699
  100MPD2    C4 1558   3.283   4.456   1.852  0.4362 -1.0476 -0.0600
  100MPD2    C5 1559   3.314   4.416   1.976  0.2300  0.3118  0.6928
  100MPD2     H 1560   3.009   4.632   1.927  0.5908 -0.5711 -0.3778
  100MPD2    H1 1561   3.342   4.427   1.767  2.5826 -0.8371  1.3486
  100MPD2    H2 1562   3.267   4.400   2.173 -0.3483  2.5332  0.7865
  100MPD2    H3 1563   3.389   4.340   1.995  0.0441 -0.1040 -0.2137
  100MPD2     N 1564   3.146   4.578   1.704  0.7760 -0.2902  0.0371
  100MPD2    H5 1565   3.096   4.666   1.694  0.4348 -0.6230 -1.1385
  100MPD2    N1 1566   3.054   4.575   2.180 -0.1084  0.2635  0.6448
  100MPD2    H7 1567   2.970   4.622   2.148  0.1150 -1.4793 -2.5631
  101TMC2    C1 1568   3.519   1.934  12.867  0.1222 -0.1420 -0.9506
  101TMC2    C2 1569   3.415   2.009  12.828  0.4313 -0.0556  0.3722
  101TMC2    C3 1570   3.431   2.120  12.748 -0.2519 -0.0194  0.8109
  101TMC2    C4 1571   3.644   1.976  12.830  0.1430  0.0214  0.2544
  101TMC2    C5 1572   3.662   2.095  12.759  0.2053  0.3803  0.4664
  101TMC2    C6 1573   3.556   2.167  12.715  0.1377  0.1423  0.9091
  101TMC2     C 1574   3.489   1.807  12.935 -1.0672  0.3994 -0.0904
  101TMC2     O 1575   3.387   1.814  13.004 -0.3677 -0.4849 -0.1238
  101TMC2     H 1576   3.315   1.968  12.839  0.3384  0.4388  1.4494
  101TMC2    H1 1577   3.735   1.919  12.849 -1.8685 -3.2502  0.0535
  101TMC2    H2 1578   3.557   2.250  12.646  1.5952 -0.0414  0.7095
  101TMC2    C7 1579   3.803   2.114  12.708  0.1995 -0.8363  0.1593
  101TMC2    C8 1580   3.321   2.218  12.733 -0.4337  0.5350  0.0612
  101TMC2    O1 1581   3.883   2.026  12.718 -0.1946 -0.4161 -0.1300
  101TMC2    O2 1582   3.324   2.295  12.634 -0.0510 -0.0026 -0.1082
  101TMC2    O5 1583   3.265   2.238  12.849  0.3151  0.7312  0.1534
  101TMC2    H5 1584   3.287   2.174  12.920 -2.7138  0.0764  0.4985
  102MPD2     C 1585   3.717   1.513  12.987  0.4998  0.3315  0.0642
  102MPD2    C1 1586   3.612   1.598  13.015  0.0438  0.0824 -0.0231
  102MPD2    C2 1587   3.518   1.554  13.107 -0.0112 -0.0246  0.2276
  102MPD2    C3 1588   3.544   1.445  13.185  0.0811  0.7198 -0.1516
  102MPD2    C4 1589   3.657   1.364  13.155  0.2221 -0.1403 -0.0926
  102MPD2    C5 1590   3.736   1.405  13.057  0.4750 -0.5549 -0.1121
  102MPD2     H 1591   3.430   1.609  13.139 -0.6389 -1.3456  0.7936
  102MPD2    H1 1592   3.686   1.277  13.212  0.2568 -0.5403 -0.7196
  102MPD2    H2 1593   3.799   1.534  12.919 -1.1210  1.0988 -1.6559
  102MPD2    H3 1594   3.818   1.341  13.028  0.3509  0.3931 -2.5241
  102MPD2     N 1595   3.448   1.415  13.284  0.3150  0.1386  0.2752
  102MPD2    H5 1596   3.363   1.469  13.273  2.0016  2.5140 -1.3230
  102MPD2    N1 1597   3.598   1.718  12.943 -0.6614  0.6269  0.5350
  102MPD2    H7 1598   3.688   1.739  12.902 -2.5702  0.1386 -3.9642
  103TMC2    C1 1599   1.823   1.849  12.818  0.2945  0.9909  0.1065
  103TMC2    C2 1600   1.915   1.932  12.770 -0.3601  0.5793  0.1921
  103TMC2    C3 1601   1.995   1.999  12.863 -0.6168  0.1625  0.0531
  103TMC2    C4 1602   1.793   1.838  12.952  0.0742 -0.1448  0.0565
  103TMC2    C5 1603   1.862   1.915  13.041  0.5684 -0.2316  0.4676
  103TMC2    C6 1604   1.966   1.994  12.997  0.0462  0.1202 -0.6888
  103TMC2     C 1605   1.756   1.771  12.715 -0.4983  0.1019  0.0362
  103TMC2     O 1606   1.723   1.834  12.616  0.3536  0.1053  0.0627
  103TMC2     H 1607   1.937   1.936  12.664 -1.2468 -6.3198 -0.2463
  103TMC2    H1 1608   1.721   1.770  12.997  0.0111  0.1203  0.3522
  103TMC2    H2 1609   2.029   2.041  13.073  0.5954  0.6050 -1.4410
  103TMC2    C7 1610   1.844   1.900  13.181  0.3976  0.2238  0.5796
  103TMC2    C8 1611   2.085   2.108  12.815 -0.4031 -0.1892  0.3865
  103TMC2    O1 1612   1.943   1.903  13.259 -0.2807 -0.0002  0.2532
  103TMC2    O2 1613   2.100   2.206  12.882 -0.0856 -0.4743 -0.1620
  103TMC2    O5 1614   2.126   2.088  12.687 -0.1766 -0.4364 -0.3136
  103TMC2    H5 1615   2.117   1.992  12.669 -2.5716 -0.5021  1.3632
  104MPD2     C 1616   1.599   1.444  12.758  0.3577  0.3362  0.3364
  104MPD2    C1 1617   1.642   1.551  12.691 -0.3677  0.0233  0.0533
  104MPD2    C2 1618   1.603   1.564  12.555 -0.1048  0.2405 -0.6854
  104MPD2    C3 1619   1.521   1.467  12.498 -0.8028  1.1841  0.2411
  104MPD2    C4 1620   1.488   1.354  12.569 -0.4591  0.6764  0.1161
  104MPD2    C5 1621   1.528   1.340  12.699  0.0804 -0.0226 -0.4020
  104MPD2     H 1622   1.629   1.654  12.501 -1.2174  0.6002 -0.6304
  104MPD2    H1 1623   1.422   1.276  12.532  1.3476 -0.2226 -1.1941
  104MPD2    H2 1624   1.622   1.426  12.862 -0.9335  0.4545  0.6322
  104MPD2    H3 1625   1.499   1.256  12.761 -0.2381  1.4440  1.4536
  104MPD2     N 1626   1.484   1.477  12.360  0.1039 -0.5279 -0.1891
  104MPD2    H5 1627   1.516   1.558  12.307  1.1729 -0.0636  1.1639
  104MPD2    N1 1628   1.720   1.647  12.759  0.2824  0.1149 -0.1366
  104MPD2    H7 1629   1.759   1.619  12.848 -1.5169 -1.2856  0.2338
  105TMC2    C1 1630   3.385   1.425   0.410  0.2897  0.0711 -0.0633
  105TMC2    C2 1631   3.286   1.491   0.336  0.0237  0.1904 -0.6324
  105TMC2    C3 1632   3.222   1.592   0.397  0.0049 -0.2901  0.2467
  105TMC2    C4 1633   3.424   1.473   0.530 -0.2645  0.1581 -0.4438
  105TMC2    C5 1634   3.358   1.582   0.584 -0.0545  0.1165  0.0243
  105TMC2    C6 1635   3.254   1.643   0.521 -0.5643  0.2501  0.6665
  105TMC2     C 1636   3.482   1.338   0.346 -0.4700 -0.5994 -0.0549
  105TMC2     O 1637   3.556   1.278   0.423 -0.5068  0.4059  0.4467
  105TMC2     H 1638   3.244   1.455   0.243 -0.3019 -3.2153  0.8186
  105TMC2    H1 1639   3.507   1.425   0.582 -0.6474 -0.1639 -0.1302
  105TMC2    H2 1640   3.212   1.730   0.572  0.1095  0.9729 -0.0118
  105TMC2    C7 1641   3.423   1.642   0.699 -0.6408 -0.6235 -0.4051
  105TMC2    C8 1642   3.182   1.690   0.306  0.6120  0.4262 -0.1344
  105TMC2    O1 1643   3.540   1.672   0.696 -1.1379 -0.2529  0.6608
  105TMC2    O2 1644   3.242   1.686   0.198 -0.4987 -0.0505 -0.1012
  105TMC2    O5 1645   3.052   1.721   0.321  0.2771 -0.2508  0.3792
  105TMC2    H5 1646   3.020   1.698   0.411  1.8206 -4.8959 -0.2654
  106MPD2     C 1647   3.658   1.081  17.675  0.0484  0.0167 -0.1749
  106MPD2    C1 1648   3.600   1.199  17.628  0.4605  0.1488 -0.4006
  106MPD2    C2 1649   3.537   1.286  17.718  0.3473 -0.2803  0.3879
  106MPD2    C3 1650   3.533   1.252   0.116 -0.0372 -0.0745 -0.8954
  106MPD2    C4 1651   3.601   1.136   0.158  0.4300 -0.8015 -0.3023
  106MPD2    C5 1652   3.672   1.062   0.070 -0.7806  0.2281 -0.7809
  106MPD2     H 1653   3.496   1.377  17.677  1.1837 -0.1465 -0.1590
  106MPD2    H1 1654   3.627   1.109   0.259 -0.2961 -1.9982 -0.4333
  106MPD2    H2 1655   3.719   1.014  17.615 -2.2544 -0.8337 -1.5444
  106MPD2    H3 1656   3.719   0.975   0.114 -0.9728  0.8041  0.5651
  106MPD2     N 1657   3.473   1.340   0.209  0.0287 -0.3200  0.4546
  106MPD2    H5 1658   3.412   1.411   0.170 -2.4553 -1.2704  2.6260
  106MPD2    N1 1659   3.599   1.237  17.493  0.5731  0.3300  0.0568
  106MPD2    H7 1660   3.553   1.326  17.477 -1.2959 -0.3340  1.7474
  107TMC2    C1 1661   3.049   0.982  11.329 -0.0114  0.2996 -0.8324
  107TMC2    C2 1662   2.952   0.938  11.238 -0.1902 -0.0346  0.2520
  107TMC2    C3 1663   2.915   1.029  11.141  0.4485 -0.2749 -0.3060
  107TMC2    C4 1664   3.081   1.113  11.350 -0.4719 -0.1266  0.0106
  107TMC2    C5 1665   3.040   1.197  11.252  0.2517 -0.0883 -0.0816
  107TMC2    C6 1666   2.961   1.155  11.144  0.0570  0.4814  0.2111
  107TMC2     C 1667   3.071   0.896  11.445  0.0188  0.2725  0.6626
  107TMC2     O 1668   3.097   0.949  11.552 -0.5063  0.6328  0.4380
  107TMC2     H 1669   2.896   0.845  11.236  1.6399 -1.0967 -0.9657
  107TMC2    H1 1670   3.143   1.146  11.432 -1.3743  0.1098  0.5956
  107TMC2    H2 1671   2.935   1.214  11.057  2.3184  2.8132  1.1156
  107TMC2    C7 1672   3.069   1.335  11.253  0.2451 -0.3473 -0.0165
  107TMC2    C8 1673   2.817   0.995  11.036 -0.2794  0.8484 -0.0407
  107TMC2    O1 1674   3.010   1.406  11.172 -0.3165 -0.1460 -0.3287
  107TMC2    O2 1675   2.756   1.077  10.973 -0.2224 -0.0752  0.6128
  107TMC2    O5 1676   2.851   0.877  10.977 -0.6038 -0.2896  0.4559
  107TMC2    H5 1677   2.903   0.819  11.037  0.2811  0.0983  0.0628
  108MPD2     C 1678   3.028   0.523  11.443 -0.0220  0.1855  0.6770
  108MPD2    C1 1679   3.047   0.650  11.495 -0.1866  0.3132  0.2672
  108MPD2    C2 1680   3.060   0.661  11.635 -0.2491 -0.1204  0.0906
  108MPD2    C3 1681   3.052   0.553  11.721  0.5487 -0.5072  0.5338
  108MPD2    C4 1682   3.019   0.430  11.663  0.2563 -0.1085  0.5767
  108MPD2    C5 1683   3.018   0.416  11.524 -0.6908 -0.5413  0.0151
  108MPD2     H 1684   3.084   0.760  11.673 -0.6400  0.3266 -0.8115
  108MPD2    H1 1685   2.998   0.343  11.724  0.2508  0.0367  0.7850
  108MPD2    H2 1686   3.013   0.515  11.336 -1.7495 -0.2739  0.9539
  108MPD2    H3 1687   2.988   0.324  11.474 -0.7133  0.1151 -1.1722
  108MPD2     N 1688   3.077   0.567  11.860 -0.2958 -0.5553 -0.1501
  108MPD2    H5 1689   3.037   0.496  11.920 -1.3375  0.6502  0.5772
  108MPD2    N1 1690   3.051   0.759  11.408 -0.2044  1.0553 -0.2469
  108MPD2    H7 1691   3.034   0.752  11.308 -3.1417  4.1054  0.0294
  109TMC2    C1 1692   3.473   2.770   0.363  0.4031 -0.6551 -0.1056
  109TMC2    C2 1693   3.482   2.708   0.245  0.7551 -0.4278 -0.0294
  109TMC2    C3 1694   3.606   2.713   0.189  0.0621 -0.4903  0.0508
  109TMC2    C4 1695   3.572   2.842   0.427 -0.5814  0.3732 -0.3189
  109TMC2    C5 1696   3.694   2.847   0.368  0.5549  0.1704  0.2639
  109TMC2    C6 1697   3.712   2.779   0.248 -0.0739 -0.7175  0.3675
  109TMC2     C 1698   3.334   2.763   0.420  0.1003  0.2078  0.5958
  109TMC2     O 1699   3.244   2.738   0.342 -0.0808  0.4996 -0.5629
  109TMC2     H 1700   3.405   2.641   0.207 -3.2887  2.8744  2.3835
  109TMC2    H1 1701   3.547   2.898   0.516 -0.3415  0.8779 -0.5704
  109TMC2    H2 1702   3.811   2.771   0.205 -0.1015  2.6111 -0.2876
  109TMC2    C7 1703   3.800   2.933   0.427 -0.0183 -0.2191  0.1739
  109TMC2    C8 1704   3.622   2.663   0.060 -0.8053  0.3051 -0.2723
  109TMC2    O1 1705   3.908   2.912   0.374 -0.5795  0.5549 -0.2881
  109TMC2    O2 1706   3.567   2.564   0.012  0.9934 -0.5423 -0.0514
  109TMC2    O5 1707   3.673   2.754  17.721 -0.1907  0.0133 -0.4082
  109TMC2    H5 1708   3.698   2.830   0.036  2.3780 -0.6825 -0.6262
  110MPD2     C 1709   2.975   2.839   0.772 -0.0089  0.2022 -0.6160
  110MPD2    C1 1710   3.100   2.823   0.836 -0.3671  0.0276 -0.0304
  110MPD2    C2 1711   3.213   2.804   0.756 -0.0631  0.1333  0.0703
  110MPD2    C3 1712   3.204   2.801   0.618  0.2219  0.0219  0.1129
  110MPD2    C4 1713   3.077   2.823   0.561  0.5371  0.1733 -0.2307
  110MPD2    C5 1714   2.965   2.847   0.639 -0.8938  0.2885  0.7557
  110MPD2     H 1715   3.310   2.786   0.799  0.4885  2.4961 -0.2287
  110MPD2    H1 1716   3.061   2.815   0.455 -2.8970  0.6838  0.2711
  110MPD2    H2 1717   2.883   2.846   0.828  1.0261  2.5514  0.7748
  110MPD2    H3 1718   2.873   2.879   0.592 -0.8685 -1.2442 -0.3201
  110MPD2     N 1719   3.328   2.781   0.557 -0.3988  0.3652  0.1906
  110MPD2    H5 1720   3.410   2.777   0.617 -0.6400 -1.6018  0.3751
  110MPD2    N1 1721   3.098   2.817   0.979 -0.0201 -0.1145 -0.5796
  110MPD2    H7 1722   3.014   2.847   1.029 -1.0116 -0.9837 -1.7412
  111TMC2    C1 1723   0.066   2.993  11.918  0.2464  0.0815 -0.5534
  111TMC2    C2 1724   0.152   3.085  11.860  0.5073  0.2342 -0.3172
  111TMC2    C3 1725   0.292   3.078  11.893 -0.3771  0.0801 -0.5569
  111TMC2    C4 1726   0.104   2.898  12.010 -0.3189 -0.1229  0.1716
  111TMC2    C5 1727   0.239   2.877  12.017  0.3534  0.0494 -0.4843
  111TMC2    C6 1728   0.327   2.962  11.963  0.3550 -0.0325  0.8331
  111TMC2     C 1729   4.672   2.974  11.859 -0.0533  0.2794 -0.1502
  111TMC2     O 1730   4.657   3.024  11.748 -0.1643 -0.8594 -0.0456
  111TMC2     H 1731   0.109   3.156  11.791 -1.5166  0.4366  1.1292
  111TMC2    H1 1732   0.035   2.825  12.051 -0.8153  0.5200  0.4779
  111TMC2    H2 1733   0.433   2.949  11.981  0.1264 -1.4120  1.1920
  111TMC2    C7 1734   0.301   2.765  12.088  0.0484 -0.2063  0.6372
  111TMC2    C8 1735   0.382   3.134  11.794 -0.5034  0.0882  0.1831
  111TMC2    O1 1736   0.422   2.746  12.077  0.4493 -0.1499 -0.6012
  111TMC2    O2 1737   0.334   3.171  11.682 -0.5463  0.1628  0.3106
  111TMC2    O5 1738   0.511   3.119  11.822 -0.0758  0.4718 -0.7425
  111TMC2    H5 1739   0.527   3.091  11.915 -0.0886  2.2247 -0.2247
  112MPD2     C 1740   4.183   2.843  11.866 -0.8305 -0.9569  0.3743
  112MPD2    C1 1741   4.257   2.888  11.761 -0.4103  0.1408 -0.3181
  112MPD2    C2 1742   4.392   2.914  11.781 -0.3682  0.0933 -0.2278
  112MPD2    C3 1743   4.445   2.883  11.900 -0.8793 -0.6511  0.8436
  112MPD2    C4 1744   4.369   2.839  12.003  0.3064  0.1724 -0.2334
  112MPD2    C5 1745   4.233   2.827  11.986  0.0692 -0.4172 -0.5754
  112MPD2     H 1746   4.459   2.958  11.707  1.2713 -0.6630  0.8193
  112MPD2    H1 1747   4.408   2.834  12.104  2.6053  0.1708 -1.1357
  112MPD2    H2 1748   4.078   2.820  11.849 -0.3453 -2.8661 -0.0498
  112MPD2    H3 1749   4.176   2.805  12.075  0.4731  0.8578  0.0087
  112MPD2     N 1750   4.578   2.909  11.936  0.1386  0.3884  0.2588
  112MPD2    H5 1751   4.605   2.890  12.033  0.6309  1.8480  0.4067
  112MPD2    N1 1752   4.203   2.916  11.638  0.1826  0.6549 -0.3611
  112MPD2    H7 1753   4.263   2.954  11.566  0.7744  1.2428  0.4380
  113TMC2    C1 1754   2.127   0.905   0.749  0.4547 -0.8304 -0.4113
  113TMC2    C2 1755   2.003   0.964   0.759  0.4260  0.3276  0.2649
  113TMC2    C3 1756   1.900   0.882   0.738 -0.4068  0.4759  0.1845
  113TMC2    C4 1757   2.139   0.780   0.714  0.0704 -0.6452 -0.6574
  113TMC2    C5 1758   2.028   0.705   0.692  0.6182 -0.0351  0.5443
  113TMC2    C6 1759   1.903   0.751   0.702  0.5828 -0.0540 -0.1239
  113TMC2     C 1760   2.243   0.989   0.789 -0.2584 -0.1968 -0.3729
  113TMC2     O 1761   2.230   1.080   0.870  0.1963 -0.0916  0.3004
  113TMC2     H 1762   1.994   1.067   0.790  0.6863  0.8207 -1.2711
  113TMC2    H1 1763   2.230   0.732   0.749  1.0219  2.1471  0.6503
  113TMC2    H2 1764   1.821   0.682   0.693  2.9498 -2.9342  0.3097
  113TMC2    C7 1765   2.045   0.567   0.700  0.8962 -0.2365  0.1956
  113TMC2    C8 1766   1.779   0.934   0.792  0.7482  0.5325  0.3972
  113TMC2    O1 1767   2.136   0.528   0.631  0.4962  0.0545  0.2986
  113TMC2    O2 1768   1.777   1.011   0.885  0.3156 -0.0834  0.7275
  113TMC2    O5 1769   1.672   0.886   0.721 -0.3313  0.1578  0.0376
  113TMC2    H5 1770   1.692   0.835   0.640  0.3474  0.3494  0.0834
  114MPD2     C 1771   2.746   1.049   0.795 -0.0222 -0.7532  0.2329
  114MPD2    C1 1772   2.650   1.098   0.887  0.1381 -0.4879 -0.0321
  114MPD2    C2 1773   2.520   1.069   0.870  0.1054  0.1205  0.1291
  114MPD2    C3 1774   2.485   0.980   0.766  0.4753 -0.5332 -0.1196
  114MPD2    C4 1775   2.577   0.926   0.686  0.5963  0.3621  0.5168
  114MPD2    C5 1776   2.707   0.960   0.703 -0.0344  0.1601 -0.4082
  114MPD2     H 1777   2.444   1.099   0.942 -1.4588 -2.4939 -0.4203
  114MPD2    H1 1778   2.543   0.856   0.610  2.4128  2.1109 -1.8983
  114MPD2    H2 1779   2.851   1.077   0.797 -0.4634  1.1293 -1.6212
  114MPD2    H3 1780   2.782   0.926   0.632  0.5558  0.9716 -0.1756
  114MPD2     N 1781   2.356   0.936   0.736 -0.2219  0.0850  0.1183
  114MPD2    H5 1782   2.342   0.874   0.657  0.2748  0.2825 -0.1259
  114MPD2    N1 1783   2.680   1.188   0.988  0.6503  0.6251  0.2254
  114MPD2    H7 1784   2.600   1.213   1.047  0.2665 -1.2402  0.4802
  115TMC2    C1 1785   2.762   2.862  17.643  0.0467  0.5728 -1.0058
  115TMC2    C2 1786   2.890   2.806  17.623 -0.5776 -0.6202  0.0704
  115TMC2    C3 1787   2.994   2.882  17.657  0.4196 -0.0600 -0.7380
  115TMC2    C4 1788   2.743   2.995  17.676  0.2789  0.6043  0.4501
  115TMC2    C5 1789   2.854   3.071  17.692 -0.2202 -0.3718 -0.3563
  115TMC2    C6 1790   2.979   3.009  17.699 -0.1226 -0.4119 -0.3301
  115TMC2     C 1791   2.645   2.774  17.617 -0.5235  0.2104  0.7006
  115TMC2     O 1792   2.668   2.672  17.554  0.3269 -0.0065  0.1135
  115TMC2     H 1793   2.908   2.705  17.589  0.5066 -0.1392 -0.8174
  115TMC2    H1 1794   2.648   3.042  17.656  0.6798  0.4929 -1.6958
  115TMC2    H2 1795   3.069   3.067  17.718  0.2845 -0.1758 -2.9690
  115TMC2    C7 1796   2.833   3.202   0.014 -0.0854 -0.0489 -0.0033
  115TMC2    C8 1797   3.122   2.824  17.624 -0.1769  0.1815 -0.6289
  115TMC2    O1 1798   2.732   3.227   0.076 -0.2499 -0.1734  0.2809
  115TMC2    O2 1799   3.130   2.734  17.542 -0.1112  0.4305 -0.6165
  115TMC2    O5 1800   3.220   2.871  17.701  0.6541  0.5487 -0.2398
  115TMC2    H5 1801   3.192   2.914   0.043  0.8293 -2.6869  1.4772
  116MPD2     C 1802   2.183   2.602   0.028 -0.5883 -0.6979  0.7542
  116MPD2    C1 1803   2.254   2.576  17.661 -0.2589 -0.3281  0.1187
  116MPD2    C2 1804   2.379   2.632  17.642 -0.1486 -0.5327 -0.4203
  116MPD2    C3 1805   2.425   2.731  17.728  0.0857 -0.1354  0.0740
  116MPD2    C4 1806   2.354   2.758   0.100  0.5948  0.3646  0.1158
  116MPD2    C5 1807   2.235   2.693   0.114 -0.3962 -0.5710  0.0233
  116MPD2     H 1808   2.441   2.618  17.554 -0.5394  1.3461 -0.9887
  116MPD2    H1 1809   2.379   2.833   0.174 -0.9936 -0.6520  1.6648
  116MPD2    H2 1810   2.080   2.567   0.036 -0.9854  0.3631  0.3874
  116MPD2    H3 1811   2.171   2.699   0.201 -0.4116 -0.7954  0.0284
  116MPD2     N 1812   2.545   2.801  17.710 -0.7750  0.1276 -0.2957
  116MPD2    H5 1813   2.560   2.883   0.026 -0.5669 -0.2259  0.1472
  116MPD2    N1 1814   2.194   2.475  17.578 -0.1719  0.3688 -0.1696
  116MPD2    H7 1815   2.102   2.441  17.602 -0.1904  0.1069 -0.6150
  117TMC2    C1 1816   2.071   4.334  14.278  0.0567  0.0128 -0.1800
  117TMC2    C2 1817   2.189   4.266  14.272 -0.5763 -0.3967  0.0822
  117TMC2    C3 1818   2.302   4.320  14.229 -0.3057  0.3471 -0.1399
  117TMC2    C4 1819   2.063   4.467  14.249  0.3853  0.1326  0.7216
  117TMC2    C5 1820   2.172   4.516  14.196 -0.0626 -0.1269  0.4621
  117TMC2    C6 1821   2.297   4.452  14.180  1.3302  0.4437  0.4401
  117TMC2     C 1822   1.957   4.256  14.309 -0.1186  0.4547  0.1617
  117TMC2     O 1823   1.973   4.151  14.368  0.4969 -0.1692  0.3031
  117TMC2     H 1824   2.183   4.159  14.286  1.8933 -0.6926 -1.1638
  117TMC2    H1 1825   1.969   4.521  14.250  0.5293  0.3883 -0.3476
  117TMC2    H2 1826   2.386   4.504  14.146  1.3476 -0.1515 -0.4452
  117TMC2    C7 1827   2.155   4.633  14.113  0.1565 -0.4170 -0.2582
  117TMC2    C8 1828   2.424   4.244  14.238 -0.4406 -0.1745 -0.4146
  117TMC2    O1 1829   2.098   4.725  14.169 -0.3867  0.1014  0.8847
  117TMC2    O2 1830   2.431   4.124  14.239 -0.0138 -0.6408 -1.0780
  117TMC2    O5 1831   2.522   4.329  14.277  0.1331 -0.5331 -0.4287
  117TMC2    H5 1832   2.484   4.417  14.299 -0.9887 -1.8698  2.9719
  118MPD2     C 1833   2.250   4.655  13.766 -0.3069 -0.3576  0.1597
  118MPD2    C1 1834   2.229   4.709  13.889 -0.5718  0.2233 -0.1021
  118MPD2    C2 1835   2.238   0.112  13.899 -1.0094 -0.0712  0.7388
  118MPD2    C3 1836   2.258   0.199  13.790 -0.4250 -0.1291  0.3919
  118MPD2    C4 1837   2.277   0.140  13.667 -0.4538 -0.1687  0.0214
  118MPD2    C5 1838   2.272   0.001  13.657 -0.0466 -0.4412 -0.4445
  118MPD2     H 1839   2.229   0.156  13.998 -1.4592  2.5735 -0.4857
  118MPD2    H1 1840   2.296   0.203  13.582  0.7253 -0.6871 -0.0967
  118MPD2    H2 1841   2.238   4.549  13.750  1.0999 -0.3633 -0.8391
  118MPD2    H3 1842   2.297   4.692  13.561  3.3404  3.0326 -1.2200
  118MPD2     N 1843   2.289   0.334  13.807 -1.0719 -0.4323  0.0923
  118MPD2    H5 1844   2.311   0.389  13.725 -0.4600 -0.5290  0.1928
  118MPD2    N1 1845   2.213   4.616  13.989 -0.5403  0.0658 -0.3164
  118MPD2    H7 1846   2.218   4.518  13.961  1.5981  0.8836 -2.7410
  119TMC2    C1 1847   4.287   1.083  13.747  0.2496 -0.4878 -0.5970
  119TMC2    C2 1848   4.311   1.034  13.620 -1.1907  0.5928 -0.1509
  119TMC2    C3 1849   4.237   0.928  13.575 -0.0962 -0.3657 -0.1608
  119TMC2    C4 1850   4.193   1.040  13.831 -0.5315  0.4125 -0.0021
  119TMC2    C5 1851   4.114   0.937  13.779  0.6449  0.2371 -0.3482
  119TMC2    C6 1852   4.140   0.877  13.657  0.8564 -0.4046  0.2091
  119TMC2     C 1853   4.392   1.150  13.822 -0.4579 -0.2005 -0.3203
  119TMC2     O 1854   4.359   1.212  13.924 -0.0859  0.0108 -0.3322
  119TMC2     H 1855   4.390   1.076  13.559 -0.2339 -1.3583 -0.2249
  119TMC2    H1 1856   4.179   1.083  13.930 -2.0295 -2.0357  0.8490
  119TMC2    H2 1857   4.089   0.788  13.625 -2.6172  1.2471  1.1906
  119TMC2    C7 1858   4.045   0.859  13.874  0.9450 -0.0227 -0.1747
  119TMC2    C8 1859   4.317   0.829  13.514 -0.4974  0.4903  0.0434
  119TMC2    O1 1860   4.061   0.736  13.869 -0.0776  0.2169 -0.0967
  119TMC2    O2 1861   4.326   0.718  13.562  0.0495 -0.2734  0.0078
  119TMC2    O5 1862   4.314   0.857  13.381 -0.0776  1.3905 -0.1819
  119TMC2    H5 1863   4.272   0.946  13.374  0.5329  1.6995  0.1325
  120MPD2     C 1864   0.148   1.281  13.878 -0.7642  0.2817  0.2456
  120MPD2    C1 1865   0.038   1.351  13.918  0.0356  0.1109  0.7190
  120MPD2    C2 1866   4.651   1.297  13.883 -0.5107  0.4836 -0.3892
  120MPD2    C3 1867   4.643   1.180  13.811  0.2457 -0.0138 -0.7676
  120MPD2    C4 1868   0.020   1.112  13.772 -0.5588  1.0737 -0.6972
  120MPD2    C5 1869   0.143   1.158  13.807 -0.4553  0.1730 -0.8963
  120MPD2     H 1870   4.555   1.339  13.909 -1.0923 -0.4784 -0.9959
  120MPD2    H1 1871   0.015   1.019  13.716  1.3806 -0.6413  1.9716
  120MPD2    H2 1872   0.245   1.322  13.903 -1.2058  0.1450  2.1545
  120MPD2    H3 1873   0.235   1.113  13.772  0.6544  0.2012  2.0707
  120MPD2     N 1874   4.522   1.126  13.773 -0.0705  0.5786 -0.0226
  120MPD2    H5 1875   4.522   1.045  13.711 -0.3968  0.7560 -0.2570
  120MPD2    N1 1876   0.066   1.478  13.972  0.1084 -0.2772 -0.0999
  120MPD2    H7 1877   0.159   1.509  13.946  0.4662 -0.5012  0.9068
  121TMC2    C1 1878   1.511   2.766  14.449 -0.6614  0.5916  0.1374
  121TMC2    C2 1879   1.540   2.774  14.583 -0.2408 -0.2948 -0.2851
  121TMC2    C3 1880   1.436   2.803  14.671  0.2668  0.3008  0.1890
  121TMC2    C4 1881   1.382   2.782  14.407 -0.4634  0.2896 -0.1676
  121TMC2    C5 1882   1.288   2.812  14.497  0.1948  0.1868  0.2717
  121TMC2    C6 1883   1.313   2.820  14.630  0.9691  0.2022  0.3140
  121TMC2     C 1884   1.612   2.729  14.350 -0.0143  0.4845 -0.4696
  121TMC2     O 1885   1.712   2.683  14.400  0.1063  0.5059 -0.2292
  121TMC2     H 1886   1.640   2.753  14.618  0.4035  0.9172 -1.3709
  121TMC2    H1 1887   1.361   2.794  14.302 -0.5531  1.1709 -0.0491
  121TMC2    H2 1888   1.231   2.836  14.701  1.4769  2.7632  0.3491
  121TMC2    C7 1889   1.176   2.882  14.448  0.3306 -0.4496 -0.3851
  121TMC2    C8 1890   1.457   2.754  14.803 -0.0194 -0.2020  0.2521
  121TMC2    O1 1891   1.151   2.992  14.497 -0.5368  0.1536  0.5704
  121TMC2    O2 1892   1.372   2.703  14.872  0.2367  0.2068 -0.2535
  121TMC2    O5 1893   1.562   2.819  14.847 -0.6018  0.7936  0.3283
  121TMC2    H5 1894   1.603   2.878  14.780  1.9745  0.0094  1.2109
  122MPD2     C 1895   1.776   2.666  14.115  0.8157 -0.3450 -0.4706
  122MPD2    C1 1896   1.656   2.737  14.104  0.1939 -0.1114 -0.0093
  122MPD2    C2 1897   1.613   2.770  13.974  0.2361 -0.1098 -0.1888
  122MPD2    C3 1898   1.695   2.747  13.863 -0.0248 -0.1695 -0.7223
  122MPD2    C4 1899   1.815   2.681  13.885  0.3649 -0.2389  0.6859
  122MPD2    C5 1900   1.865   2.653  14.011  0.5482 -1.3029 -0.2713
  122MPD2     H 1901   1.520   2.823  13.956 -0.4154 -0.1268  3.0856
  122MPD2    H1 1902   1.890   2.664  13.809  0.7138 -1.1775  1.2463
  122MPD2    H2 1903   1.795   2.617  14.210 -0.8544 -2.6064 -1.3155
  122MPD2    H3 1904   1.955   2.594  14.018  0.9649 -0.2919  2.8860
  122MPD2     N 1905   1.666   2.779  13.727  0.2853 -0.0968 -0.5251
  122MPD2    H5 1906   1.727   2.753  13.650  0.5335 -1.5880  0.1726
  122MPD2    N1 1907   1.586   2.777  14.220 -0.1505 -0.0598 -0.4662
  122MPD2    H7 1908   1.501   2.831  14.202 -0.7236 -0.9344 -0.4191
  123TMC2    C1 1909   4.735   1.791  10.615  0.3914 -0.4589  0.2099
  123TMC2    C2 1910   0.077   1.902  10.631 -0.8260  0.3861 -0.3548
  123TMC2    C3 1911   0.096   1.978  10.521  0.7052 -0.4308 -0.2448
  123TMC2    C4 1912   4.676   1.748  10.495  0.3056  0.0101  0.0484
  123TMC2    C5 1913   4.699   1.834  10.386  0.2157  0.7831  0.1212
  123TMC2    C6 1914   0.044   1.942  10.399 -0.4862 -0.8694  0.2195
  123TMC2     C 1915   4.689   1.721  10.740 -0.4553  0.2646  0.8987
  123TMC2     O 1916   0.017   1.756  10.835 -0.1873  0.4580 -0.1866
  123TMC2     H 1917   0.116   1.930  10.728  0.4688  1.4494 -1.1970
  123TMC2    H1 1918   4.611   1.661  10.488 -0.0689  0.3799 -1.1704
  123TMC2    H2 1919   0.064   2.019  10.325 -1.1204  0.3615  1.3308
  123TMC2    C7 1920   4.653   1.803  10.252  0.0719 -0.5803  0.6098
  123TMC2    C8 1921   0.141   2.113  10.550  0.3027 -0.6192 -0.1792
  123TMC2    O1 1922   4.717   1.847  10.155  0.3538 -0.4730  0.4653
  123TMC2    O2 1923   0.148   2.156  10.662  0.1410  0.0431 -0.5034
  123TMC2    O5 1924   0.213   2.161  10.448 -0.1836 -0.0652  0.6271
  123TMC2    H5 1925   0.211   2.110  10.364 -0.9368  0.1016  0.5366
  124MPD2     C 1926   4.423   1.383  11.018  0.3611  0.0392 -0.9231
  124MPD2    C1 1927   4.384   1.380  10.888 -0.4268 -0.3853 -0.2178
  124MPD2    C2 1928   4.436   1.458  10.796 -0.4923  0.1203  0.1392
  124MPD2    C3 1929   4.531   1.556  10.837  0.6614 -0.0479 -0.0042
  124MPD2    C4 1930   4.573   1.562  10.965 -0.2182 -0.2955  0.9341
  124MPD2    C5 1931   4.514   1.480  11.058  0.3834 -0.6131 -0.4143
  124MPD2     H 1932   4.413   1.457  10.690 -0.5735 -2.1370  0.1821
  124MPD2    H1 1933   4.642   1.637  11.003  2.2003 -1.6756 -0.7063
  124MPD2    H2 1934   4.377   1.324  11.096 -2.2033  0.5045 -2.0986
  124MPD2    H3 1935   4.529   1.493  11.164  1.2198  0.3992 -0.6578
  124MPD2     N 1936   4.591   1.629  10.731  0.3112  0.3063  0.1317
  124MPD2    H5 1937   4.545   1.617  10.641  0.9596  0.8320 -0.2727
  124MPD2    N1 1938   4.293   1.268  10.856  0.1358 -0.1406 -0.6352
  124MPD2    H7 1939   4.249   1.212  10.929  0.5351 -1.0501 -1.0991
  125TMC2    C1 1940   0.849   2.797   9.849  0.1702 -0.0767 -0.2661
  125TMC2    C2 1941   0.767   2.883   9.773 -0.3857 -0.5255 -0.4069
  125TMC2    C3 1942   0.834   2.986   9.704  0.0806 -1.1261  1.3063
  125TMC2    C4 1943   0.988   2.805   9.845  0.1139  0.6495  0.1910
  125TMC2    C5 1944   1.048   2.900   9.777  0.2791  0.3563  0.3601
  125TMC2    C6 1945   0.973   2.996   9.711 -0.0814  0.2082  0.1537
  125TMC2     C 1946   0.791   2.693   9.933 -0.0265 -0.5080 -0.7290
  125TMC2     O 1947   0.855   2.593   9.965  0.0472 -0.1727  0.0494
  125TMC2     H 1948   0.659   2.873   9.772 -0.6736  2.5651  0.3996
  125TMC2    H1 1949   1.041   2.746   9.919  0.3681 -1.9746 -2.0884
  125TMC2    H2 1950   1.014   3.090   9.675 -0.2994  0.3298  0.2272
  125TMC2    C7 1951   1.182   2.923   9.815 -0.1527  0.3029 -0.0447
  125TMC2    C8 1952   0.754   3.103   9.662  0.7647 -0.0908 -1.4810
  125TMC2    O1 1953   1.228   2.867   9.918  0.7777 -0.4122 -0.7512
  125TMC2    O2 1954   0.751   3.142   9.543  0.1719 -0.2503 -0.7942
  125TMC2    O5 1955   0.672   3.137   9.767  0.0976 -0.5103  0.0640
  125TMC2    H5 1956   0.707   3.101   9.851  1.2007  0.4648  0.0262
  126MPD1     C 1957   0.437   2.498  10.243 -0.3835  0.3083  0.4797
  126MPD1    C1 1958   0.423   2.637  10.236  0.2521  0.1265 -0.1818
  126MPD1    C2 1959   0.504   2.709  10.151 -0.1774  0.2920 -0.2303
  126MPD1    C3 1960   0.607   2.649  10.087 -0.6308 -0.2844  0.0191
  126MPD1    C4 1961   0.616   2.510  10.082 -0.1811  0.1265 -0.1819
  126MPD1    C5 1962   0.530   2.437  10.162  0.5157  0.7316 -0.2666
  126MPD1     H 1963   0.492   2.816  10.137 -0.5289  0.2332 -0.3749
  126MPD1    H1 1964   0.692   2.460  10.024  0.0607  0.4729 -0.1608
  126MPD1    H2 1965   0.383   2.438  10.316  1.1943  1.4536  2.5800
  126MPD1    H3 1966   0.546   2.331  10.180  1.5696  0.5852 -2.0747
  126MPD1     N 1967   0.686   2.735  10.005 -0.2902  0.2110  0.4260
  126MPD1    H5 1968   0.664   2.834  10.015  1.6193  0.5043  1.6957
  126MPD1    N1 1969   0.307   2.695  10.287 -0.0759 -0.3744 -0.1070
  126MPD1    H6 1970   0.321   2.793  10.311  0.9744 -1.0423  2.0511
  126MPD1    H7 1971   0.275   2.661  10.377 -1.6586  0.8302 -0.2195
  127TMC2    C1 1972   1.196   2.007   9.792 -0.0220 -0.5442  0.2785
  127TMC2    C2 1973   1.089   2.085   9.816 -0.3479 -0.0162  0.5850
  127TMC2    C3 1974   0.977   2.039   9.879  0.3055 -0.3230 -0.4825
  127TMC2    C4 1975   1.196   1.879   9.842 -0.5389 -0.2854  0.2265
  127TMC2    C5 1976   1.081   1.829   9.897 -0.4998  0.1609 -0.1985
  127TMC2    C6 1977   0.969   1.905   9.919  0.5591 -0.0735  0.3682
  127TMC2     C 1978   1.307   2.048   9.717  0.7408 -0.4715  0.3528
  127TMC2     O 1979   1.407   1.986   9.748 -0.1630 -0.0377  0.1300
  127TMC2     H 1980   1.079   2.189   9.789  0.3957  0.4642  2.1622
  127TMC2    H1 1981   1.282   1.817   9.820 -0.7229  0.3825 -2.4307
  127TMC2    H2 1982   0.874   1.861   9.947 -1.0457  1.6207 -2.5014
  127TMC2    C7 1983   1.093   1.717   9.985  0.3458  0.0702  0.4937
  127TMC2    C8 1984   0.852   2.114   9.859 -0.2572 -0.2827  0.0532
  127TMC2    O1 1985   1.167   1.623   9.963  0.5218 -0.3266 -0.0054
  127TMC2    O2 1986   0.846   2.189   9.765  0.5021  0.0858  0.2650
  127TMC2    O5 1987   0.771   2.100   9.965 -0.3516  0.0980  0.3979
  127TMC2    H5 1988   0.825   2.051  10.031  0.1595 -0.2119 -0.2503
  128MPD2     C 1989   1.360   2.338   9.487  0.4151  0.5420 -0.2627
  128MPD2    C1 1990   1.391   2.255   9.591 -0.7242 -0.1052  0.6361
  128MPD2    C2 1991   1.519   2.243   9.639 -0.3334 -0.2781 -0.2695
  128MPD2    C3 1992   1.622   2.320   9.585  0.0580 -0.0957  0.3890
  128MPD2    C4 1993   1.589   2.407   9.479  0.8212  0.1951 -0.2505
  128MPD2    C5 1994   1.460   2.415   9.441 -0.2028  0.0283  0.2585
  128MPD2     H 1995   1.539   2.177   9.722  0.8484  0.4633  0.0435
  128MPD2    H1 1996   1.660   2.482   9.446  0.3883  0.7185  0.0302
  128MPD2    H2 1997   1.258   2.353   9.453  0.4182  1.3300  0.0780
  128MPD2    H3 1998   1.438   2.492   9.368 -0.3885 -0.1705  0.1023
  128MPD2     N 1999   1.755   2.324   9.640 -1.0316  0.2054 -0.0784
  128MPD2    H5 2000   1.813   2.392   9.591  0.1299  0.6041  1.8266
  128MPD2    N1 2001   1.288   2.162   9.635  0.5745  0.0978 -0.4495
  128MPD2    H7 2002   1.193   2.176   9.604  1.1465  1.9134 -1.3964
  129TMC2    C1 2003   4.055   3.488   1.850 -0.0876 -0.1090 -0.1578
  129TMC2    C2 2004   4.096   3.472   1.985  0.4254 -0.0034  0.4972
  129TMC2    C3 2005   4.182   3.376   2.025 -0.8217 -0.1424  0.2222
  129TMC2    C4 2006   4.115   3.409   1.760 -0.2247  0.1163  0.3691
  129TMC2    C5 2007   4.201   3.313   1.802  0.1141 -0.0572  0.5116
  129TMC2    C6 2008   4.239   3.292   1.932  0.7636  0.4233  0.2443
  129TMC2     C 2009   3.967   3.598   1.815  0.4957 -0.2658 -0.2528
  129TMC2     O 2010   3.880   3.620   1.894 -0.0642 -0.4060  0.1897
  129TMC2     H 2011   4.065   3.546   2.057 -0.8703  0.8318 -0.8924
  129TMC2    H1 2012   4.088   3.418   1.655 -1.3354  2.7886  0.9060
  129TMC2    H2 2013   4.304   3.212   1.965  0.1430 -0.0525  0.3235
  129TMC2    C7 2014   4.223   3.208   1.704 -0.5203 -0.4409  0.1141
  129TMC2    C8 2015   4.257   3.377   2.149 -0.0806  0.1146 -0.6560
  129TMC2    O1 2016   4.131   3.197   1.621 -0.4470 -0.5306  0.6546
  129TMC2    O2 2017   4.372   3.327   2.153  0.2885 -0.2088  0.2824
  129TMC2    O5 2018   4.157   3.339   2.235  0.3673 -0.2046  0.2025
  129TMC2    H5 2019   4.069   3.368   2.202 -0.6201 -2.5293  0.8158
  130MPD2     C 2020   3.806   3.779   1.635  0.1765  0.3929 -0.3506
  130MPD2    C1 2021   3.928   3.733   1.602 -0.2590  1.0530 -0.0050
  130MPD2    C2 2022   4.001   3.785   1.493 -0.1124  0.8614 -0.5065
  130MPD2    C3 2023   3.951   3.895   1.420 -0.5685 -0.0381 -0.1274
  130MPD2    C4 2024   3.827   3.946   1.459 -0.6509  0.1914  0.3563
  130MPD2    C5 2025   3.757   3.886   1.560  0.6916  1.0849 -0.2545
  130MPD2     H 2026   4.104   3.754   1.474 -0.8714 -1.4668 -0.8062
  130MPD2    H1 2027   3.769   4.028   1.419  0.7068 -0.7739 -3.6256
  130MPD2    H2 2028   3.749   3.723   1.708 -1.5291 -0.2328 -2.1671
  130MPD2    H3 2029   3.658   3.927   1.580 -0.3177 -0.8979 -1.2143
  130MPD2     N 2030   4.028   3.938   1.307  0.7474 -0.4980  0.0498
  130MPD2    H5 2031   4.113   3.886   1.291  1.1743  0.8961 -2.3089
  130MPD2    N1 2032   3.996   3.644   1.683 -0.4869  0.3318 -0.7961
  130MPD2    H7 2033   4.094   3.625   1.665 -0.0461  1.5095  0.3220
  131TMC2    C1 2034   4.133   1.820  10.179  0.8937  0.5435  0.1104
  131TMC2    C2 2035   4.109   1.835  10.048 -0.1324  0.0476  0.3108
  131TMC2    C3 2036   4.173   1.936   9.983 -0.2998  0.2223  0.5004
  131TMC2    C4 2037   4.224   1.883  10.253 -0.2086  0.5917 -0.2949
  131TMC2    C5 2038   4.287   1.985  10.185  0.0902  0.3445  0.1813
  131TMC2    C6 2039   4.266   2.015  10.054  0.3335 -0.0806  0.6902
  131TMC2     C 2040   4.064   1.707  10.245  0.9336 -0.1195 -0.0407
  131TMC2     O 2041   4.099   1.688  10.364  0.0823 -0.1436  0.1609
  131TMC2     H 2042   4.048   1.767   9.989  2.3738 -0.3616 -1.8308
  131TMC2    H1 2043   4.230   1.880  10.361  1.2744 -1.3833 -0.4492
  131TMC2    H2 2044   4.296   2.110  10.013 -4.0567  0.3712 -1.5386
  131TMC2    C7 2045   4.391   2.051  10.258  1.4752  0.1609  0.5882
  131TMC2    C8 2046   4.172   1.938   9.834 -0.0226  0.5375 -0.3642
  131TMC2    O1 2047   4.401   2.032  10.379 -0.4718  0.4188 -0.5964
  131TMC2    O2 2048   4.064   1.906   9.783 -0.0366 -0.4939 -0.6190
  131TMC2    O5 2049   4.251   2.039   9.785 -0.0026  0.1661  0.1279
  131TMC2    H5 2050   4.341   2.032   9.822 -1.0527 -1.0550  2.4674
  132MPD2     C 2051   3.802   1.472  10.107  0.1664  0.9922  0.1849
  132MPD2    C1 2052   3.908   1.516  10.186  0.0908 -0.0076 -1.0020
  132MPD2    C2 2053   3.947   1.436  10.292  0.1921  0.0667 -0.0885
  132MPD2    C3 2054   3.875   1.324  10.329  0.3275  0.4274  0.4352
  132MPD2    C4 2055   3.780   1.276  10.243 -0.6277 -0.1814  0.0852
  132MPD2    C5 2056   3.736   1.351  10.138  0.1245  0.5761  0.0401
  132MPD2     H 2057   4.030   1.467  10.354 -1.1500 -0.3622  1.9174
  132MPD2    H1 2058   3.728   1.187  10.274 -1.0946  0.0496 -0.0406
  132MPD2    H2 2059   3.773   1.531  10.021 -4.3725 -1.7915 -0.2274
  132MPD2    H3 2060   3.653   1.315  10.078  0.7951 -0.5683 -0.1986
  132MPD2     N 2061   3.914   1.265  10.454 -0.2465  0.0464 -0.1148
  132MPD2    H5 2062   3.993   1.301  10.508 -1.6021 -2.0628  3.2523
  132MPD2    N1 2063   3.974   1.640  10.161  0.0083 -0.1540  0.3110
  132MPD2    H7 2064   3.948   1.683  10.073 -2.4358 -0.2263  1.0118
  133TMC2    C1 2065   3.911   3.424   9.724 -0.4601 -0.2413 -0.7285
  133TMC2    C2 2066   3.888   3.545   9.792  0.3600 -0.1143 -0.3375
  133TMC2    C3 2067   3.989   3.615   9.853  0.2477 -1.0944  0.1337
  133TMC2    C4 2068   4.041   3.373   9.722 -0.2421  0.3487 -0.6776
  133TMC2    C5 2069   4.141   3.443   9.781 -0.3959  0.3583  0.0835
  133TMC2    C6 2070   4.119   3.570   9.834 -0.4138 -0.4554 -0.7807
  133TMC2     C 2071   3.804   3.336   9.681  0.0953  0.1263  0.5022
  133TMC2     O 2072   3.842   3.218   9.664 -0.2150 -0.5907 -0.7069
  133TMC2     H 2073   3.791   3.593   9.797  0.5886  0.3292 -0.1521
  133TMC2    H1 2074   4.059   3.274   9.682  3.8769  0.4047  0.9992
  133TMC2    H2 2075   4.201   3.625   9.879 -1.2627  0.2774 -0.1373
  133TMC2    C7 2076   4.266   3.375   9.823  0.4498 -0.2406  0.0269
  133TMC2    C8 2077   3.957   3.732   9.933 -0.5803 -0.0827 -0.1516
  133TMC2    O1 2078   4.346   3.444   9.889  0.4492 -0.4526  0.4997
  133TMC2    O2 2079   3.848   3.745   9.986  0.2878  0.1788  0.3549
  133TMC2    O5 2080   4.045   3.824   9.897 -0.2062 -1.3941  0.5922
  133TMC2    H5 2081   4.102   3.794   9.823  1.3813  0.8877  0.8867
  134MPD2     C 2082   3.489   3.435   9.526  0.4042 -0.5454  0.4790
  134MPD2    C1 2083   3.584   3.350   9.581 -0.0757  0.1211  0.0864
  134MPD2    C2 2084   3.552   3.212   9.584  0.8002  0.9948  0.3944
  134MPD2    C3 2085   3.445   3.157   9.515  0.7501  0.7019  0.2230
  134MPD2    C4 2086   3.362   3.245   9.451 -0.3600 -0.3187 -0.5190
  134MPD2    C5 2087   3.385   3.379   9.458  0.6176 -0.1436  0.2770
  134MPD2     H 2088   3.627   3.151   9.633 -0.8327 -2.1006 -0.9901
  134MPD2    H1 2089   3.276   3.210   9.395 -0.6646  1.7014 -1.2998
  134MPD2    H2 2090   3.510   3.541   9.521  0.8361 -0.7549 -2.5589
  134MPD2    H3 2091   3.315   3.446   9.408 -0.7519 -0.9144  1.1678
  134MPD2     N 2092   3.413   3.015   9.499 -0.4893 -0.5039 -0.4999
  134MPD2    H5 2093   3.332   2.983   9.448 -1.1015 -0.7893  0.6513
  134MPD2    N1 2094   3.695   3.406   9.643  0.0099  0.2686  0.1303
  134MPD2    H7 2095   3.698   3.507   9.653  0.3669  0.1357  1.2849
  135TMC2    C1 2096   1.943   2.451   8.632  0.3684 -0.7618  0.0696
  135TMC2    C2 2097   2.070   2.408   8.596 -0.0996 -0.0545  0.2337
  135TMC2    C3 2098   2.078   2.272   8.573 -0.1085  0.6726  0.7129
  135TMC2    C4 2099   1.835   2.373   8.634 -0.5030  0.3014  0.0409
  135TMC2    C5 2100   1.851   2.237   8.629  0.3053 -0.4570 -0.3991
  135TMC2    C6 2101   1.978   2.182   8.602 -0.0289  0.1273 -0.2243
  135TMC2     C 2102   1.926   2.594   8.640  0.2199 -0.3291  0.1204
  135TMC2     O 2103   1.813   2.637   8.610 -0.2516  0.4159 -0.3341
  135TMC2     H 2104   2.144   2.475   8.554  0.1817 -0.5847 -0.1172
  135TMC2    H1 2105   1.739   2.420   8.653 -1.0888 -0.2703 -1.4542
  135TMC2    H2 2106   1.996   2.075   8.595 -0.0773  0.3620 -3.8297
  135TMC2    C7 2107   1.750   2.151   8.687 -0.0727 -0.2369  0.0438
  135TMC2    C8 2108   2.209   2.209   8.564  0.1283 -1.0836  0.0692
  135TMC2    O1 2109   1.793   2.046   8.731 -0.5361 -0.0018 -0.1763
  135TMC2    O2 2110   2.220   2.090   8.536 -0.5314  0.5894 -0.3938
  135TMC2    O5 2111   2.289   2.276   8.652 -0.2891 -0.3207 -0.0493
  135TMC2    H5 2112   2.251   2.352   8.700  1.2709 -0.3230  1.2017
  136MPD2     C 2113   1.962   2.888   8.641  0.1241  0.1834 -0.8349
  136MPD2    C1 2114   2.060   2.798   8.682 -0.3209  0.0558  0.2806
  136MPD2    C2 2115   2.170   2.839   8.762  0.0334 -0.5256  1.0911
  136MPD2    C3 2116   2.178   2.974   8.796  0.8878  0.2491 -0.3093
  136MPD2    C4 2117   2.076   3.057   8.765 -0.6800  0.7744 -0.0629
  136MPD2    C5 2118   1.975   3.018   8.686  0.3043 -0.1485  0.9709
  136MPD2     H 2119   2.238   2.761   8.793 -1.0672 -2.2070 -0.7249
  136MPD2    H1 2120   2.072   3.161   8.796 -1.0910  1.1481 -1.3734
  136MPD2    H2 2121   1.868   2.864   8.591  0.9890 -3.8490 -0.5675
  136MPD2    H3 2122   1.893   3.085   8.662  1.9748  1.5092 -0.1069
  136MPD2     N 2123   2.284   3.028   8.874 -0.0074  0.2397  0.6832
  136MPD2    H5 2124   2.268   3.122   8.911  0.5612  0.7585 -0.3738
  136MPD2    N1 2125   2.045   2.656   8.676  0.2944  0.0487 -0.7077
  136MPD2    H7 2126   2.129   2.610   8.708  0.1430  2.1153  2.6360
  137TMC2    C1 2127   0.600   3.561   9.676 -0.3022 -0.9355 -0.0828
  137TMC2    C2 2128   0.544   3.663   9.610  0.1626 -0.8660 -0.4480
  137TMC2    C3 2129   0.422   3.711   9.654  1.0519  0.0519  0.2100
  137TMC2    C4 2130   0.531   3.483   9.763 -1.1256  0.7200  0.6250
  137TMC2    C5 2131   0.402   3.522   9.795  0.0235 -0.9414  0.2155
  137TMC2    C6 2132   0.344   3.634   9.741 -0.0902 -0.0494  0.0970
  137TMC2     C 2133   0.740   3.529   9.646 -0.1490 -0.0035  0.5440
  137TMC2     O 2134   0.786   3.564   9.537 -0.2387  0.1975  0.2894
  137TMC2     H 2135   0.599   3.714   9.532 -0.7283  0.4060 -0.2425
  137TMC2    H1 2136   0.569   3.399   9.819 -0.0891  0.7230 -0.0782
  137TMC2    H2 2137   0.246   3.661   9.777  0.0754  0.3880  0.2179
  137TMC2    C7 2138   0.319   3.444   9.887  0.4993  0.3350 -0.2697
  137TMC2    C8 2139   0.359   3.833   9.598 -0.2663  0.2849 -0.1379
  137TMC2    O1 2140   0.245   3.507   9.961 -0.5226 -0.1718 -0.4676
  137TMC2    O2 2141   0.283   3.902   9.662  0.0661 -0.0080  0.0969
  137TMC2    O5 2142   0.347   3.801   9.465 -0.2088 -0.0874  0.0519
  137TMC2    H5 2143   0.398   3.721   9.442 -2.6094 -1.1668 -1.5381
  138MPD2     C 2144   0.989   3.378   9.876  0.2530 -0.6276 -0.7181
  138MPD2    C1 2145   0.931   3.408   9.757 -0.1665 -0.4461 -0.5423
  138MPD2    C2 2146   0.989   3.376   9.634  0.1718 -0.6424 -0.2860
  138MPD2    C3 2147   1.116   3.336   9.625  0.2626 -0.4375  0.0742
  138MPD2    C4 2148   1.179   3.305   9.747  0.1581 -0.1713 -0.7646
  138MPD2    C5 2149   1.114   3.330   9.865  0.2173 -0.6902 -0.6222
  138MPD2     H 2150   0.929   3.391   9.545 -0.1500 -1.3632 -0.1835
  138MPD2    H1 2151   1.285   3.282   9.749 -0.2382 -1.9540 -0.5715
  138MPD2    H2 2152   0.944   3.402   9.972  0.0849 -0.3569 -0.8629
  138MPD2    H3 2153   1.163   3.323   9.961 -1.8663 -1.8486  0.3671
  138MPD2     N 2154   1.172   3.334   9.497  0.2025 -0.3808 -0.4690
  138MPD2    H5 2155   1.110   3.364   9.423  2.0901 -1.9848 -2.7068
  138MPD2    N1 2156   0.794   3.459   9.754 -0.1442  0.1359  0.1125
  138MPD2    H7 2157   0.752   3.455   9.846 -0.6097 -1.0292 -0.1487
  139TMC2    C1 2158   1.963   0.869  13.710 -0.4214  0.2018  0.6572
  139TMC2    C2 2159   2.071   0.941  13.662 -0.1745  0.4237  0.5383
  139TMC2    C3 2160   2.067   1.074  13.677 -0.6382 -0.8932 -0.1807
  139TMC2    C4 2161   1.844   0.923  13.752  0.0987 -0.4413 -0.5864
  139TMC2    C5 2162   1.842   1.060  13.754  0.4140  0.1596  0.3997
  139TMC2    C6 2163   1.954   1.139  13.725  0.3833  0.0728 -0.5569
  139TMC2     C 2164   1.975   0.725  13.736 -0.9726 -0.3510 -0.0027
  139TMC2     O 2165   2.070   0.658  13.689 -0.6601 -0.7831 -0.7731
  139TMC2     H 2166   2.151   0.884  13.618 -0.9995 -0.1293 -0.2544
  139TMC2    H1 2167   1.754   0.863  13.763  0.5757 -1.0841 -0.2065
  139TMC2    H2 2168   1.944   1.247  13.723 -0.1406  0.0630  2.1869
  139TMC2    C7 2169   1.712   1.120  13.723  0.8549 -0.0903 -0.5236
  139TMC2    C8 2170   2.163   1.144  13.603 -0.4938  0.5079 -0.5081
  139TMC2    O1 2171   1.726   1.229  13.672 -0.0362  0.6801  0.0123
  139TMC2    O2 2172   2.221   1.097  13.508 -0.2461  0.2227  0.0397
  139TMC2    O5 2173   2.210   1.236  13.687  0.2335 -0.5643  0.3339
  139TMC2    H5 2174   2.158   1.235  13.771 -1.3378 -0.3152 -0.6274
  140MPD2     C 2175   1.783   0.537  13.992  0.3022 -0.7032 -0.1212
  140MPD2    C1 2176   1.864   0.559  13.883  0.0567  0.3154  0.0370
  140MPD2    C2 2177   1.911   0.443  13.813  0.2453 -0.4315 -0.1733
  140MPD2    C3 2178   1.866   0.317  13.841  0.8691 -0.0012 -0.0800
  140MPD2    C4 2179   1.795   0.294  13.963 -0.9176 -0.0917  0.4535
  140MPD2    C5 2180   1.762   0.405  14.036 -0.1847 -0.3880 -0.1592
  140MPD2     H 2181   1.964   0.449  13.720 -0.3782 -1.9608 -0.6294
  140MPD2    H1 2182   1.774   0.193  13.996 -0.8272 -0.4477 -0.5781
  140MPD2    H2 2183   1.748   0.622  14.050 -1.6202 -0.7692 -1.1937
  140MPD2    H3 2184   1.710   0.380  14.129  1.8333  2.8025  1.8245
  140MPD2     N 2185   1.915   0.219  13.755 -0.2910  0.3295  0.1906
  140MPD2    H5 2186   1.978   0.259  13.686  0.4868  2.2647  1.9981
  140MPD2    N1 2187   1.893   0.688  13.842  0.3364  0.1778 -0.4660
  140MPD2    H7 2188   1.831   0.753  13.889 -1.0342  0.3750 -2.5582
  141TMC2    C1 2189   1.567   2.124  14.805 -0.3720  0.2851  0.4111
  141TMC2    C2 2190   1.430   2.129  14.818 -0.7657 -0.7843  0.3195
  141TMC2    C3 2191   1.381   2.245  14.868  0.3449  0.4964  0.3794
  141TMC2    C4 2192   1.650   2.234  14.840 -0.4748 -0.5497 -0.1285
  141TMC2    C5 2193   1.595   2.348  14.896  0.1677 -0.2007 -0.3373
  141TMC2    C6 2194   1.458   2.349  14.917  0.0474  0.0066 -0.2081
  141TMC2     C 2195   1.618   2.042  14.699 -0.2726  0.5794  0.5548
  141TMC2     O 2196   1.551   2.024  14.596  0.2324  0.3926  0.4967
  141TMC2     H 2197   1.366   2.044  14.797 -0.1237 -0.8731 -1.2569
  141TMC2    H1 2198   1.758   2.225  14.836 -0.4771 -0.3403 -0.6872
  141TMC2    H2 2199   1.411   2.431  14.970  0.2021  1.0925 -1.7482
  141TMC2    C7 2200   1.679   2.462  14.940  1.0955  0.4562 -0.0837
  141TMC2    C8 2201   1.239   2.266  14.885  0.2555 -0.0338 -0.3665
  141TMC2    O1 2202   1.615   2.536  15.014 -0.6508 -0.6408 -0.1383
  141TMC2    O2 2203   1.191   2.360  14.944  0.1257 -0.6688 -0.1035
  141TMC2    O5 2204   1.178   2.183  14.803  0.1483  0.0632 -0.2466
  141TMC2    H5 2205   1.250   2.156  14.742  0.1103  0.5068 -0.4922
  142TMC2    C1 2206   4.076   0.983  10.222  0.2325  0.2582 -0.4501
  142TMC2    C2 2207   3.993   0.977  10.112  0.1458 -1.1370 -0.3092
  142TMC2    C3 2208   3.984   1.088  10.030  0.1841  0.1443 -0.5025
  142TMC2    C4 2209   4.169   1.086  10.243  0.3919 -0.6556 -0.7374
  142TMC2    C5 2210   4.153   1.194  10.160 -0.2279  0.5422  0.9434
  142TMC2    C6 2211   4.067   1.194  10.049  0.6135  0.3413 -0.1875
  142TMC2     C 2212   4.047   0.877  10.318  0.0514  0.1550 -0.2235
  142TMC2     O 2213   3.953   0.806  10.283  0.4646 -0.4574  0.4374
  142TMC2     H 2214   3.923   0.896  10.096 -0.6871 -0.3551 -0.6231
  142TMC2    H1 2215   4.218   1.101  10.338 -1.3203  1.1559 -0.1540
  142TMC2    H2 2216   4.039   1.274   9.981 -2.9679 -0.5739  0.2124
  142TMC2    C7 2217   4.242   1.306  10.189  0.3182  0.1307 -0.3780
  142TMC2    C8 2218   3.928   1.070   9.899  0.1115  0.4210 -0.2286
  142TMC2    O1 2219   4.307   1.306  10.290 -0.2368  0.0732 -0.3774
  142TMC2    O2 2220   3.833   0.998   9.886 -0.0860 -0.0122  0.3666
  142TMC2    O5 2221   4.041   1.048   9.834  0.0305  0.3420  0.0427
  142TMC2    H5 2222   4.112   1.106   9.869 -1.1676  1.2304  0.9999
  143MPD2     C 2223   4.097   0.596  10.740 -0.3911 -0.8707 -0.2130
  143MPD2    C1 2224   4.006   0.587  10.637  0.6628 -1.3144  0.2042
  143MPD2    C2 2225   4.018   0.678  10.531 -0.1166  0.5872 -0.0821
  143MPD2    C3 2226   4.125   0.772  10.525  0.0096  0.5773 -0.5933
  143MPD2    C4 2227   4.212   0.774  10.632  0.3336 -0.2750  0.3023
  143MPD2    C5 2228   4.191   0.697  10.739 -0.3773  0.8342 -0.4018
  143MPD2     H 2229   3.942   0.670  10.454  1.5970 -1.0242 -1.5974
  143MPD2    H1 2230   4.295   0.844  10.642 -0.2524  0.5197 -0.4381
  143MPD2    H2 2231   4.098   0.537  10.831  2.2460  0.8978  0.9072
  143MPD2    H3 2232   4.257   0.702  10.824  0.3695  0.5438 -0.9563
  143MPD2     N 2233   4.131   0.871  10.422  0.0318 -0.0836  0.2795
  143MPD2    H5 2234   4.211   0.934  10.423 -0.7578  0.9175 -1.7104
  143MPD2    N1 2235   3.912   0.481  10.645  0.0695 -0.8548 -0.0322
  143MPD2    H7 2236   3.910   0.425  10.729  0.1108  1.3720  1.4640
  144TMC2    C1 2237   2.613   3.909   0.850 -0.0836 -0.5743 -0.1387
  144TMC2    C2 2238   2.674   3.791   0.792 -0.2379  1.0215 -0.7153
  144TMC2    C3 2239   2.806   3.784   0.799  0.1836  0.2904 -0.4051
  144TMC2    C4 2240   2.680   4.012   0.911 -0.1325  0.1222 -0.2992
  144TMC2    C5 2241   2.815   3.992   0.915 -0.3806  0.0047 -0.2726
  144TMC2    C6 2242   2.883   3.884   0.857 -0.5503 -0.2811 -0.8411
  144TMC2     C 2243   2.479   3.940   0.803  0.1280  0.3522  0.7705
  144TMC2     O 2244   2.445   3.877   0.702  0.4988  0.3516 -0.3872
  144TMC2     H 2245   2.624   3.706   0.746 -1.5652  0.7343  1.2985
  144TMC2    H1 2246   2.623   4.094   0.954 -1.0907 -1.0204  0.6217
  144TMC2    H2 2247   2.986   3.867   0.885 -0.9909 -1.1038  0.3039
  144TMC2    C7 2248   2.885   4.060   1.026 -0.8322 -0.1845  0.1004
  144TMC2    C8 2249   2.892   3.665   0.769  0.4906 -0.3027 -0.6798
  144TMC2    O1 2250   2.979   3.998   1.075 -0.8923  0.3468  0.5746
  144TMC2    O2 2251   3.002   3.653   0.820 -0.5151  0.2705  0.3864
  144TMC2    O5 2252   2.826   3.574   0.697 -0.0238  0.1278 -0.1573
  144TMC2    H5 2253   2.751   3.607   0.643  1.4610 -1.4728 -3.1812
  145MPD2     C 2254   2.047   4.230   0.836 -0.1811 -0.0791  0.3869
  145MPD2    C1 2255   2.104   4.160   0.725 -0.0071  0.0495  0.5723
  145MPD2    C2 2256   2.214   4.074   0.742  0.1374  1.0739  0.1006
  145MPD2    C3 2257   2.281   4.077   0.865  0.5268 -0.1226  0.6725
  145MPD2    C4 2258   2.227   4.149   0.967  0.0651 -0.3617  0.1270
  145MPD2    C5 2259   2.106   4.212   0.957  0.7039  0.4204  0.3766
  145MPD2     H 2260   2.258   4.031   0.653 -0.0119 -0.5530  0.8108
  145MPD2    H1 2261   2.271   4.147   1.066  2.0209 -1.8888 -0.7597
  145MPD2    H2 2262   1.951   4.278   0.824  0.5047  0.5955 -2.4114
  145MPD2    H3 2263   2.069   4.250   1.052  2.0173  1.0170  0.6506
  145MPD2     N 2264   2.410   4.017   0.892  0.0328 -0.7321 -0.2395
  145MPD2    H5 2265   2.449   4.036   0.984  1.6486  1.1177 -1.3057
  145MPD2    N1 2266   2.055   4.182   0.599 -0.2347  0.8556 -0.7777
  145MPD2    H7 2267   2.125   4.168   0.526 -0.5192  0.1909 -0.9286
  146TMC2    C1 2268   3.458   3.417  13.124 -0.2688 -0.3900  0.3019
  146TMC2    C2 2269   3.368   3.495  13.064  0.5899  0.0387 -0.0591
  146TMC2    C3 2270   3.353   3.485  12.931 -0.6880 -0.5538  0.1759
  146TMC2    C4 2271   3.515   3.309  13.059 -0.2183  0.3021 -0.5871
  146TMC2    C5 2272   3.491   3.297  12.925  0.6944 -0.5779 -0.3568
  146TMC2    C6 2273   3.411   3.388  12.864  0.4840  0.5882 -0.1274
  146TMC2     C 2274   3.493   3.444  13.265  0.4407  0.2938  0.6489
  146TMC2     O 2275   3.458   3.553  13.314 -0.5015  0.2106 -0.0449
  146TMC2     H 2276   3.313   3.571  13.118 -0.4604 -0.3594 -0.5520
  146TMC2    H1 2277   3.582   3.234  13.099  0.8548 -0.1916 -3.2766
  146TMC2    H2 2278   3.402   3.386  12.756 -0.9482  4.1250 -0.0855
  146TMC2    C7 2279   3.549   3.195  12.838  0.0281  0.9894 -0.6917
  146TMC2    C8 2280   3.249   3.575  12.873 -0.1828  0.2732  0.0088
  146TMC2    O1 2281   3.486   3.181  12.732 -0.4244 -0.5397  0.3503
  146TMC2    O2 2282   3.185   3.653  12.943 -0.0862 -0.7207 -0.1005
  146TMC2    O5 2283   3.201   3.525  12.762 -0.1988 -0.2697 -0.6252
  146TMC2    H5 2284   3.251   3.446  12.732 -1.4747 -1.0290 -0.7652
  147MPD2     C 2285   3.830   2.797  12.716 -0.1499 -0.5055  0.0860
  147MPD2    C1 2286   3.863   2.833  12.840 -0.6734 -0.1938 -0.5072
  147MPD2    C2 2287   3.793   2.934  12.896 -0.7515  0.0526  0.2030
  147MPD2    C3 2288   3.708   3.007  12.824 -0.0206 -0.1345 -0.2573
  147MPD2    C4 2289   3.674   2.965  12.698  0.0767 -0.4407 -0.2230
  147MPD2    C5 2290   3.741   2.858  12.642 -0.2762  0.3691 -0.1838
  147MPD2     H 2291   3.805   2.967  12.998  0.1294  0.0416  0.1053
  147MPD2    H1 2292   3.595   3.009  12.638  0.7353  1.4499  0.3047
  147MPD2    H2 2293   3.886   2.718  12.667  0.5107  0.2126 -0.3140
  147MPD2    H3 2294   3.713   2.832  12.540 -0.6703  0.5050 -0.1127
  147MPD2     N 2295   3.647   3.114  12.893  0.0503 -0.1816 -0.5029
  147MPD2    H5 2296   3.669   3.141  12.988 -2.1156 -0.8630  0.2021
  147MPD2    N1 2297   3.957   2.747  12.901 -0.8183  0.0512 -1.0860
  147MPD2    H7 2298   3.990   2.662  12.857 -1.0709 -1.4941  1.7031
  148TMC2    C1 2299   4.034   2.322  10.734 -0.5934  0.1786 -0.5581
  148TMC2    C2 2300   4.164   2.371  10.740 -0.1537 -0.3563  1.0641
  148TMC2    C3 2301   4.258   2.290  10.786 -0.3828  0.2876  0.7364
  148TMC2    C4 2302   3.987   2.214  10.801 -0.1380  0.2746  0.5200
  148TMC2    C5 2303   4.082   2.146  10.875  0.0794  0.3276  0.1816
  148TMC2    C6 2304   4.216   2.188  10.869 -0.1660  0.5095 -0.0721
  148TMC2     C 2305   3.943   2.392  10.648 -0.3932 -0.0361  0.3123
  148TMC2     O 2306   3.945   2.515  10.642  0.0897  0.1989 -0.2015
  148TMC2     H 2307   4.195   2.461  10.689  1.1465 -2.2952 -1.5741
  148TMC2    H1 2308   3.882   2.185  10.801  0.1180 -0.6990 -4.3064
  148TMC2    H2 2309   4.288   2.142  10.936 -0.8124 -0.1451  0.1673
  148TMC2    C7 2310   4.038   2.035  10.959  0.4027 -0.1723 -0.1678
  148TMC2    C8 2311   4.404   2.322  10.773  0.6640  0.4267  0.0452
  148TMC2    O1 2312   3.919   2.006  10.960 -0.1737  0.0387  0.6013
  148TMC2    O2 2313   4.455   2.427  10.734  0.4889 -0.3171 -0.3584
  148TMC2    O5 2314   4.480   2.222  10.814  0.5553  0.2531  0.0082
  148TMC2    H5 2315   4.429   2.142  10.837  1.2928 -0.3894 -0.5871
  149MPD2     C 2316   3.721   2.439  10.454  0.6984 -1.0317  0.3875
  149MPD2    C1 2317   3.758   2.317  10.500  0.1433  0.5017 -0.6749
  149MPD2    C2 2318   3.679   2.209  10.456 -0.5621  0.0043  0.0801
  149MPD2    C3 2319   3.570   2.223  10.372  0.3037 -0.8852  0.8303
  149MPD2    C4 2320   3.542   2.348  10.323 -0.5101 -0.6224 -0.2642
  149MPD2    C5 2321   3.618   2.453  10.360 -0.1682  0.0825  0.4076
  149MPD2     H 2322   3.710   2.112  10.492 -1.5977 -0.8084 -1.1903
  149MPD2    H1 2323   3.459   2.368  10.258  0.4323  2.2367 -0.5938
  149MPD2    H2 2324   3.763   2.528  10.500  0.8606 -1.2925  0.7463
  149MPD2    H3 2325   3.580   2.552  10.337 -1.2454 -0.0153  1.7963
  149MPD2     N 2326   3.478   2.117  10.348  0.1448  0.3613 -0.9231
  149MPD2    H5 2327   3.402   2.138  10.285 -0.9489 -2.4870 -0.5550
  149MPD2    N1 2328   3.857   2.295  10.593 -0.1883 -0.3027  0.7383
  149MPD2    H7 2329   3.890   2.200  10.602  1.6773  0.4720  2.1061
  150TMC2    C1 2330   1.047   0.821  12.421  0.2680 -0.0023  0.2266
  150TMC2    C2 2331   0.994   0.948  12.415  0.2487 -0.2317 -0.3238
  150TMC2    C3 2332   1.063   1.059  12.465  0.3486 -0.6545  0.2809
  150TMC2    C4 2333   1.178   0.796  12.451 -0.2308 -1.1265  0.0572
  150TMC2    C5 2334   1.248   0.913  12.484  0.6541  0.1888 -0.3068
  150TMC2    C6 2335   1.201   1.043  12.493 -0.0022 -0.1050  1.5454
  150TMC2     C 2336   0.960   0.698  12.420  0.4264  0.4320 -0.3893
  150TMC2     O 2337   1.006   0.603  12.482  0.0491 -0.2436  0.1431
  150TMC2     H 2338   0.887   0.961  12.398  0.6174  0.0501 -2.3910
  150TMC2    H1 2339   1.214   0.694  12.450  0.0319 -1.0267 -0.3737
  150TMC2    H2 2340   1.262   1.127  12.524 -2.1945  2.1649 -0.2850
  150TMC2    C7 2341   1.392   0.898  12.520 -0.4129  0.2504 -0.1370
  150TMC2    C8 2342   0.990   1.182  12.474  0.0714 -0.0689 -0.1204
  150TMC2    O1 2343   1.465   0.991  12.527  0.2763 -0.1550 -0.3282
  150TMC2    O2 2344   0.872   1.194  12.444  0.1431 -0.7424 -0.4664
  150TMC2    O5 2345   1.077   1.276  12.451  0.3411  0.9337 -0.4188
  150TMC2    H5 2346   1.167   1.254  12.418  0.1057 -0.8734  0.1235
  151MPD2     C 2347   0.552   0.437  12.259 -0.4245  0.0337  0.5752
  151MPD2    C1 2348   0.580   0.540  12.164  0.3372  0.4588  0.5748
  151MPD2    C2 2349   0.682   0.635  12.197  0.3566 -0.6302 -0.1373
  151MPD2    C3 2350   0.759   0.628  12.311  0.0780 -0.2067 -0.4301
  151MPD2    C4 2351   0.747   0.512  12.391 -0.5208 -0.0583  0.0631
  151MPD2    C5 2352   0.639   0.431  12.359  0.0751  0.9344 -0.1530
  151MPD2     H 2353   0.716   0.713  12.130 -0.5731  0.7224  0.9435
  151MPD2    H1 2354   0.806   0.491  12.478  2.0959  1.4677 -1.3533
  151MPD2    H2 2355   0.471   0.365  12.251 -0.9633  0.6820  0.2231
  151MPD2    H3 2356   0.624   0.346  12.425  2.3972  0.6709  0.0513
  151MPD2     N 2357   0.860   0.721  12.334 -0.5836 -0.3797  0.4776
  151MPD2    H5 2358   0.858   0.795  12.264  1.0898 -1.5856 -0.8469
  151MPD2    N1 2359   0.512   0.528  12.035  0.4034 -0.1277 -0.0627
  151MPD2    H7 2360   0.443   0.455  12.023  0.0770 -0.2347  2.4138
  152TMC2    C1 2361   1.226   0.924  12.867 -0.5279 -0.4235  0.0552
  152TMC2    C2 2362   1.331   0.833  12.885 -0.2253 -0.0219  0.3263
  152TMC2    C3 2363   1.449   0.886  12.935  0.3157 -0.5758  0.0305
  152TMC2    C4 2364   1.233   1.057  12.904 -0.4386  0.8403  0.0258
  152TMC2    C5 2365   1.353   1.100  12.959  0.7100  0.1096  0.4663
  152TMC2    C6 2366   1.461   1.017  12.966 -0.8444 -0.3286  0.3092
  152TMC2     C 2367   1.092   0.873  12.840 -1.0629  0.3137  0.1171
  152TMC2     O 2368   1.005   0.946  12.794  0.3123 -0.3513 -0.2304
  152TMC2     H 2369   1.327   0.731  12.851 -3.1808 -0.0872  0.8668
  152TMC2    H1 2370   1.147   1.122  12.894 -1.0412  0.3693  2.4254
  152TMC2    H2 2371   1.553   1.050  13.012 -0.1905 -0.2687 -1.0393
  152TMC2    C7 2372   1.350   1.218  13.038 -0.3402 -0.4348 -0.4123
  152TMC2    C8 2373   1.559   0.805  12.993 -0.0456  0.3126  0.3811
  152TMC2    O1 2374   1.241   1.266  13.070 -0.4210 -0.4589  0.2494
  152TMC2    O2 2375   1.677   0.841  13.008 -0.4281  0.1684  0.7136
  152TMC2    O5 2376   1.497   0.718  13.076 -0.6096  0.2512 -0.1591
  152TMC2    H5 2377   1.414   0.686  13.035 -1.6755  2.0581  0.6494
  153MPD2     C 2378   0.974   0.519  12.856 -0.3625 -0.0159 -0.6322
  153MPD2    C1 2379   0.975   0.655  12.832  0.3057 -0.7476  0.2999
  153MPD2    C2 2380   0.857   0.704  12.773  0.8386 -0.2587  0.4165
  153MPD2    C3 2381   0.753   0.621  12.739 -0.0276  0.3096 -0.0642
  153MPD2    C4 2382   0.757   0.484  12.772  0.1913  0.2634  0.4998
  153MPD2    C5 2383   0.870   0.436  12.821 -0.7652 -0.6584 -0.2595
  153MPD2     H 2384   0.843   0.807  12.742  0.4986 -0.3322  0.3244
  153MPD2    H1 2385   0.683   0.410  12.743 -0.7632  1.0957  0.8466
  153MPD2    H2 2386   1.064   0.472  12.894 -0.5950 -0.3319 -0.4777
  153MPD2    H3 2387   0.881   0.329  12.834  1.5829 -0.3104  0.5279
  153MPD2     N 2388   0.638   0.670  12.674  0.4452  0.0689  0.3019
  153MPD2    H5 2389   0.649   0.756  12.622 -0.0784 -1.3716 -2.2354
  153MPD2    N1 2390   1.084   0.741  12.865  0.5632 -0.4466  0.6304
  153MPD2    H7 2391   1.171   0.697  12.893  0.9497  0.8425  1.4389
  154TMC2    C1 2392   2.112   1.163   0.072 -0.1254 -0.0532 -0.1011
  154TMC2    C2 2393   2.203   1.068   0.108 -0.1246  0.5402  0.0584
  154TMC2    C3 2394   2.213   0.951   0.045  0.5746 -0.2784  0.1835
  154TMC2    C4 2395   2.033   1.149  17.697  0.9273 -0.0761  0.1478
  154TMC2    C5 2396   2.036   1.021  17.641 -0.4365  0.0400 -0.3266
  154TMC2    C6 2397   2.119   0.926  17.688  0.4900  0.6587  0.3056
  154TMC2     C 2398   2.131   1.294   0.132 -0.0020 -0.1112 -0.3660
  154TMC2     O 2399   2.184   1.293   0.242 -0.5197  0.3056  0.3009
  154TMC2     H 2400   2.272   1.090   0.189  0.3870 -0.0456 -0.2227
  154TMC2    H1 2401   1.964   1.229  17.672 -0.0872 -0.1795  2.6172
  154TMC2    H2 2402   2.110   0.825  17.650  0.0355  1.6217 -2.1355
  154TMC2    C7 2403   1.939   0.987  17.545  0.6316  0.3122 -0.2587
  154TMC2    C8 2404   2.272   0.839   0.122 -0.2117 -0.1337 -0.2876
  154TMC2    O1 2405   1.907   0.868  17.547  0.2596  0.2854  0.8831
  154TMC2    O2 2406   2.312   0.850   0.237  0.5714 -0.5181  0.1363
  154TMC2    O5 2407   2.295   0.738   0.034  0.4098  0.6247  0.0896
  154TMC2    H5 2408   2.280   0.768  17.683  0.2827 -2.0238 -0.7779
  155MPD2     C 2409   2.131   1.619  17.703  0.0580  1.2236 -0.1034
  155MPD2    C1 2410   2.122   1.537   0.072  0.1031  0.2204  0.1503
  155MPD2    C2 2411   2.145   1.593   0.193  0.1235  0.6074 -0.7573
  155MPD2    C3 2412   2.156   1.730   0.203 -0.2047  0.0410 -0.3307
  155MPD2    C4 2413   2.151   1.811   0.090 -0.0809 -0.1666 -0.3597
  155MPD2    C5 2414   2.141   1.755  17.705 -0.0698 -0.7185 -0.1230
  155MPD2     H 2415   2.158   1.537   0.284  1.8770 -1.4565 -2.2937
  155MPD2    H1 2416   2.171   1.916   0.102  0.8220 -0.6254  2.2253
  155MPD2    H2 2417   2.119   1.573  17.606  3.6725  0.7904 -0.3333
  155MPD2    H3 2418   2.135   1.814  17.614 -0.0175  1.0944  1.0353
  155MPD2     N 2419   2.164   1.788   0.333 -0.2569  0.5131  0.6672
  155MPD2    H5 2420   2.151   1.736   0.419 -0.5340  2.2516  1.6586
  155MPD2    N1 2421   2.106   1.397   0.047  0.1248  0.2476 -0.1581
  155MPD2    H7 2422   2.072   1.371  17.697  0.7064  0.0616 -0.3195
  156TMC2    C1 2423   1.505   2.969  11.679 -0.1397 -0.5520 -1.0700
  156TMC2    C2 2424   1.631   2.944  11.649  0.3923  0.2302 -0.3045
  156TMC2    C3 2425   1.675   2.992  11.527 -0.1327  0.1761  0.0501
  156TMC2    C4 2426   1.426   3.030  11.587  1.1741 -0.4753  0.4398
  156TMC2    C5 2427   1.473   3.052  11.464  0.3147  0.1730  0.0449
  156TMC2    C6 2428   1.607   3.048  11.426 -0.1335  0.3327  0.1022
  156TMC2     C 2429   1.454   2.970  11.814  0.2955 -0.7593  0.4136
  156TMC2     O 2430   1.336   3.013  11.829  0.0338  0.2834 -0.2004
  156TMC2     H 2431   1.698   2.887  11.713  1.4589 -1.0468 -2.5835
  156TMC2    H1 2432   1.323   3.054  11.613  1.2116  0.5758 -0.4129
  156TMC2    H2 2433   1.643   3.084  11.330 -1.0697  1.7349  0.2666
  156TMC2    C7 2434   1.385   3.142  11.385  0.1467  0.0120  0.1099
  156TMC2    C8 2435   1.804   2.940  11.493  0.1372 -0.1421 -0.1669
  156TMC2    O1 2436   1.295   3.209  11.439  0.3255 -0.0335 -0.2270
  156TMC2    O2 2437   1.873   2.884  11.575 -0.6885  0.5224 -0.4448
  156TMC2    O5 2438   1.764   2.874  11.379 -0.2621  0.3009  0.1381
  156TMC2    H5 2439   1.723   2.940  11.319 -2.5467  0.7064  2.1479
  157MPD2     C 2440   1.607   2.871  12.132  0.3941 -0.1180 -0.0781
  157MPD2    C1 2441   1.516   2.939  12.053  0.6369  0.0055 -0.7369
  157MPD2    C2 2442   1.420   3.016  12.122 -0.6862  0.4506  0.3167
  157MPD2    C3 2443   1.411   3.023  12.259 -0.4689 -0.2826  0.4236
  157MPD2    C4 2444   1.498   2.955  12.340 -0.3725  1.0465 -0.2716
  157MPD2    C5 2445   1.597   2.883  12.273  0.0204 -0.6184 -0.3126
  157MPD2     H 2446   1.345   3.074  12.068 -0.9827 -0.8957 -0.7233
  157MPD2    H1 2447   1.501   2.968  12.447  1.7833  1.5798 -0.3952
  157MPD2    H2 2448   1.691   2.816  12.090  2.4377  1.9256  1.2960
  157MPD2    H3 2449   1.659   2.816  12.331  0.9645  0.1093 -0.4842
  157MPD2     N 2450   1.291   3.081  12.307  0.3697  0.0546 -0.3132
  157MPD2    H5 2451   1.241   3.140  12.241 -1.3765 -1.9166 -0.7523
  157MPD2    N1 2452   1.543   2.936  11.912 -0.4120 -0.2125  0.4048
  157MPD2    H7 2453   1.630   2.888  11.894 -1.0346 -0.7587 -1.1186
  158TMC2    C1 2454   2.381   1.752  14.622 -0.1020  0.0362  0.4804
  158TMC2    C2 2455   2.471   1.852  14.640  0.6080  0.3755  0.2099
  158TMC2    C3 2456   2.534   1.908  14.532 -0.2245  0.3146 -0.0306
  158TMC2    C4 2457   2.340   1.718  14.493 -0.1907  0.8700  0.4964
  158TMC2    C5 2458   2.394   1.786  14.384  0.1014 -0.1580  0.2214
  158TMC2    C6 2459   2.495   1.877  14.401 -0.2592  0.9118 -0.0724
  158TMC2     C 2460   2.364   1.652  14.728  0.1401  0.1938 -0.3735
  158TMC2     O 2461   2.418   1.685  14.835  0.2434  0.3371  0.4138
  158TMC2     H 2462   2.501   1.875  14.742 -0.2429 -0.6997  0.7091
  158TMC2    H1 2463   2.258   1.650  14.474  1.0004 -0.7005  0.9533
  158TMC2    H2 2464   2.548   1.911  14.312  0.4186 -1.0595 -0.4205
  158TMC2    C7 2465   2.368   1.746  14.249  0.3547  0.0224 -0.1415
  158TMC2    C8 2466   2.626   2.016  14.556  0.4759 -1.0615  0.0025
  158TMC2    O1 2467   2.440   1.799  14.165  0.3399 -0.4545 -0.2687
  158TMC2    O2 2468   2.683   2.031  14.665 -0.4863 -1.1310  0.1511
  158TMC2    O5 2469   2.640   2.090  14.443  0.9123  0.1412 -0.4018
  158TMC2    H5 2470   2.566   2.069  14.382  0.3646  0.2156  0.2327
  159MPD2     C 2471   2.194   1.231  14.939 -0.0504 -0.3908  0.0216
  159MPD2    C1 2472   2.179   1.208  14.808 -1.0396 -0.0551 -0.5210
  159MPD2    C2 2473   2.235   1.308  14.724  0.0636  0.3614 -0.4383
  159MPD2    C3 2474   2.282   1.425  14.775  0.0437  0.3353  0.4366
  159MPD2    C4 2475   2.285   1.444  14.913 -0.3553  0.5623  0.2656
  159MPD2    C5 2476   2.244   1.344  14.999 -0.0752  0.2322  0.2813
  159MPD2     H 2477   2.234   1.312  14.616 -0.2927 -3.1586 -0.5556
  159MPD2    H1 2478   2.328   1.532  14.961  0.3148  1.5778 -2.1952
  159MPD2    H2 2479   2.159   1.154  15.007 -3.0290  0.8781 -0.0784
  159MPD2    H3 2480   2.244   1.349  15.108  1.5033 -0.9854  0.3287
  159MPD2     N 2481   2.306   1.532  14.689 -0.1698 -0.2438  0.1454
  159MPD2    H5 2482   2.280   1.519  14.592  0.3864  3.4231 -0.4947
  159MPD2    N1 2483   2.104   1.094  14.770  1.1603  0.2216  0.6585
  159MPD2    H7 2484   2.073   1.034  14.846 -0.5536  0.2204 -0.0525
  160TMC2    C1 2485   1.234   1.155   2.102  0.3446  0.2707  0.0719
  160TMC2    C2 2486   1.240   1.146   2.241  0.7658  0.8492 -0.2985
  160TMC2    C3 2487   1.234   1.024   2.298 -0.5947  0.0179 -0.0620
  160TMC2    C4 2488   1.237   1.045   2.022 -0.1089  0.5337  0.3667
  160TMC2    C5 2489   1.229   0.921   2.079  0.3721  1.0081  0.3103
  160TMC2    C6 2490   1.217   0.910   2.216  0.7257 -0.5320 -0.5528
  160TMC2     C 2491   1.274   1.280   2.032  0.0567 -0.9033 -0.4025
  160TMC2     O 2492   1.362   1.342   2.087 -0.1262  0.7286  0.3944
  160TMC2     H 2493   1.264   1.228   2.308  0.6975  1.2985 -0.8317
  160TMC2    H1 2494   1.251   1.059   1.916 -3.5165  0.6774 -0.0593
  160TMC2    H2 2495   1.224   0.811   2.259  1.4886 -0.4496 -0.4826
  160TMC2    C7 2496   1.220   0.804   2.000 -0.2958  0.0356  0.0845
  160TMC2    C8 2497   1.195   1.011   2.436  0.2249  0.2776  0.2643
  160TMC2    O1 2498   1.175   0.700   2.052  0.0969 -0.0789 -0.1249
  160TMC2    O2 2499   1.230   0.911   2.498  0.5783 -0.1391  0.5060
  160TMC2    O5 2500   1.101   1.103   2.475 -0.5866 -0.4578  0.3994
  160TMC2    H5 2501   1.051   1.152   2.407 -2.0628 -1.0181  1.0742
  161MPD2     C 2502   1.291   1.528   1.870 -0.1373  0.5299  0.0470
  161MPD2    C1 2503   1.224   1.421   1.836 -0.0131 -0.6748 -0.5672
  161MPD2    C2 2504   1.171   1.424   1.705 -0.9495 -0.0049 -0.6128
  161MPD2    C3 2505   1.178   1.535   1.622 -0.3335 -0.3266 -0.6938
  161MPD2    C4 2506   1.247   1.642   1.667 -0.5926 -0.3086  0.5832
  161MPD2    C5 2507   1.303   1.637   1.791  0.3375  0.5309 -0.1642
  161MPD2     H 2508   1.127   1.330   1.674  0.9503 -0.5333 -1.7514
  161MPD2    H1 2509   1.264   1.731   1.608 -3.4876  0.0018  0.2001
  161MPD2    H2 2510   1.335   1.544   1.968  2.8229  0.2829 -1.2354
  161MPD2    H3 2511   1.356   1.722   1.833  0.0957 -0.5805  2.4065
  161MPD2     N 2512   1.121   1.545   1.491  0.0227 -0.0827 -0.1171
  161MPD2    H5 2513   1.117   1.633   1.442  1.8635 -1.0604 -2.0220
  161MPD2    N1 2514   1.208   1.299   1.918  0.0187  0.2642  1.0473
  161MPD2    H7 2515   1.146   1.225   1.886  0.5771 -1.0868  3.1505
  162TMC2    C1 2516   3.245   2.123   0.934 -0.4338  0.7371  0.1826
  162TMC2    C2 2517   3.113   2.074   0.940  0.2011  0.3157 -0.7700
  162TMC2    C3 2518   3.041   2.093   1.050  0.4091  0.6912  0.3860
  162TMC2    C4 2519   3.303   2.180   1.043 -0.0380  0.1535  0.2978
  162TMC2    C5 2520   3.225   2.204   1.155  0.9006 -0.1367 -0.8536
  162TMC2    C6 2521   3.093   2.165   1.157 -0.0986 -0.2769  0.9225
  162TMC2     C 2522   3.325   2.095   0.816 -0.1274  0.4896 -0.6801
  162TMC2     O 2523   3.440   2.134   0.817  0.5321  0.2979  0.1001
  162TMC2     H 2524   3.068   2.016   0.861  0.7869 -2.2032  0.7510
  162TMC2    H1 2525   3.410   2.199   1.041  0.2528 -1.8350 -3.6389
  162TMC2    H2 2526   3.026   2.200   1.234  1.2724  1.1042  1.5013
  162TMC2    C7 2527   3.275   2.273   1.268  0.4028 -1.2406 -0.0788
  162TMC2    C8 2528   2.897   2.086   1.039  0.3271  0.4964  0.1999
  162TMC2    O1 2529   3.211   2.267   1.373  0.5090  0.1930  0.1626
  162TMC2    O2 2530   2.837   2.095   1.144 -0.2034  0.4407  0.0462
  162TMC2    O5 2531   2.858   2.157   0.924 -0.3297 -0.4026 -0.4019
  162TMC2    H5 2532   2.926   2.155   0.853 -0.2164  0.7287 -0.3140
  163MPD2     C 2533   3.358   2.021   0.311  0.1394  0.2765  0.3376
  163MPD2    C1 2534   3.457   2.042   0.402 -0.0219  0.2035  0.7348
  163MPD2    C2 2535   3.411   2.050   0.530 -0.0595 -0.2923  0.3696
  163MPD2    C3 2536   3.280   2.041   0.573 -0.0066  0.0391  0.4813
  163MPD2    C4 2537   3.184   2.006   0.480  0.0804 -0.7096 -0.9775
  163MPD2    C5 2538   3.226   2.003   0.349 -0.4759  0.3780  0.0259
  163MPD2     H 2539   3.481   2.067   0.611 -2.0029 -2.1712  2.4915
  163MPD2    H1 2540   3.080   1.987   0.506 -0.5071  1.5359 -1.6737
  163MPD2    H2 2541   3.385   2.002   0.207 -1.0709 -0.7520  0.2174
  163MPD2    H3 2542   3.157   1.972   0.271 -0.0099  0.9058 -0.6025
  163MPD2     N 2543   3.243   2.067   0.707  0.3466  0.3246 -0.2046
  163MPD2    H5 2544   3.144   2.069   0.729  1.1490  1.4932  3.2743
  163MPD2    N1 2545   3.593   2.052   0.359 -0.0316  0.1170 -0.3028
  163MPD2    H7 2546   3.603   2.044   0.259  0.0778 -2.3825 -0.0846
  164TMC2    C1 2547   4.598   1.871  11.392  0.6021  0.1521 -0.5168
  164TMC2    C2 2548   4.666   1.918  11.499 -0.0268 -0.4627  0.0362
  164TMC2    C3 2549   4.680   2.053  11.506  0.0790  0.4739 -0.3605
  164TMC2    C4 2550   4.542   1.946  11.291  0.2200  0.1370  0.1213
  164TMC2    C5 2551   4.553   2.079  11.309 -0.0888 -0.6597 -0.7214
  164TMC2    C6 2552   4.619   2.135  11.414 -0.0853  0.2081  0.5081
  164TMC2     C 2553   4.622   1.736  11.339 -0.0579  0.2557  0.4592
  164TMC2     O 2554   4.530   1.655  11.329 -0.5236 -0.1973 -0.3039
  164TMC2     H 2555   4.713   1.849  11.568  0.1802  0.0091  0.3613
  164TMC2    H1 2556   4.495   1.902  11.204 -1.0020  0.6427  0.5373
  164TMC2    H2 2557   4.615   2.239  11.445 -1.1811  0.5506 -0.7504
  164TMC2    C7 2558   4.473   2.154  11.219  1.2650 -0.0713  0.1085
  164TMC2    C8 2559   0.026   2.116  11.611 -0.1030 -0.1849  0.2594
  164TMC2    O1 2560   4.375   2.109  11.161  0.6902 -0.0337 -0.2090
  164TMC2    O2 2561   0.071   2.049  11.705 -0.5724  0.5643 -0.0967
  164TMC2    O5 2562   0.089   2.218  11.546  0.2042 -0.3876  1.1221
  164TMC2    H5 2563   0.073   2.236  11.451  0.8219 -2.6843  0.5920
  165TMC2    C1 2564   0.540   0.097   1.374  0.7091  0.3958 -0.3918
  165TMC2    C2 2565   0.463   0.156   1.474  0.2425 -0.5316 -0.1396
  165TMC2    C3 2566   0.513   0.166   1.599 -0.3594  0.4944  0.4447
  165TMC2    C4 2567   0.673   0.077   1.396 -0.8183  0.1210  0.2937
  165TMC2    C5 2568   0.720   0.102   1.519  0.4535  0.2571  0.0725
  165TMC2    C6 2569   0.646   0.147   1.630 -0.0220 -0.0329  0.3743
  165TMC2     C 2570   0.486   0.084   1.236  0.0848  0.5010  0.6147
  165TMC2     O 2571   0.381   0.140   1.215 -0.1576  0.7010  0.4569
  165TMC2     H 2572   0.364   0.191   1.446  1.1662  0.7237 -1.7547
  165TMC2    H1 2573   0.740   0.043   1.318 -0.4796 -1.9995  1.4951
  165TMC2    H2 2574   0.679   0.152   1.733  2.1967  1.1140 -0.3808
  165TMC2    C7 2575   0.860   0.062   1.545 -1.2292  0.4401 -0.0477
  165TMC2    C8 2576   0.428   0.218   1.700 -0.1289  0.0613  0.7391
  165TMC2    O1 2577   0.923   4.735   1.456  0.0335  0.1232  0.1945
  165TMC2    O2 2578   0.433   0.181   1.818 -0.4054  0.6677  0.0265
  165TMC2    O5 2579   0.344   0.313   1.649 -0.1640 -0.4784 -0.0623
  165TMC2    H5 2580   0.372   0.349   1.562  1.0895 -0.4681  0.3379
  166MPD2     C 2581   0.501   4.613   0.762  0.8915  0.3539  0.0519
  166MPD2    C1 2582   0.410   4.701   0.815 -0.7566 -0.2546 -0.1187
  166MPD2    C2 2583   0.437   0.021   0.946  0.1930 -0.3107 -0.4012
  166MPD2    C3 2584   0.538   4.697   1.022 -0.2523  0.1037 -0.1582
  166MPD2    C4 2585   0.626   4.603   0.969 -0.1642  0.1526 -0.5413
  166MPD2    C5 2586   0.610   4.573   0.836  0.0889  0.4725  0.0817
  166MPD2     H 2587   0.387   0.106   0.989 -1.0987 -1.4894  0.4241
  166MPD2    H1 2588   0.707   4.556   1.023 -0.8968  1.2804  1.5242
  166MPD2    H2 2589   0.500   4.585   0.657 -2.8323 -0.9716  0.4455
  166MPD2    H3 2590   0.675   4.495   0.799 -1.7627 -2.1999  2.5096
  166MPD2     N 2591   0.563   4.734   1.156  0.0972  0.5487  0.1230
  166MPD2    H5 2592   0.635   4.683   1.207 -0.7605 -1.7480 -0.9576
  166MPD2    N1 2593   0.311   0.016   0.728 -0.3172  0.4959  0.5434
  166MPD2    H7 2594   0.312   4.712   0.635  1.4781 -0.3364  0.9077
  167TMC2    C1 2595   3.468   1.373  12.760  0.0330 -0.5124  0.4803
  167TMC2    C2 2596   3.381   1.339  12.859 -0.3309 -0.7802  0.0109
  167TMC2    C3 2597   3.395   1.223  12.929 -0.6491  0.2118 -0.2813
  167TMC2    C4 2598   3.576   1.290  12.723 -0.3508  0.3761  0.3082
  167TMC2    C5 2599   3.598   1.173  12.800 -0.6449 -0.1840 -0.0688
  167TMC2    C6 2600   3.507   1.145  12.906 -0.3656 -0.2154 -0.6187
  167TMC2     C 2601   3.454   1.509  12.701 -0.1830 -0.4713 -0.1771
  167TMC2     O 2602   3.353   1.573  12.717  0.8303  0.1184  0.1132
  167TMC2     H 2603   3.302   1.404  12.894  0.8706  1.8011 -2.0815
  167TMC2    H1 2604   3.640   1.306  12.637 -0.7883  0.0555 -0.0742
  167TMC2    H2 2605   3.517   1.057  12.968  0.6737  0.0813 -0.3830
  167TMC2    C7 2606   3.676   1.064  12.752 -0.1318  0.2681  0.2697
  167TMC2    C8 2607   3.314   1.190  13.045 -0.4011  0.1468  0.3164
  167TMC2    O1 2608   3.642   0.949  12.784  0.0494 -0.1025 -0.0753
  167TMC2    O2 2609   3.355   1.154  13.151  0.4394  0.6154  0.1323
  167TMC2    O5 2610   3.191   1.245  13.028  0.2107  0.4425 -0.2190
  167TMC2    H5 2611   3.157   1.247  12.936 -0.1422  0.1831 -0.0934
  168MPD2     C 2612   3.508   1.774  12.550  0.4850 -0.3124  0.0005
  168MPD2    C1 2613   3.595   1.671  12.570 -0.6065  0.4339  0.3249
  168MPD2    C2 2614   3.723   1.668  12.516  0.3755 -0.1880 -0.6866
  168MPD2    C3 2615   3.773   1.790  12.467 -0.2881  0.1520  0.1527
  168MPD2    C4 2616   3.682   1.896  12.446 -0.7186 -0.2290 -0.3519
  168MPD2    C5 2617   3.556   1.892  12.493  0.0441  0.5160  0.2666
  168MPD2     H 2618   3.790   1.585  12.535 -1.9788 -1.9221  0.1726
  168MPD2    H1 2619   3.722   1.992  12.416  0.0267 -0.1909  0.7593
  168MPD2    H2 2620   3.403   1.768  12.578  0.0569 -0.6782 -1.6871
  168MPD2    H3 2621   3.490   1.978  12.487  1.3905  1.4032 -1.8776
  168MPD2     N 2622   3.913   1.798  12.428 -0.1913  0.0502  0.0247
  168MPD2    H5 2623   3.932   1.870  12.359  2.0512 -1.4881 -0.9602
  168MPD2    N1 2624   3.565   1.552  12.638 -0.3388 -0.2045 -0.5239
  168MPD2    H7 2625   3.648   1.493  12.646 -0.0723  0.3417  0.8223
  169MPD1     C 2626   1.460   2.778   8.782 -0.8282 -0.1529 -0.4436
  169MPD1    C1 2627   1.364   2.692   8.833  0.8474 -0.0440  0.7759
  169MPD1    C2 2628   1.403   2.581   8.901 -0.3450  0.3498  0.4029
  169MPD1    C3 2629   1.530   2.550   8.924 -0.3818  0.4084  0.2707
  169MPD1    C4 2630   1.632   2.631   8.867  0.9948  0.5676 -0.3792
  169MPD1    C5 2631   1.594   2.745   8.793  0.3772 -0.5237  0.8567
  169MPD1     H 2632   1.326   2.509   8.928 -1.6378  1.3577 -0.6622
  169MPD1    H1 2633   1.736   2.603   8.881  0.4556 -0.0513  2.2687
  169MPD1    H2 2634   1.436   2.869   8.728 -0.1137  1.0548  1.2523
  169MPD1    H3 2635   1.665   2.819   8.755 -1.1646  0.5021 -0.0094
  169MPD1     N 2636   1.543   2.428   9.000  0.2741 -0.2105 -0.6474
  169MPD1    H5 2637   1.460   2.387   9.043 -1.4950  1.1996 -2.7175
  169MPD1    N1 2638   1.229   2.715   8.800  0.5794 -0.7611  0.3352
  169MPD1    H6 2639   1.214   2.813   8.779  3.1851 -0.9452 -2.4708
  169MPD1    H7 2640   1.165   2.694   8.876 -1.8958  0.3694 -1.4450
  170MPD1     C 2641   0.330   3.582  13.232  0.1181 -0.0899 -0.2031
  170MPD1    C1 2642   0.223   3.666  13.208 -0.3434  0.1352  0.1818
  170MPD1    C2 2643   0.150   3.713  13.312  0.2101  0.2200 -0.4787
  170MPD1    C3 2644   0.186   3.674  13.446 -0.2893  0.0558 -0.3172
  170MPD1    C4 2645   0.295   3.577  13.457 -0.2398 -0.5141  0.1892
  170MPD1    C5 2646   0.366   3.539  13.349 -0.4557  0.6183  0.1261
  170MPD1     H 2647   0.071   3.783  13.289  0.3326 -0.6881 -3.6711
  170MPD1    H1 2648   0.312   3.529  13.553 -0.4933 -1.0627 -0.0435
  170MPD1    H2 2649   0.389   3.544  13.150  1.1282 -1.3677  1.1190
  170MPD1    H3 2650   0.452   3.472  13.351 -1.5973 -0.8539 -0.1190
  170MPD1     N 2651   0.121   3.725  13.554  0.8142  0.1637 -0.3420
  170MPD1    H5 2652   0.033   3.774  13.539  0.6736  0.1878  0.5379
  170MPD1    N1 2653   0.194   3.712  13.076  0.0473 -0.0501 -0.0728
  170MPD1    H6 2654   0.253   3.684  12.998  0.3627  0.7469 -0.1183
  170MPD1    H7 2655   0.094   3.718  13.056  0.7064  2.8439 -2.5239
  171MPD1     C 2656   3.457   0.360  15.479  0.0483 -0.4114 -0.0480
  171MPD1    C1 2657   3.366   0.257  15.484 -0.5345 -0.4192  0.6213
  171MPD1    C2 2658   3.403   0.141  15.547  0.2340 -0.4084  0.5334
  171MPD1    C3 2659   3.520   0.137  15.617  0.4471  0.1475  0.4306
  171MPD1    C4 2660   3.603   0.242  15.626 -0.5460  0.5645 -0.3972
  171MPD1    C5 2661   3.574   0.345  15.552 -0.4862 -0.6459  0.1913
  171MPD1     H 2662   3.332   0.059  15.546  1.7556 -1.7605  1.7701
  171MPD1    H1 2663   3.705   0.237  15.662 -0.4943 -0.8953 -0.7226
  171MPD1    H2 2664   3.429   0.449  15.423  2.2672 -1.9433 -3.5772
  171MPD1    H3 2665   3.645   0.425  15.567 -0.3348 -0.3674 -2.0000
  171MPD1     N 2666   3.555   0.027  15.690  0.5577  0.0781 -0.3376
  171MPD1    H5 2667   3.638   0.041  15.747  0.7465 -2.0586 -0.0983
  171MPD1    N1 2668   3.252   0.266  15.401 -0.3522 -0.1025  0.5794
  171MPD1    H6 2669   3.175   0.221  15.451 -0.5869  0.3779  0.6527
  171MPD1    H7 2670   3.213   0.360  15.400  0.2747  0.1672  1.2096
  172MPD1     C 2671   2.505   3.724   0.184  0.0727  0.7299 -0.0004
  172MPD1    C1 2672   2.449   3.802   0.275 -0.0125 -0.1012 -0.5879
  172MPD1    C2 2673   2.510   3.924   0.307  0.0497 -0.2087  0.2245
  172MPD1    C3 2674   2.637   3.950   0.263  0.1949 -0.0171 -0.7312
  172MPD1    C4 2675   2.700   3.858   0.181  0.3758  1.2713  0.0967
  172MPD1    C5 2676   2.633   3.743   0.143 -0.4933  0.9965  0.2046
  172MPD1     H 2677   2.474   3.991   0.384  0.8251  0.9868 -0.4498
  172MPD1    H1 2678   2.790   3.880   0.126  1.2584  1.1262  1.4898
  172MPD1    H2 2679   2.465   3.624   0.169  1.0715  0.3150  0.0668
  172MPD1    H3 2680   2.682   3.663   0.089 -0.6869  0.3076  1.0437
  172MPD1     N 2681   2.698   4.074   0.293 -0.0221 -0.0687 -0.2366
  172MPD1    H5 2682   2.782   4.086   0.236 -0.7986 -1.2873 -1.6359
  172MPD1    N1 2683   2.320   3.775   0.323 -0.1579  0.7692 -0.5691
  172MPD1    H6 2684   2.294   3.677   0.315  1.8364  0.1374  0.8901
  172MPD1    H7 2685   2.296   3.815   0.414  2.6439 -0.4718  0.6950
  173MPD1     C 2686   2.896   4.402  13.878  0.8554 -0.3275  0.0722
  173MPD1    C1 2687   2.907   4.313  13.977  0.4262 -0.4872  0.2139
  173MPD1    C2 2688   3.025   4.241  13.997 -0.0458  0.6613  0.4328
  173MPD1    C3 2689   3.142   4.283  13.935 -0.4788  0.5992 -0.2117
  173MPD1    C4 2690   3.132   4.382  13.839 -0.4607  0.0119 -0.1003
  173MPD1    C5 2691   3.006   4.434  13.805  0.6035  0.3070 -0.3945
  173MPD1     H 2692   3.016   4.157  14.064  0.0089 -0.8079 -1.4161
  173MPD1    H1 2693   3.215   4.411  13.776 -0.8163 -0.6306 -0.8579
  173MPD1    H2 2694   2.798   4.433  13.843  1.3042  0.7913 -0.2148
  173MPD1    H3 2695   3.000   4.506  13.724  2.0949  1.2220  0.3101
  173MPD1     N 2696   3.263   4.232  13.984 -0.2934  0.3697  0.3854
  173MPD1    H5 2697   3.242   4.156  14.047  1.4169 -1.7232 -1.5634
  173MPD1    N1 2698   2.782   4.261  14.030 -0.2403  0.3960  0.3343
  173MPD1    H6 2699   2.705   4.328  14.030 -1.3365 -0.8412 -1.0938
  173MPD1    H7 2700   2.801   4.225  14.124 -0.8605 -1.8586 -0.3909
  174MPD1     C 2701   4.174   4.533  13.749 -0.2999  0.5683  0.3866
  174MPD1    C1 2702   4.210   4.417  13.815 -0.2441 -0.4137 -0.0461
  174MPD1    C2 2703   4.107   4.361  13.887  0.0279  0.7670  0.1640
  174MPD1    C3 2704   3.976   4.410  13.884  0.2117  0.2074  0.0080
  174MPD1    C4 2705   3.946   4.522  13.812 -0.1949  0.7011 -0.6392
  174MPD1    C5 2706   4.047   4.582  13.751 -0.2247  0.2497 -0.3717
  174MPD1     H 2707   4.117   4.268  13.941 -3.3289  0.6348  0.5288
  174MPD1    H1 2708   3.851   4.573  13.829  0.2123  1.4938 -0.7545
  174MPD1    H2 2709   4.237   4.590  13.681  0.4858 -1.1935 -0.3482
  174MPD1    H3 2710   4.032   4.678  13.703 -1.4030 -0.5916 -1.6757
  174MPD1     N 2711   3.872   4.366  13.958 -0.4910  0.5783  0.2354
  174MPD1    H5 2712   3.795   4.430  13.946 -0.9039  0.0970  0.3018
  174MPD1    N1 2713   4.345   4.366  13.813  1.0480  0.0816 -0.0782
  174MPD1    H6 2714   4.350   4.270  13.847  1.0637 -0.0401 -0.4246
  174MPD1    H7 2715   4.406   4.390  13.735  2.7088 -0.1303  1.1841
  175MPD1     C 2716   2.710   0.401  15.452 -0.6055  0.2658 -0.5618
  175MPD1    C1 2717   2.570   0.411  15.453  0.0905 -0.0469 -0.2669
  175MPD1    C2 2718   2.499   0.375  15.570 -0.4327  0.6842  0.6633
  175MPD1    C3 2719   2.566   0.326  15.679  0.2787 -0.1597  1.1845
  175MPD1    C4 2720   2.699   0.306  15.674  0.4973  0.0231 -0.2997
  175MPD1    C5 2721   2.771   0.339  15.564  0.5885  0.6776 -0.7536
  175MPD1     H 2722   2.391   0.380  15.565 -0.4593 -2.3184 -1.7080
  175MPD1    H1 2723   2.756   0.257  15.751  3.7757 -0.4429 -3.0220
  175MPD1    H2 2724   2.777   0.424  15.369  0.1058 -1.1311 -0.3682
  175MPD1    H3 2725   2.878   0.329  15.555  0.4602 -2.2998  0.8825
  175MPD1     N 2726   2.510   0.297  15.803 -0.0263  0.1416 -0.0455
  175MPD1    H5 2727   2.568   0.243  15.868 -0.9930  2.5148  2.7954
  175MPD1    N1 2728   2.508   0.457  15.335  0.2586  0.2296  0.4011
  175MPD1    H6 2729   2.424   0.400  15.325 -0.7831  1.9385 -0.5636
  175MPD1    H7 2730   2.569   0.450  15.254 -0.9306  0.4930 -0.5133
  176MPD1     C 2731   3.455   1.774  17.595 -0.1972  0.1215  0.1311
  176MPD1    C1 2732   3.361   1.879  17.592 -0.3584 -0.0250 -0.3089
  176MPD1    C2 2733   3.397   1.999  17.533 -0.3268  0.0899  0.0643
  176MPD1    C3 2734   3.521   2.006  17.477 -0.5749 -0.0017 -0.1318
  176MPD1    C4 2735   3.604   1.896  17.470 -0.1828 -0.2686 -0.0777
  176MPD1    C5 2736   3.569   1.780  17.530  0.5561 -0.1320 -0.2742
  176MPD1     H 2737   3.337   2.089  17.526  2.4304  1.9954  0.7791
  176MPD1    H1 2738   3.694   1.890  17.410 -2.0107 -1.3232 -2.6998
  176MPD1    H2 2739   3.422   1.680  17.639  1.0091 -0.7177 -0.7616
  176MPD1    H3 2740   3.629   1.692  17.508  0.5904 -0.2096  0.1277
  176MPD1     N 2741   3.560   2.124  17.415 -0.3822  0.0342 -0.0487
  176MPD1    H5 2742   3.490   2.196  17.414 -1.4818 -1.0216  0.6828
  176MPD1    N1 2743   3.238   1.857  17.649  0.2849 -1.1709  0.3930
  176MPD1    H6 2744   3.233   1.813  17.741 -0.1771 -1.0565  0.4201
  176MPD1    H7 2745   3.181   1.941  17.656  1.6185 -0.4270  2.5394
  177MPD1     C 2746   2.191   1.759  10.342  0.4116 -0.3604  0.4263
  177MPD1    C1 2747   2.069   1.800  10.302 -0.3043 -0.6889 -1.1073
  177MPD1    C2 2748   2.043   1.882  10.196 -0.0214  0.4174 -0.1677
  177MPD1    C3 2749   2.148   1.947  10.143  0.4255 -0.2275  0.1916
  177MPD1    C4 2750   2.276   1.911  10.179 -0.1657  0.3913 -0.1043
  177MPD1    C5 2751   2.297   1.818  10.282 -0.6005  0.2402 -0.4541
  177MPD1     H 2752   1.939   1.909  10.178  0.3968  0.6097 -2.3331
  177MPD1    H1 2753   2.363   1.951  10.128  2.2458 -0.7486  3.1080
  177MPD1    H2 2754   2.206   1.689  10.423 -1.4299 -0.5249  0.6366
  177MPD1    H3 2755   2.399   1.790  10.303 -0.0907  0.9808 -1.9597
  177MPD1     N 2756   2.121   2.037  10.033  0.4265 -0.3735  0.1413
  177MPD1    H5 2757   2.024   2.064  10.027  0.3061 -1.0777 -1.0652
  177MPD1    N1 2758   1.961   1.736  10.360  0.2692  0.1138  0.0976
  177MPD1    H6 2759   1.869   1.779  10.350  1.6771  3.0712 -0.0797
  177MPD1    H7 2760   1.976   1.693  10.451  0.1516  1.4163  0.7363
  178MPD1     C 2761   4.329   3.943  17.547 -0.3543  0.2089  0.3772
  178MPD1    C1 2762   4.433   3.865  17.598  0.3309  0.0026 -0.1753
  178MPD1    C2 2763   4.506   3.798  17.498 -0.5364  0.2454  0.4465
  178MPD1    C3 2764   4.497   3.830  17.362  0.0579  0.1183  0.0408
  178MPD1    C4 2765   4.412   3.926  17.319  0.5643  0.1341 -0.2192
  178MPD1    C5 2766   4.328   3.977  17.417  0.2220  0.1870 -0.1540
  178MPD1     H 2767   4.576   3.723  17.533 -0.9956 -0.4271 -0.0892
  178MPD1    H1 2768   4.395   3.939  17.213 -0.4659  2.5997  0.2406
  178MPD1    H2 2769   4.243   3.979  17.603  0.1326  2.2552 -0.1817
  178MPD1    H3 2770   4.249   4.042  17.383  0.0119 -0.1142 -0.2397
  178MPD1     N 2771   4.573   3.761  17.260 -0.5000 -0.3185 -0.2519
  178MPD1    H5 2772   4.565   3.797  17.166  2.4983 -0.2426 -0.4908
  178MPD1    N1 2773   4.435   3.832  17.737  0.0825  0.1975  0.0022
  178MPD1    H6 2774   4.395   3.906   0.052  0.5151  1.6870 -1.6370
  178MPD1    H7 2775   4.530   3.814   0.027 -0.9459 -0.0659  2.9837
  179MPD1     C 2776   4.496   1.630  15.449  0.1169  0.3606  0.4577
  179MPD1    C1 2777   4.367   1.618  15.499 -0.9123  0.4977 -1.4485
  179MPD1    C2 2778   4.317   1.493  15.538 -0.1451 -0.9612 -0.2866
  179MPD1    C3 2779   4.409   1.389  15.552  0.8946  0.5555  0.4161
  179MPD1    C4 2780   4.541   1.415  15.537 -0.4347 -0.3363 -0.4269
  179MPD1    C5 2781   4.582   1.527  15.469  0.1462  0.5032 -0.2951
  179MPD1     H 2782   4.214   1.480  15.566 -0.6639 -0.0749 -1.7516
  179MPD1    H1 2783   4.619   1.344  15.563  0.7855  1.3315  0.4021
  179MPD1    H2 2784   4.539   1.726  15.423  0.4057  0.1002 -0.0267
  179MPD1    H3 2785   4.688   1.542  15.456 -0.0451  1.1295 -1.0567
  179MPD1     N 2786   4.364   1.261  15.613  0.0463 -0.3071  0.2674
  179MPD1    H5 2787   4.433   1.189  15.630  0.4617 -0.1942 -0.8994
  179MPD1    N1 2788   4.278   1.713  15.473  0.1376  0.2319 -0.1466
  179MPD1    H6 2789   4.320   1.806  15.475  0.5511  0.0912 -2.3174
  179MPD1    H7 2790   4.194   1.715  15.530 -0.7319  0.3605 -1.4243
  180MPD1     C 2791   4.592   2.711  15.404  0.1891  0.0559  0.0216
  180MPD1    C1 2792   4.639   2.681  15.279 -0.3286  0.4306  0.3986
  180MPD1    C2 2793   4.546   2.662  15.183 -0.0971 -0.6141 -0.2949
  180MPD1    C3 2794   4.408   2.664  15.211 -0.0010 -0.1643 -1.8212
  180MPD1    C4 2795   4.358   2.681  15.339  0.1391 -0.2166  0.3454
  180MPD1    C5 2796   4.460   2.702  15.435 -0.3691  0.4392 -0.0195
  180MPD1     H 2797   4.578   2.650  15.080  1.9203  0.6332  0.1816
  180MPD1    H1 2798   4.252   2.674  15.360  0.0576  1.5957  0.5463
  180MPD1    H2 2799   4.666   2.738  15.478  0.2838  1.9594 -0.7768
  180MPD1    H3 2800   4.430   2.713  15.539  0.9286  0.0439  0.3924
  180MPD1     N 2801   4.328   2.651  15.099  0.1154  0.8089  0.8285
  180MPD1    H5 2802   4.370   2.647  15.007 -1.7447  1.7478 -0.0769
  180MPD1    N1 2803   0.038   2.704  15.244  0.1733 -0.2996 -0.2568
  180MPD1    H6 2804   0.055   2.646  15.162 -2.6322 -1.0863 -0.2855
  180MPD1    H7 2805   0.102   2.672  15.315  0.1753  0.9736  0.3187
  181MPD1     C 2806   2.066   0.459   9.409 -0.6983  0.2022  0.7564
  181MPD1    C1 2807   2.079   0.322   9.401 -0.0077 -0.2167 -0.3817
  181MPD1    C2 2808   2.031   0.247   9.507  1.1465 -0.0200 -0.7213
  181MPD1    C3 2809   1.983   0.300   9.624 -0.1504 -0.1329 -0.0948
  181MPD1    C4 2810   1.960   0.439   9.622  0.7509  1.0829 -0.1666
  181MPD1    C5 2811   2.011   0.515   9.520  0.0308 -0.3192 -0.3480
  181MPD1     H 2812   2.056   0.142   9.509  1.0347 -0.0396 -0.2252
  181MPD1    H1 2813   1.924   0.488   9.712 -0.5564 -0.1332 -0.0238
  181MPD1    H2 2814   2.096   0.522   9.326 -0.3361 -0.0371  0.7040
  181MPD1    H3 2815   1.994   0.620   9.542  2.9033  0.1426 -0.3652
  181MPD1     N 2816   1.955   0.228   9.744 -0.0109  0.4078  0.8290
  181MPD1    H5 2817   1.911   0.286   9.815 -1.1886  1.9620 -1.1777
  181MPD1    N1 2818   2.130   0.265   9.285 -0.9279 -0.0639  0.8728
  181MPD1    H6 2819   2.189   0.187   9.313  1.7130  1.4771 -0.3212
  181MPD1    H7 2820   2.178   0.328   9.220  0.2710 -0.9822  0.8529
  182MPD1     C 2821   1.591   4.499   1.851 -0.4501  0.2996  0.3249
  182MPD1    C1 2822   1.645   4.379   1.812 -0.8771  0.0379  0.4329
  182MPD1    C2 2823   1.596   4.313   1.703 -0.1611  0.1826 -0.8218
  182MPD1    C3 2824   1.493   4.376   1.633 -0.2277 -0.2184  0.4518
  182MPD1    C4 2825   1.441   4.499   1.662 -0.3666 -0.3331  0.5833
  182MPD1    C5 2826   1.489   4.557   1.777 -0.0541  0.0127  0.0891
  182MPD1     H 2827   1.632   4.215   1.674 -0.0282 -0.4222  1.4381
  182MPD1    H1 2828   1.358   4.540   1.606  2.1917  1.6662 -1.7710
  182MPD1    H2 2829   1.623   4.543   1.945 -0.0264 -0.0733  0.3541
  182MPD1    H3 2830   1.443   4.648   1.812  0.0368  0.6525 -1.4836
  182MPD1     N 2831   1.426   4.311   1.528 -0.4173  0.2719 -0.0164
  182MPD1    H5 2832   1.365   4.371   1.472 -2.0653 -1.2136  0.1996
  182MPD1    N1 2833   1.740   4.319   1.898  0.2822  0.2719  0.2372
  182MPD1    H6 2834   1.786   4.392   1.953 -0.1096 -1.0219  2.3175
  182MPD1    H7 2835   1.809   4.269   1.843 -0.0199 -2.1119  1.9847
  183MPD1     C 2836   2.137   0.820   9.807 -0.7249  0.5081 -0.1496
  183MPD1    C1 2837   2.118   0.719   9.892 -0.1068 -0.8855 -0.1529
  183MPD1    C2 2838   2.161   0.590   9.872 -0.5502  0.6121 -0.1655
  183MPD1    C3 2839   2.240   0.571   9.763  0.2106  0.1451  0.0965
  183MPD1    C4 2840   2.264   0.672   9.671  0.3895  0.3870  0.1844
  183MPD1    C5 2841   2.211   0.794   9.695  0.0396  0.0690 -1.1229
  183MPD1     H 2842   2.154   0.513   9.948  2.0569 -0.3052 -0.8403
  183MPD1    H1 2843   2.334   0.666   9.588 -1.0670  3.1282 -1.2407
  183MPD1    H2 2844   2.092   0.918   9.823 -2.3925  0.1950 -2.9462
  183MPD1    H3 2845   2.237   0.875   9.629  0.1690  0.2811 -0.8130
  183MPD1     N 2846   2.308   0.455   9.757  0.0743  0.3229  0.4403
  183MPD1    H5 2847   2.299   0.394   9.838  1.8958  0.4230  0.7192
  183MPD1    N1 2848   2.019   0.742   9.986 -0.1400  0.8566 -0.4434
  183MPD1    H6 2849   2.039   0.831  10.031  1.1899  1.3057 -1.9141
  183MPD1    H7 2850   2.023   0.675  10.063  2.7753  0.5855 -0.8299
  184MPD1     C 2851   1.266   1.953  10.280  0.6867  0.0312 -0.0276
  184MPD1    C1 2852   1.187   2.064  10.289  0.1150  0.3284 -0.1174
  184MPD1    C2 2853   1.220   2.173  10.214  0.1602  0.0534 -0.1072
  184MPD1    C3 2854   1.336   2.183  10.144  0.4200 -0.0809 -0.1188
  184MPD1    C4 2855   1.418   2.075  10.141  0.2801 -0.0300 -0.2095
  184MPD1    C5 2856   1.385   1.957  10.211 -0.0255 -0.0303  0.0286
  184MPD1     H 2857   1.150   2.256  10.222  0.9227  0.5217  1.6062
  184MPD1    H1 2858   1.519   2.083  10.103 -0.0279  1.7451 -0.6473
  184MPD1    H2 2859   1.260   1.868  10.347  2.8651  0.3593  0.5698
  184MPD1    H3 2860   1.449   1.871  10.199  0.4615  0.5848 -1.6880
  184MPD1     N 2861   1.352   2.288  10.052 -0.1198 -0.0239  1.2445
  184MPD1    H5 2862   1.279   2.356  10.036  0.8515  0.0616 -2.7787
  184MPD1    N1 2863   1.068   2.070  10.366 -0.5523 -0.0482  0.2110
  184MPD1    H6 2864   1.057   2.157  10.418  1.9060  0.7918 -0.6563
  184MPD1    H7 2865   1.065   2.006  10.445 -0.1891  0.5772  0.7293
  185MPD1     C 2866   0.777   2.564   9.498 -0.0931  0.5978 -0.1297
  185MPD1    C1 2867   0.876   2.642   9.452 -0.2065 -0.4390 -0.9200
  185MPD1    C2 2868   0.997   2.636   9.518 -0.8638 -0.6597 -0.4827
  185MPD1    C3 2869   1.018   2.561   9.634 -0.2130 -0.6940 -0.3268
  185MPD1    C4 2870   0.910   2.489   9.682  0.3119 -0.1600 -0.5637
  185MPD1    C5 2871   0.796   2.486   9.608 -0.3556 -0.1899 -0.3794
  185MPD1     H 2872   1.080   2.683   9.468 -1.0121  2.0352  1.8374
  185MPD1    H1 2873   0.919   2.429   9.771  0.9164 -2.0472 -1.9000
  185MPD1    H2 2874   0.679   2.553   9.453  0.1000  2.9599 -1.0949
  185MPD1    H3 2875   0.710   2.427   9.639  1.5890 -0.3091  4.8878
  185MPD1     N 2876   1.146   2.554   9.700 -0.0160 -0.2455 -0.2704
  185MPD1    H5 2877   1.157   2.501   9.785  1.3127 -0.4328 -0.5691
  185MPD1    N1 2878   0.860   2.705   9.331  0.4941  0.2800 -0.0292
  185MPD1    H6 2879   0.759   2.713   9.321  0.2476 -0.5830  1.6493
  185MPD1    H7 2880   0.900   2.799   9.328 -2.5045  1.5475 -0.6963
  186MPD1     C 2881   0.235   1.100  15.938 -0.3818 -0.3567 -0.4695
  186MPD1    C1 2882   0.109   1.106  15.993  0.3339  0.4973 -1.4684
  186MPD1    C2 2883   0.085   1.196  16.093  0.4816 -0.5140  0.3519
  186MPD1    C3 2884   0.186   1.264  16.155 -0.0599 -0.3057 -0.8844
  186MPD1    C4 2885   0.309   1.258  16.098 -0.6944 -0.2037  0.4496
  186MPD1    C5 2886   0.335   1.174  15.996 -0.8574 -0.0436  0.7169
  186MPD1     H 2887   4.716   1.212  16.116  0.1204  0.9537 -2.2864
  186MPD1    H1 2888   0.386   1.317  16.147  1.5460 -0.7920 -2.3102
  186MPD1    H2 2889   0.257   1.038  15.852 -0.9206 -2.5888  1.0312
  186MPD1    H3 2890   0.436   1.158  15.962 -0.8508  0.4227  0.5207
  186MPD1     N 2891   0.166   1.349  16.259 -0.0189  0.2485 -0.4878
  186MPD1    H5 2892   0.247   1.406  16.283 -0.2050 -0.3341  1.4941
  186MPD1    N1 2893   0.007   1.058  15.915 -0.9167 -0.3915 -0.4584
  186MPD1    H6 2894   4.655   1.055  15.965  0.7493 -1.4863  2.4182
  186MPD1    H7 2895   0.019   0.968  15.870  2.8928 -0.9593  1.6748
  187MPD1     C 2896   0.023   3.157  17.580 -0.3781 -0.5747 -0.3802
  187MPD1    C1 2897   4.696   3.147  17.454  0.2231 -0.2501 -0.0854
  187MPD1    C2 2898   4.554   3.147  17.453  0.7589 -0.3350 -0.0083
  187MPD1    C3 2899   4.479   3.147  17.569 -0.4766  0.2107  0.1022
  187MPD1    C4 2900   4.543   3.129  17.687  0.1773 -0.3636 -0.6996
  187MPD1    C5 2901   4.678   3.141  17.690 -0.1831 -0.1901  0.2823
  187MPD1     H 2902   4.502   3.170  17.360 -0.5611  0.6225  0.9625
  187MPD1    H1 2903   4.499   3.113   0.043  1.6173  0.7410  0.1319
  187MPD1    H2 2904   0.127   3.188  17.589  0.0373 -1.7683 -1.0401
  187MPD1    H3 2905   4.730   3.138   0.043  1.5543 -2.2880 -0.7247
  187MPD1     N 2906   4.340   3.153  17.576 -0.5534  0.4167  0.2102
  187MPD1    H5 2907   4.300   3.145  17.669 -1.8284 -0.5767 -0.4276
  187MPD1    N1 2908   0.035   3.183  17.340 -0.0874 -0.7376  0.0099
  187MPD1    H6 2909   0.012   3.140  17.251  1.4405 -0.8782 -0.3289
  187MPD1    H7 2910   0.133   3.155  17.352  0.0629 -0.3894 -0.3947
  188MPD1     C 2911   3.803   3.733  10.805 -0.7470 -0.5398 -0.1468
  188MPD1    C1 2912   3.901   3.633  10.832  0.0210 -0.1222  0.8272
  188MPD1    C2 2913   3.905   3.519  10.749  0.0770 -0.0493  0.0636
  188MPD1    C3 2914   3.814   3.503  10.643  0.6233 -0.0407 -0.4738
  188MPD1    C4 2915   3.724   3.599  10.619 -0.1781 -0.6088 -0.2650
  188MPD1    C5 2916   3.720   3.714  10.693 -0.6227 -0.4633  0.1517
  188MPD1     H 2917   3.988   3.452  10.771  1.4670  1.7212  0.1762
  188MPD1    H1 2918   3.662   3.594  10.530 -0.2826 -0.7710 -0.1819
  188MPD1    H2 2919   3.798   3.824  10.863 -0.6695 -1.5384  1.4324
  188MPD1    H3 2920   3.651   3.796  10.680 -2.0370 -1.8789 -1.2846
  188MPD1     N 2921   3.822   3.388  10.562 -0.3911 -0.2221 -0.1500
  188MPD1    H5 2922   3.744   3.381  10.498  1.4447 -0.7406 -2.3044
  188MPD1    N1 2923   3.979   3.635  10.952  0.1914  0.1351  0.2014
  188MPD1    H6 2924   4.073   3.601  10.939 -0.9747 -2.1772 -2.1743
  188MPD1    H7 2925   3.999   3.726  10.992 -2.5499  0.3472  1.1515
  189MPD1     C 2926   1.245   0.319   0.830 -0.0784 -0.3620 -0.0494
  189MPD1    C1 2927   1.161   0.425   0.804 -0.3623  0.2900 -0.1966
  189MPD1    C2 2928   1.051   0.395   0.729  0.4927  0.5322  0.2010
  189MPD1    C3 2929   1.011   0.266   0.692  0.5947 -0.3802 -0.3921
  189MPD1    C4 2930   1.099   0.163   0.716  0.0517  0.2118 -0.3796
  189MPD1    C5 2931   1.220   0.191   0.781 -0.1783 -0.4802  0.3894
  189MPD1     H 2932   0.988   0.481   0.705 -0.1030  0.3389  1.0680
  189MPD1    H1 2933   1.078   0.058   0.703 -0.5814  0.1575  1.0758
  189MPD1    H2 2934   1.345   0.343   0.863  0.2930 -1.6942 -0.1857
  189MPD1    H3 2935   1.285   0.107   0.803 -0.0347 -0.7266 -0.9531
  189MPD1     N 2936   0.889   0.252   0.615 -0.2214  0.4072  0.4615
  189MPD1    H5 2937   0.853   0.344   0.590  1.1906  0.3142 -1.8991
  189MPD1    N1 2938   1.196   0.553   0.830  0.5846  0.2295  0.5919
  189MPD1    H6 2939   1.124   0.599   0.885  0.4008  0.0767  0.4769
  189MPD1    H7 2940   1.284   0.549   0.882  0.7997 -1.0724  0.1067
  190MPD1     C 2941   4.284   2.303  14.818 -0.2310  0.3307  0.0214
  190MPD1    C1 2942   4.416   2.326  14.798  1.2076 -0.5240 -0.1190
  190MPD1    C2 2943   4.503   2.329  14.910  0.2646 -0.3200  0.4672
  190MPD1    C3 2944   4.452   2.294  15.032  0.3627 -0.5289 -0.0503
  190MPD1    C4 2945   4.323   2.260  15.043 -0.2471  0.0587 -0.0177
  190MPD1    C5 2946   4.236   2.261  14.939 -0.5486 -0.8817 -0.0741
  190MPD1     H 2947   4.609   2.352  14.906 -0.0385  0.8584 -0.7354
  190MPD1    H1 2948   4.268   2.229  15.132 -0.1866 -0.6150 -0.2188
  190MPD1    H2 2949   4.208   2.308  14.740 -0.8609  3.4410  0.8544
  190MPD1    H3 2950   4.130   2.242  14.952 -0.6711  0.3487  0.6396
  190MPD1     N 2951   4.541   2.306  15.143 -0.2285 -0.4138 -0.3191
  190MPD1    H5 2952   4.637   2.336  15.129 -0.6704  2.2262  2.2702
  190MPD1    N1 2953   4.455   2.368  14.667 -0.2285 -0.1556 -0.4408
  190MPD1    H6 2954   4.391   2.344  14.591  0.5228  0.6191 -1.3077
  190MPD1    H7 2955   4.540   2.322  14.635  0.0712 -0.1692  0.3774
  191MPD1     C 2956   3.212   3.743  13.389  0.2993  0.3142  0.0150
  191MPD1    C1 2957   3.083   3.785  13.377  0.0204  0.1333  0.1984
  191MPD1    C2 2958   3.061   3.918  13.341 -0.1644  0.1818 -0.5024
  191MPD1    C3 2959   3.165   3.991  13.290 -1.1437  0.5390  0.5055
  191MPD1    C4 2960   3.291   3.946  13.293  0.2550 -0.2897  0.1303
  191MPD1    C5 2961   3.315   3.820  13.345  0.2090  0.1685 -0.0558
  191MPD1     H 2962   2.958   3.949  13.346  0.8636  3.3979  0.8859
  191MPD1    H1 2963   3.378   4.005  13.265  0.9047 -0.9171  0.8086
  191MPD1    H2 2964   3.239   3.645  13.427 -3.1122 -0.6844 -0.1263
  191MPD1    H3 2965   3.412   3.774  13.329 -0.1988  0.4005 -3.0792
  191MPD1     N 2966   3.133   4.122  13.239 -0.5149  0.1109  0.4282
  191MPD1    H5 2967   3.034   4.138  13.226 -0.4691  0.8191  0.9719
  191MPD1    N1 2968   2.987   3.700  13.425  0.3453  0.0112 -0.3853
  191MPD1    H6 2969   3.001   3.600  13.410  0.6576  0.2145 -1.4300
  191MPD1    H7 2970   2.896   3.736  13.395  1.1245  1.4036 -1.0804
  192MPD1     C 2971   2.395   4.299  13.004 -0.3723  0.5331  0.0229
  192MPD1    C1 2972   2.439   4.434  13.004 -0.1057  0.7278  0.1028
  192MPD1    C2 2973   2.573   4.460  12.997 -0.0117 -0.2444 -0.2870
  192MPD1    C3 2974   2.659   4.354  12.978 -0.1300 -0.3220  0.7700
  192MPD1    C4 2975   2.616   4.225  12.984 -0.1674  0.0273 -0.0893
  192MPD1    C5 2976   2.483   4.199  12.998  0.3776 -0.8269  0.3887
  192MPD1     H 2977   2.619   4.558  13.002 -1.2977  0.3542 -0.1373
  192MPD1    H1 2978   2.676   4.137  12.966 -1.5556 -0.6476 -1.4605
  192MPD1    H2 2979   2.293   4.268  13.026  0.1258 -0.1935  1.3022
  192MPD1    H3 2980   2.452   4.095  12.991 -1.8424 -0.0554 -1.1157
  192MPD1     N 2981   2.802   4.360  12.965 -0.9154 -0.3851 -0.2072
  192MPD1    H5 2982   2.857   4.275  12.964  3.1601  2.1977  1.6061
  192MPD1    N1 2983   2.353   4.537  13.049 -0.4894 -0.0201  0.1077
  192MPD1    H6 2984   2.376   4.625  13.002  0.3782 -0.7176 -0.7721
  192MPD1    H7 2985   2.261   4.514  13.014 -0.5411  1.7438 -0.9118
  193MPD1     C 2986   3.448   4.431  16.287  0.1282  0.2826  0.1081
  193MPD1    C1 2987   3.420   4.572  16.285  0.3289 -0.0459  0.4420
  193MPD1    C2 2988   3.485   4.645  16.384 -0.2662  0.7595 -0.3849
  193MPD1    C3 2989   3.586   4.590  16.458  0.8217  0.0795  0.1031
  193MPD1    C4 2990   3.610   4.457  16.447  0.0147  0.2009  0.2836
  193MPD1    C5 2991   3.539   4.374  16.369 -0.4252  0.1718  0.4473
  193MPD1     H 2992   3.459   0.014  16.392  2.9249  1.5257 -0.4292
  193MPD1    H1 2993   3.688   4.413  16.508  0.8541 -0.7614 -1.4769
  193MPD1    H2 2994   3.400   4.359  16.221  1.2135 -1.9361  1.7425
  193MPD1    H3 2995   3.563   4.269  16.356 -0.3875  0.1615  0.6047
  193MPD1     N 2996   3.672   4.667  16.543 -0.0533  0.1762 -0.5146
  193MPD1    H5 2997   3.740   4.612  16.595  1.1805 -0.6182 -2.9613
  193MPD1    N1 2998   3.326   4.631  16.205 -0.7806 -0.2083 -0.4234
  193MPD1    H6 2999   3.261   4.690  16.257  2.4658  2.7123  0.4056
  193MPD1    H7 3000   3.279   4.569  16.140  1.4374 -0.7917 -1.4722
  194MPD1     C 3001   0.670   1.629  17.611  0.6419  0.1954  0.5850
  194MPD1    C1 3002   0.744   1.533  17.554  0.5081  0.0725  0.5698
  194MPD1    C2 3003   0.849   1.571  17.473 -0.0159 -0.2907  0.0747
  194MPD1    C3 3004   0.888   1.702  17.468 -1.0951 -0.7341  0.0951
  194MPD1    C4 3005   0.815   1.796  17.535 -0.4781 -0.3760  0.3901
  194MPD1    C5 3006   0.701   1.762  17.609 -0.2578 -0.8232 -0.2258
  194MPD1     H 3007   0.912   1.493  17.431 -0.2127 -0.2518 -0.2926
  194MPD1    H1 3008   0.847   1.899  17.543  0.7783 -0.6016 -1.6021
  194MPD1    H2 3009   0.574   1.610  17.658  0.4738 -0.5631 -0.0809
  194MPD1    H3 3010   0.641   1.839  17.656  0.9652  0.8851 -1.4849
  194MPD1     N 3011   1.002   1.743  17.394 -0.7124 -0.3132 -0.2180
  194MPD1    H5 3012   1.022   1.842  17.407  1.4464 -0.6551 -0.9630
  194MPD1    N1 3013   0.702   1.398  17.550  0.4747  0.2282  0.2608
  194MPD1    H6 3014   0.669   1.360  17.639  0.2005 -0.2890 -0.0642
  194MPD1    H7 3015   0.784   1.339  17.544  1.6231  1.8479 -0.0098
  195MPD1     C 3016   3.405   4.112   0.201  0.1319 -0.3381 -1.3805
  195MPD1    C1 3017   3.329   4.033   0.282  0.0057 -0.1003  0.4798
  195MPD1    C2 3018   3.334   3.892   0.274  0.2909 -0.3565 -0.5106
  195MPD1    C3 3019   3.443   3.840   0.200 -0.2146 -0.1071 -0.2591
  195MPD1    C4 3020   3.527   3.920   0.126  0.2202  0.4508  0.6641
  195MPD1    C5 3021   3.519   4.055   0.136  0.5537 -0.7246  0.3479
  195MPD1     H 3022   3.265   3.836   0.335 -0.2625  0.6984 -0.1599
  195MPD1    H1 3023   3.608   3.870   0.075 -2.1697 -0.8291 -1.8926
  195MPD1    H2 3024   3.387   4.218   0.212 -1.3676 -0.3972 -3.1933
  195MPD1    H3 3025   3.585   4.114   0.074 -0.9181  0.1391 -0.3905
  195MPD1     N 3026   3.457   3.698   0.194  0.1088 -1.0971 -0.1141
  195MPD1    H5 3027   3.544   3.662   0.156  0.7171  1.3441 -1.0347
  195MPD1    N1 3028   3.219   4.095   0.334  0.1160  0.2153  0.2659
  195MPD1    H6 3029   3.240   4.192   0.360 -0.0376  0.4944 -0.6556
  195MPD1    H7 3030   3.188   4.060   0.425 -0.3541 -1.6739 -0.6223
  196MPD1     C 3031   2.468   2.224   0.509  0.0208  0.2385 -0.2329
  196MPD1    C1 3032   2.533   2.271   0.626  0.1967  0.6642  0.5049
  196MPD1    C2 3033   2.507   2.403   0.663 -0.3362  0.4833  0.5562
  196MPD1    C3 3034   2.424   2.483   0.585 -0.3739 -0.5415  0.4400
  196MPD1    C4 3035   2.374   2.433   0.462 -0.3453  0.6610  0.4084
  196MPD1    C5 3036   2.397   2.303   0.425  0.3878 -0.5519  0.0319
  196MPD1     H 3037   2.548   2.443   0.755  0.1883  0.5154  0.3094
  196MPD1    H1 3038   2.322   2.503   0.399  1.5767 -0.1964 -2.1340
  196MPD1    H2 3039   2.485   2.123   0.472  3.0615  0.9718 -0.8494
  196MPD1    H3 3040   2.344   2.263   0.339 -0.8293 -0.9790  0.9837
  196MPD1     N 3041   2.400   2.614   0.627  0.0768 -0.0945  0.1915
  196MPD1    H5 3042   2.321   2.659   0.582  0.7046 -0.1504 -0.9698
  196MPD1    N1 3043   2.587   2.180   0.717 -0.1465  0.3376  0.7995
  196MPD1    H6 3044   2.662   2.236   0.758  1.1157 -0.7128 -0.0990
  196MPD1    H7 3045   2.620   2.093   0.677 -0.8833 -0.3773  1.7745
  197MPD1     C 3046   2.833   0.550   0.489 -0.1470 -0.0085 -0.3214
  197MPD1    C1 3047   2.893   0.492   0.371  0.1502 -0.7123 -0.1591
  197MPD1    C2 3048   2.845   0.542   0.256 -0.2406  0.1527  0.2394
  197MPD1    C3 3049   2.724   0.612   0.243  0.1249 -0.7228 -0.3693
  197MPD1    C4 3050   2.660   0.652   0.356  1.4932  0.8016  0.5179
  197MPD1    C5 3051   2.719   0.633   0.480  0.3846  0.1447  0.4214
  197MPD1     H 3052   2.902   0.513   0.168  0.2442  1.0789  0.2470
  197MPD1    H1 3053   2.568   0.709   0.367  1.0116  0.5447 -2.2451
  197MPD1    H2 3054   2.878   0.530   0.585  1.5973  2.2878 -0.6477
  197MPD1    H3 3055   2.676   0.661   0.576  1.1959 -1.3222  1.1939
  197MPD1     N 3056   2.665   0.630   0.120 -0.3921 -0.8614 -0.3567
  197MPD1    H5 3057   2.576   0.677   0.122  0.8550  1.4042  1.6294
  197MPD1    N1 3058   3.016   0.426   0.369  0.7705  0.0689  0.2821
  197MPD1    H6 3059   3.026   0.360   0.292  3.0521 -0.0542  0.6809
  197MPD1    H7 3060   3.028   0.384   0.461 -0.1703  0.6433  0.6669
  198MPD1     C 3061   3.882   3.591  15.200 -0.3752  0.4882 -0.4846
  198MPD1    C1 3062   3.970   3.688  15.170 -0.3025  0.1893  0.0760
  198MPD1    C2 3063   4.068   3.725  15.263  0.0604 -0.4381 -0.3338
  198MPD1    C3 3064   4.073   3.660  15.387  0.4510  0.2898  0.1271
  198MPD1    C4 3065   3.978   3.562  15.417 -0.8929 -0.5568 -0.1131
  198MPD1    C5 3066   3.886   3.529  15.321 -0.0054  0.0654 -0.1960
  198MPD1     H 3067   4.143   3.795  15.228  1.3345 -1.5646  0.1166
  198MPD1    H1 3068   3.988   3.504  15.509 -0.8138  0.6712  0.6572
  198MPD1    H2 3069   3.802   3.553  15.137  0.6065 -0.2277 -1.3035
  198MPD1    H3 3070   3.812   3.453  15.343  0.6179  0.0477  1.8463
  198MPD1     N 3071   4.167   3.709  15.476  0.5853 -0.3106 -0.2244
  198MPD1    H5 3072   4.245   3.759  15.435  1.3915  0.2697  2.0459
  198MPD1    N1 3073   3.953   3.763  15.053  0.5405  0.4085 -0.1191
  198MPD1    H6 3074   3.895   3.720  14.981 -0.3957  0.1011  0.8338
  198MPD1    H7 3075   4.043   3.785  15.011 -0.7789  0.7557 -2.7567
  199MPD1     C 3076   2.175   1.094  10.026 -0.5047  0.1710 -0.8195
  199MPD1    C1 3077   2.061   1.061  10.097 -0.2366 -0.0944  0.2271
  199MPD1    C2 3078   1.933   1.087  10.044  0.5527 -0.0658  0.5082
  199MPD1    C3 3079   1.923   1.164   9.925  0.6998 -0.5429  0.1739
  199MPD1    C4 3080   2.040   1.209   9.861  0.4909 -0.3972  0.6006
  199MPD1    C5 3081   2.165   1.181   9.926  0.4522  0.1867 -0.7457
  199MPD1     H 3082   1.847   1.052  10.099 -0.5862  0.3820 -0.9797
  199MPD1    H1 3083   2.039   1.276   9.775  1.1042 -0.3440  0.6357
  199MPD1    H2 3084   2.269   1.059  10.069 -0.8785 -1.9926 -1.7374
  199MPD1    H3 3085   2.257   1.219   9.883 -0.3438  2.4939 -0.4237
  199MPD1     N 3086   1.796   1.175   9.861 -0.8484 -0.2064 -0.1540
  199MPD1    H5 3087   1.803   1.229   9.775 -0.6761 -0.9761 -0.6218
  199MPD1    N1 3088   2.073   0.968  10.205 -0.1979  0.0521 -0.0875
  199MPD1    H6 3089   2.157   0.970  10.261 -0.4880 -2.1519  0.4664
  199MPD1    H7 3090   1.997   0.952  10.271 -0.0770  2.4420  0.6023
  200MPD1     C 3091   0.546   4.657  14.695  0.2712 -0.4660 -0.0592
  200MPD1    C1 3092   0.588   4.680  14.566  0.0133 -0.4995  0.7212
  200MPD1    C2 3093   0.693   0.028  14.555 -0.3021  0.0240  0.1632
  200MPD1    C3 3094   0.747   0.105  14.653 -0.3734 -0.6763 -0.3329
  200MPD1    C4 3095   0.692   0.083  14.782 -0.1083  0.1581 -0.3668
  200MPD1    C5 3096   0.588   4.731  14.800 -0.1923  0.7163 -0.2703
  200MPD1     H 3097   0.742   0.044  14.459  1.7974  0.3994  1.2832
  200MPD1    H1 3098   0.720   0.136  14.872 -1.0334  1.3258 -0.7626
  200MPD1    H2 3099   0.475   4.580  14.722 -0.1478 -0.1471 -0.2641
  200MPD1    H3 3100   0.534   0.008  14.893 -0.1783 -2.2512  0.1315
  200MPD1     N 3101   0.864   0.183  14.629 -0.2652 -0.2692 -0.5736
  200MPD1    H5 3102   0.905   0.186  14.536 -0.2137 -2.1524 -0.6049
  200MPD1    N1 3103   0.562   4.592  14.456  0.6076  0.6188 -0.0521
  200MPD1    H6 3104   0.472   4.548  14.476  1.1573 -0.5994 -0.2619
  200MPD1    H7 3105   0.552   4.636  14.365  1.0304  0.9774  0.0769
  201MPD1     C 3106   2.835   2.630  13.866  0.0056  0.0800 -0.1037
  201MPD1    C1 3107   2.778   2.725  13.781  0.1085 -0.5812  0.0874
  201MPD1    C2 3108   2.859   2.809  13.706  0.2233  0.7829 -0.5258
  201MPD1    C3 3109   2.990   2.835  13.759 -0.4384  0.6639 -0.8355
  201MPD1    C4 3110   3.043   2.739  13.842  0.1799  0.2783  0.1500
  201MPD1    C5 3111   2.964   2.640  13.894  0.7168  0.5549  0.3338
  201MPD1     H 3112   2.815   2.870  13.628 -0.1190  0.6790 -0.4132
  201MPD1    H1 3113   3.145   2.743  13.879 -0.3407 -0.1241  1.6450
  201MPD1    H2 3114   2.773   2.562  13.923 -0.2588 -0.7286 -1.3629
  201MPD1    H3 3115   3.005   2.569  13.964  1.0859  1.4989  1.0678
  201MPD1     N 3116   3.059   2.952  13.719  0.7004  0.4363 -0.1831
  201MPD1    H5 3117   3.013   3.012  13.651 -0.6310  0.2231  0.5218
  201MPD1    N1 3118   2.646   2.718  13.745  0.6701  0.5030 -0.1471
  201MPD1    H6 3119   2.617   2.796  13.686 -1.2446  0.9776  1.4064
  201MPD1    H7 3120   2.579   2.696  13.819  1.6763 -1.1022  0.2658
  202MPD1     C 3121   2.402   3.225   9.440  0.6240 -0.3768 -1.0519
  202MPD1    C1 3122   2.391   3.338   9.365  0.4725  0.5593  0.0383
  202MPD1    C2 3123   2.444   3.450   9.426  1.0209  0.0744  0.3311
  202MPD1    C3 3124   2.541   3.438   9.525  0.3117 -0.0596  0.5417
  202MPD1    C4 3125   2.545   3.315   9.591  0.4473  0.6331  0.0639
  202MPD1    C5 3126   2.474   3.208   9.551  0.6854 -0.0830  0.8377
  202MPD1     H 3127   2.415   3.542   9.376 -0.0259  0.7826  2.2783
  202MPD1    H1 3128   2.613   3.291   9.672  1.9718  0.7241 -1.1923
  202MPD1    H2 3129   2.342   3.140   9.412 -0.3093 -0.0854  0.0833
  202MPD1    H3 3130   2.480   3.120   9.614  0.7767 -0.4093  0.3678
  202MPD1     N 3131   2.613   3.544   9.585 -0.0371  0.1680  0.1494
  202MPD1    H5 3132   2.664   3.520   9.669  0.4466 -1.1667 -0.5127
  202MPD1    N1 3133   2.283   3.350   9.277  0.8452 -0.2226 -0.2851
  202MPD1    H6 3134   2.258   3.263   9.231 -0.5109 -1.3283  2.5094
  202MPD1    H7 3135   2.275   3.426   9.210  0.2965  0.0369  0.0715
  203MPD1     C 3136   0.485   3.875  12.666  0.4159 -0.0287  0.7804
  203MPD1    C1 3137   0.493   3.756  12.740  0.4517  0.0752  0.4047
  203MPD1    C2 3138   0.610   3.688  12.754  0.0141  0.1505 -0.2872
  203MPD1    C3 3139   0.716   3.727  12.671 -0.0588  0.3214  0.1163
  203MPD1    C4 3140   0.709   3.840  12.593  0.5345  0.0179 -0.1064
  203MPD1    C5 3141   0.598   3.919  12.597  1.0643 -0.2252  0.2305
  203MPD1     H 3142   0.627   3.603  12.819 -1.1363  2.5007  3.0690
  203MPD1    H1 3143   0.785   3.876  12.526 -0.9900  2.2574 -0.6153
  203MPD1    H2 3144   0.397   3.938  12.671  0.0258 -0.5817  0.9056
  203MPD1    H3 3145   0.591   4.016  12.550  1.3925 -0.3291 -0.0379
  203MPD1     N 3146   0.836   3.653  12.683 -0.0597  0.3678 -0.1057
  203MPD1    H5 3147   0.828   3.564  12.730  0.0509  0.3127 -0.1912
  203MPD1    N1 3148   0.384   3.714  12.814  0.2017  0.7166  0.3472
  203MPD1    H6 3149   0.380   3.618  12.849  0.0948  0.2470 -0.9324
  203MPD1    H7 3150   0.292   3.733  12.775  0.6055 -0.9146 -1.4226
  204MPD1     C 3151   1.777   1.427   0.041  0.2984  0.1159 -1.1146
  204MPD1    C1 3152   1.739   1.431  17.651 -0.0320 -0.2039 -0.5746
  204MPD1    C2 3153   1.655   1.333  17.598  0.5261 -0.1472  0.1689
  204MPD1    C3 3154   1.622   1.223  17.673  0.1807 -0.0778 -0.0117
  204MPD1    C4 3155   1.665   1.224   0.063  0.2527  0.3000  0.8699
  204MPD1    C5 3156   1.732   1.325   0.118 -0.8924 -0.3634  0.0883
  204MPD1     H 3157   1.620   1.340  17.496  1.4929  0.9432 -0.0888
  204MPD1    H1 3158   1.643   1.138   0.126 -0.6540  0.5215  0.8604
  204MPD1    H2 3159   1.841   1.503   0.084 -1.1350 -0.4749  2.0544
  204MPD1    H3 3160   1.759   1.328   0.223 -0.3279  1.3208 -0.0986
  204MPD1     N 3161   1.543   1.123  17.615  0.4088 -0.2943 -0.1205
  204MPD1    H5 3162   1.490   1.148  17.533  1.6785  1.1229 -0.5001
  204MPD1    N1 3163   1.792   1.531  17.570 -0.3594 -0.1165  0.1949
  204MPD1    H6 3164   1.746   1.536  17.480 -0.6133 -1.2313  0.2648
  204MPD1    H7 3165   1.784   1.618  17.622  1.5078 -0.0981  0.4348
  205MPD1     C 3166   1.937   4.516  17.299 -0.2346 -0.1198 -0.2602
  205MPD1    C1 3167   1.933   4.477  17.432 -0.3141  0.7392  0.3953
  205MPD1    C2 3168   1.817   4.483  17.505  0.5462 -0.2579 -0.0775
  205MPD1    C3 3169   1.708   4.542  17.447  1.1714  0.0963  0.4972
  205MPD1    C4 3170   1.721   4.593  17.317 -0.3178 -0.8993 -0.3938
  205MPD1    C5 3171   1.828   4.580  17.246 -0.0550  0.1402  0.1437
  205MPD1     H 3172   1.821   4.446  17.607 -0.8466  0.5744  0.2690
  205MPD1    H1 3173   1.641   4.655  17.279  1.8551  0.0955 -3.3536
  205MPD1    H2 3174   2.024   4.505  17.235 -0.5418 -1.3173 -0.4572
  205MPD1    H3 3175   1.829   4.609  17.142 -1.0447  1.6665  0.5610
  205MPD1     N 3176   1.586   4.562  17.507 -0.1399  0.6403  0.0429
  205MPD1    H5 3177   1.516   4.614  17.456  0.2007  1.1868  0.1400
  205MPD1    N1 3178   2.035   4.395  17.488 -0.0352 -0.2193  0.4213
  205MPD1    H6 3179   2.027   4.396  17.589 -0.9017  0.1818  0.3526
  205MPD1    H7 3180   2.129   4.428  17.468  0.7377 -2.0927  0.9221
  206MPD1     C 3181   1.340   3.471  17.233 -0.5373  0.5256 -0.5338
  206MPD1    C1 3182   1.273   3.365  17.297  0.6996 -0.1794 -0.3527
  206MPD1    C2 3183   1.228   3.246  17.234  0.6532  0.2195  0.0648
  206MPD1    C3 3184   1.264   3.227  17.106 -0.0164  0.6348  0.2520
  206MPD1    C4 3185   1.351   3.319  17.056 -0.4614 -0.2337 -0.0090
  206MPD1    C5 3186   1.384   3.434  17.114 -0.0631  0.4029  0.7070
  206MPD1     H 3187   1.161   3.177  17.284 -1.2779  1.2999 -0.9977
  206MPD1    H1 3188   1.380   3.311  16.952  0.9451  1.8469  0.2361
  206MPD1    H2 3189   1.370   3.563  17.280 -0.7580 -0.8559  2.2793
  206MPD1    H3 3190   1.445   3.506  17.061 -0.8924  1.7168  1.5450
  206MPD1     N 3191   1.223   3.118  17.029 -0.6383  0.3563 -0.6037
  206MPD1    H5 3192   1.249   3.126  16.932  0.3944 -0.8007 -0.4267
  206MPD1    N1 3193   1.213   3.405  17.418 -0.0590  0.0043 -0.3046
  206MPD1    H6 3194   1.272   3.466  17.475  1.2094 -1.1217 -0.4092
  206MPD1    H7 3195   1.176   3.326  17.470 -1.4635  1.7295  1.3304
  207MPD1     C 3196   3.236   4.636  10.026 -0.1629  0.4056 -0.0262
  207MPD1    C1 3197   3.226   0.037  10.053  0.1001  0.1017 -0.3588
  207MPD1    C2 3198   3.290   0.075  10.167  0.0598 -0.2187  0.1777
  207MPD1    C3 3199   3.368   4.732  10.245 -0.6070 -0.7920  0.4910
  207MPD1    C4 3200   3.378   4.603  10.214 -0.0447 -0.9755 -0.1399
  207MPD1    C5 3201   3.302   4.553  10.106 -0.2550  0.6158  0.6934
  207MPD1     H 3202   3.284   0.178  10.201 -1.6075  0.1387 -1.1922
  207MPD1    H1 3203   3.436   4.536  10.276 -0.1807  0.3627  1.4236
  207MPD1    H2 3204   3.188   4.598   9.937 -0.7090 -1.6986  1.1539
  207MPD1    H3 3205   3.306   4.446  10.091 -0.0053  0.1696  3.9904
  207MPD1     N 3206   3.449   0.044  10.347  0.1047  0.5078  0.3987
  207MPD1    H5 3207   3.506   4.708  10.390 -0.4049 -0.5451 -0.6927
  207MPD1    N1 3208   3.139   0.128   9.987 -0.5879  0.1271  0.5309
  207MPD1    H6 3209   3.114   0.103   9.891 -2.5111 -0.8390  1.2811
  207MPD1    H7 3210   3.156   0.228   9.999  0.4770 -0.4659  3.7712
  208MPD1     C 3211   2.017   3.296  17.694 -0.2245  0.2491  0.0434
  208MPD1    C1 3212   1.892   3.307  17.640  0.3534 -0.0539  0.2684
  208MPD1    C2 3213   1.801   3.378  17.710 -0.3620  0.3691  0.0903
  208MPD1    C3 3214   1.817   3.411   0.097  0.6542 -0.3467  0.0638
  208MPD1    C4 3215   1.945   3.395   0.150 -0.6963 -0.2466 -0.1109
  208MPD1    C5 3216   2.033   3.331   0.081 -0.1751 -0.8042  0.4876
  208MPD1     H 3217   1.703   3.401  17.669  0.0891 -0.5713 -1.5329
  208MPD1    H1 3218   1.977   3.422   0.250  1.8574  0.8453 -1.2295
  208MPD1    H2 3219   2.096   3.246  17.638 -0.9414  1.0211 -1.6546
  208MPD1    H3 3220   2.130   3.328   0.127 -0.6902 -0.5435  1.5889
  208MPD1     N 3221   1.712   3.479   0.170 -0.5102 -0.3594 -0.9563
  208MPD1    H5 3222   1.639   3.508   0.106 -2.6497 -1.1512  1.1385
  208MPD1    N1 3223   1.885   3.248  17.515 -0.4754  0.2925 -0.0860
  208MPD1    H6 3224   1.798   3.277  17.471 -0.9206 -0.6055  0.2105
  208MPD1    H7 3225   1.963   3.273  17.454  0.1271  1.6200  1.2171
  209MPD1     C 3226   3.720   3.760  11.720 -0.1832  0.4415 -0.4636
  209MPD1    C1 3227   3.634   3.826  11.634  0.4512 -0.5712  0.0007
  209MPD1    C2 3228   3.682   3.937  11.574  0.4432 -0.0207 -0.0321
  209MPD1    C3 3229   3.804   3.997  11.609 -0.8663 -0.5334 -0.8825
  209MPD1    C4 3230   3.883   3.934  11.705 -1.0279 -0.2878  0.3045
  209MPD1    C5 3231   3.847   3.806  11.747 -0.0218 -0.3123 -0.2614
  209MPD1     H 3232   3.617   3.983  11.500  0.5130  1.9638  1.1407
  209MPD1    H1 3233   3.980   3.972  11.733 -1.2589  0.2090  0.4425
  209MPD1    H2 3234   3.691   3.662  11.756  2.2780 -0.3155 -0.5189
  209MPD1    H3 3235   3.911   3.747  11.811  1.4604  0.1821 -1.2793
  209MPD1     N 3236   3.843   4.118  11.548 -0.0119 -0.4312 -0.3843
  209MPD1    H5 3237   3.779   4.151  11.477 -0.6854 -0.5210  0.1786
  209MPD1    N1 3238   3.520   3.763  11.583  0.9605  0.1895  0.4660
  209MPD1    H6 3239   3.471   3.699  11.644  0.7160 -0.9064 -0.8988
  209MPD1    H7 3240   3.456   3.840  11.566  0.3934  0.1616  2.4183
  210MPD1     C 3241   3.981   0.404  11.884  0.2924 -0.3678  0.3497
  210MPD1    C1 3242   3.997   0.282  11.945 -0.8333 -0.1208  0.3416
  210MPD1    C2 3243   4.005   0.165  11.863  0.0880 -0.0107 -0.3804
  210MPD1    C3 3244   3.980   0.164  11.729  0.5148  0.1702 -0.4227
  210MPD1    C4 3245   3.954   0.288  11.676  0.1026  0.7859 -0.0995
  210MPD1    C5 3246   3.957   0.410  11.747 -0.1306  0.8357 -0.0180
  210MPD1     H 3247   4.036   0.076  11.917  0.3414  1.3431  1.6980
  210MPD1    H1 3248   3.935   0.304  11.571  2.8751  1.2668 -0.5217
  210MPD1    H2 3249   3.999   0.501  11.929 -0.0258  0.1928 -0.7149
  210MPD1    H3 3250   3.945   0.505  11.697 -1.3898  0.5489 -0.2530
  210MPD1     N 3251   3.968   0.050  11.649 -0.0905  0.2560 -0.5238
  210MPD1    H5 3252   3.956   0.070  11.550 -1.5985 -1.1346 -0.6239
  210MPD1    N1 3253   4.032   0.277  12.084 -0.2072  0.7666  0.2766
  210MPD1    H6 3254   3.991   0.358  12.131  1.5662  0.2830  2.6603
  210MPD1    H7 3255   3.992   0.194  12.129 -0.7528  1.8909  1.8724
  211MPD1     C 3256   1.636   3.933  16.497  0.8773  0.1570  0.0985
  211MPD1    C1 3257   1.612   4.033  16.590 -0.3014  1.0050  0.8121
  211MPD1    C2 3258   1.561   4.148  16.539  0.0055  0.3191  0.0969
  211MPD1    C3 3259   1.527   4.165  16.407 -0.5434  0.1887 -0.3290
  211MPD1    C4 3260   1.566   4.074  16.316 -0.8373  0.0642 -0.2647
  211MPD1    C5 3261   1.624   3.960  16.359  0.1582 -0.2993  0.4224
  211MPD1     H 3262   1.529   4.218  16.615 -1.0498  1.4991 -1.4237
  211MPD1    H1 3263   1.555   4.104  16.212 -0.5415  1.2182  0.0384
  211MPD1    H2 3264   1.663   3.829  16.513 -1.1645 -0.4322 -0.2795
  211MPD1    H3 3265   1.656   3.887  16.285  0.3506  2.5978 -2.3189
  211MPD1     N 3266   1.478   4.294  16.380  1.0724  0.7424 -0.0269
  211MPD1    H5 3267   1.456   4.352  16.460 -1.7831  1.3775 -1.2789
  211MPD1    N1 3268   1.620   4.001  16.726 -0.2714  0.0243 -0.0591
  211MPD1    H6 3269   1.618   4.089  16.778 -1.7665 -1.5975  2.6420
  211MPD1    H7 3270   1.698   3.942  16.754  0.1570  0.8377  0.4496
  212MPD1     C 3271   0.947   2.376  16.460  0.1868  0.3436  0.2172
  212MPD1    C1 3272   0.872   2.482  16.512  0.3763 -0.2197 -0.4066
  212MPD1    C2 3273   0.793   2.447  16.622 -0.6558 -0.4405  0.1267
  212MPD1    C3 3274   0.764   2.320  16.652 -0.3095 -0.0757  0.5388
  212MPD1    C4 3275   0.833   2.218  16.594  0.8174  0.0780  0.6452
  212MPD1    C5 3276   0.924   2.249  16.492 -0.4788  0.6400 -0.7928
  212MPD1     H 3277   0.742   2.520  16.683 -1.2205  1.3420 -2.5087
  212MPD1    H1 3278   0.817   2.114  16.621  1.1142 -0.3483 -0.8115
  212MPD1    H2 3279   1.017   2.396  16.380  0.2676  0.7474  0.3920
  212MPD1    H3 3280   0.973   2.172  16.433  0.6018  1.1140 -0.5027
  212MPD1     N 3281   0.677   2.274  16.755  0.4941  0.6499  0.1587
  212MPD1    H5 3282   0.669   2.173  16.761 -0.6542  0.5998 -2.3110
  212MPD1    N1 3283   0.889   2.615  16.473  0.3931  0.0537  0.1181
  212MPD1    H6 3284   0.873   2.620  16.372 -4.0449  3.5295  1.0186
  212MPD1    H7 3285   0.820   2.678  16.513 -0.5038 -0.8496  0.0103
  213MPD1     C 3286   3.843   2.748  15.809  0.1764 -0.0337  0.6515
  213MPD1    C1 3287   3.710   2.697  15.794  0.7396 -0.0995 -0.1216
  213MPD1    C2 3288   3.629   2.751  15.692 -0.2694  0.1305  0.3069
  213MPD1    C3 3289   3.660   2.873  15.628  0.1391 -0.3147 -0.2508
  213MPD1    C4 3290   3.782   2.938  15.663  0.0118 -0.9346  0.0811
  213MPD1    C5 3291   3.871   2.868  15.753 -0.3114  0.2411 -0.4980
  213MPD1     H 3292   3.536   2.697  15.683 -0.4332  0.4475  0.1153
  213MPD1    H1 3293   3.812   3.038  15.635 -2.4814 -0.0625  0.5401
  213MPD1    H2 3294   3.910   2.700  15.880 -2.6335 -2.2159  1.8456
  213MPD1    H3 3295   3.968   2.912  15.774 -0.0945 -0.6638  0.3663
  213MPD1     N 3296   3.570   2.929  15.533 -0.2018  0.7070 -0.3225
  213MPD1    H5 3297   3.507   2.865  15.487 -0.7880 -0.2672  1.8121
  213MPD1    N1 3298   3.681   2.565  15.838  0.1260  0.0829  0.0809
  213MPD1    H6 3299   3.582   2.546  15.849 -0.0776  0.3438 -1.3462
  213MPD1    H7 3300   3.706   2.498  15.766 -0.8322  2.3063 -2.3117
  214MPD1     C 3301   2.869   2.584  15.278 -0.6622 -0.7822 -0.4093
  214MPD1    C1 3302   2.864   2.707  15.213  0.0335 -0.4910 -0.5907
  214MPD1    C2 3303   2.976   2.776  15.185 -0.4455 -0.7705  0.2040
  214MPD1    C3 3304   3.096   2.731  15.228 -0.1330 -0.0608  0.8300
  214MPD1    C4 3305   3.106   2.613  15.301  0.7957 -0.4076 -0.0397
  214MPD1    C5 3306   2.993   2.539  15.320 -0.1415  0.2316 -0.4934
  214MPD1     H 3307   2.965   2.872  15.136 -3.1889 -1.7527 -1.1275
  214MPD1    H1 3308   3.198   2.573  15.343 -0.2239  0.5557  3.0667
  214MPD1    H2 3309   2.791   2.512  15.298 -0.6419 -0.2545  1.5709
  214MPD1    H3 3310   3.005   2.449  15.378  0.1771  1.6901  1.6853
  214MPD1     N 3311   3.205   2.822  15.231 -0.1671 -0.3229  0.7903
  214MPD1    H5 3312   3.284   2.795  15.289 -0.3802  1.7257  2.0522
  214MPD1    N1 3313   2.736   2.758  15.179  0.0450  0.1541 -0.4886
  214MPD1    H6 3314   2.727   2.799  15.087 -0.4772 -2.5662 -1.6591
  214MPD1    H7 3315   2.660   2.691  15.191  0.3633  0.2502  2.1146
  215MPD1     C 3316   2.593   4.374  11.058  0.3736 -0.1279  0.1676
  215MPD1    C1 3317   2.687   4.373  10.960 -0.6544  0.5504 -0.0570
  215MPD1    C2 3318   2.816   4.391  10.998  0.3675 -0.0423  0.4405
  215MPD1    C3 3319   2.852   4.387  11.133 -0.1582 -0.2554 -0.1801
  215MPD1    C4 3320   2.752   4.384  11.225 -0.1764  0.5266  0.2569
  215MPD1    C5 3321   2.622   4.386  11.185  0.0968 -0.3855 -0.2485
  215MPD1     H 3322   2.898   4.409  10.928  0.3754 -3.3045 -0.3721
  215MPD1    H1 3323   2.768   4.380  11.332 -4.1035  0.2812  0.8436
  215MPD1    H2 3324   2.490   4.365  11.024  0.7252  0.6394 -1.1146
  215MPD1    H3 3325   2.545   4.386  11.261 -0.2065 -0.5576 -0.5513
  215MPD1     N 3326   2.983   4.430  11.176 -0.1487  0.1178  0.2426
  215MPD1    H5 3327   3.036   4.460  11.095  1.2957 -0.0618  1.1291
  215MPD1    N1 3328   2.646   4.381  10.826 -0.2158 -0.0106  0.0286
  215MPD1    H6 3329   2.716   4.343  10.762  0.3893 -0.8143  1.1506
  215MPD1    H7 3330   2.550   4.363  10.800  0.4332  0.5834 -2.7169
  216MPD1     C 3331   0.536   3.010   0.772  0.5746  0.0313  0.0515
  216MPD1    C1 3332   0.440   2.920   0.722 -0.2705 -0.0599  0.4870
  216MPD1    C2 3333   0.474   2.785   0.721 -0.7857  0.5627  0.3867
  216MPD1    C3 3334   0.600   2.736   0.749  0.3256  0.9250  0.3785
  216MPD1    C4 3335   0.695   2.830   0.784  0.0200 -0.1979  0.2790
  216MPD1    C5 3336   0.656   2.959   0.810 -0.0897  0.6964 -0.7202
  216MPD1     H 3337   0.396   2.712   0.701 -1.4819  2.4320 -3.6047
  216MPD1    H1 3338   0.800   2.813   0.802 -0.1059  1.1450  2.3043
  216MPD1    H2 3339   0.523   3.117   0.784  1.7263  0.2913 -1.0412
  216MPD1    H3 3340   0.734   3.022   0.851 -0.1427  0.3558 -0.0874
  216MPD1     N 3341   0.629   2.600   0.732  0.8516 -0.0205  0.0726
  216MPD1    H5 3342   0.551   2.538   0.712  0.3589  0.0684  1.7203
  216MPD1    N1 3343   0.304   2.962   0.705 -0.2581 -0.3447  0.3432
  216MPD1    H6 3344   0.307   3.060   0.679 -2.7557 -0.0844  0.9810
  216MPD1    H7 3345   0.254   2.896   0.645 -1.6461  0.3561  0.7325
  217MPD1     C 3346   2.811   3.843   9.093 -0.3205 -0.9804  0.1013
  217MPD1    C1 3347   2.771   3.789   8.972 -0.0372 -0.4782 -0.7247
  217MPD1    C2 3348   2.732   3.660   8.973  0.0502  0.0800  0.2947
  217MPD1    C3 3349   2.723   3.582   9.086 -0.3423 -0.3492 -0.2879
  217MPD1    C4 3350   2.769   3.633   9.206 -0.7983 -0.2667  0.4291
  217MPD1    C5 3351   2.815   3.762   9.208  0.2308 -0.0775 -0.1661
  217MPD1     H 3352   2.715   3.614   8.876 -1.3459  0.8495  0.1839
  217MPD1    H1 3353   2.769   3.569   9.293 -0.2710  0.7343  1.1689
  217MPD1    H2 3354   2.827   3.949   9.109  2.1710 -1.5467  1.3020
  217MPD1    H3 3355   2.843   3.813   9.299  3.1288 -1.4365 -0.2763
  217MPD1     N 3356   2.661   3.458   9.093 -0.5007  0.2438  0.2275
  217MPD1    H5 3357   2.686   3.409   9.179  0.3403  1.6673  0.7967
  217MPD1    N1 3358   2.755   3.870   8.859  0.2736 -0.1146  0.5436
  217MPD1    H6 3359   2.815   3.953   8.856 -0.6283  0.5885  1.5845
  217MPD1    H7 3360   2.765   3.825   8.769 -1.3055 -0.3509  0.4957
  218MPD1     C 3361   2.646   3.697  13.170  0.0900 -0.0171 -0.2802
  218MPD1    C1 3362   2.756   3.623  13.156 -0.0840 -0.0443 -0.2063
  218MPD1    C2 3363   2.872   3.678  13.107 -0.5038 -0.3902  0.9335
  218MPD1    C3 3364   2.876   3.816  13.070 -0.5445 -0.5859  0.0145
  218MPD1    C4 3365   2.765   3.898  13.087 -0.3540  0.7167  0.2442
  218MPD1    C5 3366   2.655   3.834  13.136 -0.4125  0.1074  0.1470
  218MPD1     H 3367   2.959   3.613  13.101 -1.8842 -2.3945  2.4409
  218MPD1    H1 3368   2.768   4.006  13.074 -0.0399  0.7472  0.5329
  218MPD1    H2 3369   2.548   3.662  13.200  0.1515  0.3905  0.4120
  218MPD1    H3 3370   2.567   3.898  13.137 -0.1878  0.4298 -0.5652
  218MPD1     N 3371   2.999   3.862  13.014  0.2645  0.6501  0.3940
  218MPD1    H5 3372   3.077   3.797  13.013  0.0759  0.4402 -0.6982
  218MPD1    N1 3373   2.760   3.487  13.194  0.2779 -0.0247 -0.0380
  218MPD1    H6 3374   2.816   3.431  13.130 -0.4078  0.3792 -0.9977
  218MPD1    H7 3375   2.671   3.440  13.176 -0.3119  1.3755 -0.7861
  219MPD1     C 3376   3.215   4.026  12.136 -0.0614 -0.0595 -0.2421
  219MPD1    C1 3377   3.300   4.126  12.183  0.1515  0.0136 -0.1099
  219MPD1    C2 3378   3.306   4.147  12.320  0.1805  0.1752  0.1829
  219MPD1    C3 3379   3.239   4.059  12.407  0.4865  0.2852  0.1431
  219MPD1    C4 3380   3.150   3.967  12.349  0.5521  0.1409 -0.0055
  219MPD1    C5 3381   3.141   3.941  12.217 -0.5239 -1.1095  0.3719
  219MPD1     H 3382   3.357   4.235  12.358 -0.0659  0.3866  0.0243
  219MPD1    H1 3383   3.087   3.910  12.416  0.3584  0.7030  0.2933
  219MPD1    H2 3384   3.206   4.004  12.030  0.3083  2.1772 -0.7453
  219MPD1    H3 3385   3.080   3.861  12.178  0.4481 -1.5566 -0.2144
  219MPD1     N 3386   3.236   4.071  12.548  0.2477  0.5344  0.6620
  219MPD1    H5 3387   3.167   4.011  12.591 -0.2488 -0.6749 -1.8103
  219MPD1    N1 3388   3.352   4.221  12.101 -0.7182  1.1293  0.0205
  219MPD1    H6 3389   3.374   4.173  12.013  1.0014  0.0052  1.0507
  219MPD1    H7 3390   3.433   4.276  12.128  0.0225  0.0578  0.0218
  220MPD1     C 3391   2.815   1.031  10.281 -0.0749 -0.4005  0.6133
  220MPD1    C1 3392   2.928   1.022  10.355 -0.0643  0.5739 -0.4649
  220MPD1    C2 3393   3.000   0.901  10.367  0.6045  0.3248 -0.0980
  220MPD1    C3 3394   2.949   0.784  10.316 -0.6377 -0.7698 -0.6565
  220MPD1    C4 3395   2.823   0.792  10.262  0.5171  0.2312 -0.5115
  220MPD1    C5 3396   2.760   0.918  10.236 -0.3666 -0.2427 -0.0455
  220MPD1     H 3397   3.099   0.905  10.411 -0.8295 -1.9339  3.2772
  220MPD1    H1 3398   2.772   0.704  10.224 -1.4331  0.7909  0.8148
  220MPD1    H2 3399   2.752   1.119  10.273 -0.1399 -0.4009  1.0805
  220MPD1    H3 3400   2.659   0.908  10.197 -0.0299 -3.4920 -0.1514
  220MPD1     N 3401   3.027   0.664  10.321  0.0284  0.2786 -0.3882
  220MPD1    H5 3402   3.114   0.673  10.372 -0.0149 -4.7537  0.6127
  220MPD1    N1 3403   2.985   1.139  10.405 -0.8260 -0.3494  0.2952
  220MPD1    H6 3404   2.912   1.209  10.417 -0.9595 -0.8097  2.1654
  220MPD1    H7 3405   3.035   1.123  10.493 -1.9256 -0.6312  0.8661
  221MPD1     C 3406   1.145   3.825  16.463  0.4265  0.0529 -0.4834
  221MPD1    C1 3407   1.084   3.705  16.432 -0.2596  0.7742 -0.4709
  221MPD1    C2 3408   1.175   3.601  16.392 -0.4627 -0.4019 -0.3491
  221MPD1    C3 3409   1.313   3.626  16.385 -1.2320  0.2990  0.5132
  221MPD1    C4 3410   1.363   3.740  16.447 -0.0590 -0.2257  0.0299
  221MPD1    C5 3411   1.277   3.837  16.487 -0.2386  0.0286 -0.0658
  221MPD1     H 3412   1.133   3.508  16.357  0.5275 -0.8075 -0.4679
  221MPD1    H1 3413   1.469   3.753  16.465 -0.7961  2.2235  2.6827
  221MPD1    H2 3414   1.085   3.909  16.494  1.1004  0.2204  0.3971
  221MPD1    H3 3415   1.315   3.929  16.531 -2.4949  1.3857 -0.9655
  221MPD1     N 3416   1.404   3.526  16.341 -0.3918  0.0340  0.6658
  221MPD1    H5 3417   1.503   3.542  16.358 -0.4316 -1.2928  2.1387
  221MPD1    N1 3418   0.944   3.696  16.414 -0.2836 -0.2050  0.1879
  221MPD1    H6 3419   0.884   3.769  16.452  0.9496  1.1692 -0.5020
  221MPD1    H7 3420   0.909   3.601  16.424 -1.0920  0.1130  0.3484
  222MPD1     C 3421   0.738   2.171  17.361  0.0722 -0.8804 -0.2748
  222MPD1    C1 3422   0.745   2.301  17.315  0.4747  0.6631 -0.2236
  222MPD1    C2 3423   0.646   2.385  17.371 -0.0438 -1.1120  0.3180
  222MPD1    C3 3424   0.547   2.330  17.458 -0.1374  0.1306  0.3037
  222MPD1    C4 3425   0.541   2.194  17.478  0.3599 -0.2911 -0.6116
  222MPD1    C5 3426   0.644   2.115  17.432 -0.2812 -0.1206  0.0821
  222MPD1     H 3427   0.660   2.490  17.349 -0.1083 -1.6501 -2.1934
  222MPD1    H1 3428   0.476   2.148  17.551 -2.1040  1.6545 -1.5396
  222MPD1    H2 3429   0.817   2.106  17.325 -1.1750 -2.1128 -0.7973
  222MPD1    H3 3430   0.650   2.009  17.456 -1.9132  0.7158  4.1663
  222MPD1     N 3431   0.450   2.407  17.519 -0.6153 -0.1267  0.4810
  222MPD1    H5 3432   0.380   2.357  17.574  1.1422 -0.2399  2.6087
  222MPD1    N1 3433   0.854   2.365  17.256  0.1931  0.4336  0.4415
  222MPD1    H6 3434   0.830   2.451  17.208 -2.4708 -1.2711 -1.3117
  222MPD1    H7 3435   0.907   2.303  17.194  1.9034  0.3415  1.9942
  223MPD1     C 3436   4.631   2.237   0.489 -0.4169 -0.3693  0.9187
  223MPD1    C1 3437   4.713   2.340   0.530 -0.6254 -0.2841 -0.2230
  223MPD1    C2 3438   0.031   2.433   0.433  0.2077  0.3068 -0.2530
  223MPD1    C3 3439   0.004   2.419   0.301 -0.5723 -0.2569  0.5625
  223MPD1    C4 3440   4.666   2.314   0.265 -0.9243 -0.3165  0.7534
  223MPD1    C5 3441   4.604   2.227   0.359  0.2243  0.2850  0.1532
  223MPD1     H 3442   0.106   2.506   0.461  0.7129 -0.6278  0.8534
  223MPD1    H1 3443   4.647   2.290   0.161  3.0686  1.5474 -0.3771
  223MPD1    H2 3444   4.579   2.163   0.549  0.2391 -1.0830  0.5953
  223MPD1    H3 3445   4.554   2.139   0.320  1.6926 -0.5952  0.2965
  223MPD1     N 3446   0.051   2.515   0.207  0.8059  0.0191  0.0672
  223MPD1    H5 3447   0.084   2.602   0.248 -1.6227  1.1144 -0.3023
  223MPD1    N1 3448   0.030   2.331   0.666 -0.8704  0.1347  0.1010
  223MPD1    H6 3449   0.072   2.420   0.692 -0.4479  0.5326 -1.9184
  223MPD1    H7 3450   4.681   2.315   0.720 -0.7141 -0.8274  0.0571
  224MPD1     C 3451   2.033   3.945   9.151  0.4522  0.4047 -0.2187
  224MPD1    C1 3452   2.016   3.819   9.200  0.5838 -0.0664 -0.3736
  224MPD1    C2 3453   2.047   3.798   9.332 -0.1210  0.7715 -0.2534
  224MPD1    C3 3454   2.100   3.896   9.417 -0.4015 -0.2682  0.2698
  224MPD1    C4 3455   2.112   4.025   9.362  0.3294 -0.1598 -0.1271
  224MPD1    C5 3456   2.079   4.049   9.225  0.0679 -0.1563 -0.2453
  224MPD1     H 3457   2.033   3.697   9.371 -3.4745  0.6841 -1.6688
  224MPD1    H1 3458   2.147   4.109   9.420 -0.1710 -1.1512  1.6189
  224MPD1    H2 3459   2.012   3.968   9.047 -1.1049 -0.7765 -0.1667
  224MPD1    H3 3460   2.076   4.149   9.183  1.6363 -0.2075 -0.5052
  224MPD1     N 3461   2.156   3.867   9.542 -0.1340 -0.2546  0.4087
  224MPD1    H5 3462   2.193   3.945   9.594  0.6433  0.3022 -0.9714
  224MPD1    N1 3463   1.974   3.715   9.111  0.5840 -0.2574  0.1087
  224MPD1    H6 3464   1.932   3.738   9.021 -0.7005  2.2397  1.3422
  224MPD1    H7 3465   1.931   3.634   9.156 -1.4765  0.8930  0.2066
  225MPD1     C 3466   3.182   0.205  12.115 -0.1086  0.3793 -0.1184
  225MPD1    C1 3467   3.080   0.148  12.047 -0.1676 -0.3038  0.0654
  225MPD1    C2 3468   2.981   0.081  12.112 -0.2097 -0.5717 -0.1116
  225MPD1    C3 3469   2.996   0.063  12.255 -0.4577  0.1453 -0.4646
  225MPD1    C4 3470   3.104   0.117  12.323  0.3317  0.7169  0.1842
  225MPD1    C5 3471   3.196   0.189  12.256  0.8593  0.4519 -0.0160
  225MPD1     H 3472   2.892   0.050  12.059  1.8882 -1.4677 -3.1315
  225MPD1    H1 3473   3.118   0.124  12.430 -1.4981 -2.2446  0.6390
  225MPD1    H2 3474   3.246   0.274  12.062  1.3838 -0.4387  0.6344
  225MPD1    H3 3475   3.278   0.235  12.309  1.1776 -1.1571  0.8924
  225MPD1     N 3476   2.907   4.734  12.332  0.2697 -0.3348 -0.4243
  225MPD1    H5 3477   2.917   4.720  12.432 -1.0368 -0.3392 -0.2940
  225MPD1    N1 3478   3.065   0.182  11.910  0.3181 -0.0270  0.3429
  225MPD1    H6 3479   3.158   0.204  11.874  0.1279 -0.2133 -0.2695
  225MPD1    H7 3480   3.027   0.107  11.853 -0.6455 -0.5301  1.6563
  226MPD1     C 3481   4.006   0.028  10.513  0.1986 -0.4702  0.2561
  226MPD1    C1 3482   4.017   0.157  10.461 -0.1569  0.1483 -0.3398
  226MPD1    C2 3483   3.956   0.191  10.340 -0.3589  0.0046  0.3738
  226MPD1    C3 3484   3.872   0.103  10.293  0.3872 -0.1651  0.4550
  226MPD1    C4 3485   3.840   4.718  10.354 -1.2149 -0.5728 -0.1444
  226MPD1    C5 3486   3.917   4.678  10.466  0.3752  0.0054  0.0462
  226MPD1     H 3487   3.971   0.279  10.277 -0.9212  1.2214  1.9554
  226MPD1    H1 3488   3.770   4.645  10.316 -3.3588  0.9449  0.8415
  226MPD1    H2 3489   4.068   4.732  10.596 -2.2456 -2.0900  1.4585
  226MPD1    H3 3490   3.905   4.580  10.512 -1.6732  0.4858  0.5516
  226MPD1     N 3491   3.813   0.127  10.165 -0.3762 -0.1053 -0.2665
  226MPD1    H5 3492   3.841   0.209  10.114 -1.7419  0.7605  0.3668
  226MPD1    N1 3493   4.103   0.245  10.524  0.2974  0.4881  0.7520
  226MPD1    H6 3494   4.112   0.232  10.625 -2.2603 -1.3675  0.7286
  226MPD1    H7 3495   4.100   0.344  10.502 -0.8039  0.7113  1.9255
  227MPD1     C 3496   3.313   0.825  10.243  0.4214 -0.3750  0.0169
  227MPD1    C1 3497   3.361   0.722  10.324 -0.6824  0.2925  0.1337
  227MPD1    C2 3498   3.421   0.608  10.268 -0.0242  0.4388  0.2245
  227MPD1    C3 3499   3.434   0.592  10.128 -0.0831  0.6399  0.0394
  227MPD1    C4 3500   3.397   0.700  10.055 -0.7290 -0.1671 -0.2264
  227MPD1    C5 3501   3.335   0.810  10.108  0.6621 -0.5393  0.9730
  227MPD1     H 3502   3.443   0.527  10.337  0.1737  0.6978  0.4646
  227MPD1    H1 3503   3.398   0.695   9.947  3.0708  2.2934 -0.3068
  227MPD1    H2 3504   3.267   0.910  10.292  0.7743 -0.9367  1.3149
  227MPD1    H3 3505   3.293   0.884  10.040 -1.8757 -1.0416  1.9933
  227MPD1     N 3506   3.487   0.469  10.070  0.0380  0.3351 -0.3678
  227MPD1    H5 3507   3.507   0.401  10.142 -1.0127  1.2442  0.7769
  227MPD1    N1 3508   3.362   0.742  10.465 -0.5681  0.7283  0.5395
  227MPD1    H6 3509   3.380   0.651  10.508 -3.3588  0.6022  1.4621
  227MPD1    H7 3510   3.429   0.809  10.501 -3.4154  2.2639  3.0060
  228MPD1     C 3511   0.031   2.948  13.474  0.1283  0.1326 -0.0685
  228MPD1    C1 3512   4.652   3.018  13.459 -0.1722 -0.4561 -0.1506
  228MPD1    C2 3513   4.541   2.956  13.406 -0.0782  0.0653  0.8270
  228MPD1    C3 3514   4.538   2.829  13.362  0.4724 -0.0140  0.8278
  228MPD1    C4 3515   4.661   2.760  13.361 -0.0518  0.2434  0.8730
  228MPD1    C5 3516   0.035   2.824  13.418 -0.1431  0.0653 -0.3247
  228MPD1     H 3517   4.455   3.021  13.413  1.0021  1.3181  2.3052
  228MPD1    H1 3518   4.675   2.659  13.325  0.9004  0.3314  1.0004
  228MPD1    H2 3519   0.127   2.979  13.515 -0.1266  0.5090  0.2504
  228MPD1    H3 3520   0.124   2.761  13.415  0.2914  0.6923 -0.6738
  228MPD1     N 3521   4.422   2.770  13.315  0.1705  0.4405 -0.6764
  228MPD1    H5 3522   4.343   2.834  13.315  0.0988  0.3518  1.4363
  228MPD1    N1 3523   4.635   3.143  13.501 -0.1922  0.1302 -0.0751
  228MPD1    H6 3524   4.725   3.171  13.539 -1.8840  0.8559  3.3669
  228MPD1    H7 3525   4.626   3.205  13.420  0.6634 -0.7353 -0.8283
  229MPD1     C 3526   0.297   1.431  14.224  0.4240  0.3754  0.3204
  229MPD1    C1 3527   0.198   1.480  14.311 -0.2081  0.3852 -0.3504
  229MPD1    C2 3528   0.138   1.389  14.396 -0.2648  0.8291  0.6465
  229MPD1    C3 3529   0.165   1.251  14.384 -0.3754  0.1951  0.1535
  229MPD1    C4 3530   0.252   1.204  14.291 -0.1522 -0.2520 -0.7778
  229MPD1    C5 3531   0.321   1.296  14.215 -0.0441 -0.0193  0.4686
  229MPD1     H 3532   0.071   1.424  14.473  0.4951 -1.5332  2.3940
  229MPD1    H1 3533   0.276   1.100  14.268 -1.4590 -1.1134  1.7896
  229MPD1    H2 3534   0.353   1.500  14.163  0.4169 -0.8065 -1.0188
  229MPD1    H3 3535   0.383   1.255  14.136  1.0757  0.6911  0.9740
  229MPD1     N 3536   0.116   1.158  14.474  0.0637  0.2794 -0.7995
  229MPD1    H5 3537   0.161   1.067  14.477 -0.8660 -0.1501  0.0800
  229MPD1    N1 3538   0.178   1.616  14.317 -0.6976  0.7295 -0.4232
  229MPD1    H6 3539   0.084   1.640  14.345 -1.0313  1.6253 -2.2442
  229MPD1    H7 3540   0.200   1.647  14.222  1.1397  0.5527 -0.0638
  230MPD1     C 3541   0.279   1.247  15.473 -0.0725  0.5049  0.0373
  230MPD1    C1 3542   0.335   1.132  15.420 -0.4885 -0.5591 -0.0546
  230MPD1    C2 3543   0.285   1.075  15.308  0.4881 -0.2595 -0.0297
  230MPD1    C3 3544   0.183   1.132  15.238 -0.4594  0.0751 -0.3893
  230MPD1    C4 3545   0.121   1.247  15.291  0.4155 -0.5315  0.1687
  230MPD1    C5 3546   0.172   1.297  15.409  0.2987 -0.2011 -0.0736
  230MPD1     H 3547   0.332   0.985  15.270  0.6799 -0.0140 -0.3766
  230MPD1    H1 3548   0.045   1.304  15.240  1.1255 -0.7511 -1.1499
  230MPD1    H2 3549   0.319   1.305  15.555 -1.3677  2.6305 -0.8346
  230MPD1    H3 3550   0.135   1.392  15.444 -1.5073 -1.7208  2.2172
  230MPD1     N 3551   0.150   1.081  15.113  1.0615  0.3029 -0.3508
  230MPD1    H5 3552   0.183   0.990  15.083  0.0041 -0.1710 -0.0733
  230MPD1    N1 3553   0.432   1.063  15.497  0.6595 -0.1816  1.1976
  230MPD1    H6 3554   0.479   1.115  15.571 -1.9372  1.6130  1.6132
  230MPD1    H7 3555   0.490   1.003  15.438  2.4086  1.3565  1.3638
  231MPD1     C 3556   2.850   3.100  15.539 -0.0810  0.1340  0.0032
  231MPD1    C1 3557   2.828   3.034  15.425  0.7072 -0.3438 -0.0603
  231MPD1    C2 3558   2.886   3.077  15.314 -0.5883  0.4320  0.2317
  231MPD1    C3 3559   2.971   3.187  15.308 -0.1992  0.2354  0.5248
  231MPD1    C4 3560   2.994   3.258  15.428 -0.0098 -0.4974 -0.5207
  231MPD1    C5 3561   2.933   3.211  15.539  0.2467  0.2195  0.1203
  231MPD1     H 3562   2.860   3.032  15.219  0.8918  0.0799 -0.0175
  231MPD1    H1 3563   3.057   3.346  15.437 -1.3265  0.5626 -1.6967
  231MPD1    H2 3564   2.813   3.058  15.631  4.0037 -1.5720  0.8683
  231MPD1    H3 3565   2.950   3.252  15.638  0.8704  1.6736 -0.5926
  231MPD1     N 3566   3.028   3.231  15.183  0.7283 -1.1478  0.2680
  231MPD1    H5 3567   3.006   3.185  15.095 -0.3448 -1.1082  0.5147
  231MPD1    N1 3568   2.727   2.941  15.409  0.4232  0.2737  0.3350
  231MPD1    H6 3569   2.701   2.888  15.493 -2.1533  0.2639 -0.5000
  231MPD1    H7 3570   2.748   2.867  15.342 -1.1908  0.5742 -0.4741
  232MPD1     C 3571   4.532   1.231   0.014 -0.0060 -0.2049  0.0412
  232MPD1    C1 3572   4.531   1.095   0.047 -0.1097 -0.5043  0.2033
  232MPD1    C2 3573   4.496   1.000  17.700 -0.1245  0.5492 -0.2756
  232MPD1    C3 3574   4.474   1.037  17.572  0.2157  0.6819  0.4302
  232MPD1    C4 3575   4.463   1.170  17.537  0.2347  0.4241  0.3198
  232MPD1    C5 3576   4.486   1.265  17.626  0.0803 -0.5336  0.2907
  232MPD1     H 3577   4.508   0.897  17.731 -0.2612  0.6949  0.2652
  232MPD1    H1 3578   4.419   1.208  17.445 -0.5142  3.0050  1.7308
  232MPD1    H2 3579   4.551   1.306   0.090  0.6919 -0.3567  0.0193
  232MPD1    H3 3580   4.479   1.369  17.597  1.6756 -0.5836 -0.2839
  232MPD1     N 3581   4.445   0.933  17.473  0.4728  0.1398 -0.3740
  232MPD1    H5 3582   4.431   0.837  17.503  2.0119  0.4048  1.1926
  232MPD1    N1 3583   4.586   1.051   0.170 -0.0723  0.3064  0.9780
  232MPD1    H6 3584   4.575   1.116   0.248  1.0664  3.5061 -1.5497
  232MPD1    H7 3585   4.563   0.955   0.195 -0.1882 -0.2250 -1.1561
  233MPD1     C 3586   0.821   0.109  17.559  0.1569 -0.1715 -0.0963
  233MPD1    C1 3587   0.892   0.164  17.665 -0.1035 -0.4098 -0.7154
  233MPD1    C2 3588   0.891   0.084   0.036  0.3999 -0.5721 -0.4402
  233MPD1    C3 3589   0.841   4.689   0.035  0.9899 -0.9133 -0.4743
  233MPD1    C4 3590   0.785   4.635  17.668 -0.6783  0.1763  0.1123
  233MPD1    C5 3591   0.772   4.712  17.566 -0.7096  0.4291 -0.1508
  233MPD1     H 3592   0.931   0.137   0.122  2.8401 -0.2783 -1.7450
  233MPD1    H1 3593   0.739   4.537  17.666 -0.3675  0.0961 -2.4407
  233MPD1    H2 3594   0.800   0.174  17.475  0.4671 -0.8435 -0.6919
  233MPD1    H3 3595   0.710   4.671  17.487 -0.1331  0.2014 -0.4931
  233MPD1     N 3596   0.839   4.606   0.152 -0.3828 -0.3774 -0.5624
  233MPD1    H5 3597   0.812   4.509   0.134 -1.6154 -0.4458  1.6676
  233MPD1    N1 3598   0.918   0.296  17.674  0.5334  0.0421  1.0647
  233MPD1    H6 3599   0.994   0.318  17.738 -0.0599  0.6076  1.5650
  233MPD1    H7 3600   0.934   0.338  17.582  1.3393 -1.2272  0.6183
  234MPD1     C 3601   2.748   2.503  10.700 -0.9100 -0.2804 -0.9689
  234MPD1    C1 3602   2.842   2.597  10.718 -0.0809  0.3990 -0.6553
  234MPD1    C2 3603   2.885   2.660  10.602 -0.0937 -0.2618 -0.1271
  234MPD1    C3 3604   2.810   2.652  10.485  0.3200  0.1091  0.3201
  234MPD1    C4 3605   2.695   2.574  10.484 -0.4786  0.0657 -0.0446
  234MPD1    C5 3606   2.669   2.495  10.585 -0.2123  0.5877 -0.8743
  234MPD1     H 3607   2.969   2.726  10.617 -1.9066  1.6682  1.6418
  234MPD1    H1 3608   2.633   2.564  10.395 -2.2366  0.8063  1.1043
  234MPD1    H2 3609   2.721   2.434  10.779 -2.1331  0.1368 -1.0342
  234MPD1    H3 3610   2.610   2.405  10.573  1.5742 -0.3740 -2.4638
  234MPD1     N 3611   2.852   2.727  10.373 -0.6209 -0.3672 -1.0036
  234MPD1    H5 3612   2.921   2.799  10.390 -1.1084 -0.2084  0.3426
  234MPD1    N1 3613   2.911   2.615  10.841 -0.2585  0.2734  0.1493
  234MPD1    H6 3614   2.838   2.597  10.910  1.0791 -0.0182  1.4985
  234MPD1    H7 3615   2.935   2.714  10.852  0.9666 -0.1472  1.2820
  235MPD1     C 3616   3.767   1.000  11.410 -0.0416  0.0848 -0.1552
  235MPD1    C1 3617   3.826   1.120  11.382  0.2863  0.6710  0.0008
  235MPD1    C2 3618   3.895   1.113  11.255  0.1851 -0.2326  0.4083
  235MPD1    C3 3619   3.881   1.012  11.158 -0.7614 -0.7941  0.6761
  235MPD1    C4 3620   3.817   0.893  11.206  0.0427  0.0023  0.2218
  235MPD1    C5 3621   3.766   0.894  11.326  0.2159  0.0930  0.3060
  235MPD1     H 3622   3.958   1.195  11.222 -0.7392  0.4396  0.3354
  235MPD1    H1 3623   3.822   0.804  11.145  0.1435  0.2988 -0.2024
  235MPD1    H2 3624   3.709   0.985  11.501  1.4669 -1.9890  0.4722
  235MPD1    H3 3625   3.725   0.799  11.358  0.6190  0.1309  0.9290
  235MPD1     N 3626   3.944   1.018  11.030  0.2912  0.1027 -0.4475
  235MPD1    H5 3627   4.005   1.099  11.023  2.1932 -1.2808  0.0983
  235MPD1    N1 3628   3.849   1.214  11.484  0.6869  0.3010 -0.0104
  235MPD1    H6 3629   3.768   1.220  11.544 -0.0681  0.0802 -1.0048
  235MPD1    H7 3630   3.872   1.306  11.445  1.7856 -0.6305 -1.5437
  236MPD1     C 3631   2.582   1.897   9.985  0.2209  0.7685 -0.7843
  236MPD1    C1 3632   2.657   2.001  10.027  0.1055 -0.0653  0.0615
  236MPD1    C2 3633   2.788   1.976  10.074  0.6092  0.1886 -1.4141
  236MPD1    C3 3634   2.835   1.848  10.092 -0.9039 -0.7559  0.4873
  236MPD1    C4 3635   2.761   1.746  10.053 -0.1033 -0.8605  0.0528
  236MPD1    C5 3636   2.637   1.771   9.996 -0.6905  0.6956  0.0411
  236MPD1     H 3637   2.852   2.054  10.112  1.1819 -0.1542 -1.6688
  236MPD1    H1 3638   2.791   1.642  10.060  2.8308  0.2552  3.5700
  236MPD1    H2 3639   2.485   1.904   9.937  0.2499 -0.6726 -1.0523
  236MPD1    H3 3640   2.573   1.685   9.980  2.5582 -1.6128 -0.6365
  236MPD1     N 3641   2.955   1.824  10.160  0.2178  0.2893 -0.0885
  236MPD1    H5 3642   2.971   1.725  10.170  0.1312  0.4882  1.9703
  236MPD1    N1 3643   2.608   2.132  10.019 -0.1269  0.1673  0.8325
  236MPD1    H6 3644   2.506   2.141  10.017 -0.3485 -2.0326  1.8394
  236MPD1    H7 3645   2.664   2.204  10.063 -0.8242  0.9348  0.4688
  237MPD1     C 3646   2.793   3.968  14.180 -0.3446 -0.2902  0.1484
  237MPD1    C1 3647   2.803   4.044  14.295 -0.4495  0.1653 -0.1759
  237MPD1    C2 3648   2.733   4.011  14.410 -0.1336  0.2336  1.1509
  237MPD1    C3 3649   2.648   3.902  14.415 -0.5426  0.0441 -0.3832
  237MPD1    C4 3650   2.645   3.823  14.308 -0.0591  0.1987 -0.4434
  237MPD1    C5 3651   2.716   3.855  14.194  0.0827 -0.2669 -0.0890
  237MPD1     H 3652   2.750   4.073  14.498  1.2139 -0.4135  1.3375
  237MPD1    H1 3653   2.582   3.739  14.332 -0.6696  0.5582 -0.7919
  237MPD1    H2 3654   2.827   4.007  14.085  2.5488 -0.9200  0.9329
  237MPD1    H3 3655   2.700   3.782  14.116  3.8658  0.1813 -1.2692
  237MPD1     N 3656   2.562   3.884  14.523 -0.6831  0.2481  0.1358
  237MPD1    H5 3657   2.483   3.825  14.498 -0.2054 -1.2338  2.0596
  237MPD1    N1 3658   2.855   4.171  14.284 -0.4194  0.7734  0.6922
  237MPD1    H6 3659   2.872   4.224  14.369 -1.1927 -0.0415  1.3427
  237MPD1    H7 3660   2.943   4.172  14.233 -0.6121 -0.8856  0.3287
  238MPD1     C 3661   0.028   2.619  15.897  0.4216  0.0800  0.0377
  238MPD1    C1 3662   0.091   2.689  15.795 -0.3890  0.7092  0.7580
  238MPD1    C2 3663   0.024   2.787  15.728  0.2979 -0.1460 -0.2945
  238MPD1    C3 3664   4.636   2.833  15.777  0.2621  0.2553  0.3682
  238MPD1    C4 3665   4.577   2.763  15.879  0.5641 -0.3029 -0.0475
  238MPD1    C5 3666   4.640   2.656  15.934  0.2677 -0.0096 -0.4272
  238MPD1     H 3667   0.069   2.821  15.636 -0.8802 -0.4416 -0.9705
  238MPD1    H1 3668   4.479   2.786  15.919 -0.1593 -1.5202 -1.1423
  238MPD1    H2 3669   0.073   2.537  15.952 -0.9308 -0.2724  0.6018
  238MPD1    H3 3670   4.598   2.599  16.015 -0.7752  2.1162  0.5457
  238MPD1     N 3671   4.559   2.935  15.710 -0.3416 -0.6426  0.3013
  238MPD1    H5 3672   4.460   2.947  15.730 -0.9031 -3.7793 -0.6176
  238MPD1    N1 3673   0.217   2.641  15.757 -0.3491  0.0620  0.5984
  238MPD1    H6 3674   0.283   2.718  15.751  0.4783 -0.7220 -0.5110
  238MPD1    H7 3675   0.262   2.572  15.817 -1.8905  0.1543  1.8640
  239MPD1     C 3676   0.175   0.060  15.171 -0.0515  0.1045  0.2107
  239MPD1    C1 3677   0.058   0.125  15.125  0.6724  0.3745  0.0435
  239MPD1    C2 3678   4.735   0.075  15.012  0.0585  0.5304 -0.3924
  239MPD1    C3 3679   0.039   4.692  14.958 -0.2389 -0.2798  0.2029
  239MPD1    C4 3680   0.144   4.624  15.014 -0.1994  0.1158 -0.2958
  239MPD1    C5 3681   0.218   4.681  15.114  0.0572  0.0388  0.6819
  239MPD1     H 3682   4.654   0.131  14.967 -0.5048  0.1326  0.1282
  239MPD1    H1 3683   0.185   4.529  14.981 -1.7947 -1.0277  0.9783
  239MPD1    H2 3684   0.229   0.104  15.254 -2.9344 -0.3041  2.3054
  239MPD1    H3 3685   0.306   4.627  15.146 -0.5274 -0.8668  0.7861
  239MPD1     N 3686   4.728   4.644  14.835 -0.0156  0.5888  0.0669
  239MPD1    H5 3687   0.036   4.563  14.793 -0.7232  0.4203 -0.3441
  239MPD1    N1 3688   0.022   0.246  15.189 -0.7054  0.0234  0.3446
  239MPD1    H6 3689   4.660   0.275  15.183 -0.4417  0.8030 -0.1346
  239MPD1    H7 3690   0.056   0.263  15.284 -0.2603 -0.4782  0.2755
  240MPD1     C 3691   4.062   4.075  14.407  0.0779 -0.4450 -0.0581
  240MPD1    C1 3692   4.107   3.969  14.339 -0.5908  0.0152  0.1378
  240MPD1    C2 3693   4.138   3.852  14.404 -0.1567 -0.1821  0.4756
  240MPD1    C3 3694   4.130   3.850  14.541  0.4584 -0.0006  0.9067
  240MPD1    C4 3695   4.089   3.961  14.614  0.6663  0.1736 -0.4131
  240MPD1    C5 3696   4.049   4.071  14.543  0.3930  0.8053 -0.4661
  240MPD1     H 3697   4.180   3.769  14.348 -1.2276 -0.8019  0.5832
  240MPD1    H1 3698   4.084   3.968  14.722  0.4298  1.0736 -0.4843
  240MPD1    H2 3699   4.042   4.168  14.354 -2.4630 -1.0349 -0.1330
  240MPD1    H3 3700   4.036   4.160  14.602 -1.0776  1.0526 -1.1719
  240MPD1     N 3701   4.145   3.729  14.612 -0.4820  0.1394  0.5690
  240MPD1    H5 3702   4.156   3.647  14.553 -2.7274  0.4413 -0.2714
  240MPD1    N1 3703   4.116   3.988  14.199 -0.2569  0.3789  0.2437
  240MPD1    H6 3704   4.097   3.902  14.149 -2.0683  0.0740  1.4611
  240MPD1    H7 3705   4.063   4.067  14.161  1.1830  1.3156  0.1865
  241MPD1     C 3706   4.593   3.471  15.462  0.2472 -0.7049  0.3360
  241MPD1    C1 3707   4.464   3.423  15.479 -0.2404  0.2657  0.6569
  241MPD1    C2 3708   4.383   3.427  15.368 -0.3569 -0.0949 -0.2005
  241MPD1    C3 3709   4.436   3.464  15.245  0.2758 -0.1048  0.5694
  241MPD1    C4 3710   4.569   3.501  15.234  0.5895  0.3733  0.1039
  241MPD1    C5 3711   4.640   3.504  15.345  0.1346 -0.0354 -0.7168
  241MPD1     H 3712   4.278   3.402  15.374 -0.0196 -1.3837  0.3671
  241MPD1    H1 3713   4.619   3.535  15.144  2.1188  1.7761  1.4685
  241MPD1    H2 3714   4.664   3.483  15.543 -0.0429  0.5265  0.4096
  241MPD1    H3 3715   0.008   3.536  15.335  0.1203  0.0407 -0.6211
  241MPD1     N 3716   4.352   3.477  15.123 -0.1750  0.4003  0.3277
  241MPD1    H5 3717   4.403   3.531  15.054 -0.5140  0.3503  0.0368
  241MPD1    N1 3718   4.417   3.401  15.611  0.0744  0.3218  0.2060
  241MPD1    H6 3719   4.491   3.356  15.665 -0.6050  0.7921  1.5187
  241MPD1    H7 3720   4.332   3.345  15.610  1.2722 -1.4366 -1.8855
  242MPD1     C 3721   4.024   2.411  15.741  0.6099 -1.0311 -0.1625
  242MPD1    C1 3722   3.941   2.308  15.709 -0.2857  0.6097  0.5364
  242MPD1    C2 3723   3.982   2.218  15.610  0.0289  0.5880 -0.9444
  242MPD1    C3 3724   4.086   2.249  15.518 -0.4988 -0.8022 -0.5448
  242MPD1    C4 3725   4.151   2.371  15.545  0.2561 -0.2321 -0.2702
  242MPD1    C5 3726   4.128   2.445  15.657  0.1414  0.2504 -0.3186
  242MPD1     H 3727   3.918   2.131  15.599  1.6560 -0.6110 -0.9490
  242MPD1    H1 3728   4.222   2.417  15.477 -1.2324 -1.2945 -2.5328
  242MPD1    H2 3729   3.998   2.459  15.834 -1.4701 -1.6773 -0.4058
  242MPD1    H3 3730   4.180   2.538  15.678 -0.8286  0.8163 -0.4347
  242MPD1     N 3731   4.125   2.165  15.410  0.3739  0.5126 -0.3371
  242MPD1    H5 3732   4.210   2.189  15.360  0.2420  0.6266 -0.5112
  242MPD1    N1 3733   3.847   2.272  15.810  0.0758  0.0758 -0.6235
  242MPD1    H6 3734   3.806   2.352  15.859  3.3600 -0.2224  2.5864
  242MPD1    H7 3735   3.772   2.215  15.771 -0.0304  1.1803 -2.0528
  243MPD1     C 3736   0.395   1.695   0.780  0.2923  0.1834 -0.5485
  243MPD1    C1 3737   0.500   1.736   0.857  0.0140  0.3084  0.2428
  243MPD1    C2 3738   0.626   1.708   0.807  0.0144  0.1356  0.4032
  243MPD1    C3 3739   0.642   1.621   0.702  0.7574  0.3808 -0.5153
  243MPD1    C4 3740   0.533   1.567   0.637 -0.0218  1.0529  0.5169
  243MPD1    C5 3741   0.409   1.615   0.674  0.3510  0.5788  0.7977
  243MPD1     H 3742   0.719   1.729   0.858 -1.0650  1.6766  1.7354
  243MPD1    H1 3743   0.548   1.497   0.557 -1.0492  2.3705 -0.8295
  243MPD1    H2 3744   0.294   1.728   0.800  1.6748  2.9381  1.8470
  243MPD1    H3 3745   0.326   1.575   0.616  0.1832  1.9181  0.1217
  243MPD1     N 3746   0.774   1.589   0.658  0.1199  0.5860  0.8163
  243MPD1    H5 3747   0.843   1.630   0.720  1.0911 -0.4859  0.4306
  243MPD1    N1 3748   0.481   1.838   0.948 -0.1722  0.4762 -0.0318
  243MPD1    H6 3749   0.564   1.834   1.007 -0.1726  3.8025  0.2139
  243MPD1    H7 3750   0.396   1.827   1.003 -1.3614  0.4105 -1.9010
  244MPD1     C 3751   1.344   1.681   1.212 -0.4519 -0.0430  0.5101
  244MPD1    C1 3752   1.242   1.745   1.150 -0.4144  0.1880  0.0838
  244MPD1    C2 3753   1.201   1.709   1.027 -0.7296  0.1186 -0.0253
  244MPD1    C3 3754   1.271   1.607   0.960 -0.5896 -0.1348 -0.4320
  244MPD1    C4 3755   1.379   1.544   1.017  0.3585 -0.4987  0.1627
  244MPD1    C5 3756   1.405   1.577   1.148  0.9274  0.0393 -0.5194
  244MPD1     H 3757   1.114   1.754   0.980 -0.3678 -1.2249 -1.9738
  244MPD1    H1 3758   1.430   1.462   0.968  3.1925  0.3873  1.6241
  244MPD1    H2 3759   1.383   1.717   1.306  1.8172  1.3242 -0.9453
  244MPD1    H3 3760   1.494   1.528   1.188  0.9358  2.0518  1.9776
  244MPD1     N 3761   1.204   1.554   0.848  0.4988 -0.3008 -0.4248
  244MPD1    H5 3762   1.115   1.592   0.819  0.8284  1.2321  0.5841
  244MPD1    N1 3763   1.200   1.863   1.217  0.2232 -0.4129 -0.9259
  244MPD1    H6 3764   1.274   1.913   1.265  1.1091 -2.6091 -0.0288
  244MPD1    H7 3765   1.165   1.934   1.152 -0.4477  0.7890  0.7510
  245MPD1     C 3766   2.211   1.202  12.986 -0.0557 -0.2116 -0.6394
  245MPD1    C1 3767   2.190   1.192  13.122 -0.3510  0.1817  0.1493
  245MPD1    C2 3768   2.284   1.243  13.199 -0.5012  0.3631 -0.5353
  245MPD1    C3 3769   2.394   1.312  13.150  0.1115 -0.4165 -0.2669
  245MPD1    C4 3770   2.417   1.320  13.011 -1.3577  0.1815  0.2085
  245MPD1    C5 3771   2.318   1.264  12.933 -0.1120  0.0660 -0.3366
  245MPD1     H 3772   2.278   1.227  13.306  0.8870 -0.0542 -0.5202
  245MPD1    H1 3773   2.508   1.353  12.963 -0.5096 -3.8982 -0.9840
  245MPD1    H2 3774   2.134   1.173  12.916 -0.5486 -0.2333 -0.0919
  245MPD1    H3 3775   2.325   1.261  12.825 -0.7521  1.9239 -0.4378
  245MPD1     N 3776   2.482   1.375  13.238 -0.0793 -0.8723  0.1317
  245MPD1    H5 3777   2.467   1.355  13.336 -0.9679 -2.5773 -0.3535
  245MPD1    N1 3778   2.072   1.149  13.176 -0.2899 -0.3267 -0.4488
  245MPD1    H6 3779   2.012   1.104  13.107 -3.4057  1.9923  0.7625
  245MPD1    H7 3780   2.090   1.087  13.255 -0.0966 -0.8515 -0.9057
  246MPD1     C 3781   4.618   3.000   9.774 -0.2129 -0.7106  0.0016
  246MPD1    C1 3782   4.508   2.965   9.694 -0.1111 -0.0921  0.2411
  246MPD1    C2 3783   4.403   3.055   9.687 -0.5947 -0.7596  0.0102
  246MPD1    C3 3784   4.395   3.163   9.777 -0.4115 -0.0928  0.2955
  246MPD1    C4 3785   4.505   3.193   9.855 -0.5442  0.4201  0.1471
  246MPD1    C5 3786   4.617   3.111   9.861  0.0715 -0.3338  0.1453
  246MPD1     H 3787   4.314   3.032   9.629 -1.6442 -0.9940  1.7165
  246MPD1    H1 3788   4.502   3.273   9.928  0.2542 -0.1677  0.8258
  246MPD1    H2 3789   4.718   2.957   9.772 -0.0094 -0.0486 -4.0601
  246MPD1    H3 3790   4.696   3.116   9.935  1.6117  1.3620 -1.6074
  246MPD1     N 3791   4.284   3.252   9.766  0.2362  0.4191  0.5390
  246MPD1    H5 3792   4.208   3.232   9.702  1.5422 -1.1449 -0.5280
  246MPD1    N1 3793   4.523   2.866   9.598 -0.0872  0.4430  0.1145
  246MPD1    H6 3794   4.592   2.794   9.617  1.3146  1.5145 -0.9896
  246MPD1    H7 3795   4.434   2.816   9.596  1.4478 -2.3230  2.1563
  247MPD1     C 3796   2.217   1.215  16.814  0.1575  0.0317  0.4247
  247MPD1    C1 3797   2.108   1.286  16.768  0.2805 -0.5375 -0.1890
  247MPD1    C2 3798   2.067   1.257  16.640  0.4064  0.2372 -0.8102
  247MPD1    C3 3799   2.141   1.173  16.559  0.0849 -0.8364 -0.1822
  247MPD1    C4 3800   2.258   1.114  16.602  0.1377 -0.5388  0.3373
  247MPD1    C5 3801   2.291   1.133  16.735  0.1039  0.4456  0.6116
  247MPD1     H 3802   1.976   1.306  16.607  1.4358  1.6986 -1.4725
  247MPD1    H1 3803   2.317   1.047  16.539 -0.5599 -2.1261  1.3670
  247MPD1    H2 3804   2.258   1.224  16.914  0.5702  2.2161  0.0412
  247MPD1    H3 3805   2.374   1.076  16.776 -1.1962 -0.9561  1.2777
  247MPD1     N 3806   2.103   1.148  16.423  0.0935  0.0366  0.5284
  247MPD1    H5 3807   2.161   1.074  16.386 -1.4155 -0.4718 -0.8210
  247MPD1    N1 3808   2.024   1.342  16.858  0.2718  0.4592 -0.4953
  247MPD1    H6 3809   1.956   1.413  16.830 -0.3700 -0.0378 -0.2061
  247MPD1    H7 3810   2.063   1.370  16.948  1.4332  0.4234 -0.9936
  248MPD1     C 3811   1.688   1.052  17.101  0.3236 -0.1761 -0.0893
  248MPD1    C1 3812   1.753   1.171  17.140  0.2487  0.6927  0.0779
  248MPD1    C2 3813   1.819   1.178  17.262 -0.0146 -0.1062 -0.3379
  248MPD1    C3 3814   1.834   1.064  17.342  0.0274 -0.0650  0.0983
  248MPD1    C4 3815   1.773   0.949  17.301 -0.7581 -0.2901  0.4218
  248MPD1    C5 3816   1.694   0.947  17.187  0.3813  0.1302  0.6316
  248MPD1     H 3817   1.878   1.263  17.293  1.1701 -0.5737 -1.3067
  248MPD1    H1 3818   1.779   0.852  17.351  0.4115 -0.9393 -0.9845
  248MPD1    H2 3819   1.609   1.040  17.028  0.1204 -1.4457  0.3348
  248MPD1    H3 3820   1.645   0.857  17.153  1.4230  0.0297 -0.6043
  248MPD1     N 3821   1.910   1.085  17.457  0.4819 -0.3744  0.0098
  248MPD1    H5 3822   1.954   1.176  17.462  2.0945 -1.1377 -0.1629
  248MPD1    N1 3823   1.735   1.283  17.060  0.3909  0.5511 -0.3279
  248MPD1    H6 3824   1.708   1.262  16.964 -0.8102  1.2906 -0.1564
  248MPD1    H7 3825   1.807   1.355  17.055 -1.5565  2.3470 -2.8001
  249MPD1     C 3826   3.123   1.034  12.316 -0.4674  0.8528  0.1514
  249MPD1    C1 3827   3.172   0.969  12.431 -0.0685 -0.0715 -0.3604
  249MPD1    C2 3828   3.292   0.905  12.420 -0.0962  0.0912 -0.6377
  249MPD1    C3 3829   3.374   0.901  12.305 -0.1704  0.1828 -0.3886
  249MPD1    C4 3830   3.312   0.957  12.192 -0.6024  0.1422 -0.2131
  249MPD1    C5 3831   3.189   1.011  12.202  0.0703 -0.7086 -0.0449
  249MPD1     H 3832   3.340   0.860  12.506 -1.0019  0.5060  0.0833
  249MPD1    H1 3833   3.353   0.961  12.091  2.2610 -0.1860  0.9278
  249MPD1    H2 3834   3.032   1.092  12.310 -1.2093  0.0356  3.3337
  249MPD1    H3 3835   3.160   1.051  12.105  0.0439  1.9807  1.0723
  249MPD1     N 3836   3.503   0.845  12.305 -0.5559 -0.1537 -0.3080
  249MPD1    H5 3837   3.550   0.821  12.391 -0.0407  2.7472  0.1988
  249MPD1    N1 3838   3.111   0.990  12.555 -0.0157 -0.3391 -0.5207
  249MPD1    H6 3839   3.011   1.002  12.535 -0.5400  1.8503  3.5772
  249MPD1    H7 3840   3.116   0.904  12.609  1.0580 -0.8523 -1.4389
  250MPD2     C 3841   1.276   4.205  13.554  0.4022  0.4676 -0.1036
  250MPD2    C1 3842   1.169   4.277  13.503  0.3334  0.9085  0.1611
  250MPD2    C2 3843   1.067   4.205  13.441  0.7537  0.5129  0.0034
  250MPD2    C3 3844   1.058   4.067  13.453 -0.1639 -0.2913 -0.3683
  250MPD2    C4 3845   1.155   4.002  13.529 -0.3044 -0.0560 -0.5960
  250MPD2    C5 3846   1.265   4.064  13.576 -0.6363 -0.0620  0.1689
  250MPD2     H 3847   0.991   4.254  13.382  0.7281 -1.0454 -1.2506
  250MPD2    H1 3848   1.148   3.898  13.558 -0.6142 -0.6093 -2.6270
  250MPD2    H2 3849   1.366   4.257  13.583  0.5158  0.9367 -1.3039
  250MPD2    H3 3850   1.342   4.011  13.631 -0.6012 -1.6837 -1.4503
  250MPD2     N 3851   0.947   3.996  13.393  0.3226 -0.7760  0.1948
  250MPD2    H5 3852   0.891   4.047  13.326  0.2047 -0.4832  0.5176
  250MPD2    N1 3853   1.181   4.420  13.489 -0.4314  0.2602  0.3712
  250MPD2    H7 3854   1.268   4.459  13.523 -1.1876  1.1757  1.2594
  251TMC3    C1 3855   1.098   4.639  13.432  0.3063 -1.2229 -0.9369
  251TMC3    C2 3856   1.000   4.729  13.456 -0.5812  0.1070  0.4104
  251TMC3    C3 3857   1.045   0.126  13.449  0.2882 -1.0230 -0.4687
  251TMC3    C4 3858   1.228   4.669  13.404 -0.0621 -0.7884  0.3928
  251TMC3    C5 3859   1.262   0.065  13.387 -0.0659 -0.1323  0.3668
  251TMC3    C6 3860   1.173   0.169  13.411  0.1946 -0.4174 -0.0656
  251TMC3     C 3861   1.069   4.497  13.452 -0.3559 -0.4229  0.8008
  251TMC3     O 3862   0.948   4.471  13.449  0.2635 -0.1064  0.1737
  251TMC3     H 3863   0.900   4.718  13.496  0.2835 -0.7168  2.3013
  251TMC3    H1 3864   1.300   4.594  13.373 -0.1818 -0.9496  0.5072
  251TMC3    H2 3865   1.191   0.273  13.384  0.3795 -0.4265  0.0229
  251TMC3    C7 3866   1.401   0.089  13.343  0.4485 -0.2396  0.6579
  251TMC3    C8 3867   0.945   0.227  13.480 -0.4351 -0.5103 -0.4044
  251TMC3    O1 3868   1.482   0.002  13.371  0.2071 -0.4661  0.0249
  251TMC3    O2 3869   0.829   0.200  13.452 -0.7469 -0.0160 -0.2882
  252TMC3    C1 3870   1.657   2.260   9.117  0.1270 -0.1797  0.4877
  252TMC3    C2 3871   1.776   2.245   9.186  0.4991  0.1128 -0.2921
  252TMC3    C3 3872   1.780   2.150   9.286  0.4263  0.3056 -0.5146
  252TMC3    C4 3873   1.545   2.190   9.151 -0.0063 -1.2226 -0.6669
  252TMC3    C5 3874   1.552   2.105   9.256  0.1202 -0.1964  0.7662
  252TMC3    C6 3875   1.670   2.084   9.327  0.1714  0.0892  0.2031
  252TMC3     C 3876   1.662   2.367   9.021  0.4138 -0.8944 -0.3885
  252TMC3     O 3877   1.770   2.402   8.977 -0.4611 -0.2744 -0.1291
  252TMC3     H 3878   1.868   2.296   9.161  1.0983 -1.5482 -1.4145
  252TMC3    H1 3879   1.449   2.211   9.105  0.8518  0.4727 -1.6750
  252TMC3    H2 3880   1.673   2.037   9.425 -0.8564 -1.5545 -0.5425
  252TMC3    C7 3881   1.429   2.034   9.297  0.7298 -0.6807 -1.1022
  252TMC3    C8 3882   1.914   2.115   9.342  0.6823 -0.2200  0.2203
  252TMC3    O1 3883   1.327   2.068   9.243 -0.0148  0.3535  0.0739
  252TMC3    O2 3884   1.993   2.205   9.329 -0.3145 -0.1243  0.0187
  253MPD2     C 3885   2.478   4.406  15.702 -0.0813 -0.1436 -0.6701
  253MPD2    C1 3886   2.350   4.410  15.651 -0.3528  0.0787  0.0538
  253MPD2    C2 3887   2.242   4.386  15.733  0.4131 -0.4720  0.6590
  253MPD2    C3 3888   2.259   4.347  15.862 -0.1068  0.1736  0.0475
  253MPD2    C4 3889   2.380   4.365  15.915 -0.5181  0.6371  0.3074
  253MPD2    C5 3890   2.494   4.384  15.835  0.5016 -0.5133 -0.1170
  253MPD2     H 3891   2.147   4.398  15.683  1.2020 -0.4227 -0.8501
  253MPD2    H1 3892   2.391   4.350  16.021 -0.6230 -1.5931  0.0048
  253MPD2    H2 3893   2.571   4.429  15.652  1.4976  0.3494  2.4762
  253MPD2    H3 3894   2.591   4.395  15.880  0.1416 -2.2234  1.0527
  253MPD2     N 3895   2.155   4.318  15.946  0.2737  0.3672  0.4096
  253MPD2    H5 3896   2.180   4.309  16.045  5.5312 -0.6246 -0.9956
  253MPD2    N1 3897   2.307   4.461  15.522  0.6167  0.6690  0.4443
  253MPD2    H7 3898   2.209   4.462  15.496  0.6252  0.2943  0.3959
  254TMC3    C1 3899   1.931   4.279  16.018  0.3580 -0.6325 -0.7368
  254TMC3    C2 3900   1.840   4.378  16.049  0.6938  0.3513 -0.0527
  254TMC3    C3 3901   1.803   4.380  16.174  0.3294 -0.0927  0.0104
  254TMC3    C4 3902   1.957   4.170  16.099  0.0357  0.5180  0.0822
  254TMC3    C5 3903   1.909   4.181  16.226  0.5083  0.1818 -0.3730
  254TMC3    C6 3904   1.835   4.289  16.264  0.1597 -0.0792 -0.2442
  254TMC3     C 3905   2.021   4.315  15.908 -0.6075  0.1867  0.5047
  254TMC3     O 3906   1.959   4.366  15.814  0.1094 -0.4982 -0.5569
  254TMC3     H 3907   1.828   4.469  15.991 -0.8234  0.2729  0.1444
  254TMC3    H1 3908   2.031   4.096  16.071 -0.0249  1.0682 -1.5238
  254TMC3    H2 3909   1.801   4.301  16.366 -1.4212  0.1158 -0.7993
  254TMC3    C7 3910   1.945   4.073  16.314  0.1307  0.2653 -0.5302
  254TMC3    C8 3911   1.760   4.517  16.216  0.2990 -0.3307 -0.4875
  254TMC3    O1 3912   2.000   3.974  16.265  0.6164  0.4531 -0.3812
  254TMC3    O2 3913   1.783   4.553  16.332 -0.5162 -0.5280  0.3656
  255MPD2     C 3914   0.790   2.972   8.796  0.1512 -0.9368 -0.5562
  255MPD2    C1 3915   0.857   2.905   8.888  0.0571  0.0017 -0.4630
  255MPD2    C2 3916   0.958   2.961   8.958 -0.5145 -0.1674 -0.2018
  255MPD2    C3 3917   0.982   3.097   8.956  0.7055 -0.1758 -0.3656
  255MPD2    C4 3918   0.902   3.168   8.868  0.6976  0.1795 -0.4342
  255MPD2    C5 3919   0.812   3.104   8.783  0.4045 -0.3377 -0.4970
  255MPD2     H 3920   1.019   2.900   9.024  2.3011  2.8254 -0.0793
  255MPD2    H1 3921   0.904   3.275   8.851  1.0209  0.0897 -0.9632
  255MPD2    H2 3922   0.712   2.919   8.743 -1.2475 -0.1671  0.7420
  255MPD2    H3 3923   0.762   3.169   8.712 -0.4197  0.4570  0.8103
  255MPD2     N 3924   1.086   3.149   9.035  0.2637  0.4888 -0.7772
  255MPD2    H5 3925   1.145   3.091   9.094  0.9677  1.3713 -0.6070
  255MPD2    N1 3926   0.824   2.767   8.896 -1.1600 -0.0654 -0.2994
  255MPD2    H7 3927   0.745   2.722   8.852 -1.5317  0.9947 -0.7088
  256TMC3    C1 3928   0.859   2.543   8.894 -0.3187  0.0183 -0.3632
  256TMC3    C2 3929   0.956   2.449   8.876  0.4599 -0.1216  0.1852
  256TMC3    C3 3930   0.926   2.318   8.875 -0.0375 -0.4433 -0.5048
  256TMC3    C4 3931   0.738   2.499   8.933 -0.2452 -0.8106 -0.8377
  256TMC3    C5 3932   0.715   2.372   8.959  0.0057 -0.4143  0.4805
  256TMC3    C6 3933   0.804   2.275   8.918 -0.3444  0.0337  0.6371
  256TMC3     C 3934   0.908   2.672   8.945  0.7975 -0.4715 -0.2423
  256TMC3     O 3935   1.023   2.682   8.981 -0.1184 -0.3449 -0.1029
  256TMC3     H 3936   1.055   2.475   8.839 -0.3194  2.7886  0.1561
  256TMC3    H1 3937   0.673   2.575   8.975 -0.0270 -0.4148 -1.2101
  256TMC3    H2 3938   0.772   2.171   8.911 -1.1070  0.4316 -1.8614
  256TMC3    C7 3939   0.655   2.342   9.090 -0.0793  0.7562  0.3674
  256TMC3    C8 3940   1.029   2.211   8.871  0.1383 -0.3290  0.1960
  256TMC3    O1 3941   0.560   2.411   9.114 -0.3359 -0.1801 -0.6245
  256TMC3    O2 3942   0.991   2.106   8.925 -0.0594 -0.8205  0.1558
  257MPD2     C 3943   4.104   4.145  13.617  0.6345  0.3162  0.2292
  257MPD2    C1 3944   4.214   4.178  13.541 -0.2879  0.2335  0.5643
  257MPD2    C2 3945   4.336   4.122  13.582  0.4752 -0.1662  0.0549
  257MPD2    C3 3946   4.346   4.044  13.695  0.0433 -0.0317 -0.2884
  257MPD2    C4 3947   4.232   4.020  13.769  0.3140  0.6008  0.0808
  257MPD2    C5 3948   4.115   4.066  13.729 -0.2917 -0.1364  0.1403
  257MPD2     H 3949   4.429   4.160  13.541 -0.3551  0.8716 -0.8584
  257MPD2    H1 3950   4.230   3.970  13.865 -2.2024  1.7293  0.6186
  257MPD2    H2 3951   4.007   4.180  13.586 -0.3574 -1.6320  1.1195
  257MPD2    H3 3952   4.021   4.038  13.775 -0.0777 -0.8271  0.1628
  257MPD2     N 3953   4.477   4.004  13.727  0.0195 -0.3408 -0.6100
  257MPD2    H5 3954   4.539   4.029  13.651  0.4129 -3.4338 -1.3039
  257MPD2    N1 3955   4.190   4.272  13.434  0.2367  0.2708  0.0494
  257MPD2    H7 3956   4.100   4.317  13.430  0.5515  1.0579  1.9507
  258TMC3    C1 3957   4.657   3.913  13.850 -0.2699 -0.4934 -0.0972
  258TMC3    C2 3958   4.711   3.839  13.752  0.2920 -0.2598 -0.6623
  258TMC3    C3 3959   0.101   3.799  13.777 -0.2130  0.0517  0.3380
  258TMC3    C4 3960   4.710   3.926  13.977  0.2157 -0.1095  0.3360
  258TMC3    C5 3961   0.091   3.855  14.001 -1.0481 -0.4155  0.0504
  258TMC3    C6 3962   0.162   3.804  13.895  1.0103  0.3368 -0.0609
  258TMC3     C 3963   4.517   3.953  13.846 -0.6200  0.4149 -0.4421
  258TMC3     O 3964   4.457   3.939  13.952 -0.3928  0.1013 -0.7128
  258TMC3     H 3965   4.650   3.816  13.665 -1.7999 -1.7021  1.1982
  258TMC3    H1 3966   4.662   3.983  14.055 -0.5586 -0.2289 -0.0468
  258TMC3    H2 3967   0.259   3.759  13.914  1.2381  1.7208  2.0870
  258TMC3    C7 3968   0.166   3.862  14.125 -0.2577 -0.2582  0.7293
  258TMC3    C8 3969   0.176   3.721  13.676  0.0644  0.5324 -0.0949
  258TMC3    O1 3970   0.258   3.785  14.135 -0.0637 -1.0515  0.6183
  258TMC3    O2 3971   0.282   3.670  13.710 -0.6135  0.0169  0.0326
  259MPD2     C 3972   3.631   1.705   0.362  0.0445  0.2614 -0.8458
  259MPD2    C1 3973   3.721   1.610   0.401 -0.2438  0.2153  0.1495
  259MPD2    C2 3974   3.791   1.537   0.310  0.0388  0.2151 -0.1809
  259MPD2    C3 3975   3.756   1.543   0.174  0.2451 -0.3894  0.2005
  259MPD2    C4 3976   3.652   1.624   0.130  0.0004 -0.1423 -0.4374
  259MPD2    C5 3977   3.599   1.710   0.224  0.0921  0.4172  0.3884
  259MPD2     H 3978   3.871   1.472   0.342  0.7119  1.8477  1.4218
  259MPD2    H1 3979   3.610   1.628   0.030  1.1778 -0.6406 -0.9516
  259MPD2    H2 3980   3.568   1.764   0.427 -0.2200 -1.6310  0.6330
  259MPD2    H3 3981   3.516   1.773   0.194 -0.5943 -0.7355 -0.1729
  259MPD2     N 3982   3.823   1.449   0.090  0.0604 -0.2706 -0.0981
  259MPD2    H5 3983   3.878   1.377   0.137  0.3043 -2.7608 -4.2203
  259MPD2    N1 3984   3.748   1.614   0.540 -0.6278 -0.6064  0.4460
  259MPD2    H7 3985   3.693   1.675   0.600  1.3244  1.7764 -0.2061
  260TMC3    C1 3986   3.911   1.350  17.638 -0.0597  0.4128  0.0292
  260TMC3    C2 3987   3.960   1.370  17.513  0.4038 -0.4087 -0.5464
  260TMC3    C3 3988   4.015   1.262  17.449  1.0362 -0.4349  0.3271
  260TMC3    C4 3989   3.934   1.231  17.709  0.6097 -0.4036  0.0830
  260TMC3    C5 3990   4.001   1.129  17.645  0.4870  0.6126 -0.3250
  260TMC3    C6 3991   4.029   1.142  17.515  0.2465  0.2017 -0.2689
  260TMC3     C 3992   3.826   1.452  17.694 -0.3439 -0.8401 -0.4148
  260TMC3     O 3993   3.778   1.535  17.618 -0.2283  0.0483  0.2645
  260TMC3     H 3994   3.935   1.457  17.453  0.0982  0.4766  0.8610
  260TMC3    H1 3995   3.872   1.219   0.056 -0.0001  0.1449 -0.2671
  260TMC3    H2 3996   4.065   1.055  17.461 -2.4550 -1.6265  0.8210
  260TMC3    C7 3997   3.991   0.992  17.694 -0.0842  0.4510  0.1344
  260TMC3    C8 3998   4.005   1.263  17.304  0.0013 -0.1572  1.3085
  260TMC3    O1 3999   3.986   0.903  17.612  0.0192 -0.0287  0.6246
  260TMC3    O2 4000   3.992   1.371  17.252  0.6059  0.0429  0.1565
  261MPD2     C 4001   0.255   4.044  12.979 -0.6083 -0.3656  0.6589
  261MPD2    C1 4002   0.393   4.044  12.991 -0.0357  0.7648  0.3662
  261MPD2    C2 4003   0.464   4.122  12.898  0.2066 -0.5163  0.4043
  261MPD2    C3 4004   0.401   4.205  12.801  0.0734  0.0723 -0.4333
  261MPD2    C4 4005   0.264   4.216  12.814 -0.7276 -0.4549  0.8812
  261MPD2    C5 4006   0.194   4.137  12.901 -0.0139 -0.6765 -0.3632
  261MPD2     H 4007   0.572   4.120  12.901  0.1995 -0.0916  1.0325
  261MPD2    H1 4008   0.207   4.290  12.758 -0.0794  0.3472  1.2892
  261MPD2    H2 4009   0.190   3.996  13.052 -1.9930 -0.0893 -0.3774
  261MPD2    H3 4010   0.087   4.153  12.897  0.0419 -0.9811 -3.5595
  261MPD2     N 4011   0.480   4.283  12.705  0.0902  0.4674  0.5025
  261MPD2    H5 4012   0.582   4.274  12.701 -0.0219 -1.2088  1.3490
  261MPD2    N1 4013   0.462   3.947  13.071  0.0786  0.3645 -0.3227
  261MPD2    H7 4014   0.415   3.860  13.096  2.4775 -0.8560 -0.0475
  262TMC3    C1 4015   0.519   4.414  12.511 -1.0131  0.3958 -0.8186
  262TMC3    C2 4016   0.449   4.487  12.423  0.5982  0.5496 -0.2753
  262TMC3    C3 4017   0.491   4.471  12.293 -0.5386  0.5336 -0.2689
  262TMC3    C4 4018   0.620   4.317  12.477  0.3716  0.4486  0.4588
  262TMC3    C5 4019   0.640   4.295  12.345  0.8218  0.4831 -0.2857
  262TMC3    C6 4020   0.583   4.382  12.248 -0.0534 -0.0517 -0.3518
  262TMC3     C 4021   0.427   4.372  12.610 -0.0991  0.1849  0.5422
  262TMC3     O 4022   0.307   4.388  12.584  0.1677  0.4698 -0.0838
  262TMC3     H 4023   0.380   4.565  12.452  1.2426  0.2938  1.9533
  262TMC3    H1 4024   0.656   4.246  12.551  2.9713  0.9718 -0.3138
  262TMC3    H2 4025   0.607   4.378  12.142 -2.3305 -0.4036 -0.8580
  262TMC3    C7 4026   0.709   4.178  12.309 -0.1933  0.2838  0.2129
  262TMC3    C8 4027   0.423   4.555  12.189  0.1338 -0.3930  0.5748
  262TMC3    O1 4028   0.768   4.123  12.395  0.2584 -0.1490 -0.4509
  262TMC3    O2 4029   0.360   4.656  12.219 -0.0665 -0.4570 -0.1223
  263MPD2     C 4030   1.389   3.829  11.558 -1.0686  0.1155 -0.5507
  263MPD2    C1 4031   1.418   3.720  11.482 -0.1744 -0.3882 -1.0075
  263MPD2    C2 4032   1.396   3.719  11.342 -0.7952 -0.0048  0.4668
  263MPD2    C3 4033   1.355   3.837  11.286  0.7279  0.1172 -0.4772
  263MPD2    C4 4034   1.305   3.940  11.373 -0.3634  0.4345 -0.5332
  263MPD2    C5 4035   1.334   3.940  11.501  1.0014  0.8777  0.1684
  263MPD2     H 4036   1.403   3.636  11.273  2.3851 -1.3295  2.4053
  263MPD2    H1 4037   1.271   4.038  11.341 -1.4291 -0.2276 -1.4139
  263MPD2    H2 4038   1.392   3.827  11.666  1.1946  0.8307 -0.5933
  263MPD2    H3 4039   1.300   4.020  11.566 -3.7749  0.1628 -1.5040
  263MPD2     N 4040   1.352   3.849  11.142  0.1670  0.1330  0.7792
  263MPD2    H5 4041   1.404   3.782  11.086  0.1072  0.1021  0.7614
  263MPD2    N1 4042   1.454   3.610  11.559 -0.4040 -0.6305  0.4969
  263MPD2    H7 4043   1.460   3.622  11.659  2.2522 -3.0523  0.5968
  264TMC3    C1 4044   1.319   3.978  10.934 -0.2791  0.4641 -0.3849
  264TMC3    C2 4045   1.234   4.069  10.879 -0.3088  0.6999 -0.1425
  264TMC3    C3 4046   1.292   4.164  10.797 -0.1387  0.0737  0.2762
  264TMC3    C4 4047   1.446   3.964  10.891  0.8598 -0.0897 -0.4262
  264TMC3    C5 4048   1.496   4.037  10.787  0.5618  0.4231 -0.4792
  264TMC3    C6 4049   1.416   4.137  10.738 -0.1022 -0.2115 -0.1739
  264TMC3     C 4050   1.290   3.955  11.077  0.0100 -0.1321  0.1197
  264TMC3     O 4051   1.225   4.044  11.124  0.1965 -0.2644 -0.4957
  264TMC3     H 4052   1.131   4.080  10.911 -0.8385 -0.5279 -1.4451
  264TMC3    H1 4053   1.507   3.879  10.918  2.3666  0.9259 -0.6369
  264TMC3    H2 4054   1.463   4.204  10.666  0.6205 -0.1794  0.3213
  264TMC3    C7 4055   1.635   4.076  10.804 -0.0886 -0.2083  0.7677
  264TMC3    C8 4056   1.310   4.292  10.859 -0.0485  0.6810  1.3470
  264TMC3    O1 4057   1.721   3.985  10.792  0.2979 -0.3141 -0.0347
  264TMC3    O2 4058   1.362   4.383  10.796 -0.4220 -0.5831 -0.1666
  265MPD2     C 4059   3.724   3.964  15.651  0.0712  0.5583  0.5725
  265MPD2    C1 4060   3.705   4.090  15.592 -0.0101  0.1546  0.3876
  265MPD2    C2 4061   3.741   4.105  15.458 -0.2240  0.2614 -0.1641
  265MPD2    C3 4062   3.779   4.001  15.375  1.1028 -0.7239 -0.4528
  265MPD2    C4 4063   3.796   3.876  15.435 -0.1913 -0.0982 -0.4011
  265MPD2    C5 4064   3.770   3.862  15.569 -0.2310 -0.5255 -1.1096
  265MPD2     H 4065   3.730   4.201  15.408  0.6970  0.7160  0.5153
  265MPD2    H1 4066   3.821   3.787  15.379  0.4176 -0.9885  1.2658
  265MPD2    H2 4067   3.702   3.940  15.754  0.2569 -2.1271 -0.0241
  265MPD2    H3 4068   3.780   3.766  15.618 -0.6091 -0.2058 -0.4078
  265MPD2     N 4069   3.796   4.014  15.230 -0.3478 -0.0661  0.2122
  265MPD2    H5 4070   3.820   3.928  15.182  0.6869  0.8752 -0.9308
  265MPD2    N1 4071   3.638   4.191  15.665  0.0744  0.5906 -0.2507
  265MPD2    H7 4072   3.629   4.270  15.601  2.2938  2.6916  2.0272
  266TMC3    C1 4073   3.594   4.337  15.848 -0.0187  0.0868  0.1498
  266TMC3    C2 4074   3.667   4.379  15.949  0.3872  0.1404  0.1196
  266TMC3    C3 4075   3.669   4.511  15.985  0.4607  0.2199  0.3400
  266TMC3    C4 4076   3.517   4.419  15.768 -0.4103  0.1352  0.5252
  266TMC3    C5 4077   3.542   4.555  15.788  0.1087 -0.3208 -1.0217
  266TMC3    C6 4078   3.611   4.603  15.897  0.0028  0.3194 -0.3644
  266TMC3     C 4079   3.627   4.203  15.802  0.5952  0.4898  0.4898
  266TMC3     O 4080   3.651   4.123  15.889  0.0702 -0.1567 -0.2032
  266TMC3     H 4081   3.733   4.310  16.000  0.5256 -0.1148 -0.4131
  266TMC3    H1 4082   3.464   4.378  15.683  2.7448 -1.2969 -0.7205
  266TMC3    H2 4083   3.616   4.709  15.917 -1.2743  0.0455  1.3960
  266TMC3    C7 4084   3.490   4.644  15.688 -0.4774  0.1402  0.3193
  266TMC3    C8 4085   3.765   4.552  16.082 -0.0591  0.3962 -0.4951
  266TMC3    O1 4086   3.404   4.592  15.619  0.3269 -0.0076 -0.1711
  266TMC3    O2 4087   3.844   4.464  16.117 -0.1854 -0.4183  0.8410
  267MPD2     C 4088   1.440   2.100   0.919  0.1400  0.2308  0.5594
  267MPD2    C1 4089   1.355   2.012   0.851 -0.0297 -0.1906 -0.0352
  267MPD2    C2 4090   1.223   2.043   0.833  0.6081 -0.4895 -0.7468
  267MPD2    C3 4091   1.182   2.165   0.876 -0.2822  0.4019  0.0483
  267MPD2    C4 4092   1.265   2.255   0.931  0.1412 -0.4254 -0.1088
  267MPD2    C5 4093   1.398   2.224   0.950 -0.2089 -0.4393 -0.0085
  267MPD2     H 4094   1.152   1.976   0.786  0.2962 -0.2338 -0.6349
  267MPD2    H1 4095   1.240   2.357   0.959 -0.7156 -0.0867 -2.0880
  267MPD2    H2 4096   1.548   2.089   0.922  0.2324  0.7203 -1.3013
  267MPD2    H3 4097   1.465   2.299   0.992 -0.9505 -0.3867  1.1026
  267MPD2     N 4098   1.052   2.202   0.862  0.2878  0.0155  0.1796
  267MPD2    H5 4099   1.032   2.301   0.852 -0.4832 -0.0690  0.8721
  267MPD2    N1 4100   1.419   1.895   0.795 -0.2719 -0.4116  0.3492
  267MPD2    H7 4101   1.510   1.869   0.832 -0.7898 -2.7165 -0.0162
  268TMC3    C1 4102   1.473   1.745   0.622  0.4305  0.5511 -0.2247
  268TMC3    C2 4103   1.504   1.743   0.494  0.0225  0.2810 -0.7654
  268TMC3    C3 4104   1.582   1.637   0.450 -0.0130 -0.6188  0.2166
  268TMC3    C4 4105   1.524   1.649   0.710 -0.3658  0.3213 -0.8518
  268TMC3    C5 4106   1.616   1.561   0.667 -0.0907 -0.1667 -0.1440
  268TMC3    C6 4107   1.645   1.554   0.536  0.0552  0.0174  0.3296
  268TMC3     C 4108   1.384   1.846   0.673 -0.1177  0.3244 -0.2474
  268TMC3     O 4109   1.300   1.890   0.597 -0.4258  0.7480 -0.4583
  268TMC3     H 4110   1.461   1.817   0.428 -0.8631  0.4066 -0.0506
  268TMC3    H1 4111   1.503   1.658   0.816  1.9039  0.6899 -0.4149
  268TMC3    H2 4112   1.729   1.490   0.513  1.0885  1.3601  0.3342
  268TMC3    C7 4113   1.676   1.469   0.758  0.7859 -0.2085 -0.4062
  268TMC3    C8 4114   1.664   1.676   0.338 -0.3126 -0.6677 -0.6814
  268TMC3    O1 4115   1.708   1.361   0.713  0.2537 -0.3219  0.3783
  268TMC3    O2 4116   1.786   1.659   0.352 -0.3837 -0.3301 -0.0980
  269MPD2     C 4117   1.604   4.730  15.689  0.2286  0.4959 -0.6853
  269MPD2    C1 4118   1.477   0.033  15.715 -0.1374 -0.0510 -0.0784
  269MPD2    C2 4119   1.455   0.171  15.720 -0.0204 -0.3224  0.0288
  269MPD2    C3 4120   1.553   0.263  15.687  0.1571  0.3909  0.3040
  269MPD2    C4 4121   1.684   0.223  15.645 -0.0472  0.7814 -0.2613
  269MPD2    C5 4122   1.702   0.086  15.661 -0.0063  0.0444  0.4543
  269MPD2     H 4123   1.359   0.208  15.755 -0.6266 -0.1446 -1.8409
  269MPD2    H1 4124   1.766   0.291  15.623  0.3256 -0.0599 -1.4823
  269MPD2    H2 4125   1.632   4.626  15.692  0.9460  0.6155 -3.3699
  269MPD2    H3 4126   1.805   0.056  15.643 -0.2152 -0.6545  0.3912
  269MPD2     N 4127   1.514   0.400  15.703 -0.2948 -0.1217 -0.2319
  269MPD2    H5 4128   1.416   0.413  15.730  1.0136 -2.1696  5.5804
  269MPD2    N1 4129   1.381   4.670  15.728 -0.0552  0.1116 -0.4173
  269MPD2    H7 4130   1.411   4.577  15.700  3.2806  0.4921  1.9684
  270TMC3    C1 4131   1.172   4.572  15.769  0.2637 -0.5187 -0.0072
  270TMC3    C2 4132   1.040   4.570  15.737 -0.2082  0.0776  0.3962
  270TMC3    C3 4133   0.968   4.450  15.749  0.6671  0.1740 -0.6720
  270TMC3    C4 4134   1.241   4.464  15.799  0.2561  0.1576 -0.1005
  270TMC3    C5 4135   1.170   4.343  15.807  0.3072  0.5386  0.1789
  270TMC3    C6 4136   1.033   4.336  15.796  0.7666  0.2998  0.3436
  270TMC3     C 4137   1.246   4.697  15.748  0.0499 -0.4560  0.7549
  270TMC3     O 4138   1.188   0.067  15.756 -0.3442  0.3431 -0.4461
  270TMC3     H 4139   0.995   4.659  15.695 -2.4821 -0.8795  0.8280
  270TMC3    H1 4140   1.343   4.458  15.836  0.9425 -1.2342 -2.2289
  270TMC3    H2 4141   0.986   4.241  15.815  3.8185 -1.2906 -0.0147
  270TMC3    C7 4142   1.247   4.227  15.826  0.1484 -0.3780  1.0711
  270TMC3    C8 4143   0.887   4.429  15.631  0.0280  0.1412 -0.5115
  270TMC3    O1 4144   1.345   4.205  15.755 -0.8005  0.2118 -0.2517
  270TMC3    O2 4145   0.794   4.362  15.664  0.5536  0.0740 -0.6464
  271MPD2     C 4146   0.677   4.147  14.018  0.2020 -0.6819 -0.1105
  271MPD2    C1 4147   0.672   4.237  14.120  0.0603 -0.6831  0.8752
  271MPD2    C2 4148   0.604   4.355  14.109  1.0856 -0.3851 -0.0058
  271MPD2    C3 4149   0.537   4.388  13.991 -0.1679 -0.8681 -0.7489
  271MPD2    C4 4150   0.549   4.293  13.886 -0.7752 -0.6885  0.3909
  271MPD2    C5 4151   0.614   4.177  13.900 -0.1330 -1.1202 -0.0236
  271MPD2     H 4152   0.588   4.420  14.194  3.8094  0.5297 -0.1987
  271MPD2    H1 4153   0.495   4.302  13.793 -2.5077 -0.8624  1.3754
  271MPD2    H2 4154   0.727   4.052  14.034 -0.0019 -0.4839  1.5999
  271MPD2    H3 4155   0.615   4.096  13.829  1.2031  2.1300 -3.7527
  271MPD2     N 4156   0.458   4.499  13.977  0.3885 -0.0826  0.2038
  271MPD2    H5 4157   0.420   4.511  13.883  0.3214  1.2702  0.4018
  271MPD2    N1 4158   0.740   4.223  14.238  0.2891 -0.3315 -0.2113
  271MPD2    H7 4159   0.734   4.290  14.314  0.3501 -1.2500  0.6069
  272TMC3    C1 4160   0.905   4.121  14.394 -0.0773  1.0013  0.2070
  272TMC3    C2 4161   1.028   4.048  14.396 -0.8895  0.1910 -0.1597
  272TMC3    C3 4162   1.085   4.024  14.518 -0.1148 -0.2511  0.1288
  272TMC3    C4 4163   0.830   4.143  14.510 -0.3331 -0.5424  0.4057
  272TMC3    C5 4164   0.893   4.125  14.630 -0.1197 -1.0471 -0.2958
  272TMC3    C6 4165   1.013   4.060  14.631 -0.1902 -0.3617 -0.3155
  272TMC3     C 4166   0.838   4.122  14.261  0.0475  0.3021 -0.1950
  272TMC3     O 4167   0.877   4.032  14.191  0.3326  0.2699 -0.7645
  272TMC3     H 4168   1.081   4.026  14.304 -0.6714 -1.3192  0.3354
  272TMC3    H1 4169   0.731   4.183  14.490 -0.2798 -1.6917 -2.1550
  272TMC3    H2 4170   1.062   4.061  14.727 -0.8138 -0.6015  0.0084
  272TMC3    C7 4171   0.861   4.213  14.739 -0.3582 -0.2580 -0.2693
  272TMC3    C8 4172   1.201   3.936  14.529 -0.2833  0.5119  0.5034
  272TMC3    O1 4173   0.943   4.214  14.828 -0.4579 -0.5831  0.0963
  272TMC3    O2 4174   1.250   3.909  14.422 -0.0751  0.8464  0.2252
  273MPD2     C 4175   2.195   2.252  11.499  0.3605  0.3955  0.7979
  273MPD2    C1 4176   2.308   2.337  11.515  0.1743 -0.4930 -0.4136
  273MPD2    C2 4177   2.327   2.434  11.421 -0.1441  0.3169  0.8396
  273MPD2    C3 4178   2.243   2.455  11.315 -0.0241  0.7770  0.4147
  273MPD2    C4 4179   2.135   2.362  11.297 -0.3775  0.2049 -0.0145
  273MPD2    C5 4180   2.118   2.254  11.380  0.0306 -0.3549  0.8823
  273MPD2     H 4181   2.411   2.503  11.430  1.0502 -1.1573  0.8997
  273MPD2    H1 4182   2.067   2.370  11.213 -2.3656  3.0084  1.8865
  273MPD2    H2 4183   2.167   2.177  11.572 -0.5252  0.2191  0.2691
  273MPD2    H3 4184   2.035   2.184  11.375 -0.3072  0.0167  1.2486
  273MPD2     N 4185   2.271   2.567  11.233 -0.0056  0.3224  0.0338
  273MPD2    H5 4186   2.347   2.628  11.260  0.0145 -0.3536  1.4578
  273MPD2    N1 4187   2.389   2.327  11.638 -0.6435 -0.1732 -0.6208
  273MPD2    H7 4188   2.384   2.244  11.696 -1.2192 -0.2946 -0.8348
  274TMC3    C1 4189   2.247   2.736  11.081  0.4948 -0.0353  1.0211
  274TMC3    C2 4190   2.212   2.778  10.956  0.4642  0.8681  0.3841
  274TMC3    C3 4191   2.215   2.913  10.932 -0.7138 -0.0057 -0.0892
  274TMC3    C4 4192   2.282   2.827  11.180  0.4353  0.0677 -0.1185
  274TMC3    C5 4193   2.286   2.965  11.144  0.1281  0.3571  0.4560
  274TMC3    C6 4194   2.263   3.005  11.017 -0.1068  0.7887  0.2534
  274TMC3     C 4195   2.201   2.604  11.115  0.0547 -0.3944  0.3661
  274TMC3     O 4196   2.107   2.550  11.059  0.0280  0.7015  0.1244
  274TMC3     H 4197   2.172   2.713  10.879  1.3380  1.6730 -0.7540
  274TMC3    H1 4198   2.288   2.798  11.284  0.3832  1.2701  0.2232
  274TMC3    H2 4199   2.241   3.108  10.990 -1.9612  0.5488  0.8356
  274TMC3    C7 4200   2.254   3.063  11.246 -0.5109  0.6008 -0.4356
  274TMC3    C8 4201   2.163   2.968  10.814  0.4082 -0.1382  0.2077
  274TMC3    O1 4202   2.189   3.160  11.212 -0.3887 -0.0258  0.0391
  274TMC3    O2 4203   2.074   2.905  10.754  0.7096 -0.3589 -0.0305
  275MPD2     C 4204   2.444   0.379  14.401 -0.6884  0.2817  0.1543
  275MPD2    C1 4205   2.356   0.415  14.495 -0.3459 -0.4590 -0.2478
  275MPD2    C2 4206   2.226   0.355  14.489  0.5358  0.7561  0.0025
  275MPD2    C3 4207   2.181   0.266  14.394  0.0025  0.4513 -0.0663
  275MPD2    C4 4208   2.274   0.236  14.304 -0.3485  0.0086  0.7439
  275MPD2    C5 4209   2.399   0.292  14.307  0.3426  0.2936 -0.2342
  275MPD2     H 4210   2.152   0.395  14.556  3.5475  2.1928  2.4798
  275MPD2    H1 4211   2.242   0.178  14.219 -0.8235  0.3519  0.6835
  275MPD2    H2 4212   2.542   0.424  14.389 -0.5998 -0.3865 -1.6105
  275MPD2    H3 4213   2.456   0.273  14.217  0.1843  1.5196 -0.5938
  275MPD2     N 4214   2.048   0.220  14.378  0.6510  0.9267 -0.2641
  275MPD2    H5 4215   2.035   0.163  14.295  0.3917 -1.3451  1.3544
  275MPD2    N1 4216   2.379   0.509  14.597 -0.1445 -1.0681 -0.4975
  275MPD2    H7 4217   2.297   0.539  14.648  0.0284 -0.8502 -0.3487
  276TMC3    C1 4218   2.473   0.691  14.706  0.3992 -0.0343  0.0514
  276TMC3    C2 4219   2.344   0.713  14.751  0.2211  0.0026  0.4593
  276TMC3    C3 4220   2.333   0.801  14.852  0.1445  0.7928 -0.1183
  276TMC3    C4 4221   2.578   0.770  14.752 -0.2207 -0.2650  0.1838
  276TMC3    C5 4222   2.554   0.871  14.837  0.1899  0.5178 -0.3636
  276TMC3    C6 4223   2.426   0.884  14.891 -0.2580 -0.7460 -0.6033
  276TMC3     C 4224   2.496   0.580  14.615  0.3312  0.0994  0.2334
  276TMC3     O 4225   2.610   0.565  14.565 -0.1218  0.4173  0.0085
  276TMC3     H 4226   2.254   0.663  14.716  0.0642  1.1594 -0.7934
  276TMC3    H1 4227   2.675   0.730  14.727  0.9822  1.8308  1.5196
  276TMC3    H2 4228   2.408   0.952  14.973 -2.6868 -1.1451 -0.8255
  276TMC3    C7 4229   2.649   0.895  14.939 -0.2746  0.5155  1.0204
  276TMC3    C8 4230   2.230   0.778  14.947  0.6170  0.9773 -0.0353
  276TMC3    O1 4231   2.612   0.956  15.040 -0.3452 -0.4089  0.0951
  276TMC3    O2 4232   2.171   0.877  14.986 -0.7040  0.2569  0.4257
  277MPD2     C 4233   4.085   0.096  13.229 -0.2922  0.4576  0.1777
  277MPD2    C1 4234   3.954   0.139  13.240 -0.5360 -0.9841  0.7210
  277MPD2    C2 4235   3.866   0.065  13.322 -0.0058  0.5109 -0.1347
  277MPD2    C3 4236   3.911   4.678  13.375  1.1641 -0.1568  0.9089
  277MPD2    C4 4237   4.038   4.638  13.365  0.3818 -0.1551 -0.0115
  277MPD2    C5 4238   4.123   4.720  13.293 -0.1117  0.8129  0.2402
  277MPD2     H 4239   3.760   0.089  13.325 -0.0859  0.1516 -0.1189
  277MPD2    H1 4240   4.081   4.556  13.422  2.8067  2.0117  1.2800
  277MPD2    H2 4241   4.160   0.136  13.162  0.1542  3.1130  2.2633
  277MPD2    H3 4242   4.229   4.700  13.296 -0.3790 -0.3829  1.7661
  277MPD2     N 4243   3.815   4.595  13.443 -0.0750 -0.0001  0.1171
  277MPD2    H5 4244   3.721   4.631  13.455  0.0955  0.5997 -0.3385
  277MPD2    N1 4245   3.919   0.258  13.175 -0.1068  0.2102  0.3615
  277MPD2    H7 4246   3.992   0.305  13.121 -0.4255 -0.1508 -0.3772
  278TMC3    C1 4247   3.705   4.401  13.523 -0.0491  1.2176 -0.4659
  278TMC3    C2 4248   3.723   4.287  13.602 -0.6579 -0.6539 -0.0932
  278TMC3    C3 4249   3.606   4.219  13.624  0.9074 -0.3586  0.4170
  278TMC3    C4 4250   3.589   4.445  13.469  0.4836 -0.1337  0.1790
  278TMC3    C5 4251   3.473   4.372  13.499 -0.6220  0.1110 -0.5192
  278TMC3    C6 4252   3.487   4.248  13.567  0.6003  0.0120 -0.4855
  278TMC3     C 4253   3.833   4.459  13.478  0.4470 -0.7088 -0.0135
  278TMC3     O 4254   3.933   4.389  13.474 -0.3087  0.2240  0.4500
  278TMC3     H 4255   3.818   4.261  13.646  0.2378  1.2300 -0.9690
  278TMC3    H1 4256   3.583   4.522  13.393 -1.7410  1.1185  1.6025
  278TMC3    H2 4257   3.400   4.198  13.608  0.6171  2.1511  2.1755
  278TMC3    C7 4258   3.343   4.438  13.493 -0.7605  0.3764 -0.3991
  278TMC3    C8 4259   3.622   4.091  13.696 -0.0877 -0.2322 -0.2449
  278TMC3    O1 4260   3.336   4.561  13.458 -0.0311  0.2507  0.3059
  278TMC3    O2 4261   3.741   4.065  13.729 -0.1627 -0.7386 -0.2021
  279MPD2     C 4262   3.296   4.433   0.125 -0.1383  0.0984 -0.1024
  279MPD2    C1 4263   3.173   4.410   0.085  0.4667 -0.4871 -0.3467
  279MPD2    C2 4264   3.151   4.379  17.693  0.0199 -0.2498  0.3640
  279MPD2    C3 4265   3.259   4.366  17.605  0.1186  0.2997  0.1429
  279MPD2    C4 4266   3.387   4.401  17.648 -0.2658  0.5210 -0.0291
  279MPD2    C5 4267   3.402   4.432   0.040  0.2625 -0.3076  0.7988
  279MPD2     H 4268   3.048   4.359  17.666  0.1765 -1.3571  0.5704
  279MPD2    H1 4269   3.474   4.376  17.588  0.9844  1.4694  1.3930
  279MPD2    H2 4270   3.322   4.465   0.225 -1.5696  1.7314 -0.2551
  279MPD2    H3 4271   3.495   4.458   0.088  0.3849  0.6748  0.0278
  279MPD2     N 4272   3.241   4.343  17.469 -0.8055  0.0269  0.2814
  279MPD2    H5 4273   3.316   4.367  17.405 -1.3308  2.7823  0.6899
  279MPD2    N1 4274   3.061   4.405   0.179 -0.1736  0.0796 -0.4877
  279MPD2    H7 4275   2.971   4.377   0.141  0.7459  0.1740 -2.7081
  280TMC3    C1 4276   2.939   4.404   0.373 -0.6740 -0.4875 -1.0441
  280TMC3    C2 4277   2.865   4.297   0.331  0.3413 -0.1485  0.8930
  280TMC3    C3 4278   2.724   4.312   0.343  0.0507  0.1110 -0.7433
  280TMC3    C4 4279   2.873   4.511   0.428  0.1461  0.1197 -0.5703
  280TMC3    C5 4280   2.738   4.518   0.435  0.1059 -0.0619 -0.6461
  280TMC3    C6 4281   2.659   4.427   0.376 -0.2091  0.3322  0.2364
  280TMC3     C 4282   3.064   4.437   0.310  0.2517 -0.2729 -0.3976
  280TMC3     O 4283   3.148   4.495   0.374 -0.4942 -0.3798  0.1708
  280TMC3     H 4284   2.915   4.212   0.285 -1.4037 -1.4168  1.3255
  280TMC3    H1 4285   2.933   4.598   0.452  0.8639 -0.8461  1.1106
  280TMC3    H2 4286   2.552   4.428   0.391 -0.0597 -0.6982  1.4357
  280TMC3    C7 4287   2.694   4.652   0.447 -0.0251 -0.0935  0.4769
  280TMC3    C8 4288   2.640   4.192   0.343 -0.4605  0.5841  0.1360
  280TMC3    O1 4289   2.733   4.718   0.542 -0.6509  0.0422  0.0682
  280TMC3    O2 4290   2.530   4.209   0.391 -0.1765  0.9342  0.3335
  281TMC3    C1 4291   1.948   0.015  13.641 -0.8011  0.0280  0.4019
  281TMC3    C2 4292   1.952   0.081  13.520  0.7408  0.2230  0.1673
  281TMC3    C3 4293   1.985   0.013  13.405  0.6523 -0.5786 -0.8939
  281TMC3    C4 4294   1.936   4.617  13.651 -0.0780 -0.1143 -0.0464
  281TMC3    C5 4295   1.983   4.551  13.540 -0.0874  0.2985  0.3631
  281TMC3    C6 4296   2.014   4.614  13.418  0.2640 -0.0359  0.4455
  281TMC3     C 4297   1.903   0.084  13.764  0.3368 -0.0607 -0.7745
  281TMC3     O 4298   1.840   0.017  13.844 -0.1893  0.3850 -0.7028
  281TMC3     H 4299   1.922   0.185  13.515  0.8176  0.0775 -3.0375
  281TMC3    H1 4300   1.923   4.570  13.748 -1.7565  0.7704  0.1615
  281TMC3    H2 4301   2.052   4.563  13.331  0.8336 -1.6036  1.6093
  281TMC3    C7 4302   1.932   4.416  13.511 -0.0404  0.8455 -0.1828
  281TMC3    C8 4303   1.914   0.053  13.285 -0.0046  0.1217 -0.2254
  281TMC3    O1 4304   1.962   4.363  13.402 -0.3311  0.1007 -0.7945
  281TMC3    O2 4305   1.858   4.700  13.219 -0.4566 -0.1491  0.3315
  282MPD2     C 4306   3.490   1.449  15.208 -0.6672 -0.2709 -0.3115
  282MPD2    C1 4307   3.421   1.534  15.294 -0.1306  0.0709  0.4179
  282MPD2    C2 4308   3.354   1.644  15.249  0.3035  0.5395 -0.8006
  282MPD2    C3 4309   3.345   1.669  15.117  0.1428 -0.7733  0.8095
  282MPD2    C4 4310   3.430   1.594  15.029  0.0946  0.2614 -0.3833
  282MPD2    C5 4311   3.505   1.490  15.078 -0.1641 -0.1151  0.6094
  282MPD2     H 4312   3.302   1.706  15.321 -3.1858 -1.8546 -1.2722
  282MPD2    H1 4313   3.429   1.620  14.923  1.1870 -3.0257 -1.1979
  282MPD2    H2 4314   3.547   1.366  15.246  0.4826  0.1306 -1.1696
  282MPD2    H3 4315   3.566   1.437  15.006 -0.1081  1.4341 -0.4840
  282MPD2     N 4316   3.258   1.774  15.081 -0.2356 -0.1032  0.3102
  282MPD2    H5 4317   3.229   1.827  15.162 -1.7634 -1.0210  0.3736
  282MPD2    N1 4318   3.436   1.526  15.433 -0.2577 -0.2736  0.3795
  282MPD2    H7 4319   3.408   1.609  15.485  0.7614  0.7451 -0.7136
  283TMC3    C1 4320   3.491   1.435  15.639  0.5260  0.0312  0.2025
  283TMC3    C2 4321   3.524   1.558  15.684  0.2134  0.3563 -0.0545
  283TMC3    C3 4322   3.507   1.591  15.817  0.7145 -0.2093  1.2002
  283TMC3    C4 4323   3.461   1.341  15.733  0.3616 -0.5857  0.3758
  283TMC3    C5 4324   3.445   1.369  15.867 -0.3358 -0.3937 -0.3111
  283TMC3    C6 4325   3.473   1.495  15.911 -1.0508 -0.0902 -0.2352
  283TMC3     C 4326   3.483   1.412  15.496 -0.4357 -0.4684 -0.1550
  283TMC3     O 4327   3.491   1.298  15.451 -0.4152  0.2784 -0.7169
  283TMC3     H 4328   3.581   1.614  15.611 -0.1843 -0.3383 -0.8846
  283TMC3    H1 4329   3.419   1.248  15.696  0.6175 -0.4476 -0.2668
  283TMC3    H2 4330   3.446   1.522  16.012 -0.3801  0.2685 -0.1490
  283TMC3    C7 4331   3.391   1.273  15.968  0.3280 -0.0495  0.5384
  283TMC3    C8 4332   3.489   1.736  15.848  0.0880  0.3645  0.3195
  283TMC3    O1 4333   3.349   1.307  16.078  0.7372 -0.0940  0.5435
  283TMC3    O2 4334   3.465   1.763  15.965  0.4507 -0.2349  0.7167
  284MPD2     C 4335   1.365   0.518  12.278 -0.4762  0.4845  0.0523
  284MPD2    C1 4336   1.482   0.566  12.224 -0.1644 -0.1944 -0.8526
  284MPD2    C2 4337   1.596   0.537  12.298  1.1606 -0.0993  0.0882
  284MPD2    C3 4338   1.604   0.454  12.405 -0.8947  0.2162 -0.0710
  284MPD2    C4 4339   1.485   0.413  12.455 -1.5583 -1.2223 -0.3822
  284MPD2    C5 4340   1.368   0.433  12.391  0.1572 -0.0113  0.1190
  284MPD2     H 4341   1.684   0.561  12.239  0.7464 -1.0053 -0.9131
  284MPD2    H1 4342   1.473   0.341  12.535 -0.4661  1.7119  2.3953
  284MPD2    H2 4343   1.270   0.524  12.227 -0.8301 -0.3205  0.6076
  284MPD2    H3 4344   1.279   0.380  12.420 -0.3320  1.7356  1.8898
  284MPD2     N 4345   1.725   0.398  12.442  0.0221 -0.7216  0.2924
  284MPD2    H5 4346   1.806   0.435  12.394  0.3386 -1.0642  0.5676
  284MPD2    N1 4347   1.479   0.639  12.104 -0.4627 -0.3854  0.4184
  284MPD2    H7 4348   1.572   0.656  12.067 -0.4238  0.8890  1.0890
  285TMC3    C1 4349   1.406   0.748  11.910 -0.1792  0.1716 -0.5311
  285TMC3    C2 4350   1.528   0.730  11.847  0.0019  0.3721 -1.5953
  285TMC3    C3 4351   1.572   0.812  11.748 -0.8319  0.9250  0.6303
  285TMC3    C4 4352   1.328   0.855  11.883  0.3227  0.1804 -0.2043
  285TMC3    C5 4353   1.375   0.932  11.775 -0.8862  0.2332 -0.3523
  285TMC3    C6 4354   1.495   0.922  11.712  0.3470 -0.8088  0.0290
  285TMC3     C 4355   1.369   0.668  12.028  0.3017  0.1467 -0.6720
  285TMC3     O 4356   1.247   0.643  12.039  0.2268 -0.1110 -0.0228
  285TMC3     H 4357   1.574   0.634  11.866  1.1681  0.9174 -1.6939
  285TMC3    H1 4358   1.230   0.867  11.928  1.5917  1.1984  2.2688
  285TMC3    H2 4359   1.515   0.982  11.625  0.1247 -0.4936  0.1945
  285TMC3    C7 4360   1.325   1.066  11.757  0.1554 -0.4118  0.6853
  285TMC3    C8 4361   1.653   0.740  11.651  0.7945  0.7681  0.3060
  285TMC3    O1 4362   1.412   1.154  11.745  0.0588 -0.6693 -0.2096
  285TMC3    O2 4363   1.658   0.621  11.669  0.0080  0.3039  0.2176
  286MPD2     C 4364   1.565   4.231   1.135  0.4337  0.3316  0.2006
  286MPD2    C1 4365   1.686   4.288   1.177  0.3728  0.4544  0.0794
  286MPD2    C2 4366   1.800   4.211   1.176 -0.5417  0.0344  0.2686
  286MPD2    C3 4367   1.792   4.079   1.135  0.2049  0.3900  0.3237
  286MPD2    C4 4368   1.672   4.022   1.093  0.0865 -0.9683  0.4559
  286MPD2    C5 4369   1.560   4.102   1.092  0.3507  0.6305  0.0620
  286MPD2     H 4370   1.898   4.244   1.206 -0.2267 -0.8936  0.2689
  286MPD2    H1 4371   1.660   3.919   1.062 -2.5792  0.0430 -1.9174
  286MPD2    H2 4372   1.471   4.286   1.145  1.1731  1.9497 -1.5929
  286MPD2    H3 4373   1.467   4.061   1.053  0.0752 -0.7170  2.1332
  286MPD2     N 4374   1.900   3.987   1.127 -0.0651  0.4685 -0.5780
  286MPD2    H5 4375   1.888   3.897   1.080  1.5074 -0.2997  0.4680
  286MPD2    N1 4376   1.690   4.421   1.223 -0.1437  0.6566  0.0824
  286MPD2    H7 4377   1.777   4.468   1.241  0.0401  0.5812 -0.6106
  287TMC3    C1 4378   2.108   3.883   1.184  0.5003  0.3135 -0.6525
  287TMC3    C2 4379   2.121   3.813   1.067 -0.5457 -0.1378  0.3204
  287TMC3    C3 4380   2.222   3.724   1.053  0.1336 -0.3077  0.0880
  287TMC3    C4 4381   2.189   3.860   1.288  0.4400  0.3398  0.1263
  287TMC3    C5 4382   2.285   3.769   1.280  0.7270 -0.6120 -0.2552
  287TMC3    C6 4383   2.299   3.694   1.162  0.5119 -0.3051 -0.1702
  287TMC3     C 4384   2.012   3.992   1.200  0.0980 -0.0297  0.2629
  287TMC3     O 4385   2.042   4.079   1.279  0.2320 -0.2998 -0.4457
  287TMC3     H 4386   2.053   3.821   0.983  0.5165  0.1272 -0.5216
  287TMC3    H1 4387   2.167   3.914   1.379  0.6888 -1.1731  1.0793
  287TMC3    H2 4388   2.362   3.606   1.165  1.1363  0.1815  0.8311
  287TMC3    C7 4389   2.372   3.753   1.394  0.2032  0.3324  0.2136
  287TMC3    C8 4390   2.234   3.638   0.935 -0.2295 -0.0850 -0.5985
  287TMC3    O1 4391   2.382   3.845   1.470 -0.2316  0.1752  0.3570
  287TMC3    O2 4392   2.140   3.647   0.857  0.5504 -0.5451  0.1150
  288TMC3    C1 4393   3.733   4.239  14.101 -0.3992 -0.9278  0.0610
  288TMC3    C2 4394   3.713   4.174  14.217 -0.4687  0.0523  0.1488
  288TMC3    C3 4395   3.588   4.121  14.241 -0.2155  0.0172 -0.5804
  288TMC3    C4 4396   3.633   4.250  14.006  0.2754  0.3233  0.6400
  288TMC3    C5 4397   3.503   4.216  14.043 -0.0469 -0.2488 -0.2495
  288TMC3    C6 4398   3.479   4.152  14.161  0.4430  0.4095 -0.2610
  288TMC3     C 4399   3.865   4.257  14.038 -0.3236 -0.3070 -0.0356
  288TMC3     O 4400   3.958   4.188  14.074  0.2758 -0.3629 -0.4613
  288TMC3     H 4401   3.786   4.156  14.295 -0.6707 -1.4582 -0.0201
  288TMC3    H1 4402   3.649   4.306  13.915  0.4813  1.0861  1.1406
  288TMC3    H2 4403   3.381   4.114  14.186 -0.0667  0.1232 -2.6722
  288TMC3    C7 4404   3.396   4.268  13.954  0.0660 -0.1950 -0.8239
  288TMC3    C8 4405   3.560   4.118  14.382  0.0256 -1.1279  0.2013
  288TMC3    O1 4406   3.438   4.332  13.855 -0.5278 -0.0974 -0.1062
  288TMC3    O2 4407   3.618   4.204  14.448  0.5322 -0.4274  0.6039
  289MPD2     C 4408   3.871   2.942  14.847  0.0269 -0.4514 -0.4407
  289MPD2    C1 4409   3.832   3.061  14.785  0.1179 -0.1407  0.3582
  289MPD2    C2 4410   3.740   3.058  14.679  0.2453 -0.2124 -0.0198
  289MPD2    C3 4411   3.670   2.942  14.650  0.4508 -0.9086  0.2980
  289MPD2    C4 4412   3.690   2.835  14.734 -0.0086  0.0916 -0.0856
  289MPD2    C5 4413   3.794   2.825  14.820  0.3496  0.3728 -0.1034
  289MPD2     H 4414   3.711   3.146  14.623 -0.9695 -0.4837  0.1969
  289MPD2    H1 4415   3.633   2.743  14.729 -0.0362  0.1641 -1.1258
  289MPD2    H2 4416   3.939   2.931  14.930 -1.7428  0.1298  1.0944
  289MPD2    H3 4417   3.800   2.736  14.881 -0.5205  0.1646 -0.3151
  289MPD2     N 4418   3.563   2.936  14.553  0.1219  0.1064  0.1502
  289MPD2    H5 4419   3.518   2.850  14.523  0.6729  0.6833 -2.3316
  289MPD2    N1 4420   3.906   3.171  14.821  0.1828 -0.4698 -0.1866
  289MPD2    H7 4421   3.955   3.157  14.909 -2.9531 -3.2309  1.1481
  290TMC3    C1 4422   3.426   3.003  14.369 -0.2047 -0.1036 -0.2040
  290TMC3    C2 4423   3.356   3.101  14.304 -0.3289 -0.9868 -0.2256
  290TMC3    C3 4424   3.263   3.067  14.213  0.0961  0.0753 -0.2193
  290TMC3    C4 4425   3.421   2.872  14.326 -0.3150 -0.8667  0.3598
  290TMC3    C5 4426   3.341   2.852  14.217 -0.3021 -0.3168  0.7228
  290TMC3    C6 4427   3.253   2.940  14.167  0.0699 -0.3489 -0.1486
  290TMC3     C 4428   3.520   3.046  14.471  0.6440  0.3587  0.2032
  290TMC3     O 4429   3.532   3.165  14.476  0.0019 -0.1233 -0.1395
  290TMC3     H 4430   3.370   3.205  14.330 -0.3381 -1.0970  0.2245
  290TMC3    H1 4431   3.485   2.796  14.371 -0.6665 -1.4489 -0.1310
  290TMC3    H2 4432   3.183   2.905  14.092 -0.5898  0.0789  0.2587
  290TMC3    C7 4433   3.331   2.713  14.164 -0.1666 -0.2195 -0.0437
  290TMC3    C8 4434   3.166   3.164  14.176  0.2941 -0.1960  0.3712
  290TMC3    O1 4435   3.362   2.632  14.250  0.0394 -0.1583 -0.5339
  290TMC3    O2 4436   3.098   3.126  14.081 -0.0767 -0.1535  0.1698
  291MPD2     C 4437   2.715   3.070   0.413  0.5796  0.0547  0.8697
  291MPD2    C1 4438   2.807   2.990   0.348  0.0822  0.1998  0.2688
  291MPD2    C2 4439   2.931   3.028   0.304  0.2341  0.2054 -0.0640
  291MPD2    C3 4440   2.975   3.155   0.329  0.1252  0.1722  0.1029
  291MPD2    C4 4441   2.890   3.228   0.402 -0.3688 -0.9357  0.4393
  291MPD2    C5 4442   2.764   3.194   0.435 -0.1032 -0.4439  0.1710
  291MPD2     H 4443   2.990   2.949   0.258 -0.7204 -1.2207  1.1870
  291MPD2    H1 4444   2.913   3.329   0.436 -0.0451 -0.9088  0.1400
  291MPD2    H2 4445   2.617   3.042   0.451  0.8459 -1.0281  0.7750
  291MPD2    H3 4446   2.707   3.266   0.493 -2.0077 -2.4692  0.8081
  291MPD2     N 4447   3.093   3.213   0.290  0.3227  0.4034  0.1764
  291MPD2    H5 4448   3.100   3.310   0.319 -3.4532  0.8814 -0.5220
  291MPD2    N1 4449   2.773   2.854   0.329 -0.1621 -0.1727 -0.1325
  291MPD2    H7 4450   2.843   2.787   0.300 -0.2711 -0.0513 -0.6795
  292TMC3    C1 4451   2.668   2.646   0.359 -0.0864 -0.5097 -0.7457
  292TMC3    C2 4452   2.738   2.607   0.471  0.3541 -1.1564  0.4083
  292TMC3    C3 4453   2.793   2.486   0.467 -0.1187  0.5130  0.6229
  292TMC3    C4 4454   2.656   2.567   0.246 -0.2034  0.5184 -0.4199
  292TMC3    C5 4455   2.736   2.453   0.247  0.2193  1.0037 -0.4033
  292TMC3    C6 4456   2.800   2.408   0.356 -0.2621 -0.3869 -0.0749
  292TMC3     C 4457   2.651   2.791   0.352 -0.0124 -0.3185  0.1858
  292TMC3     O 4458   2.541   2.832   0.384  0.1456 -0.1275 -0.1396
  292TMC3     H 4459   2.757   2.683   0.547 -0.8718  0.7228 -1.1533
  292TMC3    H1 4460   2.590   2.584   0.163 -1.3621 -0.1497  0.3694
  292TMC3    H2 4461   2.853   2.313   0.357 -0.1434 -0.3168  0.0808
  292TMC3    C7 4462   2.722   2.347   0.145 -0.2698  0.0045 -0.6667
  292TMC3    C8 4463   2.880   2.455   0.581 -0.1278 -0.9856 -0.3882
  292TMC3    O1 4464   2.810   2.267   0.137 -0.4045  0.1362 -0.1341
  292TMC3    O2 4465   2.974   2.385   0.559 -0.1197  0.1408 -0.0451
  293MPD2     C 4466   4.479   4.230  12.918  0.9417  0.3133  0.4345
  293MPD2    C1 4467   4.417   4.153  13.018  0.6376  0.2221 -0.1369
  293MPD2    C2 4468   4.480   4.131  13.143  0.2239  0.1561  0.3958
  293MPD2    C3 4469   4.608   4.187  13.161  1.0062 -0.6975 -0.0170
  293MPD2    C4 4470   4.663   4.272  13.069 -0.2427  0.2898  0.4459
  293MPD2    C5 4471   4.605   4.292  12.946  0.2303 -0.0180 -0.4921
  293MPD2     H 4472   4.434   4.073  13.221  0.5067  0.8346  1.0737
  293MPD2    H1 4473   0.017   4.329  13.092  0.5262 -0.5614 -0.4439
  293MPD2    H2 4474   4.429   4.252  12.825 -1.8764 -2.0082  1.3813
  293MPD2    H3 4475   4.651   4.361  12.875 -0.4754 -1.2258 -2.1281
  293MPD2     N 4476   4.678   4.146  13.279 -0.5185  0.0962  0.3471
  293MPD2    H5 4477   4.627   4.091  13.348 -1.2048 -0.4562 -0.6101
  293MPD2    N1 4478   4.285   4.104  12.989 -0.3754 -0.0322 -0.3488
  293MPD2    H7 4479   4.235   4.113  12.902 -0.1079 -1.0631 -0.6080
  294TMC3    C1 4480   4.083   4.007  13.011  0.7563 -0.7075 -0.3849
  294TMC3    C2 4481   4.034   3.883  12.976  0.3077  0.5590  0.1879
  294TMC3    C3 4482   3.908   3.881  12.923  0.4604  0.6188 -0.8838
  294TMC3    C4 4483   4.028   4.122  12.953 -0.1044 -0.8482  0.8328
  294TMC3    C5 4484   3.907   4.111  12.888  0.0655 -0.2776 -0.1963
  294TMC3    C6 4485   3.845   3.989  12.869 -0.5590 -0.1018  0.4935
  294TMC3     C 4486   4.211   4.016  13.067  0.6942 -0.0529  0.6488
  294TMC3     O 4487   4.231   3.947  13.167  0.4955  0.1067 -0.3135
  294TMC3     H 4488   4.072   3.795  13.026  2.2108  0.7160 -0.9745
  294TMC3    H1 4489   4.067   4.219  12.980  0.9724 -1.2636  0.7481
  294TMC3    H2 4490   3.752   3.987  12.814  0.9386 -2.6170 -1.9804
  294TMC3    C7 4491   3.854   4.220  12.805  0.4220 -0.0091  0.1782
  294TMC3    C8 4492   3.889   3.757  12.851 -0.3723 -0.3507  1.4774
  294TMC3    O1 4493   3.736   4.207  12.765  0.6975 -0.1796 -0.2976
  294TMC3    O2 4494   3.994   3.696  12.834 -0.0942  0.4887  0.3916
  295MPD2     C 4495   4.702   3.579   0.922 -0.3296  0.3369 -0.0209
  295MPD2    C1 4496   4.670   3.671   0.827 -0.4884 -1.2074 -0.1804
  295MPD2    C2 4497   4.574   3.772   0.858 -0.1204  0.3200 -0.3153
  295MPD2    C3 4498   4.520   3.777   0.982 -0.2047  0.2218 -0.4639
  295MPD2    C4 4499   4.541   3.677   1.078  0.1165 -0.3227  0.1295
  295MPD2    C5 4500   4.628   3.580   1.043 -0.5001  0.9394  0.0957
  295MPD2     H 4501   4.551   3.842   0.778  2.0678 -1.4042 -2.4526
  295MPD2    H1 4502   4.484   3.659   1.168  0.2727 -0.3937  0.2137
  295MPD2    H2 4503   0.040   3.501   0.904 -0.5659 -0.4865  2.5325
  295MPD2    H3 4504   4.647   3.499   1.113 -1.4243 -1.6365 -2.6137
  295MPD2     N 4505   4.423   3.873   1.026 -0.0449  0.4213  0.3094
  295MPD2    H5 4506   4.391   3.862   1.122 -1.5217 -0.4922 -0.2847
  295MPD2    N1 4507   4.735   3.674   0.701  0.1936  0.2317  0.1198
  295MPD2    H7 4508   4.727   3.762   0.652 -1.3172  0.7117  1.2105
  296TMC3    C1 4509   4.298   4.081   1.021  0.1687 -0.1267 -0.5188
  296TMC3    C2 4510   4.314   4.217   0.996  0.0511 -0.3818 -0.0458
  296TMC3    C3 4511   4.234   4.294   1.078  0.9528 -0.0285 -0.2422
  296TMC3    C4 4512   4.201   4.028   1.103 -0.3556  0.1233 -0.0394
  296TMC3    C5 4513   4.124   4.113   1.174 -0.1629 -0.1093 -0.1797
  296TMC3    C6 4514   4.142   4.251   1.167 -0.3107  0.0956 -0.2390
  296TMC3     C 4515   4.388   3.989   0.951 -0.5841  0.3050 -0.2868
  296TMC3     O 4516   4.441   4.032   0.849  0.3411 -0.6589 -0.2441
  296TMC3     H 4517   4.386   4.251   0.922 -0.8918  1.2112 -0.2345
  296TMC3    H1 4518   4.169   3.924   1.102 -1.1066  0.3523  0.0927
  296TMC3    H2 4519   4.081   4.322   1.223 -1.6069  0.6920 -2.4042
  296TMC3    C7 4520   4.005   4.061   1.242 -0.0245 -0.1139 -0.6690
  296TMC3    C8 4521   4.248   4.437   1.067 -0.5752 -0.4144 -0.6548
  296TMC3    O1 4522   3.916   4.136   1.271 -0.7644 -0.5579 -0.7569
  296TMC3    O2 4523   4.215   4.494   1.171 -0.2338  0.5362 -0.3670
  297MPD2     C 4524   2.748   0.121  16.463  0.1660 -0.0207 -0.0023
  297MPD2    C1 4525   2.745   0.208  16.357  0.2459 -0.4275 -0.8362
  297MPD2    C2 4526   2.832   0.313  16.348 -0.1306  0.1805  0.2885
  297MPD2    C3 4527   2.927   0.335  16.451 -0.5514  0.3977 -0.3425
  297MPD2    C4 4528   2.928   0.246  16.559 -0.1683 -0.6005 -0.1455
  297MPD2    C5 4529   2.841   0.141  16.558 -0.1640  0.1655  0.5359
  297MPD2     H 4530   2.815   0.390  16.273  4.1012 -0.0029 -0.8413
  297MPD2    H1 4531   3.004   0.243  16.636 -0.6543 -1.1831  0.3125
  297MPD2    H2 4532   2.678   0.038  16.474 -1.5713  1.4728  0.2094
  297MPD2    H3 4533   2.828   0.078  16.645  1.0773  1.0772  1.3864
  297MPD2     N 4534   3.014   0.446  16.445 -0.0714 -0.1348  0.1303
  297MPD2    H5 4535   3.023   0.500  16.360  0.4158  0.2430  0.4190
  297MPD2    N1 4536   2.633   0.206  16.269 -0.8247  0.1605  0.1935
  297MPD2    H7 4537   2.646   0.273  16.193 -0.9552  0.9072  0.8282
  298TMC3    C1 4538   2.414   0.165  16.179 -0.3211  0.1519 -0.8917
  298TMC3    C2 4539   2.448   0.196  16.051 -0.1347 -0.4828 -0.1618
  298TMC3    C3 4540   2.351   0.245  15.966 -0.3738 -0.3905 -1.1822
  298TMC3    C4 4541   2.294   0.182  16.237 -0.0768 -0.5173  0.5818
  298TMC3    C5 4542   2.199   0.230  16.150 -0.5186  0.9912 -0.5165
  298TMC3    C6 4543   2.222   0.261  16.018 -0.2265 -0.6616  0.2182
  298TMC3     C 4544   2.513   0.143  16.283 -0.5809 -0.6913  0.0117
  298TMC3     O 4545   2.480   0.064  16.367  0.8914 -0.3246  0.0951
  298TMC3     H 4546   2.549   0.175  16.016 -0.3771 -1.8906 -0.0260
  298TMC3    H1 4547   2.273   0.182  16.343  0.7945  1.2349  0.7390
  298TMC3    H2 4548   2.153   0.316  15.955 -0.6753 -0.7435  0.6345
  298TMC3    C7 4549   2.113   0.318  16.223  0.7617  0.6076 -0.0250
  298TMC3    C8 4550   2.377   0.303  15.836  0.4667 -0.3925 -0.7527
  298TMC3    O1 4551   2.148   0.352  16.335 -0.4433  0.2058 -0.1768
  298TMC3    O2 4552   2.288   0.345  15.766  0.0785  0.1973 -0.0538
  299MPD2     C 4553   2.997   0.114  11.234  0.2858  0.2064 -0.5604
  299MPD2    C1 4554   3.060   0.198  11.147 -0.1662  0.1111  0.1813
  299MPD2    C2 4555   3.017   0.194  11.016  0.0700 -0.4270  0.2929
  299MPD2    C3 4556   2.899   0.128  10.984  0.4166  0.1413  0.0456
  299MPD2    C4 4557   2.839   0.043  11.076 -0.1332  0.2250  0.5993
  299MPD2    C5 4558   2.893   0.034  11.203  0.4730  0.5949 -0.6335
  299MPD2     H 4559   3.065   0.261  10.945 -0.1017  1.6637  2.1353
  299MPD2    H1 4560   2.745   4.727  11.059  1.1237 -0.9786 -2.7087
  299MPD2    H2 4561   3.041   0.093  11.331 -0.3707  1.9553  0.1091
  299MPD2    H3 4562   2.838   4.716  11.280  2.3440 -0.0697  0.2347
  299MPD2     N 4563   2.834   0.129  10.856 -0.4115  0.2047  0.0009
  299MPD2    H5 4564   2.739   0.095  10.850  0.0941 -1.3511  0.6882
  299MPD2    N1 4565   3.164   0.272  11.195  0.1696 -0.3062  0.0786
  299MPD2    H7 4566   3.220   0.241  11.274 -0.2825  1.4784  1.1069
  300TMC3    C1 4567   2.765   0.222  10.646  0.2782 -0.4371 -0.2056
  300TMC3    C2 4568   2.796   0.315  10.553 -0.3365 -0.0643  0.2729
  300TMC3    C3 4569   2.719   0.319  10.435  0.7786  0.2026 -0.0517
  300TMC3    C4 4570   2.670   0.126  10.623 -0.0752  0.1178 -0.3168
  300TMC3    C5 4571   2.608   0.129  10.502 -0.0965  0.4368 -0.3158
  300TMC3    C6 4572   2.627   0.219  10.402 -0.3240  0.6756 -0.0760
  300TMC3     C 4573   2.869   0.212  10.752 -0.4203 -0.0042  0.3664
  300TMC3     O 4574   2.967   0.283  10.741 -0.6559 -0.0826  0.2211
  300TMC3     H 4575   2.865   0.398  10.563  1.4951 -1.2526 -2.2779
  300TMC3    H1 4576   2.660   0.046  10.696  0.0749 -0.7666 -1.2817
  300TMC3    H2 4577   2.577   0.216  10.305  2.2939 -0.6348 -1.3842
  300TMC3    C7 4578   2.488   0.045  10.475  0.0336 -0.0529 -0.3567
  300TMC3    C8 4579   2.675   0.451  10.414 -0.6611 -0.3522  0.4387
  300TMC3    O1 4580   2.464   0.018  10.359  0.4048 -0.4396  0.7310
  300TMC3    O2 4581   2.712   0.540  10.491 -0.6031  0.4548 -0.5208
  301MPD2     C 4582   0.814   2.289   1.161  0.2248 -0.7776 -1.5981
  301MPD2    C1 4583   0.720   2.204   1.115  0.1374  0.2262 -0.3359
  301MPD2    C2 4584   0.755   2.073   1.131 -0.2267 -0.2578  0.6434
  301MPD2    C3 4585   0.870   2.025   1.187  0.6257 -0.2002  0.1318
  301MPD2    C4 4586   0.961   2.117   1.232 -0.1794  0.2159  0.4502
  301MPD2    C5 4587   0.932   2.247   1.216  0.6627 -0.3723  0.2852
  301MPD2     H 4588   0.681   2.001   1.097 -0.0612 -1.1021  2.0828
  301MPD2    H1 4589   1.056   2.095   1.280  0.3068 -0.4434 -0.8324
  301MPD2    H2 4590   0.791   2.395   1.149 -2.2149 -1.1062  0.2279
  301MPD2    H3 4591   0.999   2.328   1.242 -2.9282  2.2839  1.0999
  301MPD2     N 4592   0.895   1.882   1.205 -0.1166 -0.0254 -0.2633
  301MPD2    H5 4593   0.993   1.861   1.224  0.1992  1.4305 -0.2364
  301MPD2    N1 4594   0.595   2.234   1.059  0.1992  0.3533  0.1812
  301MPD2    H7 4595   0.540   2.157   1.024 -0.8505  0.3838  1.7913
  302TMC3    C1 4596   0.884   1.649   1.169  0.1239  0.8779 -0.6673
  302TMC3    C2 4597   0.969   1.621   1.272  0.4205 -0.0770 -0.4537
  302TMC3    C3 4598   1.002   1.489   1.295  0.1763  0.3413  0.2682
  302TMC3    C4 4599   0.826   1.553   1.096  0.2782 -0.3015 -0.8520
  302TMC3    C5 4600   0.869   1.423   1.109 -0.1307  0.2559 -0.8467
  302TMC3    C6 4601   0.956   1.390   1.213 -1.1604 -0.0916 -0.4210
  302TMC3     C 4602   0.817   1.777   1.162 -0.2347  0.5287 -0.1524
  302TMC3     O 4603   0.702   1.777   1.124 -0.3012 -0.0294  0.2344
  302TMC3     H 4604   0.988   1.707   1.336 -0.0376 -0.1386 -0.2402
  302TMC3    H1 4605   0.757   1.584   1.018 -0.0316  0.3245 -0.3259
  302TMC3    H2 4606   0.969   1.283   1.230  0.2848 -0.0564 -1.2774
  302TMC3    C7 4607   0.811   1.318   1.017 -0.0904  0.2282 -0.0290
  302TMC3    C8 4608   1.075   1.440   1.410  0.9029 -1.0168  0.8304
  302TMC3    O1 4609   0.888   1.229   0.976 -0.3014  0.7019  0.4358
  302TMC3    O2 4610   1.095   1.321   1.432  0.3428  0.2109 -0.1150
  303MPD2     C 4611   0.704   4.462  10.371 -0.7520 -0.4034  0.7985
  303MPD2    C1 4612   0.780   4.402  10.266  0.3517 -0.2400 -0.2652
  303MPD2    C2 4613   0.873   4.471  10.185 -0.3731  0.3697  0.7338
  303MPD2    C3 4614   0.867   4.605  10.191  0.4658  0.0180  0.4327
  303MPD2    C4 4615   0.783   4.665  10.276  0.1399 -0.0960  0.3074
  303MPD2    C5 4616   0.722   4.599  10.378  0.1413 -0.2093 -0.3075
  303MPD2     H 4617   0.925   4.425  10.102 -4.2430  0.6607 -1.8339
  303MPD2    H1 4618   0.776   0.037  10.276  3.4779  0.1085  0.0389
  303MPD2    H2 4619   0.641   4.409  10.441 -0.2519 -0.8416  0.9130
  303MPD2    H3 4620   0.680   4.661  10.456  0.3595 -1.3652  0.7289
  303MPD2     N 4621   0.949   4.696  10.116 -0.0340 -0.3081  0.1893
  303MPD2    H5 4622   0.932   0.058  10.133 -0.2182 -0.6257  1.7744
  303MPD2    N1 4623   0.755   4.265  10.236 -0.2079  0.0597 -0.3142
  303MPD2    H7 4624   0.677   4.225  10.287  0.2876 -0.6648 -0.1215
  304TMC3    C1 4625   0.747   4.051  10.147 -0.3352 -0.3723  0.1216
  304TMC3    C2 4626   0.614   4.066  10.113 -0.3795  0.4821  0.2782
  304TMC3    C3 4627   0.552   3.967  10.034  0.2309 -0.0206 -0.2440
  304TMC3    C4 4628   0.825   3.952  10.110  0.5989  0.0072 -0.1112
  304TMC3    C5 4629   0.760   3.852  10.035 -0.3739  0.3907 -0.8752
  304TMC3    C6 4630   0.633   3.865  10.000 -0.4832  0.4272 -0.6165
  304TMC3     C 4631   0.827   4.174  10.159  0.0584  0.1026 -0.0857
  304TMC3     O 4632   0.932   4.179  10.100  1.0888  0.0331  0.8448
  304TMC3     H 4633   0.563   4.157  10.141  0.7057  1.8777 -2.3500
  304TMC3    H1 4634   0.932   3.950  10.129  0.6269 -0.1160 -0.2848
  304TMC3    H2 4635   0.586   3.787   9.940 -0.6249  0.0060  0.0434
  304TMC3    C7 4636   0.845   3.809   9.929 -0.5560  0.1106 -0.0023
  304TMC3    C8 4637   0.510   4.043   9.919 -0.8496 -0.2707 -0.2478
  304TMC3    O1 4638   0.787   3.796   9.822  0.1213  0.2518  0.1211
  304TMC3    O2 4639   0.448   4.149   9.940 -0.0540  0.7418  0.3909
  305MPD2     C 4640   3.052   1.035  14.237 -0.3473 -0.3667 -0.1499
  305MPD2    C1 4641   3.145   1.127  14.200 -0.7696 -0.0339  0.3857
  305MPD2    C2 4642   3.180   1.145  14.065  0.0636 -0.1813  0.5269
  305MPD2    C3 4643   3.112   1.077  13.961  0.5723 -0.6041 -0.6234
  305MPD2    C4 4644   3.015   0.989  13.998  0.9459 -0.0006 -0.6119
  305MPD2    C5 4645   2.989   0.972  14.131  0.3828  0.1805 -0.2548
  305MPD2     H 4646   3.253   1.221  14.040  0.3014 -0.6274 -0.1502
  305MPD2    H1 4647   2.961   0.934  13.921 -1.1351  1.7831 -0.3949
  305MPD2    H2 4648   3.011   1.017  14.336  0.9174  3.2019  1.0214
  305MPD2    H3 4649   2.908   0.902  14.151  0.7410  0.0719  0.8520
  305MPD2     N 4650   3.134   1.107  13.825  0.5150 -0.4130 -0.1629
  305MPD2    H5 4651   3.083   1.053  13.756 -0.5105  0.2611  0.0762
  305MPD2    N1 4652   3.198   1.200  14.309  0.2274  0.4112 -0.1888
  305MPD2    H7 4653   3.175   1.170  14.403 -0.1116  0.3007 -0.3067
  306TMC3    C1 4654   3.347   1.362  14.416  0.1161 -0.2277  0.0856
  306TMC3    C2 4655   3.306   1.323  14.539 -0.4829 -0.2301  0.0244
  306TMC3    C3 4656   3.380   1.365  14.648  0.3167 -0.2054  0.5776
  306TMC3    C4 4657   3.459   1.434  14.392  0.2200 -0.1959 -0.2781
  306TMC3    C5 4658   3.527   1.474  14.502 -0.6403  0.6224 -0.0578
  306TMC3    C6 4659   3.492   1.444  14.629 -0.0267  0.6771 -0.2322
  306TMC3     C 4660   3.284   1.311  14.295  0.1186  0.2167  0.1948
  306TMC3     O 4661   3.324   1.362  14.193 -0.2077  0.0235  0.7021
  306TMC3     H 4662   3.209   1.279  14.559  0.6467 -1.9715  1.6660
  306TMC3    H1 4663   3.500   1.450  14.292 -0.4147 -0.2018 -0.5397
  306TMC3    H2 4664   3.538   1.492  14.715 -2.4048  0.5598  1.0866
  306TMC3    C7 4665   3.639   1.568  14.464  0.0550  0.0825  0.0027
  306TMC3    C8 4666   3.366   1.302  14.774  0.3147 -0.1097  0.7204
  306TMC3    O1 4667   3.630   1.624  14.356 -0.0349  0.1300 -0.0782
  306TMC3    O2 4668   3.255   1.274  14.810  0.1643 -0.1505  0.3232
  307MPD2     C 4669   1.528   4.669   0.826  0.5278 -0.0154 -0.1889
  307MPD2    C1 4670   1.578   0.062   0.818  0.0174 -0.2648  0.3447
  307MPD2    C2 4671   1.546   0.157   0.912  0.3061  0.0131  0.7391
  307MPD2    C3 4672   1.467   0.121   1.019 -0.2483  1.0442  0.3291
  307MPD2    C4 4673   1.433   4.718   1.036  0.4648  0.0008  0.0641
  307MPD2    C5 4674   1.453   4.633   0.934 -0.5423  0.0990 -0.0042
  307MPD2     H 4675   1.581   0.259   0.907  0.1267 -0.0111 -1.0730
  307MPD2    H1 4676   1.356   4.695   1.110  0.2014 -2.9526 -1.1185
  307MPD2    H2 4677   1.538   4.602   0.742 -1.0361  0.6979 -0.9537
  307MPD2    H3 4678   1.412   4.533   0.943  3.2412 -1.5492 -0.9787
  307MPD2     N 4679   1.410   0.221   1.106  0.1292 -0.0894  0.0634
  307MPD2    H5 4680   1.419   0.320   1.087 -0.6613  0.4864  2.7117
  307MPD2    N1 4681   1.659   0.102   0.708 -0.1303 -0.2922 -0.5375
  307MPD2    H7 4682   1.687   0.197   0.690 -1.1976  0.2198  0.5327
  308TMC3    C1 4683   1.059   0.420   1.264  0.3100 -0.8971 -0.4119
  308TMC3    C2 4684   1.116   0.537   1.219  0.7973  0.1408  0.3730
  308TMC3    C3 4685   1.250   0.549   1.209  0.2964  0.5492 -0.6048
  308TMC3    C4 4686   1.137   0.317   1.291  0.0458 -0.1815  0.7079
  308TMC3    C5 4687   1.271   0.321   1.270 -0.2822 -0.1854 -0.1879
  308TMC3    C6 4688   1.328   0.436   1.228 -0.7114  0.1636  0.2395
  308TMC3     C 4689   0.932   0.381   1.209 -0.0115 -0.2704 -0.3337
  308TMC3     O 4690   0.880   0.277   1.252  0.2936 -0.0166 -0.0634
  308TMC3     H 4691   1.051   0.624   1.212  0.4680 -0.0062  1.5496
  308TMC3    H1 4692   1.088   0.226   1.326  0.1022 -0.0720  1.0764
  308TMC3    H2 4693   1.436   0.442   1.226 -0.4917 -3.1204  1.3955
  308TMC3    C7 4694   1.327   0.193   1.220  0.0290 -0.9071  0.2225
  308TMC3    C8 4695   1.304   0.657   1.130 -0.2221  0.2709 -0.5744
  308TMC3    O1 4696   1.291   0.087   1.270 -0.8169  0.3486  0.1830
  308TMC3    O2 4697   1.392   0.620   1.053  0.2182  0.9666 -0.2836
  309MPD2     C 4698   0.841   0.681  17.237  0.4312 -0.2355  0.7085
  309MPD2    C1 4699   0.758   0.719  17.133  0.6475  0.3283  0.1221
  309MPD2    C2 4700   0.623   0.707  17.153 -0.2670  0.2274 -0.3392
  309MPD2    C3 4701   0.567   0.644  17.264 -0.7400 -0.4824  0.3694
  309MPD2    C4 4702   0.648   0.630  17.374  0.2612  0.1665  1.0371
  309MPD2    C5 4703   0.786   0.643  17.356 -0.2787 -0.3678  0.0259
  309MPD2     H 4704   0.552   0.746  17.081 -3.4090 -0.4159  2.4039
  309MPD2    H1 4705   0.605   0.596  17.468  1.4962 -0.9930  1.1886
  309MPD2    H2 4706   0.948   0.693  17.243  0.4866  0.2580 -1.0325
  309MPD2    H3 4707   0.853   0.617  17.438 -0.5417 -2.3676 -0.3904
  309MPD2     N 4708   0.427   0.615  17.275 -0.2376 -0.3401 -0.3281
  309MPD2    H5 4709   0.383   0.609  17.366  1.0199 -2.0136  0.1822
  309MPD2    N1 4710   0.804   0.749  17.002  0.4761  0.9938  0.1493
  309MPD2    H7 4711   0.730   0.760  16.935  0.1292 -0.4539  0.2934
  310TMC3    C1 4712   0.962   0.760  16.816  0.3993  0.2211 -0.0650
  310TMC3    C2 4713   0.853   0.795  16.735 -0.8908 -0.3439 -0.1516
  310TMC3    C3 4714   0.883   0.792  16.597  0.1782  0.5941  0.8820
  310TMC3    C4 4715   1.089   0.737  16.766 -0.2970  0.5328 -0.5860
  310TMC3    C5 4716   1.105   0.729  16.627 -0.6077 -0.1354 -0.4033
  310TMC3    C6 4717   1.004   0.759  16.543  0.3120 -0.6761 -0.0933
  310TMC3     C 4718   0.939   0.750  16.963 -0.3765 -0.7857 -0.0243
  310TMC3     O 4719   1.043   0.739  17.027 -0.1516  0.6916 -0.1945
  310TMC3     H 4720   0.776   0.854  16.782 -0.5846 -0.6144  0.6880
  310TMC3    H1 4721   1.176   0.723  16.830  0.7513 -0.6741 -2.2662
  310TMC3    H2 4722   1.016   0.749  16.435 -0.8207  0.3911 -0.3126
  310TMC3    C7 4723   1.194   0.620  16.582  0.3078 -0.5263 -0.0324
  310TMC3    C8 4724   0.771   0.827  16.505  0.3342 -0.2258 -0.3902
  310TMC3    O1 4725   1.207   0.602  16.460 -0.7338  0.0302  0.4201
  310TMC3    O2 4726   0.791   0.813  16.384  0.0109  0.2076  0.1078
  311MPD2     C 4727   2.624   1.383  12.481 -0.1187 -0.3967  0.3243
  311MPD2    C1 4728   2.668   1.486  12.560  0.2861 -0.5206 -0.7041
  311MPD2    C2 4729   2.588   1.547  12.642 -0.1607  0.4437  0.2985
  311MPD2    C3 4730   2.464   1.503  12.664  0.9618 -0.1111 -0.5446
  311MPD2    C4 4731   2.416   1.408  12.576  0.5204  0.3770  0.4636
  311MPD2    C5 4732   2.498   1.343  12.496 -0.1054  0.6231  0.0190
  311MPD2     H 4733   2.629   1.620  12.711 -0.3095 -0.3646  1.2373
  311MPD2    H1 4734   2.320   1.359  12.591  1.3282 -1.4316 -0.2974
  311MPD2    H2 4735   2.686   1.325  12.413  0.7195  1.8949 -0.9062
  311MPD2    H3 4736   2.458   1.270  12.427 -0.6780  0.6882  0.2842
  311MPD2     N 4737   2.388   1.571  12.765  1.0271 -0.4612  0.5393
  311MPD2    H5 4738   2.441   1.627  12.830 -2.0679  0.8167  1.9700
  311MPD2    N1 4739   2.800   1.540  12.544  0.7273  0.0891  0.0031
  311MPD2    H7 4740   2.816   1.623  12.601  1.1576 -1.3066  1.9144
  312TMC3    C1 4741   2.206   1.591  12.919  0.2613  0.3077  0.5553
  312TMC3    C2 4742   2.079   1.554  12.942 -0.8774 -0.1645  0.3108
  312TMC3    C3 4743   2.024   1.576  13.063  0.2603 -0.3305  0.1193
  312TMC3    C4 4744   2.280   1.637  13.020 -0.4180 -0.1602 -0.5367
  312TMC3    C5 4745   2.223   1.653  13.141  0.2084 -0.2319 -0.4407
  312TMC3    C6 4746   2.094   1.626  13.171 -0.2880  0.8397  0.2924
  312TMC3     C 4747   2.255   1.539  12.794  0.4609 -0.7063  0.4417
  312TMC3     O 4748   2.180   1.467  12.724  0.0008 -0.2750  1.1180
  312TMC3     H 4749   2.023   1.508  12.861 -1.8670 -1.3924  1.6974
  312TMC3    H1 4750   2.386   1.660  13.013 -0.5071  1.0354  2.0894
  312TMC3    H2 4751   2.050   1.664  13.263 -0.2535 -1.9974  1.4824
  312TMC3    C7 4752   2.296   1.749  13.226  0.6967  0.6201  1.0366
  312TMC3    C8 4753   1.884   1.554  13.082 -0.1390 -0.6000 -0.2239
  312TMC3    O1 4754   2.340   1.844  13.168  0.0386  0.9356 -0.1573
  312TMC3    O2 4755   1.824   1.548  12.977 -0.0036 -0.6051  0.6801
  313MPD2     C 4756   1.429   1.080  11.345 -0.3059  0.3822  0.4670
  313MPD2    C1 4757   1.496   1.054  11.233 -0.4414  0.0646 -0.1403
  313MPD2    C2 4758   1.500   0.927  11.178 -0.0170 -0.3198 -0.5978
  313MPD2    C3 4759   1.441   0.819  11.249  0.3782  0.0165  0.6940
  313MPD2    C4 4760   1.368   0.835  11.361  0.2237 -0.0409  0.3584
  313MPD2    C5 4761   1.362   0.971  11.404  0.2443  0.4106  1.2339
  313MPD2     H 4762   1.557   0.899  11.090 -2.1397 -0.7947 -1.8192
  313MPD2    H1 4763   1.305   0.758  11.405 -0.0486 -0.2828 -0.4387
  313MPD2    H2 4764   1.417   1.181  11.385  0.7584 -0.1930  2.2465
  313MPD2    H3 4765   1.294   0.991  11.486 -0.8024  0.9192  0.2468
  313MPD2     N 4766   1.470   0.696  11.187  0.1168 -0.2133  0.1837
  313MPD2    H5 4767   1.534   0.709  11.109  0.3366  0.9807  0.5682
  313MPD2    N1 4768   1.572   1.149  11.154  0.6366 -0.1961  0.4788
  313MPD2    H7 4769   1.612   1.119  11.066 -0.5915  1.4857 -0.6524
  314TMC3    C1 4770   1.681   1.333  11.089 -0.3458  0.1747 -0.3889
  314TMC3    C2 4771   1.806   1.393  11.105 -0.3355  0.6029  0.4492
  314TMC3    C3 4772   1.852   1.460  10.994 -0.1760  0.3950  0.4920
  314TMC3    C4 4773   1.603   1.347  10.981 -0.3092  0.7032 -0.1990
  314TMC3    C5 4774   1.653   1.434  10.886  0.0989 -0.1729  0.4425
  314TMC3    C6 4775   1.773   1.495  10.890  0.3448 -0.7004 -0.0186
  314TMC3     C 4776   1.618   1.268  11.202 -0.2157 -0.0335  0.1110
  314TMC3     O 4777   1.578   1.339  11.293  0.3713 -0.0968  0.5132
  314TMC3     H 4778   1.867   1.385  11.194  0.5145 -1.3150 -0.2885
  314TMC3    H1 4779   1.506   1.301  10.976 -0.2001  0.4868 -0.3371
  314TMC3    H2 4780   1.813   1.552  10.808  0.8936  0.1966  0.8659
  314TMC3    C7 4781   1.558   1.469  10.779  0.6451 -0.1270  0.9630
  314TMC3    C8 4782   1.987   1.510  11.002  0.0225 -0.2357 -0.9581
  314TMC3    O1 4783   1.437   1.451  10.797  0.2055 -0.0320 -0.6868
  314TMC3    O2 4784   2.005   1.611  10.937 -0.0321  0.0996  0.2771
  315MPD2     C 4785   1.644   0.037   0.159 -0.2776  0.6631  0.2958
  315MPD2    C1 4786   1.746   4.698   0.113 -0.6243 -0.4855 -0.4050
  315MPD2    C2 4787   1.834   0.018   0.032 -0.0726 -0.7253 -0.3248
  315MPD2    C3 4788   1.816   0.146  17.729 -0.7567  0.2014  0.2253
  315MPD2    C4 4789   1.707   0.222   0.028 -0.2551  0.8350  0.2079
  315MPD2    C5 4790   1.614   0.160   0.110 -0.0779 -0.4134 -0.4688
  315MPD2     H 4791   1.917   4.688   0.008  0.3634 -0.0376 -0.7215
  315MPD2    H1 4792   1.694   0.324  17.736 -1.2069  0.1876 -1.3732
  315MPD2    H2 4793   1.580   0.009   0.242  1.4515 -0.8611  1.1283
  315MPD2    H3 4794   1.541   0.224   0.158  0.8252  0.8636 -0.7841
  315MPD2     N 4795   1.928   0.205  17.661  0.3700  0.0418  0.4155
  315MPD2    H5 4796   2.003   0.138  17.644  1.4730  1.2838  0.3674
  315MPD2    N1 4797   1.773   4.570   0.164  0.2190  1.4368 -0.0987
  315MPD2    H7 4798   1.858   4.522   0.138 -2.6211 -3.9131  0.4038
  316TMC3    C1 4799   2.064   0.369  17.562  0.0098 -0.3743  0.3326
  316TMC3    C2 4800   2.170   0.313  17.626 -0.2816 -0.0832 -0.0985
  316TMC3    C3 4801   2.289   0.377  17.601  0.4990  0.0054 -0.4309
  316TMC3    C4 4802   2.070   0.475  17.471 -0.2637 -0.4872  0.5034
  316TMC3    C5 4803   2.194   0.534  17.455 -0.6249 -0.4610 -0.5544
  316TMC3    C6 4804   2.301   0.489  17.522  0.2493  0.5503 -0.0081
  316TMC3     C 4805   1.931   0.325  17.600  0.1755 -0.0819  0.2367
  316TMC3     O 4806   1.842   0.407  17.580 -0.3688 -0.6700  0.0000
  316TMC3     H 4807   2.173   0.220  17.683 -1.8308  0.3502  0.6862
  316TMC3    H1 4808   1.983   0.505  17.414  0.0147 -0.7163 -0.0459
  316TMC3    H2 4809   2.396   0.541  17.517 -0.3183  1.3870 -2.1389
  316TMC3    C7 4810   2.203   0.675  17.430  0.2076 -0.2317  0.2222
  316TMC3    C8 4811   2.374   0.379  17.717  0.4494  0.1312  0.2738
  316TMC3    O1 4812   2.277   0.736  17.506  0.2463  0.1449 -0.3232
  316TMC3    O2 4813   2.432   0.481   0.005 -0.3695 -0.2648  0.1072
  317MPD2     C 4814   3.589   3.419  13.549 -0.4088  0.7292  0.3425
  317MPD2    C1 4815   3.634   3.345  13.441 -0.5017  0.4678 -0.4813
  317MPD2    C2 4816   3.707   3.234  13.467 -0.0759 -0.2560  0.1054
  317MPD2    C3 4817   3.731   3.195  13.593  0.2609 -0.0357 -0.5755
  317MPD2    C4 4818   3.676   3.258  13.701  0.4238 -0.7639  0.7212
  317MPD2    C5 4819   3.605   3.371  13.676  0.0739 -0.6247 -0.1225
  317MPD2     H 4820   3.753   3.182  13.384  0.2045  2.7519 -1.6284
  317MPD2    H1 4821   3.685   3.220  13.802 -2.1773  1.2785  1.7213
  317MPD2    H2 4822   3.520   3.501  13.532 -0.3789  0.5554 -0.6241
  317MPD2    H3 4823   3.556   3.423  13.757  1.4168 -1.0699  0.9607
  317MPD2     N 4824   3.800   3.074  13.609 -0.5113 -0.3241 -0.0811
  317MPD2    H5 4825   3.830   3.029  13.523  2.5159 -0.9540  1.2821
  317MPD2    N1 4826   3.593   3.363  13.308 -0.0296  0.4989 -0.2454
  317MPD2    H7 4827   3.628   3.293  13.243 -0.6834 -1.4167  1.4565
  318TMC3    C1 4828   3.916   2.896  13.678  0.2739 -0.0745 -0.2996
  318TMC3    C2 4829   3.883   2.844  13.557  0.6030  0.2512 -0.8096
  318TMC3    C3 4830   3.976   2.760  13.495 -0.0968 -0.1569 -0.4660
  318TMC3    C4 4831   4.027   2.857  13.753 -0.2825  0.4324 -0.4329
  318TMC3    C5 4832   4.117   2.778  13.689  0.7086  0.3806 -0.3304
  318TMC3    C6 4833   4.096   2.729  13.562  0.1663  0.5305 -0.2485
  318TMC3     C 4834   3.849   3.015  13.720 -0.8053 -0.1593 -0.5154
  318TMC3     O 4835   3.855   3.054  13.835  0.1689  0.2478 -0.1799
  318TMC3     H 4836   3.792   2.856  13.500 -0.8636  1.8612  1.8773
  318TMC3    H1 4837   4.045   2.894  13.854 -1.2426 -0.0360 -0.0907
  318TMC3    H2 4838   4.173   2.682  13.503  0.4732  0.6160  0.0870
  318TMC3    C7 4839   4.252   2.803  13.728 -0.5371  0.1210 -0.4207
  318TMC3    C8 4840   3.934   2.678  13.385  0.2189  0.0140  0.1516
  318TMC3    O1 4841   4.277   2.910  13.784 -0.3575 -0.2785 -0.2420
  318TMC3    O2 4842   4.011   2.589  13.363  0.1431  0.0612 -0.4246
  319MPD2     C 4843   0.250   4.580  16.414  0.8320 -0.0185 -0.7760
  319MPD2    C1 4844   0.139   4.536  16.479  0.3599 -0.7247  0.0670
  319MPD2    C2 4845   0.062   4.433  16.423 -0.7605 -0.8767  0.3432
  319MPD2    C3 4846   0.083   4.384  16.297  0.8815  0.5769  0.2545
  319MPD2    C4 4847   0.199   4.435  16.231  0.3285  0.9310  0.2984
  319MPD2    C5 4848   0.274   4.526  16.297 -0.0397 -0.4593  0.7977
  319MPD2     H 4849   4.715   4.391  16.479 -0.1931  0.5718  2.2575
  319MPD2    H1 4850   0.215   4.383  16.137 -1.8137 -0.2825  0.5916
  319MPD2    H2 4851   0.316   4.664  16.435  1.2141 -0.0886 -1.7035
  319MPD2    H3 4852   0.361   4.554  16.239 -0.2787 -1.7413 -0.1739
  319MPD2     N 4853   0.009   4.288  16.224 -0.4479 -0.2339  0.4139
  319MPD2    H5 4854   0.011   4.283  16.123  3.9397  0.9440  0.4722
  319MPD2    N1 4855   0.099   4.586  16.603  0.0839 -0.2420 -0.2744
  319MPD2    H7 4856   0.018   4.542  16.647 -0.8659  0.9791 -0.8170
  320TMC3    C1 4857   4.569   4.130  16.184  0.3394 -0.5518  0.1836
  320TMC3    C2 4858   4.509   4.213  16.088  0.3740  0.0847 -0.7583
  320TMC3    C3 4859   4.390   4.182  16.029 -0.5666 -0.0951 -0.2886
  320TMC3    C4 4860   4.488   4.039  16.248  0.5564  0.1251  0.2941
  320TMC3    C5 4861   4.363   4.020  16.199 -0.7913  0.2312  0.3239
  320TMC3    C6 4862   4.309   4.089  16.091  0.4781  0.0524 -0.7422
  320TMC3     C 4863   4.650   4.203  16.283  0.0467 -0.1973 -0.5519
  320TMC3     O 4864   4.628   4.183  16.400  0.4837 -0.1821  0.9179
  320TMC3     H 4865   4.562   4.300  16.051  2.2395 -0.6821  0.1266
  320TMC3    H1 4866   4.526   3.970  16.323  0.4678  0.2417  0.4449
  320TMC3    H2 4867   4.207   4.073  16.057 -0.2325  2.1471  0.3818
  320TMC3    C7 4868   4.287   3.907  16.238  0.4500 -0.3149  0.3964
  320TMC3    C8 4869   4.318   4.298  15.965  0.3276 -0.4339  0.0193
  320TMC3    O1 4870   4.194   3.869  16.173  0.1014  0.8034 -0.4958
  320TMC3    O2 4871   4.376   4.408  15.958  0.3713  0.3461 -0.0556
  321TMC3    C1 4872   0.098   4.722  16.804  0.0804 -0.4459 -0.1628
  321TMC3    C2 4873   4.732   4.643  16.851  0.4313  0.4118  0.2414
  321TMC3    C3 4874   4.668   4.680  16.967 -0.3995  0.4347  0.2112
  321TMC3    C4 4875   0.125   0.104  16.862 -0.2370 -0.6648  0.9440
  321TMC3    C5 4876   0.053   0.143  16.975 -0.8471  0.6051 -0.3040
  321TMC3    C6 4877   4.688   0.069  17.018 -0.4140 -0.3009  0.3002
  321TMC3     C 4878   0.160   4.681  16.678 -0.4239 -0.4819 -0.5071
  321TMC3     O 4879   0.252   0.019  16.644  0.8885  0.0106  0.1770
  321TMC3     H 4880   4.715   4.542  16.814 -4.0039  1.1045  0.4481
  321TMC3    H1 4881   0.202   0.175  16.833 -1.6161 -0.3099 -1.8421
  321TMC3    H2 4882   4.636   0.091  17.111  2.1562  2.0320  1.1935
  321TMC3    C7 4883   0.137   0.199  17.076  1.1097  0.0465  0.2885
  321TMC3    C8 4884   4.662   4.578  17.075 -0.1681  0.3232  0.1199
  321TMC3    O1 4885   0.258   0.199  17.062 -0.2531  0.0884  0.5827
  321TMC3    O2 4886   4.609   4.610  17.180  0.1071  0.0223 -0.5071
  322MPD2     C 4887   3.742   1.065  13.582  0.0551  0.1627  0.0205
  322MPD2    C1 4888   3.706   0.968  13.681  0.7088 -0.8297 -0.5303
  322MPD2    C2 4889   3.742   0.833  13.654 -0.0014 -0.0502 -0.1708
  322MPD2    C3 4890   3.812   0.799  13.538 -0.5929  0.8851  0.4325
  322MPD2    C4 4891   3.832   0.896  13.439  0.4494  0.7182 -0.0130
  322MPD2    C5 4892   3.806   1.031  13.469  0.2832 -0.0829  0.9116
  322MPD2     H 4893   3.717   0.754  13.725  1.2082 -2.2620 -2.2029
  322MPD2    H1 4894   3.885   0.878  13.347  1.2297  0.3662  0.5055
  322MPD2    H2 4895   3.703   1.166  13.594 -0.4267  0.0988 -0.9489
  322MPD2    H3 4896   3.824   1.108  13.394 -0.8699 -1.9905 -1.3522
  322MPD2     N 4897   3.849   0.664  13.531  0.1550  0.1833  0.5877
  322MPD2    H5 4898   3.818   0.604  13.607 -2.0626 -0.7154 -0.9967
  322MPD2    N1 4899   3.624   1.022  13.784 -0.6704  0.6027 -0.0429
  322MPD2    H7 4900   3.617   1.122  13.795  1.3679  0.9638 -2.2053
  323TMC3    C1 4901   3.532   1.029  14.003  0.3584 -0.0557 -0.4371
  323TMC3    C2 4902   3.589   1.153  14.029 -0.2742 -0.3574 -0.4962
  323TMC3    C3 4903   3.607   1.179  14.164  0.4289 -0.0379  0.5420
  323TMC3    C4 4904   3.476   0.956  14.097  0.3750 -0.2077 -0.4308
  323TMC3    C5 4905   3.485   0.985  14.231  0.7642 -0.4422  0.3104
  323TMC3    C6 4906   3.552   1.100  14.270  0.0672  0.7383 -0.3638
  323TMC3     C 4907   3.556   0.948  13.879  0.3384  1.0775  0.1398
  323TMC3     O 4908   3.559   0.829  13.886 -0.5422 -0.6042  0.1016
  323TMC3     H 4909   3.628   1.210  13.945 -0.4826  2.2595  1.1882
  323TMC3    H1 4910   3.430   0.863  14.067  0.8149  0.2304 -2.4741
  323TMC3    H2 4911   3.566   1.127  14.374 -1.3846 -2.6733  0.7014
  323TMC3    C7 4912   3.501   0.871  14.317 -0.0946 -0.7208 -0.5806
  323TMC3    C8 4913   3.697   1.286  14.199  0.1173 -0.1090  0.4999
  323TMC3    O1 4914   3.508   0.758  14.270 -0.1157 -0.0760 -0.5434
  323TMC3    O2 4915   3.744   1.281  14.313 -0.2653  0.0722  0.0809
  324MPD2     C 4916   0.424   1.858  14.021  0.3791  0.5243  0.1739
  324MPD2    C1 4917   0.469   1.986  14.037 -0.4314 -0.0350 -0.1319
  324MPD2    C2 4918   0.379   2.086  14.032  0.3912 -0.1650  0.0706
  324MPD2    C3 4919   0.247   2.066  13.995  0.1631 -0.2546  0.5892
  324MPD2    C4 4920   0.206   1.935  14.005 -0.2086  0.0941  0.3198
  324MPD2    C5 4921   0.294   1.835  14.014 -0.2511  0.1488 -0.1584
  324MPD2     H 4922   0.418   2.186  14.049 -2.9360  1.0408  0.5462
  324MPD2    H1 4923   0.105   1.899  13.992  0.1328 -0.5900 -0.4233
  324MPD2    H2 4924   0.490   1.773  14.015  1.6599  1.6084 -0.9494
  324MPD2    H3 4925   0.255   1.734  14.005  0.7053 -0.1638 -0.7798
  324MPD2     N 4926   0.152   2.171  13.983  0.5788 -0.0656  0.3453
  324MPD2    H5 4927   0.057   2.143  13.960  0.9213  0.1329 -1.3191
  324MPD2    N1 4928   0.611   2.008  14.058  0.2678 -0.6580 -0.2680
  324MPD2    H7 4929   0.644   2.103  14.068  0.2788 -0.6602 -0.2832
  325TMC3    C1 4930   0.052   2.395  13.997 -0.2437 -1.1039 -0.0240
  325TMC3    C2 4931   4.676   2.335  13.953  0.3566  0.0834  0.0162
  325TMC3    C3 4932   4.565   2.411  13.953  0.0573  0.2134 -0.5275
  325TMC3    C4 4933   0.054   2.519  14.060  0.0060  0.4071  0.3400
  325TMC3    C5 4934   4.667   2.579  14.076 -0.1382 -0.1154 -0.5886
  325TMC3    C6 4935   4.548   2.529  14.024  0.1030  0.1816  0.0564
  325TMC3     C 4936   0.175   2.308  14.013 -0.2140  0.1632  0.2686
  325TMC3     O 4937   0.273   2.358  14.062 -0.0590  0.3950 -0.3439
  325TMC3     H 4938   4.670   2.240  13.900  0.4117  0.1724 -0.1505
  325TMC3    H1 4939   0.145   2.571  14.090  0.2551 -1.0071  2.0723
  325TMC3    H2 4940   4.457   2.587  14.012 -0.7270 -1.7024 -2.8156
  325TMC3    C7 4941   4.661   2.712  14.142  0.1065 -0.6550 -0.9155
  325TMC3    C8 4942   4.450   2.355  13.883  0.4422 -0.0898  0.3373
  325TMC3    O1 4943   0.019   2.788  14.123 -0.2535 -0.8811  0.4361
  325TMC3    O2 4944   4.470   2.312  13.770  0.7225  0.4587  0.0388
  326MPD2     C 4945   1.738   3.638  11.206 -0.6548  0.2071 -0.4910
  326MPD2    C1 4946   1.791   3.580  11.090  0.3197 -0.7491 -0.5190
  326MPD2    C2 4947   1.920   3.538  11.104  0.2324 -0.0859  0.0395
  326MPD2    C3 4948   1.992   3.535  11.225  1.0905 -0.8202 -0.4555
  326MPD2    C4 4949   1.927   3.581  11.333 -0.8998  0.2514  0.1218
  326MPD2    C5 4950   1.806   3.633  11.324 -0.3164 -0.6474 -0.2315
  326MPD2     H 4951   1.959   3.495  11.013 -2.8282 -1.1108 -0.7957
  326MPD2    H1 4952   1.970   3.582  11.432 -2.1474 -3.0657  0.6955
  326MPD2    H2 4953   1.636   3.672  11.214 -0.9533 -1.1827  1.5914
  326MPD2    H3 4954   1.770   3.675  11.417  0.8828  1.8861 -0.8959
  326MPD2     N 4955   2.126   3.500  11.240  0.1339 -0.3964 -0.1024
  326MPD2    H5 4956   2.166   3.531  11.328  0.2365 -1.7244  0.3137
  326MPD2    N1 4957   1.731   3.563  10.964 -0.7838  0.5625 -0.2490
  326MPD2    H7 4958   1.790   3.534  10.887 -0.8392  1.4930 -0.6454
  327TMC3    C1 4959   1.577   3.544  10.791 -0.3825 -0.1359  0.1929
  327TMC3    C2 4960   1.486   3.624  10.719 -0.3758  0.0760  0.4076
  327TMC3    C3 4961   1.485   3.614  10.583  0.3834  0.8653 -0.3064
  327TMC3    C4 4962   1.674   3.473  10.729 -0.2162  0.4707 -0.0326
  327TMC3    C5 4963   1.666   3.464  10.593 -0.5023 -0.4623 -0.3055
  327TMC3    C6 4964   1.578   3.540  10.514  0.1888 -0.0855 -0.4400
  327TMC3     C 4965   1.603   3.595  10.929 -0.4853  0.6874 -0.4214
  327TMC3     O 4966   1.517   3.659  10.993  0.3464 -0.4290  0.0627
  327TMC3     H 4967   1.415   3.679  10.779 -0.3572  1.8951 -1.2294
  327TMC3    H1 4968   1.745   3.413  10.786 -1.2182 -0.1466  0.5613
  327TMC3    H2 4969   1.590   3.534  10.407  3.7676 -0.0208 -0.0491
  327TMC3    C7 4970   1.779   3.400  10.520 -0.0022 -0.0261 -0.0462
  327TMC3    C8 4971   1.424   3.722  10.505 -0.5224  0.1955 -0.3476
  327TMC3    O1 4972   1.798   3.415  10.398 -0.9898  0.5836  0.2541
  327TMC3    O2 4973   1.363   3.810  10.571 -0.0327 -0.2224  0.7408
  328MPD2     C 4974   3.999   2.391  16.913 -0.1515  0.2264 -0.0066
  328MPD2    C1 4975   4.005   2.480  17.014  0.6888 -0.8153  0.2429
  328MPD2    C2 4976   4.034   2.612  16.986 -0.2406 -0.4268  0.4636
  328MPD2    C3 4977   4.038   2.661  16.856  0.3519  0.2457 -0.2336
  328MPD2    C4 4978   4.036   2.568  16.752 -0.9430  0.3321  0.1698
  328MPD2    C5 4979   4.011   2.437  16.783  0.6340 -0.0454  0.4716
  328MPD2     H 4980   4.035   2.684  17.067 -2.1676 -2.1561  2.0294
  328MPD2    H1 4981   4.044   2.601  16.649 -0.5447  1.3686  0.5314
  328MPD2    H2 4982   3.974   2.286  16.915 -0.4804  0.3135  0.3372
  328MPD2    H3 4983   4.018   2.362  16.706  0.4998 -0.9624  1.3566
  328MPD2     N 4984   4.033   2.795  16.821 -0.5205  0.5225 -0.0643
  328MPD2    H5 4985   4.019   2.823  16.725  2.9308  1.2513 -0.3402
  328MPD2    N1 4986   3.970   2.435  17.142  0.1513 -0.5550 -0.2763
  328MPD2    H7 4987   3.945   2.338  17.156  0.4631 -0.7503 -1.1377
  329TMC3    C1 4988   3.865   2.463  17.359 -0.0671 -0.4818 -0.9440
  329TMC3    C2 4989   3.768   2.548  17.400 -0.5140  0.4877  0.3848
  329TMC3    C3 4990   3.636   2.505  17.393 -0.7537  0.0835 -0.7130
  329TMC3    C4 4991   3.835   2.334  17.337 -0.9112  0.1842 -0.0792
  329TMC3    C5 4992   3.707   2.292  17.343 -0.8089  0.1673  0.3727
  329TMC3    C6 4993   3.606   2.378  17.352 -0.2192  0.2063 -0.0558
  329TMC3     C 4994   3.958   2.513  17.258  0.0636  0.1045 -0.4253
  329TMC3     O 4995   4.011   2.624  17.282 -0.2446  0.3961 -0.0039
  329TMC3     H 4996   3.788   2.653  17.384  0.1807  0.5723  1.7428
  329TMC3    H1 4997   3.921   2.269  17.325 -2.8465 -2.5703  1.0149
  329TMC3    H2 4998   3.503   2.356  17.327 -1.0726  1.2310  2.6168
  329TMC3    C7 4999   3.691   2.159  17.388 -0.5955  0.1859 -0.6428
  329TMC3    C8 5000   3.541   2.614  17.361  0.0380  0.1177  0.1794
  329TMC3    O1 5001   3.793   2.097  17.403  0.1313  0.4102  0.1661
  329TMC3    O2 5002   3.465   2.595  17.270  0.4729 -0.1274  0.1247
  330TMC3    C1 5003   2.149   2.394   9.752 -0.6886 -0.3512 -0.0540
  330TMC3    C2 5004   2.012   2.386   9.737 -0.3140  0.3240 -0.3430
  330TMC3    C3 5005   1.951   2.270   9.779  0.1693 -0.1523 -0.2232
  330TMC3    C4 5006   2.224   2.292   9.808 -0.3952 -0.1758  0.2705
  330TMC3    C5 5007   2.152   2.186   9.854  0.8017  0.2769 -0.0898
  330TMC3    C6 5008   2.019   2.166   9.838 -0.2675  0.1028 -0.4906
  330TMC3     C 5009   2.229   2.496   9.697  0.0333  0.0885  0.5581
  330TMC3     O 5010   2.351   2.493   9.724  0.2488  0.4445 -0.2379
  330TMC3     H 5011   1.950   2.470   9.706 -0.0256  0.2679 -1.0816
  330TMC3    H1 5012   2.331   2.297   9.828 -0.4820  2.8798  0.0306
  330TMC3    H2 5013   1.964   2.080   9.876  0.2598  1.5078  3.4382
  330TMC3    C7 5014   2.215   2.103   9.956 -0.5928 -0.9134 -0.7082
  330TMC3    C8 5015   1.810   2.245   9.741 -0.0881 -0.4196 -0.3304
  330TMC3    O1 5016   2.335   2.115   9.977 -0.6372 -0.6167  0.0306
  330TMC3    O2 5017   1.758   2.145   9.794 -0.1161  0.3405  0.4125
  331MPD2     C 5018   4.426   1.143  12.616  0.1905  0.8288  0.6118
  331MPD2    C1 5019   4.540   1.196  12.559 -0.5511 -0.5915 -0.1361
  331MPD2    C2 5020   4.649   1.117  12.527  0.5208 -0.1541 -0.5485
  331MPD2    C3 5021   4.661   0.987  12.569 -0.1269  0.3676 -0.1871
  331MPD2    C4 5022   4.547   0.931  12.621 -0.1588  0.7838 -0.1026
  331MPD2    C5 5023   4.434   1.010  12.645 -1.4440  0.8084  0.1004
  331MPD2     H 5024   4.736   1.153  12.473  1.2188  1.3144  1.5482
  331MPD2    H1 5025   4.537   0.827  12.649  2.1252  0.5562 -0.1984
  331MPD2    H2 5026   4.340   1.203  12.643  0.1954  0.6366  1.0600
  331MPD2    H3 5027   4.353   0.960  12.697  0.2692 -2.0341  0.0475
  331MPD2     N 5028   0.048   0.915  12.540  0.4495  0.1925 -0.4246
  331MPD2    H5 5029   0.111   0.963  12.477  1.4915 -1.3231 -0.5387
  331MPD2    N1 5030   4.561   1.339  12.545 -0.2354 -0.4549 -0.3068
  331MPD2    H7 5031   4.638   1.363  12.484  0.7825 -1.3352  0.6227
  332TMC3    C1 5032   0.205   0.744  12.532  0.1747  0.5138 -0.0617
  332TMC3    C2 5033   0.241   0.796  12.405  0.1314 -0.7617  0.0724
  332TMC3    C3 5034   0.372   0.787  12.387  0.7514 -0.2237  0.7204
  332TMC3    C4 5035   0.284   0.681  12.623  0.3199  0.3388  0.3767
  332TMC3    C5 5036   0.418   0.678  12.589 -0.3638 -0.2082  0.0737
  332TMC3    C6 5037   0.466   0.738  12.476  0.0901 -0.3243 -0.2476
  332TMC3     C 5038   0.079   0.792  12.585 -0.2241 -0.3301  0.4059
  332TMC3     O 5039   0.030   0.714  12.665  0.1456  0.1958  0.5038
  332TMC3     H 5040   0.164   0.832  12.338  1.0044  1.9891  0.5783
  332TMC3    H1 5041   0.242   0.639  12.713  0.2268 -1.0190 -0.3017
  332TMC3    H2 5042   0.570   0.744  12.445 -0.0844  1.2951 -0.5397
  332TMC3    C7 5043   0.512   0.614  12.682 -0.8347 -0.3531  0.4367
  332TMC3    C8 5044   0.430   0.859  12.282  0.1292 -0.4082  0.6407
  332TMC3    O1 5045   0.467   0.532  12.760 -0.0072  0.8853 -0.0827
  332TMC3    O2 5046   0.519   0.935  12.319  0.6026 -0.4615  0.1220
  333MPD2     C 5047   0.405   2.166  11.334 -0.8801  0.2162  0.3545
  333MPD2    C1 5048   0.454   2.084  11.234  0.5943  0.3061  0.4067
  333MPD2    C2 5049   0.481   1.954  11.265  0.6021 -0.3684  0.0190
  333MPD2    C3 5050   0.446   1.899  11.382  0.1766 -0.4308  0.1218
  333MPD2    C4 5051   0.390   1.981  11.479 -0.0368 -0.2222  0.0313
  333MPD2    C5 5052   0.371   2.113  11.450 -0.2323  0.4175  0.4617
  333MPD2     H 5053   0.517   1.893  11.183 -0.7054 -3.2044  1.5602
  333MPD2    H1 5054   0.369   1.958  11.583 -1.4001 -4.1907 -1.1064
  333MPD2    H2 5055   0.384   2.270  11.314  0.2541  0.2575 -0.6668
  333MPD2    H3 5056   0.323   2.171  11.528 -0.9146  0.3679  0.0794
  333MPD2     N 5057   0.461   1.758  11.391  0.2592 -0.4041 -0.3262
  333MPD2    H5 5058   0.514   1.722  11.313 -0.7682  0.5726 -1.4727
  333MPD2    N1 5059   0.491   2.126  11.097  0.2028  0.2567  0.1674
  333MPD2    H7 5060   0.514   2.224  11.090 -3.3217  1.0140 -0.4257
  334TMC3    C1 5061   0.576   2.101  10.877 -0.4935  0.2527 -0.5111
  334TMC3    C2 5062   0.677   2.018  10.834 -0.1051  0.1897  0.3265
  334TMC3    C3 5063   0.783   2.065  10.771 -0.0709 -0.3378 -0.3659
  334TMC3    C4 5064   0.588   2.237  10.868 -0.0709  0.1382  0.1973
  334TMC3    C5 5065   0.707   2.283  10.815  0.4846 -0.2337  0.0125
  334TMC3    C6 5066   0.802   2.200  10.761  0.4327 -0.4531  0.1280
  334TMC3     C 5067   0.492   2.044  10.981  0.6841  0.2121 -0.0898
  334TMC3     O 5068   0.454   1.931  10.959  0.1109  0.2976 -0.1851
  334TMC3     H 5069   0.655   1.913  10.849  1.9134 -0.1989  0.5243
  334TMC3    H1 5070   0.518   2.304  10.915  0.2516  1.2712 -0.9567
  334TMC3    H2 5071   0.899   2.241  10.733 -0.2898  0.9724 -0.2908
  334TMC3    C7 5072   0.721   2.424  10.796 -0.3853  0.2038 -0.3825
  334TMC3    C8 5073   0.887   1.964  10.734  0.6048 -0.2032 -0.2952
  334TMC3    O1 5074   0.837   2.462  10.800 -0.3431  0.5767 -0.4542
  334TMC3    O2 5075   0.850   1.848  10.754 -0.2812  0.6746  0.4028
  335TMC3    C1 5076   4.667   3.589  17.140 -0.1640  0.0077  0.0984
  335TMC3    C2 5077   4.672   3.456  17.123  0.0392  0.7131  0.4991
  335TMC3    C3 5078   4.724   3.402  17.011 -0.1768  0.2778 -1.0432
  335TMC3    C4 5079   0.002   3.678  17.055 -0.3861 -0.3149  0.5098
  335TMC3    C5 5080   0.050   3.623  16.936  0.4038 -0.4195  0.2965
  335TMC3    C6 5081   0.045   3.488  16.919  0.1379  0.5317 -1.2158
  335TMC3     C 5082   4.642   3.640  17.270  0.0771 -0.3613  0.3520
  335TMC3     O 5083   4.673   3.567  17.366 -0.1773  0.6019 -0.0194
  335TMC3     H 5084   4.622   3.394  17.196  0.9143  2.4568  2.5723
  335TMC3    H1 5085   0.025   3.779  17.084  0.2318 -0.3706  0.2337
  335TMC3    H2 5086   0.083   3.453  16.824 -0.4493 -0.4343 -1.0878
  335TMC3    C7 5087   0.176   3.676  16.885  0.8501  0.2059 -0.1979
  335TMC3    C8 5088   0.033   3.263  17.007  0.4952  0.6060 -0.3728
  335TMC3    O1 5089   0.257   3.593  16.847 -0.5369  0.1367 -0.1369
  335TMC3    O2 5090   0.141   3.253  16.947 -0.7296 -0.2519  0.1572
  336MPD2     C 5091   4.584   0.809  16.184  0.4172  0.8510  0.3265
  336MPD2    C1 5092   4.560   0.729  16.076  0.0084  0.6143  0.0822
  336MPD2    C2 5093   4.611   0.605  16.077  0.9829 -0.4813  0.3550
  336MPD2    C3 5094   4.680   0.553  16.186  0.0443  0.6210 -0.2339
  336MPD2    C4 5095   4.693   0.637  16.305 -0.5273 -0.2648 -0.6634
  336MPD2    C5 5096   4.655   0.769  16.291 -0.6993  0.2338 -0.1053
  336MPD2     H 5097   4.577   0.543  15.995 -3.1045  2.2796 -0.0791
  336MPD2    H1 5098   0.026   0.607  16.384 -0.2134  1.0418 -0.4492
  336MPD2    H2 5099   4.558   0.914  16.183 -0.1102  0.7247  0.3649
  336MPD2    H3 5100   4.675   0.839  16.371 -0.0641 -2.8714  2.4580
  336MPD2     N 5101   0.009   0.425  16.182 -0.1877  0.9692 -0.0539
  336MPD2    H5 5102   0.039   0.393  16.274 -0.2436 -1.0444 -0.7531
  336MPD2    N1 5103   4.478   0.778  15.969  0.5487  0.6330 -0.1318
  336MPD2    H7 5104   4.450   0.711  15.899  1.2798  2.7323 -2.4448
  337TMC3    C1 5105   4.362   0.925  15.831 -0.0837  0.0185 -0.4139
  337TMC3    C2 5106   4.252   0.846  15.826  0.5935  0.4145 -0.2627
  337TMC3    C3 5107   4.139   0.892  15.762  0.1871  0.0296 -1.1316
  337TMC3    C4 5108   4.360   1.047  15.770 -0.4997 -0.4977 -0.4754
  337TMC3    C5 5109   4.241   1.093  15.706 -0.7420 -0.4088 -0.1205
  337TMC3    C6 5110   4.126   1.019  15.704  0.1256  0.4031 -0.3500
  337TMC3     C 5111   4.442   0.910  15.952 -0.0554  0.2181  0.0751
  337TMC3     O 5112   4.480   1.016  15.994 -0.5469 -0.3831  0.5881
  337TMC3     H 5113   4.253   0.750  15.876 -1.4165 -0.6492 -2.2604
  337TMC3    H1 5114   4.435   1.122  15.791 -2.1099  0.0954  3.2252
  337TMC3    H2 5115   4.027   1.058  15.682  0.0860  0.1628 -0.5896
  337TMC3    C7 5116   4.236   1.222  15.648 -0.4372  0.4112  0.5725
  337TMC3    C8 5117   4.022   0.802  15.761  0.7817  0.1538 -0.6838
  337TMC3    O1 5118   4.122   1.264  15.623 -0.1503 -0.6717 -0.5563
  337TMC3    O2 5119   4.023   0.706  15.835  0.4820 -0.2781 -0.1802
  338MPD2     C 5120   4.668   0.807   0.941 -0.7335  0.6175  0.3966
  338MPD2    C1 5121   4.681   0.795   0.806  0.3183 -0.5739 -0.3589
  338MPD2    C2 5122   4.590   0.715   0.733 -0.0135  0.3079  0.3477
  338MPD2    C3 5123   4.474   0.670   0.793 -0.9817  0.3582  0.0782
  338MPD2    C4 5124   4.456   0.704   0.924  0.3716  0.8301  0.1814
  338MPD2    C5 5125   4.553   0.767   0.999 -0.1013  0.0286 -0.3443
  338MPD2     H 5126   4.610   0.697   0.628  1.3713 -1.7151  0.9480
  338MPD2    H1 5127   4.366   0.680   0.980  0.6379 -2.1417 -0.6634
  338MPD2    H2 5128   0.008   0.854   1.003 -0.3893  0.0595  0.3978
  338MPD2    H3 5129   4.550   0.764   1.108 -0.0167  0.4750 -0.3290
  338MPD2     N 5130   4.383   0.602   0.709  0.6448 -0.2601  0.3473
  338MPD2    H5 5131   4.401   0.592   0.610  0.2663  0.3427  0.2148
  338MPD2    N1 5132   0.054   0.838   0.728  0.0583  0.2817  0.0355
  338MPD2    H7 5133   0.049   0.817   0.629 -0.0507  2.0676 -0.3271
  339TMC3    C1 5134   4.214   0.460   0.650 -0.5607 -0.4391 -0.2233
  339TMC3    C2 5135   4.143   0.343   0.694 -0.2850 -0.8258  0.3701
  339TMC3    C3 5136   4.119   0.256   0.596  0.2303 -0.4470  0.3022
  339TMC3    C4 5137   4.260   0.486   0.523 -0.0756 -0.0324 -0.3933
  339TMC3    C5 5138   4.235   0.385   0.433 -0.0944 -0.7702  0.7930
  339TMC3    C6 5139   4.156   0.274   0.464 -0.2593 -0.2147 -0.6279
  339TMC3     C 5140   4.269   0.544   0.756 -0.3193  0.2198  0.3027
  339TMC3     O 5141   4.232   0.530   0.871  0.3935  0.2942  0.0592
  339TMC3     H 5142   4.088   0.347   0.788  1.2619 -0.9920  1.2810
  339TMC3    H1 5143   4.307   0.576   0.487  1.3413  0.2037  2.1199
  339TMC3    H2 5144   4.127   0.204   0.387  0.1473 -0.3794 -0.6320
  339TMC3    C7 5145   4.279   0.415   0.302 -0.3080 -0.5557  0.7529
  339TMC3    C8 5146   4.027   0.149   0.617  0.8718 -0.0628 -0.5526
  339TMC3    O1 5147   4.307   0.533   0.277 -0.3054 -0.2436  0.4316
  339TMC3    O2 5148   3.967   0.107   0.521 -0.3154 -0.2942 -0.5543
  340MPD2     C 5149   0.606   2.091   9.531  0.2977 -0.4099  0.6610
  340MPD2    C1 5150   0.552   2.211   9.488 -0.2887  0.3191 -1.1228
  340MPD2    C2 5151   0.579   2.249   9.357  0.0543 -0.1651  0.3772
  340MPD2    C3 5152   0.668   2.182   9.282  0.1211  0.3822  0.5933
  340MPD2    C4 5153   0.727   2.064   9.330 -0.0167 -0.1210  0.4286
  340MPD2    C5 5154   0.693   2.020   9.456  0.3435 -0.0639  0.1602
  340MPD2     H 5155   0.546   2.350   9.333  1.2482  0.0171 -0.5083
  340MPD2    H1 5156   0.804   2.007   9.278 -0.0596  0.1452  0.0733
  340MPD2    H2 5157   0.578   2.052   9.628  0.8050 -0.0804  0.9383
  340MPD2    H3 5158   0.722   1.923   9.493  1.1349  1.0274  2.3589
  340MPD2     N 5159   0.710   2.236   9.156  0.3127  0.1551  0.4746
  340MPD2    H5 5160   0.768   2.169   9.107  0.2572  0.6081 -0.2073
  340MPD2    N1 5161   0.471   2.289   9.584 -0.2876 -0.1482  0.1610
  340MPD2    H7 5162   0.458   2.249   9.676 -0.3296  0.4654  0.4249
  341TMC3    C1 5163   0.366   2.471   9.690 -0.5913  0.6362  0.6280
  341TMC3    C2 5164   0.313   2.388   9.781 -0.0715 -0.1485  0.5251
  341TMC3    C3 5165   0.267   2.432   9.897 -0.3232 -0.6890 -0.1794
  341TMC3    C4 5166   0.398   2.604   9.713  0.6472  0.6968 -0.1668
  341TMC3    C5 5167   0.355   2.642   9.840  0.7522 -0.4674 -0.5132
  341TMC3    C6 5168   0.285   2.560   9.927 -0.3200 -0.4429  0.1480
  341TMC3     C 5169   0.431   2.422   9.569  0.2783  0.0187 -0.0267
  341TMC3     O 5170   0.448   2.497   9.475 -0.5436 -0.0512  0.4615
  341TMC3     H 5171   0.293   2.284   9.759  0.0570 -0.1897  0.6012
  341TMC3    H1 5172   0.469   2.658   9.651 -0.4596  3.8696  1.3029
  341TMC3    H2 5173   0.254   2.601  10.022  0.2972  0.3176  0.0186
  341TMC3    C7 5174   0.353   2.784   9.866 -0.5554 -0.9894 -0.1760
  341TMC3    C8 5175   0.176   2.346   9.978  0.5935  0.0725  0.0840
  341TMC3    O1 5176   0.424   2.841   9.782 -0.1382  0.1132  0.7131
  341TMC3    O2 5177   0.137   2.242   9.921 -0.5380 -0.6319  0.0098
  342MPD2     C 5178   2.859   1.039  17.653  0.2860  0.6680 -0.0026
  342MPD2    C1 5179   2.891   1.060  17.522  0.7753 -0.2146  0.4510
  342MPD2    C2 5180   2.840   1.178  17.460 -0.1710 -0.0655  0.7946
  342MPD2    C3 5181   2.771   1.281  17.532  0.2251  0.0713 -0.4957
  342MPD2    C4 5182   2.759   1.262  17.667 -0.4359 -0.0206 -0.0792
  342MPD2    C5 5183   2.786   1.136  17.720  0.3282  0.0651  0.9413
  342MPD2     H 5184   2.857   1.183  17.353 -0.5672  1.1483  0.7866
  342MPD2    H1 5185   2.702   1.328  17.730 -0.7232 -1.0225  0.7076
  342MPD2    H2 5186   2.879   0.952  17.715  0.5971  1.5888  1.2055
  342MPD2    H3 5187   2.755   1.118   0.081 -1.4727  1.3022  0.6062
  342MPD2     N 5188   2.731   1.404  17.470 -0.5736  0.0875  0.0985
  342MPD2    H5 5189   2.698   1.473  17.537  1.9439  2.3033 -0.9592
  342MPD2    N1 5190   2.957   0.960  17.446 -0.1356 -0.5270 -0.2241
  342MPD2    H7 5191   2.972   0.983  17.348 -0.0780 -0.7179 -0.2591
  343TMC3    C1 5192   3.065   0.756  17.395  0.2795 -0.1918  0.7859
  343TMC3    C2 5193   3.175   0.808  17.324  0.5721  0.1566  0.0722
  343TMC3    C3 5194   3.275   0.725  17.284 -0.1831  0.5064 -0.7038
  343TMC3    C4 5195   3.072   0.624  17.431  0.0131 -0.4808  0.0022
  343TMC3    C5 5196   3.181   0.551  17.396 -0.1036  0.4148  0.7246
  343TMC3    C6 5197   3.277   0.587  17.311 -0.4549  0.8205 -0.0702
  343TMC3     C 5198   3.002   0.842  17.495  0.0646 -0.0855  0.5514
  343TMC3     O 5199   2.995   0.799  17.611  0.1911 -0.4648  0.1650
  343TMC3     H 5200   3.186   0.915  17.309 -0.7253  0.0313 -1.8291
  343TMC3    H1 5201   3.004   0.582  17.505 -0.0898  3.7262  2.3212
  343TMC3    H2 5202   3.366   0.526  17.307 -1.8180 -1.0553 -1.4359
  343TMC3    C7 5203   3.200   0.423  17.464  0.5396 -0.3161 -0.0648
  343TMC3    C8 5204   3.398   0.773  17.225  0.2477 -0.7444 -0.2606
  343TMC3    O1 5205   3.260   0.427  17.569 -0.1957 -0.1137 -0.5505
  343TMC3    O2 5206   3.470   0.861  17.275 -0.5374  0.6377  0.5414
  344MPD2     C 5207   3.400   1.045  11.381  0.3331 -0.4705 -0.4021
  344MPD2    C1 5208   3.398   0.964  11.264 -0.0481  1.0483 -1.3327
  344MPD2    C2 5209   3.435   1.024  11.142 -0.9514 -1.2622  0.3081
  344MPD2    C3 5210   3.468   1.161  11.137  0.0663 -0.2049  0.0810
  344MPD2    C4 5211   3.485   1.234  11.253  0.9156 -0.5753 -0.3779
  344MPD2    C5 5212   3.442   1.179  11.372  0.3914 -0.7020 -0.3530
  344MPD2     H 5213   3.440   0.959  11.055  4.1085  0.8637 -0.9710
  344MPD2    H1 5214   3.544   1.324  11.254 -1.1196  0.7502 -0.9211
  344MPD2    H2 5215   3.373   1.010  11.480 -0.0152 -1.1530 -0.7422
  344MPD2    H3 5216   3.459   1.235  11.463 -0.2457  0.4079 -0.9306
  344MPD2     N 5217   3.517   1.226  11.020 -0.2710  0.3680 -0.1904
  344MPD2    H5 5218   3.567   1.313  11.030 -1.7054  1.2707 -0.9169
  344MPD2    N1 5219   3.376   0.828  11.264  0.1583 -0.4580 -0.7302
  344MPD2    H7 5220   3.399   0.778  11.179  2.4498  0.7952 -0.8511
  345TMC3    C1 5221   3.613   1.236  10.811  0.0579 -0.3490  0.4021
  345TMC3    C2 5222   3.725   1.267  10.887  0.1441  0.1730  0.1850
  345TMC3    C3 5223   3.809   1.368  10.842 -0.6598  0.1798 -0.2486
  345TMC3    C4 5224   3.580   1.312  10.701  0.6479 -0.1075  0.3838
  345TMC3    C5 5225   3.669   1.405  10.659 -0.2977  0.4201 -0.4163
  345TMC3    C6 5226   3.783   1.439  10.731  0.1673 -0.4302  0.1302
  345TMC3     C 5227   3.514   1.172  10.893  1.1452 -0.1968 -0.1413
  345TMC3     O 5228   3.443   1.081  10.850  0.2260 -0.2484  0.0493
  345TMC3     H 5229   3.753   1.220  10.981 -1.6204 -0.6084  0.3209
  345TMC3    H1 5230   3.495   1.291  10.638 -0.3255  1.1667  1.2547
  345TMC3    H2 5231   3.863   1.486  10.675 -1.5410 -0.3926 -2.3092
  345TMC3    C7 5232   3.635   1.505  10.560 -0.5008 -0.5900 -0.5487
  345TMC3    C8 5233   3.916   1.403  10.931  0.1362  0.0348 -0.7185
  345TMC3    O1 5234   3.705   1.608  10.562 -0.1679  0.1032 -0.0113
  345TMC3    O2 5235   3.991   1.313  10.975  0.4089 -0.1006 -0.1057
  346MPD2     C 5236   3.738   2.084  14.490  0.5006 -0.1226  0.3795
  346MPD2    C1 5237   3.723   2.203  14.428  0.2639 -0.2714 -0.6475
  346MPD2    C2 5238   3.755   2.315  14.503  0.5440 -0.8179 -0.2456
  346MPD2    C3 5239   3.797   2.315  14.633  0.2717  0.6419 -0.6537
  346MPD2    C4 5240   3.794   2.188  14.693  0.3064  0.1320 -0.4742
  346MPD2    C5 5241   3.762   2.075  14.622 -0.3314  0.5788  0.1443
  346MPD2     H 5242   3.745   2.407  14.446 -0.8860 -0.1717  1.0503
  346MPD2    H1 5243   3.808   2.168  14.799  1.5271 -0.4644 -0.7484
  346MPD2    H2 5244   3.714   1.991  14.438 -0.1273  0.3774 -0.2282
  346MPD2    H3 5245   3.748   1.983  14.677  0.1018  0.3477 -0.1302
  346MPD2     N 5246   3.844   2.430  14.701 -0.4611  0.0225  0.2293
  346MPD2    H5 5247   3.849   2.510  14.638 -0.2713  0.1074  0.3514
  346MPD2    N1 5248   3.707   2.228  14.293 -0.1299  0.1403  0.1512
  346MPD2    H7 5249   3.693   2.327  14.274  2.2021  0.4410 -0.0987
  347TMC3    C1 5250   3.991   2.551  14.835  0.6881 -0.3257 -0.1392
  347TMC3    C2 5251   4.042   2.610  14.719 -0.2018  0.3098 -0.3151
  347TMC3    C3 5252   4.144   2.695  14.729 -0.4677  0.3576  0.0004
  347TMC3    C4 5253   4.041   2.583  14.956 -0.5343  0.6416  0.7564
  347TMC3    C5 5254   4.151   2.661  14.957 -0.0634 -0.5613 -0.0297
  347TMC3    C6 5255   4.204   2.724  14.848 -0.5550 -0.0409  1.0225
  347TMC3     C 5256   3.898   2.439  14.825 -0.9406 -0.0781 -0.0166
  347TMC3     O 5257   3.876   2.372  14.931  0.1778  0.5343 -0.3425
  347TMC3     H 5258   4.010   2.587  14.618  0.4855  1.9173 -0.8838
  347TMC3    H1 5259   4.016   2.522  15.042  1.9113 -1.8995 -0.3354
  347TMC3    H2 5260   4.286   2.794  14.859 -0.7959  0.7053 -1.7995
  347TMC3    C7 5261   4.196   2.675  15.092 -0.0472 -0.0175 -0.0865
  347TMC3    C8 5262   4.228   2.705  14.612  0.0554 -0.2837  0.0729
  347TMC3    O1 5263   4.113   2.677  15.180  0.1360  0.2521 -0.0265
  347TMC3    O2 5264   4.200   2.626  14.523 -0.0311 -0.1849 -0.0443
  348MPD2     C 5265   2.750   1.597  11.824 -0.3730 -0.8914  0.3607
  348MPD2    C1 5266   2.637   1.625  11.755  0.4631 -0.1393  0.6314
  348MPD2    C2 5267   2.638   1.725  11.654  0.1316 -0.2938 -0.5881
  348MPD2    C3 5268   2.757   1.798  11.632  0.7208  0.0757  0.2188
  348MPD2    C4 5269   2.873   1.762  11.697  0.4336 -0.2722 -0.0974
  348MPD2    C5 5270   2.867   1.669  11.792 -0.2314 -0.3359 -0.9094
  348MPD2     H 5271   2.546   1.763  11.611  0.6684  0.5062 -1.0321
  348MPD2    H1 5272   2.966   1.810  11.670  0.9670 -1.0591  0.3844
  348MPD2    H2 5273   2.762   1.522  11.901 -3.6281  0.2550  2.0130
  348MPD2    H3 5274   2.950   1.637  11.853  0.9244 -0.2196 -2.4373
  348MPD2     N 5275   2.746   1.908  11.542 -0.0402  0.4597 -0.3029
  348MPD2    H5 5276   2.655   1.920  11.498  0.1814  2.5347 -0.1641
  348MPD2    N1 5277   2.509   1.575  11.786 -0.0354  0.3407  0.0009
  348MPD2    H7 5278   2.427   1.615  11.742  0.4035  2.2538  0.9290
  349TMC3    C1 5279   2.347   1.475  11.931  0.2988  0.5023 -0.4036
  349TMC3    C2 5280   2.318   1.386  12.038 -0.2922 -0.6457 -0.1476
  349TMC3    C3 5281   2.193   1.373  12.088 -0.3840  0.6184 -0.0268
  349TMC3    C4 5282   2.243   1.539  11.877 -0.0868  0.1228 -0.0602
  349TMC3    C5 5283   2.116   1.512  11.918 -0.3451  0.6000 -0.1817
  349TMC3    C6 5284   2.086   1.442  12.037  0.4706  0.2078 -0.5052
  349TMC3     C 5285   2.490   1.484  11.883 -0.3347  0.1028  0.7211
  349TMC3     O 5286   2.569   1.418  11.953 -0.1480 -0.2898  0.0749
  349TMC3     H 5287   2.398   1.324  12.076  0.2610  0.2486  0.1317
  349TMC3    H1 5288   2.265   1.603  11.793  0.7745  1.4901  1.2080
  349TMC3    H2 5289   1.983   1.423  12.065  0.7779  2.7954  2.4413
  349TMC3    C7 5290   2.018   1.606  11.865  0.2285 -0.0073 -0.3454
  349TMC3    C8 5291   2.178   1.285  12.200  1.2213 -0.2822  0.0346
  349TMC3    O1 5292   1.903   1.567  11.861  0.1754  0.5190  0.0121
  349TMC3    O2 5293   2.265   1.197  12.220  0.3266  0.3152 -0.5608
  350MPD2     C 5294   2.004   0.336  10.475  0.4090  0.5175  0.1830
  350MPD2    C1 5295   1.891   0.262  10.441  0.5069 -0.8731 -0.2648
  350MPD2    C2 5296   1.784   0.262  10.535  0.6540 -0.6583  0.4480
  350MPD2    C3 5297   1.791   0.333  10.656 -0.4492 -0.0898  0.2645
  350MPD2    C4 5298   1.907   0.396  10.686 -0.0952 -0.1085 -0.5944
  350MPD2    C5 5299   2.011   0.391  10.598 -0.1683 -0.4301 -0.0239
  350MPD2     H 5300   1.695   0.204  10.512  0.4248 -0.9111  2.0027
  350MPD2    H1 5301   1.932   0.443  10.780 -1.7810 -2.8592  1.2148
  350MPD2    H2 5302   2.090   0.334  10.408  1.7749  0.3117  1.9515
  350MPD2    H3 5303   2.105   0.438  10.625 -0.3087  0.4453 -1.0664
  350MPD2     N 5304   1.681   0.335  10.742 -0.5142  0.1637  0.9420
  350MPD2    H5 5305   1.598   0.287  10.709 -0.3332  0.8435 -0.5019
  350MPD2    N1 5306   1.888   0.188  10.318  0.7356  0.2339  0.1489
  350MPD2    H7 5307   1.808   0.130  10.297  0.3215  1.5965 -2.0341
  351TMC3    C1 5308   1.954   0.102  10.129 -0.3312  0.3332  0.1631
  351TMC3    C2 5309   1.948   4.711  10.162 -0.4363  1.0764  0.3356
  351TMC3    C3 5310   1.940   4.618  10.062 -0.5469 -0.4178  0.3000
  351TMC3    C4 5311   1.963   0.148  10.001  0.6535  0.0265 -0.3514
  351TMC3    C5 5312   1.968   0.049   9.903 -0.4149 -0.1853 -0.0244
  351TMC3    C6 5313   1.954   4.655   9.934  0.5291 -0.0421  0.6915
  351TMC3     C 5314   1.982   0.204  10.221  0.3020  0.1539 -0.1661
  351TMC3     O 5315   2.067   0.292  10.199 -0.7424  0.1734  0.6558
  351TMC3     H 5316   1.966   4.680  10.265 -1.8814  2.1863  0.9231
  351TMC3    H1 5317   1.992   0.251   9.983  0.1615 -0.3692 -3.4067
  351TMC3    H2 5318   1.948   4.584   9.852 -1.2232 -1.3946  2.0206
  351TMC3    C7 5319   1.977   0.091   9.764  0.1939 -1.2151 -0.5836
  351TMC3    C8 5320   1.986   4.482  10.079  0.2952 -1.3791 -0.4478
  351TMC3    O1 5321   1.999   0.006   9.682  0.0565  0.0939  0.0146
  351TMC3    O2 5322   2.019   4.416   9.979 -0.2214 -0.2635 -0.1352
  352MPD2     C 5323   4.615   2.908   1.313 -0.3105  0.2770 -0.1463
  352MPD2    C1 5324   4.590   2.876   1.183 -0.6229 -0.7509  0.7830
  352MPD2    C2 5325   4.662   2.776   1.116 -0.1868  0.4071  0.0121
  352MPD2    C3 5326   0.036   2.719   1.182  0.4125 -0.4505  0.5527
  352MPD2    C4 5327   0.066   2.771   1.308  0.1210 -0.5475 -0.5709
  352MPD2    C5 5328   4.723   2.863   1.373 -0.0496  0.1328 -0.7264
  352MPD2     H 5329   4.625   2.736   1.022 -2.5431  1.6482  0.3904
  352MPD2    H1 5330   0.147   2.728   1.366  0.8475 -0.0917 -1.2446
  352MPD2    H2 5331   4.554   2.975   1.372  0.6368  2.0168 -1.1715
  352MPD2    H3 5332   0.005   2.885   1.477  1.4547  0.4040 -1.0341
  352MPD2     N 5333   0.104   2.611   1.141  0.2174  0.3496 -0.6220
  352MPD2    H5 5334   0.168   2.573   1.210  1.5367 -0.0001 -2.0227
  352MPD2    N1 5335   4.469   2.925   1.121 -0.9184 -0.0054 -0.3811
  352MPD2    H7 5336   4.413   2.990   1.176  0.6644  0.7047  0.3901
  353TMC3    C1 5337   0.162   2.399   1.046  0.5464  0.0028 -0.2943
  353TMC3    C2 5338   0.297   2.424   1.065 -0.0851  0.2767 -0.0825
  353TMC3    C3 5339   0.383   2.325   1.026 -0.5933  0.3376 -0.2074
  353TMC3    C4 5340   0.117   2.289   0.979  0.5155 -0.8998  0.2551
  353TMC3    C5 5341   0.207   2.190   0.952 -0.1003 -0.1212 -0.4399
  353TMC3    C6 5342   0.343   2.207   0.964  0.3913 -0.5582  0.1954
  353TMC3     C 5343   0.062   2.511   1.047  0.1278  0.6106 -0.1602
  353TMC3     O 5344   4.693   2.496   0.981 -0.0527  0.0790  0.0548
  353TMC3     H 5345   0.334   2.508   1.122  0.8851 -0.6930  0.7196
  353TMC3    H1 5346   0.013   2.274   0.956  1.0631 -3.0676 -0.8044
  353TMC3    H2 5347   0.405   2.118   0.957  0.5336 -0.3193 -1.7177
  353TMC3    C7 5348   0.156   2.057   0.942 -0.1950 -0.3318  0.3652
  353TMC3    C8 5349   0.523   2.352   1.067  0.3855 -0.8941 -0.0043
  353TMC3    O1 5350   0.200   1.985   0.853  0.2491 -0.0015 -0.0877
  353TMC3    O2 5351   0.550   2.461   1.119  0.3749  0.0974  0.5981
  354TMC3    C1 5352   1.522   2.827  13.547 -0.2183 -0.1795 -0.0483
  354TMC3    C2 5353   1.442   2.926  13.498 -0.2967  0.2742  0.0512
  354TMC3    C3 5354   1.440   2.940  13.365 -0.6699  0.1781 -0.4445
  354TMC3    C4 5355   1.577   2.727  13.479 -0.8924  0.0898 -0.6826
  354TMC3    C5 5356   1.552   2.732  13.346  0.2606  0.5558  0.5348
  354TMC3    C6 5357   1.493   2.842  13.287 -0.1051 -0.4926 -0.6725
  354TMC3     C 5358   1.542   2.826  13.691  0.2107 -0.3960  0.0409
  354TMC3     O 5359   1.469   2.904  13.758 -0.4004 -0.5278 -0.2373
  354TMC3     H 5360   1.395   3.002  13.558 -3.3428 -0.1823 -1.7433
  354TMC3    H1 5361   1.610   2.635  13.527  1.5351  1.2942 -0.0762
  354TMC3    H2 5362   1.487   2.856  13.179 -1.2601  1.4923 -0.3385
  354TMC3    C7 5363   1.631   2.648  13.259 -0.4374  1.4278  0.5692
  354TMC3    C8 5364   1.362   3.041  13.296 -0.1573 -0.0249  0.7137
  354TMC3    O1 5365   1.642   2.528  13.289 -0.0273  1.0724 -0.0841
  354TMC3    O2 5366   1.346   3.025  13.175 -0.5277  0.1426  0.2803
  355MPD2     C 5367   1.534   3.832  12.001  0.0039  0.8441  0.4603
  355MPD2    C1 5368   1.628   3.831  11.901  0.2187  0.4277 -0.1695
  355MPD2    C2 5369   1.738   3.745  11.927  0.1966  0.7885  0.1643
  355MPD2    C3 5370   1.745   3.664  12.035 -0.1760 -0.0298  0.1681
  355MPD2    C4 5371   1.649   3.673  12.129  0.3836  0.5223 -0.0764
  355MPD2    C5 5372   1.543   3.756  12.113  0.2498  0.3203  0.3244
  355MPD2     H 5373   1.826   3.739  11.864 -2.6785 -0.8163 -3.7414
  355MPD2    H1 5374   1.665   3.619  12.221  0.9420 -2.3150 -1.8248
  355MPD2    H2 5375   1.441   3.888  11.995 -0.1877  0.4260 -0.5550
  355MPD2    H3 5376   1.466   3.767  12.189  0.7022  1.0194  0.6735
  355MPD2     N 5377   1.862   3.590  12.070 -0.3326 -0.4369 -0.1346
  355MPD2    H5 5378   1.876   3.546  12.161 -0.2018  2.8060  1.4082
  355MPD2    N1 5379   1.616   3.916  11.784  0.5146  0.2403 -0.4071
  355MPD2    H7 5380   1.533   3.975  11.784  0.0860 -0.3561 -1.5039
  356TMC3    C1 5381   2.099   3.553  12.040 -0.0543  0.1263 -0.3365
  356TMC3    C2 5382   2.199   3.560  11.948  0.6081 -0.0070 -0.0796
  356TMC3    C3 5383   2.311   3.627  11.978  0.1927  1.0287 -0.0427
  356TMC3    C4 5384   2.108   3.618  12.158  0.0562 -0.4777  0.6388
  356TMC3    C5 5385   2.221   3.683  12.187  0.2751 -0.3387 -0.7161
  356TMC3    C6 5386   2.323   3.691  12.097 -0.4697 -0.2627  0.5024
  356TMC3     C 5387   1.966   3.558  11.978 -0.0883  0.1252  0.3720
  356TMC3     O 5388   1.973   3.548  11.855  0.1533  0.1034  0.5389
  356TMC3     H 5389   2.197   3.501  11.858 -1.1955 -1.8874  1.1981
  356TMC3    H1 5390   2.032   3.645  12.231 -0.2605 -1.2336  0.5895
  356TMC3    H2 5391   2.416   3.740  12.123 -0.4779  0.0473 -0.0589
  356TMC3    C7 5392   2.244   3.710  12.325 -0.2695 -0.2830 -0.3082
  356TMC3    C8 5393   2.368   3.688  11.862  0.4076 -0.1057 -0.3538
  356TMC3    O1 5394   2.191   3.635  12.406  0.4680 -0.3875  0.4040
  356TMC3    O2 5395   2.375   3.627  11.756  0.3227  0.3576  0.6013
  357MPD2     C 5396   1.053   4.637   1.160  0.2023  0.2887  0.1251
  357MPD2    C1 5397   1.052   4.505   1.115  0.0645  0.0323 -0.1397
  357MPD2    C2 5398   1.014   4.485   0.985  0.0016  0.3432 -0.2943
  357MPD2    C3 5399   0.966   4.583   0.895  0.1787  0.5550  0.5075
  357MPD2    C4 5400   0.952   4.710   0.955 -0.5736 -0.0644  0.0821
  357MPD2    C5 5401   1.002   0.001   1.074 -0.0652  0.0493  0.3259
  357MPD2     H 5402   1.023   4.384   0.947  0.2905 -0.0650  0.8766
  357MPD2    H1 5403   0.914   0.056   0.895  1.2082  2.9999  3.0865
  357MPD2    H2 5404   1.095   4.669   1.254  1.9628  3.9010 -1.8995
  357MPD2    H3 5405   1.008   0.103   1.113  1.3320 -0.1578  0.6438
  357MPD2     N 5406   0.938   4.553   0.763 -0.3235  0.7671  1.0380
  357MPD2    H5 5407   0.906   4.634   0.710 -2.9900 -0.5145  0.7051
  357MPD2    N1 5408   1.088   4.403   1.202  0.0629 -0.4945  0.3952
  357MPD2    H7 5409   1.110   4.426   1.298  0.5603  0.8325 -0.0525
  358TMC3    C1 5410   1.140   4.185   1.271 -0.0116 -0.4459 -0.2421
  358TMC3    C2 5411   1.125   4.048   1.240 -0.0409 -0.0269 -0.0747
  358TMC3    C3 5412   1.239   3.974   1.252 -0.4391 -0.2183 -0.6010
  358TMC3    C4 5413   1.253   4.235   1.335  0.8409  0.3844 -0.1879
  358TMC3    C5 5414   1.348   4.144   1.380  0.3789  0.6365 -0.1320
  358TMC3    C6 5415   1.346   4.013   1.337  0.2391  0.2756 -0.2537
  358TMC3     C 5416   1.062   4.266   1.182 -0.0921  0.1484 -0.3389
  358TMC3     O 5417   0.985   4.213   1.101  0.1290 -0.3609  0.2671
  358TMC3     H 5418   1.040   4.006   1.188  1.3380  0.3014 -2.5704
  358TMC3    H1 5419   1.259   4.341   1.357  0.0982  0.3807  0.0292
  358TMC3    H2 5420   1.447   3.974   1.335  0.6888  1.4271 -0.4212
  358TMC3    C7 5421   1.449   4.185   1.475  0.3004  0.0567 -0.0483
  358TMC3    C8 5422   1.274   3.873   1.148  1.2486  0.2812 -0.1129
  358TMC3    O1 5423   1.512   4.090   1.520 -0.1120 -0.1352  0.4782
  358TMC3    O2 5424   1.231   3.905   1.041  0.4894 -0.5311  0.4421
  359MPD2     C 5425   2.254   2.112  12.293  0.1361 -0.1958 -0.2526
  359MPD2    C1 5426   2.201   2.213  12.212  0.6795 -0.1829 -0.0484
  359MPD2    C2 5427   2.063   2.224  12.200 -0.3430 -0.1927 -0.7274
  359MPD2    C3 5428   1.973   2.161  12.285  0.3509  0.3687  0.3859
  359MPD2    C4 5429   2.029   2.075  12.381  0.1123  0.3198 -0.0668
  359MPD2    C5 5430   2.165   2.051  12.378  0.3009 -0.1875 -0.4289
  359MPD2     H 5431   2.021   2.291  12.126 -0.3703  0.2220 -0.3377
  359MPD2    H1 5432   1.964   2.032  12.456  0.2663 -0.7776 -0.5576
  359MPD2    H2 5433   2.358   2.084  12.291  0.0670 -0.4047 -1.1331
  359MPD2    H3 5434   2.202   1.971  12.441 -0.7316  0.7605  1.3882
  359MPD2     N 5435   1.834   2.188  12.291 -0.0996  0.3919  0.3064
  359MPD2    H5 5436   1.775   2.120  12.338  2.0522 -1.3409  0.5128
  359MPD2    N1 5437   2.289   2.282  12.122  0.0391  0.2431 -0.3025
  359MPD2    H7 5438   2.253   2.326  12.038 -1.7779 -3.2482 -1.3296
  360TMC3    C1 5439   2.496   2.343  12.035  0.2713  0.7505 -0.4556
  360TMC3    C2 5440   2.627   2.388  12.060  0.1818  0.4598  0.2776
  360TMC3    C3 5441   2.697   2.452  11.956 -0.0592  0.4547  0.3107
  360TMC3    C4 5442   2.448   2.331  11.909 -0.8802  0.4729  0.3546
  360TMC3    C5 5443   2.522   2.390  11.810  0.4345 -0.7148  0.1504
  360TMC3    C6 5444   2.637   2.458  11.836 -0.1558 -0.3487 -0.0621
  360TMC3     C 5445   2.421   2.303  12.148 -0.3301  0.6498 -0.1600
  360TMC3     O 5446   2.474   2.280  12.252 -0.0481  0.0169  0.2340
  360TMC3     H 5447   2.643   2.405  12.166 -0.9506  1.8997  0.2136
  360TMC3    H1 5448   2.349   2.287  11.895  0.5670 -2.1146 -1.8080
  360TMC3    H2 5449   2.694   2.516  11.765 -2.3798 -0.0744 -1.6477
  360TMC3    C7 5450   2.475   2.425  11.682  0.5188  0.0292 -0.5219
  360TMC3    C8 5451   2.756   2.580  11.977  0.2115 -0.7042  0.1562
  360TMC3    O1 5452   2.525   2.520  11.619 -0.4064  0.1007 -0.5357
  360TMC3    O2 5453   2.676   2.669  12.007 -0.7902 -0.1454 -0.3335
  361MPD2     C 5454   3.613   1.574  16.653  0.3716 -0.4323  0.2452
  361MPD2    C1 5455   3.645   1.680  16.736 -0.5040  0.6475 -0.7272
  361MPD2    C2 5456   3.770   1.686  16.796 -0.1372 -0.0779  0.1092
  361MPD2    C3 5457   3.857   1.582  16.778  0.2481 -0.0392 -0.2412
  361MPD2    C4 5458   3.824   1.477  16.692 -0.3094 -0.3118  0.4153
  361MPD2    C5 5459   3.706   1.475  16.633  0.5093  0.2862  0.5292
  361MPD2     H 5460   3.800   1.765  16.863  2.6315 -0.0272 -1.2122
  361MPD2    H1 5461   3.893   1.396  16.670  1.5459  1.4878 -0.5139
  361MPD2    H2 5462   3.526   1.574  16.589  1.1250 -1.0773 -0.7779
  361MPD2    H3 5463   3.684   1.406  16.553  1.4769  2.0222 -1.2493
  361MPD2     N 5464   3.983   1.586  16.837 -0.4477 -0.3930  0.5930
  361MPD2    H5 5465   4.035   1.498  16.832 -1.4909 -1.0457  1.2023
  361MPD2    N1 5466   3.555   1.779  16.759  0.2939 -0.2128 -0.3489
  361MPD2    H7 5467   3.582   1.844  16.832 -0.4718 -0.9826  0.6299
  362TMC3    C1 5468   3.331   1.869  16.784  0.6522  0.3251  1.0081
  362TMC3    C2 5469   3.201   1.837  16.816  0.3136  0.0473  0.1198
  362TMC3    C3 5470   3.110   1.941  16.805  0.0815  0.1001  0.1523
  362TMC3    C4 5471   3.368   1.990  16.732 -0.0410 -0.5069 -0.1662
  362TMC3    C5 5472   3.267   2.080  16.712 -0.7529  0.7301  0.0365
  362TMC3    C6 5473   3.136   2.063  16.745  0.0030  0.9657 -0.2251
  362TMC3     C 5474   3.420   1.765  16.737  0.8059  0.7459  0.0307
  362TMC3     O 5475   3.361   1.665  16.712 -0.2475 -0.1694 -0.8014
  362TMC3     H 5476   3.176   1.747  16.870  0.2794 -1.1524 -1.8900
  362TMC3    H1 5477   3.471   2.014  16.707 -0.0331  1.5138  1.7589
  362TMC3    H2 5478   3.052   2.126  16.720 -0.8859 -0.3075 -0.4959
  362TMC3    C7 5479   3.285   2.172  16.598  0.7450  0.6431  0.0268
  362TMC3    C8 5480   2.973   1.910  16.849  0.2192  0.3282  0.2412
  362TMC3    O1 5481   3.191   2.247  16.571 -0.0909  0.4491  0.4492
  362TMC3    O2 5482   2.949   1.793  16.851  0.2925 -0.0595 -0.0642
  363TMC3    C1 5483   2.447   0.286   9.674 -0.3130  0.4273  0.1058
  363TMC3    C2 5484   2.376   0.194   9.751  0.0546 -0.2008 -0.1431
  363TMC3    C3 5485   2.435   0.067   9.754 -0.1366  0.6406  0.0617
  363TMC3    C4 5486   2.562   0.253   9.610 -0.2880  0.3118 -0.2665
  363TMC3    C5 5487   2.621   0.127   9.630  0.0475 -0.9017  0.0666
  363TMC3    C6 5488   2.563   0.036   9.710 -0.2896 -0.4780 -0.6308
  363TMC3     C 5489   2.398   0.417   9.659 -0.2021  0.0256 -0.0278
  363TMC3     O 5490   2.432   0.474   9.557  0.1747 -0.4307  0.4010
  363TMC3     H 5491   2.274   0.210   9.782 -0.0669  0.9826 -1.1223
  363TMC3    H1 5492   2.610   0.312   9.532  2.8541 -0.1967  1.2846
  363TMC3    H2 5493   2.608   4.677   9.734 -1.9201 -1.0072  0.3394
  363TMC3    C7 5494   2.764   0.111   9.593  0.3657 -0.0670 -0.7310
  363TMC3    C8 5495   2.392   4.708   9.854  0.3941 -0.4690  0.1552
  363TMC3    O1 5496   2.827   0.212   9.561 -0.6003 -0.6747  0.1007
  363TMC3    O2 5497   2.338   0.010   9.959  0.1952 -0.1409 -0.3327
  364MPD2     C 5498   1.385   4.023  10.085  0.6393 -0.3141 -1.2926
  364MPD2    C1 5499   1.344   4.056  10.212  0.4670 -0.5667  0.2017
  364MPD2    C2 5500   1.355   3.954  10.314 -0.5481 -0.5062  0.1111
  364MPD2    C3 5501   1.424   3.838  10.281  0.2673  0.1006  0.5919
  364MPD2    C4 5502   1.456   3.812  10.153  0.0079  0.0735  0.3860
  364MPD2    C5 5503   1.443   3.904  10.052 -0.4889 -1.2097  0.1479
  364MPD2     H 5504   1.305   3.957  10.410 -0.6202 -2.3379  0.1310
  364MPD2    H1 5505   1.510   3.725  10.116 -0.2170 -0.2418  0.8060
  364MPD2    H2 5506   1.383   4.095  10.005  1.9907  0.0206 -1.0363
  364MPD2    H3 5507   1.473   3.878   9.951  1.3821  1.4748 -0.0014
  364MPD2     N 5508   1.449   3.729  10.370  0.3051  0.1443  0.2781
  364MPD2    H5 5509   1.485   3.647  10.321  1.2414  0.0487  1.1190
  364MPD2    N1 5510   1.274   4.171  10.234 -0.0495 -0.2756  0.3504
  364MPD2    H7 5511   1.277   4.234  10.154 -0.1156 -1.9657 -0.9918
  365TMC3    C1 5512   1.176   4.356  10.337 -0.0165  0.5123 -0.1152
  365TMC3    C2 5513   1.263   4.448  10.283  1.4337 -0.4632 -0.6525
  365TMC3    C3 5514   1.243   4.579  10.326 -0.6630  0.2230  0.1318
  365TMC3    C4 5515   1.084   4.389  10.431 -0.3395 -0.2314 -0.4143
  365TMC3    C5 5516   1.073   4.523  10.469  0.0780  0.1398  0.7771
  365TMC3    C6 5517   1.151   4.624  10.418 -0.3190  0.0308 -0.3425
  365TMC3     C 5518   1.217   4.218  10.347  0.0215  0.0448  0.3768
  365TMC3     O 5519   1.201   4.168  10.459  0.0616  0.1041 -0.0079
  365TMC3     H 5520   1.350   4.410  10.230  0.3516 -2.8345 -0.7135
  365TMC3    H1 5521   1.024   4.304  10.460 -1.6470  1.3527  1.4795
  365TMC3    H2 5522   1.136   4.729  10.436  1.2076  0.1718  0.1405
  365TMC3    C7 5523   0.999   4.543  10.597 -0.9062  0.0161 -0.1742
  365TMC3    C8 5524   1.310   4.681  10.241  0.3884 -0.5006  0.1064
  365TMC3    O1 5525   0.990   4.657  10.629 -1.1462  0.1471  0.3650
  365TMC3    O2 5526   1.310   0.065  10.268 -0.1574 -0.4771 -0.1074
  366MPD2     C 5527   4.096   4.249  15.460  1.2374  0.0122  0.0050
  366MPD2    C1 5528   4.198   4.338  15.486 -0.4382  0.5279  0.0590
  366MPD2    C2 5529   4.321   4.297  15.443 -0.4586  0.0556 -0.4806
  366MPD2    C3 5530   4.345   4.176  15.378 -0.3536 -0.0229 -0.0314
  366MPD2    C4 5531   4.239   4.094  15.343  0.9057 -0.7448 -0.9967
  366MPD2    C5 5532   4.116   4.130  15.387  0.5706  0.0478  0.2599
  366MPD2     H 5533   4.406   4.361  15.461  0.5211 -0.8851 -1.7546
  366MPD2    H1 5534   4.259   3.996  15.300 -1.8897 -0.9445 -1.8032
  366MPD2    H2 5535   3.990   4.259  15.478  1.3538  0.9201  0.2128
  366MPD2    H3 5536   4.036   4.058  15.376  0.4909  0.1145  0.3986
  366MPD2     N 5537   4.479   4.165  15.321  0.6513  0.3149  0.2948
  366MPD2    H5 5538   4.550   4.225  15.360  0.7298 -0.5864  1.5492
  366MPD2    N1 5539   4.175   4.469  15.535  0.0004  0.4307 -0.5365
  366MPD2    H7 5540   4.078   4.493  15.551 -0.1250  0.2072 -0.9587
  367TMC3    C1 5541   4.215   4.697  15.576  0.0210  0.5749  0.0495
  367TMC3    C2 5542   4.304   0.065  15.608 -0.2203  0.3407 -0.1218
  367TMC3    C3 5543   4.255   0.190  15.596 -0.0789  0.3467  0.5444
  367TMC3    C4 5544   4.094   4.727  15.518  0.1789  0.2777  0.6140
  367TMC3    C5 5545   4.058   0.120  15.498 -0.3666  0.4725 -0.7707
  367TMC3    C6 5546   4.132   0.225  15.546  0.1737  0.1628 -0.1953
  367TMC3     C 5547   4.271   4.564  15.572  0.1115 -0.0720 -0.4332
  367TMC3     O 5548   4.391   4.562  15.587  0.1263  0.3686  0.3010
  367TMC3     H 5549   4.401   0.054  15.655 -0.3536  1.1609  0.3519
  367TMC3    H1 5550   4.046   4.646  15.465  0.4064  0.2848  0.3972
  367TMC3    H2 5551   4.103   0.322  15.507  2.2389  0.4702 -0.9951
  367TMC3    C7 5552   3.953   0.155  15.406 -0.1866  0.1803 -0.2214
  367TMC3    C8 5553   4.355   0.296  15.619 -0.2959 -0.4946 -0.9018
  367TMC3    O1 5554   3.897   0.264  15.423 -0.3426 -0.6103  0.1554
  367TMC3    O2 5555   4.468   0.264  15.659  0.2343  0.3413  0.2948
  368MPD2     C 5556   0.702   1.395  13.325  0.3782 -0.1089  0.7053
  368MPD2    C1 5557   0.730   1.532  13.314  0.5363  0.3938  0.4448
  368MPD2    C2 5558   0.849   1.556  13.251  0.8870  0.5999 -0.1784
  368MPD2    C3 5559   0.934   1.459  13.189 -0.6742 -0.3268  0.2777
  368MPD2    C4 5560   0.888   1.328  13.197 -0.1449 -0.5505  0.1511
  368MPD2    C5 5561   0.768   1.295  13.263 -0.5379 -0.0620 -0.3325
  368MPD2     H 5562   0.878   1.659  13.234 -2.1251  1.6454  1.1674
  368MPD2    H1 5563   0.948   1.249  13.154  0.7324 -0.1954  0.7331
  368MPD2    H2 5564   0.618   1.370  13.389  1.0800  0.7296  1.9412
  368MPD2    H3 5565   0.729   1.193  13.261 -2.8120  0.8711 -3.5897
  368MPD2     N 5566   1.057   1.482  13.126  0.4177  0.1400  0.7411
  368MPD2    H5 5567   1.105   1.402  13.085 -0.6015 -0.8016  1.3810
  368MPD2    N1 5568   0.635   1.622  13.351 -0.5479  0.2686 -0.1977
  368MPD2    H7 5569   0.539   1.590  13.353 -0.7143  0.8054  0.5757
  369TMC3    C1 5570   0.577   1.850  13.317 -0.2594 -0.3766  0.6227
  369TMC3    C2 5571   0.635   1.942  13.228 -0.1722  0.1752  0.3016
  369TMC3    C3 5572   0.553   2.002  13.136 -0.1648 -0.0203 -0.0573
  369TMC3    C4 5573   0.441   1.833  13.320 -0.5257  0.5607 -0.1766
  369TMC3    C5 5574   0.370   1.903  13.228 -0.2219  0.4343 -0.5318
  369TMC3    C6 5575   0.418   1.985  13.132 -0.6272 -0.0207 -0.5698
  369TMC3     C 5576   0.672   1.758  13.374 -0.4408 -0.1870 -0.0593
  369TMC3     O 5577   0.782   1.810  13.385  0.1142 -0.3585  0.2209
  369TMC3     H 5578   0.743   1.947  13.223 -0.0179 -2.0665  1.1460
  369TMC3    H1 5579   0.394   1.766  13.391 -0.9988 -0.3377 -1.3399
  369TMC3    H2 5580   0.358   2.016  13.048  0.1036  0.6176 -0.8560
  369TMC3    C7 5581   0.229   1.908  13.244 -0.7511  0.4016  0.2242
  369TMC3    C8 5582   0.617   2.080  13.029 -0.4748  0.1475  0.3071
  369TMC3    O1 5583   0.186   1.807  13.300 -0.2972  0.2343 -0.0284
  369TMC3    O2 5584   0.531   2.138  12.967  0.0735 -0.2232 -0.4627
  370TMC3    C1 5585   0.173   2.353  16.110  0.4380 -0.0094  0.3127
  370TMC3    C2 5586   0.059   2.294  16.156 -0.0676 -0.1384  0.4185
  370TMC3    C3 5587   0.058   2.164  16.194 -0.0187  0.5661 -0.5465
  370TMC3    C4 5588   0.276   2.276  16.065 -0.5919  0.1050 -0.7660
  370TMC3    C5 5589   0.260   2.146  16.080 -0.1449  0.0216  0.2266
  370TMC3    C6 5590   0.164   2.088  16.157  0.0540 -0.1969  0.4510
  370TMC3     C 5591   0.217   2.464  16.195  0.2583  0.5490  0.8845
  370TMC3     O 5592   0.140   2.471  16.294 -0.2783  0.0134  0.0200
  370TMC3     H 5593   4.715   2.363  16.181  2.1450  2.8246 -0.7754
  370TMC3    H1 5594   0.365   2.316  16.018 -1.0011 -0.4323 -1.9900
  370TMC3    H2 5595   0.157   1.980  16.163 -0.6471 -0.1605  0.2629
  370TMC3    C7 5596   0.354   2.056  16.008 -0.5645 -0.1491 -0.1626
  370TMC3    C8 5597   0.018   2.141  16.329 -0.7634  0.4118 -1.0327
  370TMC3    O1 5598   0.436   2.101  15.929  0.2555 -0.3549 -0.1453
  370TMC3    O2 5599   4.725   2.030  16.374  0.1605 -0.1732  0.7234
  371TMC3    C1 5600   1.539   0.634  15.719 -0.3323 -0.4410 -0.9761
  371TMC3    C2 5601   1.475   0.636  15.839  0.1605  0.2062 -0.6435
  371TMC3    C3 5602   1.434   0.756  15.885  1.5349 -0.1910  0.5357
  371TMC3    C4 5603   1.576   0.743  15.647  0.2398 -0.1821  0.8492
  371TMC3    C5 5604   1.540   0.865  15.704 -0.4384  0.1526  0.7577
  371TMC3    C6 5605   1.462   0.872  15.820  0.0364 -0.2849  0.4364
  371TMC3     C 5606   1.598   0.509  15.679 -0.3133 -0.2553  0.3197
  371TMC3     O 5607   1.700   0.511  15.613 -0.2758 -0.0371  0.3841
  371TMC3     H 5608   1.468   0.545  15.897 -0.7328  0.3876 -0.4745
  371TMC3    H1 5609   1.622   0.732  15.549  0.5561 -0.4319  1.0257
  371TMC3    H2 5610   1.441   0.969  15.864 -4.6266 -1.1647  0.1519
  371TMC3    C7 5611   1.546   0.983  15.613  0.6561  0.2196 -0.3393
  371TMC3    C8 5612   1.406   0.771  16.026  0.4503 -0.9585  0.3612
  371TMC3    O1 5613   1.467   1.077  15.625 -0.3409 -0.0969  0.1888
  371TMC3    O2 5614   1.420   0.670  16.094 -0.0413 -0.1803 -0.1930
  372MPD2     C 5615   2.259   1.683  13.983 -0.0502  0.1706  0.7039
  372MPD2    C1 5616   2.182   1.666  14.094  0.0840 -0.0912  0.2543
  372MPD2    C2 5617   2.057   1.620  14.082 -0.0853 -0.1697  0.4398
  372MPD2    C3 5618   1.998   1.589  13.960 -0.6335  0.1291  0.9698
  372MPD2    C4 5619   2.081   1.601  13.851  0.0474  0.1244  1.0218
  372MPD2    C5 5620   2.211   1.641  13.866 -0.3140  0.0422  0.1222
  372MPD2     H 5621   2.003   1.602  14.174  1.4947 -1.1921  1.1826
  372MPD2    H1 5622   2.050   1.585  13.749  2.0520  0.2719  0.3820
  372MPD2    H2 5623   2.366   1.702  13.973 -0.1031 -1.0027 -2.3109
  372MPD2    H3 5624   2.265   1.639  13.772 -1.8689 -0.5109 -0.7688
  372MPD2     N 5625   1.860   1.565  13.953 -0.3703  1.0282 -0.4223
  372MPD2    H5 5626   1.815   1.566  14.044 -0.5076 -0.2758 -0.4889
  372MPD2    N1 5627   2.240   1.694  14.222 -0.3041  0.3989  0.0668
  372MPD2    H7 5628   2.177   1.679  14.301  1.0325  1.9104  1.4157
  373TMC3    C1 5629   1.644   1.545  13.867 -0.1879  0.0988  0.1428
  373TMC3    C2 5630   1.611   1.480  13.984 -0.1279  0.1247  0.9000
  373TMC3    C3 5631   1.482   1.442  13.998 -0.6636  0.2562  0.0859
  373TMC3    C4 5632   1.553   1.560  13.763 -0.0212  0.4315  0.1233
  373TMC3    C5 5633   1.437   1.499  13.775  1.0371 -0.5262 -0.9254
  373TMC3    C6 5634   1.391   1.446  13.895  0.5948 -0.1830 -0.5876
  373TMC3     C 5635   1.785   1.562  13.839 -0.0965  0.4946  0.5953
  373TMC3     O 5636   1.819   1.565  13.723 -0.1121 -0.0687  0.4090
  373TMC3     H 5637   1.685   1.456  14.059 -0.6584 -0.5511  1.2006
  373TMC3    H1 5638   1.586   1.605  13.670 -0.6538  0.3706 -0.1276
  373TMC3    H2 5639   1.290   1.409  13.904 -0.0170  0.9725 -2.7382
  373TMC3    C7 5640   1.344   1.492  13.659 -0.2003  0.8230 -0.1926
  373TMC3    C8 5641   1.466   1.344  14.103  0.4583  0.5799 -0.5222
  373TMC3    O1 5642   1.320   1.602  13.609  0.2707  0.0785  0.4117
  373TMC3    O2 5643   1.549   1.356  14.191  0.0854 -0.0554 -0.7520
  374TMC3    C1 5644   1.474   2.445   9.915 -0.0529  0.3267  0.3874
  374TMC3    C2 5645   1.600   2.500   9.894  0.1691 -0.5272 -0.3353
  374TMC3    C3 5646   1.603   2.596   9.793  0.7385  0.3746  0.0833
  374TMC3    C4 5647   1.363   2.487   9.848  0.8209  0.1639  0.1255
  374TMC3    C5 5648   1.367   2.582   9.743 -0.3217 -0.4311 -0.3216
  374TMC3    C6 5649   1.493   2.635   9.716 -0.3394  0.1145  0.2115
  374TMC3     C 5650   1.471   2.325  10.004 -0.0249 -0.6793 -0.2285
  374TMC3     O 5651   1.585   2.282  10.019  0.6932 -0.4103 -0.3847
  374TMC3     H 5652   1.685   2.454   9.942  0.7930 -1.2441 -2.1093
  374TMC3    H1 5653   1.271   2.439   9.879  0.1913  1.2131 -0.1304
  374TMC3    H2 5654   1.507   2.705   9.635 -0.3046  0.5775  0.6146
  374TMC3    C7 5655   1.261   2.610   9.651 -0.1899 -0.3636 -0.1491
  374TMC3    C8 5656   1.722   2.671   9.784  0.4882  0.1443 -0.2500
  374TMC3    O1 5657   1.283   2.680   9.554 -0.3844  0.2450 -0.0619
  374TMC3    O2 5658   1.766   2.687   9.673 -0.5142 -0.2025  0.0644
  375MPD2     C 5659   1.542   3.587  16.724 -0.5458 -0.1235 -1.1058
  375MPD2    C1 5660   1.438   3.495  16.734 -0.0196 -0.1275 -0.0276
  375MPD2    C2 5661   1.456   3.356  16.729 -0.9649  0.3761  0.4798
  375MPD2    C3 5662   1.580   3.299  16.719 -0.4648  0.2893 -0.4287
  375MPD2    C4 5663   1.684   3.395  16.717 -0.4335  0.5069  0.7462
  375MPD2    C5 5664   1.668   3.533  16.714 -0.4986  0.5032 -0.1811
  375MPD2     H 5665   1.367   3.296  16.745 -1.9316  1.7473  0.2780
  375MPD2    H1 5666   1.785   3.358  16.702  0.0310  1.3049  1.9322
  375MPD2    H2 5667   1.534   3.694  16.738  1.3383 -0.1067 -0.1565
  375MPD2    H3 5668   1.755   3.598  16.712  1.3246 -1.9271 -0.3425
  375MPD2     N 5669   1.623   3.163  16.726 -0.7099  0.7060 -0.2379
  375MPD2    H5 5670   1.721   3.138  16.727 -0.9073 -0.0983 -0.6663
  375MPD2    N1 5671   1.304   3.535  16.757 -0.3459 -0.0602 -0.5714
  375MPD2    H7 5672   1.224   3.475  16.738 -0.1901 -0.9673  1.7128
  376TMC3    C1 5673   1.577   2.934  16.706  0.1120  0.1534 -0.9741
  376TMC3    C2 5674   1.711   2.907  16.709 -0.1718  0.1078  0.1198
  376TMC3    C3 5675   1.742   2.772  16.694 -0.3414 -0.3636  0.2208
  376TMC3    C4 5676   1.478   2.839  16.692  0.6359 -0.2711  0.0619
  376TMC3    C5 5677   1.516   2.714  16.666  0.7407  0.5997 -0.8576
  376TMC3    C6 5678   1.649   2.674  16.662 -0.0273 -0.5412 -0.0811
  376TMC3     C 5679   1.524   3.061  16.747 -0.1359  1.1530 -0.5191
  376TMC3     O 5680   1.405   3.076  16.768  0.2465 -0.7207  0.1174
  376TMC3     H 5681   1.787   2.977  16.742  1.0365 -0.0437 -2.3364
  376TMC3    H1 5682   1.376   2.871  16.675  0.6905 -0.6724 -1.0529
  376TMC3    H2 5683   1.668   2.568  16.650  0.9780 -0.0107 -2.9202
  376TMC3    C7 5684   1.429   2.629  16.584  0.2309 -0.3398 -0.2739
  376TMC3    C8 5685   1.882   2.731  16.672  0.2515  0.2948  0.3289
  376TMC3    O1 5686   1.315   2.607  16.620  0.3855 -0.3543  0.2741
  376TMC3    O2 5687   1.963   2.822  16.673 -0.4102  0.7837  0.3609
  377MPD2     C 5688   4.146   2.385  12.446 -0.0801  0.7643 -0.5057
  377MPD2    C1 5689   4.163   2.309  12.559  0.0919 -0.0294  0.2217
  377MPD2    C2 5690   4.050   2.251  12.616 -0.1379  0.1587 -0.0308
  377MPD2    C3 5691   3.923   2.275  12.565  0.0803 -0.2114  0.6616
  377MPD2    C4 5692   3.906   2.336  12.441 -0.2808 -0.4438  0.2693
  377MPD2    C5 5693   4.018   2.405  12.396  0.1490  0.5256 -0.4768
  377MPD2     H 5694   4.054   2.202  12.712  1.2132  1.0201  0.3478
  377MPD2    H1 5695   3.810   2.360  12.397 -0.4743  1.6552  1.7980
  377MPD2    H2 5696   4.231   2.436  12.401  1.1939  0.4180  1.5394
  377MPD2    H3 5697   4.014   2.468  12.308 -0.3253 -1.4780 -1.8929
  377MPD2     N 5698   3.808   2.222  12.627  0.1358  0.8910 -0.2131
  377MPD2    H5 5699   3.723   2.261  12.587  0.9331 -0.0664 -2.9062
  377MPD2    N1 5700   4.292   2.292  12.597 -0.4122 -0.1947  0.3855
  377MPD2    H7 5701   4.360   2.328  12.530 -0.1597  0.6931  1.1174
  378TMC3    C1 5702   4.678   2.309  12.647  0.0280 -0.2546  0.3683
  378TMC3    C2 5703   4.540   2.325  12.652 -0.4684  0.0977 -0.2684
  378TMC3    C3 5704   4.474   2.222  12.712  0.1150 -0.1274 -0.3884
  378TMC3    C4 5705   0.007   2.212  12.709 -0.0260  0.3291 -0.3108
  378TMC3    C5 5706   4.670   2.115  12.777 -0.0012  0.1765 -0.8609
  378TMC3    C6 5707   4.533   2.110  12.777  0.7067 -0.4083 -0.3294
  378TMC3     C 5708   0.008   2.384  12.541  0.4020 -0.2052  0.5118
  378TMC3     O 5709   4.668   2.460  12.492  0.6208 -0.1409  0.1651
  378TMC3     H 5710   4.493   2.415  12.614 -0.6527 -1.2691 -3.2773
  378TMC3    H1 5711   0.115   2.226  12.716  0.0874 -0.3165 -0.8161
  378TMC3    H2 5712   4.479   2.037  12.836  2.3283 -1.3933 -0.0754
  378TMC3    C7 5713   0.004   2.002  12.832  0.4563  0.4149  0.7948
  378TMC3    C8 5714   4.334   2.225  12.708 -0.3764 -0.2037  0.2739
  378TMC3    O1 5715   4.672   1.909  12.870  0.0998  0.6099  0.0833
  378TMC3    O2 5716   4.274   2.160  12.794  0.4438 -0.0789 -0.0002
  379MPD2     C 5717   0.296   0.968  16.387 -0.1933  0.9541 -0.8755
  379MPD2    C1 5718   0.387   0.887  16.318  0.2035 -0.6095 -0.7606
  379MPD2    C2 5719   0.506   0.854  16.381  0.1194  0.2431  0.4652
  379MPD2    C3 5720   0.537   0.903  16.503  0.0920 -0.1339 -0.3466
  379MPD2    C4 5721   0.441   0.966  16.569 -0.7192  1.0111  0.4767
  379MPD2    C5 5722   0.322   1.009  16.516 -0.3308  0.2666  0.2686
  379MPD2     H 5723   0.573   0.784  16.332  0.0252 -1.0213  2.1460
  379MPD2    H1 5724   0.472   1.006  16.665 -1.1982  0.1011  1.0159
  379MPD2    H2 5725   0.198   0.999  16.354 -0.4452  1.7866  0.6446
  379MPD2    H3 5726   0.253   1.079  16.562 -0.7879  0.1321 -0.2081
  379MPD2     N 5727   0.658   0.868  16.568  0.0566 -0.0469  0.3385
  379MPD2    H5 5728   0.666   0.880  16.669 -0.6945  1.2444  0.2461
  379MPD2    N1 5729   0.353   0.838  16.193  0.2482  0.7587  0.4144
  379MPD2    H7 5730   0.253   0.845  16.173  0.3185  2.2715  0.6323
  380TMC3    C1 5731   0.374   0.707  15.992 -0.3391  0.1368 -0.0269
  380TMC3    C2 5732   0.451   0.609  15.930 -0.6992  0.1946  0.2249
  380TMC3    C3 5733   0.381   0.523  15.846  0.2829  0.0856  0.0402
  380TMC3    C4 5734   0.255   0.749  15.938 -0.0625  0.4483  0.0594
  380TMC3    C5 5735   0.192   0.665  15.857  0.0624 -0.0329 -0.1326
  380TMC3    C6 5736   0.255   0.550  15.812  0.0621  0.5618 -0.2695
  380TMC3     C 5737   0.437   0.785  16.098  0.2309  0.4109  0.2826
  380TMC3     O 5738   0.559   0.777  16.100 -0.1597  0.2626  0.8445
  380TMC3     H 5739   0.553   0.586  15.960 -0.3160 -0.3104 -1.4735
  380TMC3    H1 5740   0.198   0.834  15.972  0.9042  1.1732 -0.1511
  380TMC3    H2 5741   0.211   0.488  15.735 -0.2727 -1.3844  1.4866
  380TMC3    C7 5742   0.089   0.723  15.780  0.0966  0.8312 -0.0698
  380TMC3    C8 5743   0.450   0.437  15.749  0.1830  0.1467 -0.5558
  380TMC3    O1 5744   0.077   0.847  15.771 -0.5086  0.1783 -0.4530
  380TMC3    O2 5745   0.400   0.428  15.638 -0.5000 -0.6387  0.1450
  381TMC3    C1 5746   0.041   1.486  16.402 -0.4574  0.3686  0.0472
  381TMC3    C2 5747   0.117   1.595  16.355 -0.2357 -0.8142 -0.0773
  381TMC3    C3 5748   0.114   1.709  16.423 -0.8017 -1.2570 -0.4017
  381TMC3    C4 5749   4.688   1.505  16.504 -0.5769  0.4173 -0.6810
  381TMC3    C5 5750   4.688   1.623  16.569 -0.1092  0.0999 -0.0480
  381TMC3    C6 5751   0.039   1.726  16.537 -0.2060  0.0518 -0.3994
  381TMC3     C 5752   0.045   1.366  16.325 -0.1575 -0.0621 -0.0903
  381TMC3     O 5753   4.677   1.300  16.330  0.6730 -0.0196  0.0752
  381TMC3     H 5754   0.184   1.586  16.270 -0.2602  1.4872 -0.3332
  381TMC3    H1 5755   4.616   1.429  16.531  0.6129 -0.5234 -0.1782
  381TMC3    H2 5756   0.046   1.823  16.586  0.1400  1.0441 -2.4195
  381TMC3    C7 5757   4.621   1.621  16.696 -0.1982  0.0874 -0.3882
  381TMC3    C8 5758   0.211   1.808  16.389  0.0867 -0.3324 -0.6686
  381TMC3    O1 5759   4.617   1.510  16.750 -0.4045 -0.2987 -0.4918
  381TMC3    O2 5760   0.256   1.805  16.276 -0.6568  0.2033 -0.5247
  382MPD2     C 5761   4.064   3.578   0.442 -0.6109  0.1224  0.5426
  382MPD2    C1 5762   4.132   3.642   0.346 -0.3632  0.3155 -0.0604
  382MPD2    C2 5763   4.121   3.602   0.217  0.0433  0.1436 -0.0743
  382MPD2    C3 5764   4.033   3.498   0.192 -0.1442 -0.8459  0.6556
  382MPD2    C4 5765   3.960   3.432   0.286  0.7998  0.0878  0.0242
  382MPD2    C5 5766   3.978   3.477   0.413 -0.5554 -0.4917  0.2804
  382MPD2     H 5767   4.172   3.653   0.136  0.4576 -0.9971 -0.5300
  382MPD2    H1 5768   3.913   3.336   0.272 -0.7632  0.9999 -1.1007
  382MPD2    H2 5769   4.072   3.607   0.546  0.9451 -0.8177  0.6806
  382MPD2    H3 5770   3.929   3.421   0.492 -2.6999  1.1593  0.1049
  382MPD2     N 5771   4.028   3.458   0.062 -0.0261  0.2676 -0.4477
  382MPD2    H5 5772   4.099   3.491  17.740  0.8896  0.1689  0.5375
  382MPD2    N1 5773   4.211   3.755   0.361 -0.5792 -0.4041 -0.0638
  382MPD2    H7 5774   4.234   3.802   0.274  1.5879 -1.8847 -0.2766
  383TMC3    C1 5775   3.976   3.317  17.629 -0.5038  0.1132  0.3714
  383TMC3    C2 5776   3.870   3.278  17.545  0.4881  0.3285  0.1113
  383TMC3    C3 5777   3.901   3.202  17.434  0.0319 -0.7879  0.1746
  383TMC3    C4 5778   4.103   3.277  17.614  0.1757 -0.2088 -0.0365
  383TMC3    C5 5779   4.122   3.188  17.501 -0.4070 -1.0485  0.4979
  383TMC3    C6 5780   4.026   3.153  17.410  0.1986  0.0874  0.5595
  383TMC3     C 5781   3.933   3.385   0.009 -0.0422  0.4622 -0.0471
  383TMC3     O 5782   3.819   3.382   0.047  0.1643 -0.1008  0.0224
  383TMC3     H 5783   3.769   3.312  17.564  1.4074  2.4372  1.2489
  383TMC3    H1 5784   4.178   3.313  17.683  2.1114 -0.6447 -1.9127
  383TMC3    H2 5785   4.056   3.098  17.321  0.2614 -0.3333  0.8393
  383TMC3    C7 5786   4.262   3.164  17.459  0.4093 -0.7696 -0.1490
  383TMC3    C8 5787   3.792   3.174  17.334 -0.1286  0.5086  0.2717
  383TMC3    O1 5788   4.286   3.148  17.340  0.3026  0.0910  0.5569
  383TMC3    O2 5789   3.704   3.257  17.317 -0.0442  0.3195  0.0906
  384MPD2     C 5790   0.661   0.071  12.218  0.3031  0.7924  0.2668
  384MPD2    C1 5791   0.718   0.016  12.331  0.1758  0.1050 -0.2873
  384MPD2    C2 5792   0.818   4.657  12.318  0.0205 -0.4792 -0.7874
  384MPD2    C3 5793   0.856   4.610  12.192 -0.8138 -0.0346  0.1096
  384MPD2    C4 5794   0.797   4.664  12.080 -0.1545  1.5803 -0.0602
  384MPD2    C5 5795   0.700   0.028  12.095 -0.1219 -0.0401 -0.5919
  384MPD2     H 5796   0.862   4.603  12.401  1.0781  0.4004 -0.7636
  384MPD2    H1 5797   0.824   4.626  11.983  3.8711 -3.2924  2.9526
  384MPD2    H2 5798   0.582   0.143  12.233  0.1355  0.8071 -0.7075
  384MPD2    H3 5799   0.653   0.065  12.004 -0.6688 -1.2537 -0.8062
  384MPD2     N 5800   0.962   4.517  12.183 -0.0814 -0.3974  0.7094
  384MPD2    H5 5801   0.999   4.488  12.273  3.1969  1.2151 -0.1130
  384MPD2    N1 5802   0.680   0.040  12.462  0.2991  0.1392  0.0767
  384MPD2    H7 5803   0.742   0.001  12.532 -1.5850 -2.1629  0.4716
  385TMC3    C1 5804   1.112   4.369  12.099  1.0107 -0.3135 -0.2711
  385TMC3    C2 5805   1.081   4.245  12.054  0.0448 -0.2481  0.0305
  385TMC3    C3 5806   1.082   4.134  12.135  0.3461  0.5092 -0.0476
  385TMC3    C4 5807   1.144   4.374  12.235 -0.1028 -0.4707  0.2833
  385TMC3    C5 5808   1.137   4.264  12.319 -0.0956 -0.3792 -0.7604
  385TMC3    C6 5809   1.100   4.145  12.272  0.7942  0.2334 -0.2657
  385TMC3     C 5810   1.015   4.468  12.067 -0.6836 -0.0839  0.2426
  385TMC3     O 5811   0.992   4.483  11.950  0.1676 -0.6495  0.0213
  385TMC3     H 5812   1.040   4.244  11.954 -0.8196 -1.8741  0.3798
  385TMC3    H1 5813   1.173   4.470  12.277  2.7757 -1.7869  1.3025
  385TMC3    H2 5814   1.086   4.057  12.333  1.8117  0.0887 -0.2458
  385TMC3    C7 5815   1.081   4.300  12.450 -0.3974  0.3230 -0.0333
  385TMC3    C8 5816   1.091   4.004  12.076 -0.0672  0.3495  1.0644
  385TMC3    O1 5817   1.051   4.423  12.457 -0.1478 -0.3474  0.0738
  385TMC3    O2 5818   1.122   3.917  12.158  0.0713 -0.2738  0.2181
  386TMC3    C1 5819   1.470   2.448  11.696  0.2149  0.3590  0.1876
  386TMC3    C2 5820   1.509   2.540  11.603 -0.4238  0.7561  0.9446
  386TMC3    C3 5821   1.417   2.637  11.590 -0.4992 -0.0641 -0.7441
  386TMC3    C4 5822   1.358   2.441  11.767 -0.0036 -1.0036  0.4855
  386TMC3    C5 5823   1.268   2.541  11.748  0.0741 -0.5189 -0.0177
  386TMC3    C6 5824   1.305   2.645  11.667 -0.2522  0.7137  0.1064
  386TMC3     C 5825   1.572   2.346  11.730 -0.0708  0.3032 -1.1905
  386TMC3     O 5826   1.690   2.372  11.707  0.1454  0.2575 -0.4340
  386TMC3     H 5827   1.604   2.531  11.551 -0.6289 -0.2025  0.7303
  386TMC3    H1 5828   1.341   2.363  11.841 -1.7057 -0.3487  0.7593
  386TMC3    H2 5829   1.248   2.737  11.664 -1.7806 -0.2390 -0.1504
  386TMC3    C7 5830   1.146   2.546  11.822  0.6953 -0.2135 -0.2549
  386TMC3    C8 5831   1.396   2.698  11.464 -0.2511 -0.9334 -0.7088
  386TMC3    O1 5832   1.137   2.481  11.928  0.1704  0.0150 -0.3811
  386TMC3    O2 5833   1.303   2.779  11.461  0.2718  0.3127  0.1432
  387MPD2     C 5834   3.521   2.883   9.992  0.4596 -0.1088  0.6135
  387MPD2    C1 5835   3.586   2.831  10.097  0.0152  0.0452 -0.2281
  387MPD2    C2 5836   3.609   2.694  10.099  0.2246  0.3154 -0.5498
  387MPD2    C3 5837   3.548   2.611  10.009  0.9841  0.3628 -0.2356
  387MPD2    C4 5838   3.468   2.664   9.914 -0.5287 -0.5142  0.3777
  387MPD2    C5 5839   3.465   2.802   9.899  0.0458  1.0110 -0.0831
  387MPD2     H 5840   3.670   2.650  10.177  0.8355 -1.6832 -2.1745
  387MPD2    H1 5841   3.425   2.605   9.833  1.8237 -1.0802 -0.4546
  387MPD2    H2 5842   3.511   2.990   9.981 -2.1860 -0.3281  0.7135
  387MPD2    H3 5843   3.414   2.844   9.813 -0.5262  0.8043  0.1547
  387MPD2     N 5844   3.568   2.477  10.037  0.1612  0.0310  0.2873
  387MPD2    H5 5845   3.636   2.445  10.106  1.9359  2.1378 -0.4841
  387MPD2    N1 5846   3.656   2.909  10.193 -0.2094  0.0090  0.4426
  387MPD2    H7 5847   3.690   2.857  10.273  2.7147  2.0171  0.5182
  388TMC3    C1 5848   3.794   3.066  10.294  0.0600  0.4281  0.2096
  388TMC3    C2 5849   3.799   3.172  10.372 -0.1588  0.3531  0.8340
  388TMC3    C3 5850   3.910   3.187  10.456  0.2552 -0.3064  0.3277
  388TMC3    C4 5851   3.894   2.972  10.287 -0.1036 -0.4551 -0.0965
  388TMC3    C5 5852   3.998   2.992  10.370  0.0311  0.2774  0.0480
  388TMC3    C6 5853   4.012   3.099  10.455 -0.5578  0.0015 -0.0223
  388TMC3     C 5854   3.684   3.046  10.193  0.1787 -0.6931  0.0747
  388TMC3     O 5855   3.632   3.131  10.126 -0.3912 -0.4315  0.9273
  388TMC3     H 5856   3.712   3.237  10.380  0.0032  0.7122 -0.3898
  388TMC3    H1 5857   3.908   2.908  10.201 -2.2441 -0.4035 -0.4770
  388TMC3    H2 5858   4.095   3.104  10.525 -0.4011  1.0196 -0.2689
  388TMC3    C7 5859   4.081   2.885  10.404 -0.9204 -0.6485 -0.5094
  388TMC3    C8 5860   3.916   3.282  10.567 -0.0796  0.2620  0.2913
  388TMC3    O1 5861   4.189   2.906  10.462 -0.3119 -0.3062  0.1891
  388TMC3    O2 5862   4.007   3.264  10.648 -0.8591  0.0835  0.1196
  389MPD2     C 5863   2.665   0.560  10.871  0.3394 -0.6738  0.4312
  389MPD2    C1 5864   2.572   0.659  10.890  0.2447  0.0316  0.1082
  389MPD2    C2 5865   2.483   0.635  10.994 -0.3887  0.7252  0.1573
  389MPD2    C3 5866   2.480   0.513  11.064 -0.0609 -0.7171 -0.1816
  389MPD2    C4 5867   2.583   0.421  11.046 -0.0966  0.0103 -0.6038
  389MPD2    C5 5868   2.675   0.450  10.955  0.5066  0.0149  0.1854
  389MPD2     H 5869   2.418   0.717  11.021 -0.8390 -0.1218  1.6743
  389MPD2    H1 5870   2.591   0.331  11.107 -1.9974  1.0864  1.2451
  389MPD2    H2 5871   2.738   0.569  10.791 -1.5037 -2.0063 -1.3847
  389MPD2    H3 5872   2.753   0.378  10.934  1.4259  0.6954  1.2848
  389MPD2     N 5873   2.383   0.502  11.163 -0.1585 -0.1303 -0.7268
  389MPD2    H5 5874   2.317   0.577  11.180  0.1964  0.3519 -1.4498
  389MPD2    N1 5875   2.572   0.775  10.812  0.0176  0.6063 -0.6496
  389MPD2    H7 5876   2.649   0.801  10.751 -2.1261  2.0627 -2.7267
  390TMC3    C1 5877   2.269   0.380  11.322 -0.2395  0.0526  0.2178
  390TMC3    C2 5878   2.193   0.263  11.329 -0.6730 -0.6015 -0.5709
  390TMC3    C3 5879   2.137   0.232  11.446 -0.5034 -0.1190  0.0945
  390TMC3    C4 5880   2.306   0.449  11.436 -0.3219 -0.2111  0.5630
  390TMC3    C5 5881   2.255   0.412  11.559 -0.2386 -0.2402 -0.2599
  390TMC3    C6 5882   2.160   0.311  11.564  0.2711 -0.2185 -0.1880
  390TMC3     C 5883   2.356   0.380  11.209  0.9891 -0.0338  0.1660
  390TMC3     O 5884   2.360   0.271  11.151  0.1592 -0.0432 -0.0568
  390TMC3     H 5885   2.159   0.209  11.242 -1.5079  0.1764 -0.7297
  390TMC3    H1 5886   2.373   0.535  11.435 -1.9532  1.0299 -2.3228
  390TMC3    H2 5887   2.121   0.278  11.660 -0.9729  0.3664 -0.4942
  390TMC3    C7 5888   2.295   0.477  11.674  0.3820  0.5464 -0.2780
  390TMC3    C8 5889   2.050   0.119  11.462  0.2096  0.6076  0.5882
  390TMC3    O1 5890   2.352   0.584  11.656  0.0514 -1.1445  0.6994
  390TMC3    O2 5891   2.047   0.043  11.365 -0.6897  0.2461 -0.4073
  391MPD2     C 5892   2.280   2.071  11.105  0.5625 -0.0643  0.2229
  391MPD2    C1 5893   2.376   2.161  11.103 -0.4086  0.5133 -0.2324
  391MPD2    C2 5894   2.382   2.244  10.997 -0.4914 -0.5929 -0.5679
  391MPD2    C3 5895   2.291   2.246  10.890 -0.4892  0.1605  0.4412
  391MPD2    C4 5896   2.195   2.149  10.892  0.1430  0.5873  0.0300
  391MPD2    C5 5897   2.186   2.060  10.998 -0.0439 -0.1605 -0.0049
  391MPD2     H 5898   2.450   2.328  10.992 -1.0856 -0.1688 -1.6881
  391MPD2    H1 5899   2.110   2.148  10.825  0.3359  1.7029 -0.2323
  391MPD2    H2 5900   2.271   2.002  11.188 -3.0239  1.8973  1.4502
  391MPD2    H3 5901   2.111   1.982  10.998  2.1162 -2.1741 -3.4390
  391MPD2     N 5902   2.289   2.360  10.800 -1.2459  0.3820 -0.0068
  391MPD2    H5 5903   2.355   2.435  10.816 -0.5928 -0.0739 -0.5953
  391MPD2    N1 5904   2.458   2.167  11.214  0.1836 -0.3455  0.4345
  391MPD2    H7 5905   2.436   2.106  11.293  1.1536 -1.3449 -0.0673
  392TMC3    C1 5906   2.213   2.516  10.630 -0.1671  0.5993 -0.0393
  392TMC3    C2 5907   2.153   2.513  10.509 -0.6239 -0.5350  0.3541
  392TMC3    C3 5908   2.190   2.605  10.419 -0.3428  0.0501 -0.1677
  392TMC3    C4 5909   2.318   2.604  10.654  0.0510  0.0040  0.1530
  392TMC3    C5 5910   2.336   2.706  10.567  0.1993  0.0078  0.5619
  392TMC3    C6 5911   2.278   2.712  10.447  0.2615 -0.5714 -0.5040
  392TMC3     C 5912   2.185   2.395  10.714  0.0190 -0.0630 -0.1468
  392TMC3     O 5913   2.085   2.339  10.678  0.1370 -0.1775  0.1805
  392TMC3     H 5914   2.074   2.445  10.477 -0.2692 -0.2235 -1.1831
  392TMC3    H1 5915   2.367   2.605  10.751 -0.0422  2.4479  0.1881
  392TMC3    H2 5916   2.279   2.804  10.390 -2.4037 -0.5363 -0.4856
  392TMC3    C7 5917   2.448   2.794  10.602 -0.9161  0.3007  0.4775
  392TMC3    C8 5918   2.111   2.613  10.299  0.8227 -0.1287 -0.1443
  392TMC3    O1 5919   2.495   2.785  10.715  0.5024 -0.2000 -0.1177
  392TMC3    O2 5920   2.012   2.540  10.299  0.1779  0.2658 -0.4708
  393TMC3    C1 5921   0.563   0.535  11.071  0.1918 -0.1257  0.2080
  393TMC3    C2 5922   0.442   0.530  11.140 -0.5434 -0.8735  0.9006
  393TMC3    C3 5923   0.380   0.411  11.155  0.0003 -0.2913 -0.7083
  393TMC3    C4 5924   0.622   0.421  11.039 -0.2705  0.8037 -0.6121
  393TMC3    C5 5925   0.554   0.298  11.044  0.0495 -0.4185  0.0984
  393TMC3    C6 5926   0.431   0.297  11.101  0.2183 -0.0146  0.2355
  393TMC3     C 5927   0.620   0.665  11.063  0.1257  0.6851 -0.2713
  393TMC3     O 5928   0.601   0.730  11.167 -0.4607 -0.2351  0.1135
  393TMC3     H 5929   0.384   0.617  11.168  0.9185  0.9031 -1.6033
  393TMC3    H1 5930   0.724   0.427  11.002 -0.0447  2.0563  0.2196
  393TMC3    H2 5931   0.373   0.206  11.111 -0.7455  0.6598  0.7833
  393TMC3    C7 5932   0.631   0.184  11.088 -0.8444  0.5047 -0.6151
  393TMC3    C8 5933   0.270   0.391  11.254 -0.0371 -0.3008 -0.5208
  393TMC3    O1 5934   0.572   0.114  11.165 -0.5391 -0.4197 -0.8171
  393TMC3    O2 5935   0.203   0.289  11.240  0.1695 -0.0856 -0.4230
  394TMC3    C1 5936   2.470   0.963  10.702  0.0629  0.1871  0.3143
  394TMC3    C2 5937   2.367   0.974  10.616  0.4157  0.3857  0.1521
  394TMC3    C3 5938   2.379   1.065  10.513 -0.1398 -0.8271  0.3578
  394TMC3    C4 5939   2.587   1.032  10.691  0.3711  0.6292  0.3001
  394TMC3    C5 5940   2.589   1.129  10.599 -0.4760  0.4949 -0.3676
  394TMC3    C6 5941   2.483   1.146  10.509 -0.4750  0.1790 -0.4037
  394TMC3     C 5942   2.465   0.864  10.806 -0.5149 -0.9603 -0.1834
  394TMC3     O 5943   2.349   0.852  10.858 -0.4268 -0.2426  0.5516
  394TMC3     H 5944   2.277   0.913  10.618 -0.8440  2.2373 -0.1315
  394TMC3    H1 5945   2.664   1.008  10.763  2.2460 -0.1379 -1.9560
  394TMC3    H2 5946   2.473   1.224  10.435  1.8244  1.9670  1.1729
  394TMC3    C7 5947   2.693   1.225  10.602  0.5749  0.5355 -0.4933
  394TMC3    C8 5948   2.363   0.999  10.385  0.4286  0.8588  0.0460
  394TMC3    O1 5949   2.684   1.314  10.522 -0.1476  0.4589 -0.4306
  394TMC3    O2 5950   2.377   1.067  10.284  0.3928 -0.2543  0.1053
  395TMC3    C1 5951   2.614   2.489  14.989 -0.4617 -0.2615  0.5130
  395TMC3    C2 5952   2.491   2.529  14.961  0.4818 -0.4325  1.1485
  395TMC3    C3 5953   2.475   2.611  14.852  0.1637  0.1250  0.7551
  395TMC3    C4 5954   2.726   2.529  14.930 -1.1477 -0.7189 -1.0782
  395TMC3    C5 5955   2.710   2.612  14.828 -0.1875  0.1829 -0.0271
  395TMC3    C6 5956   2.591   2.645  14.776  0.0002  0.5092 -0.2423
  395TMC3     C 5957   2.622   2.414  15.107  0.1090 -0.1279  0.0371
  395TMC3     O 5958   2.540   2.427  15.194 -0.0932  0.0821 -0.4386
  395TMC3     H 5959   2.403   2.490  15.012  0.0827 -0.5822  0.3436
  395TMC3    H1 5960   2.824   2.495  14.964  0.2466  2.3140 -2.0667
  395TMC3    H2 5961   2.572   2.725  14.705 -2.9035  0.3907  0.4241
  395TMC3    C7 5962   2.815   2.696  14.788  0.5373  0.3634 -0.1322
  395TMC3    C8 5963   2.358   2.691  14.847 -0.4438 -0.4868  0.3596
  395TMC3    O1 5964   2.908   2.705  14.862  0.6394 -0.1417 -0.6621
  395TMC3    O2 5965   2.372   2.814  14.854  0.1889  0.1377  0.2341
  396MPD2     C 5966   2.277   3.631  17.624  0.0932  0.6160  0.0769
  396MPD2    C1 5967   2.377   3.696  17.551  0.2837  0.7457  0.4084
  396MPD2    C2 5968   2.336   3.804  17.478  0.0140 -0.1508  0.2530
  396MPD2    C3 5969   2.216   3.861  17.492 -0.2790  0.4736 -0.0177
  396MPD2    C4 5970   2.120   3.804  17.577 -0.0853 -0.2069 -0.2445
  396MPD2    C5 5971   2.149   3.684  17.632  0.2089 -0.0784  0.0882
  396MPD2     H 5972   2.400   3.852  17.404 -2.3618  1.5585 -0.6828
  396MPD2    H1 5973   2.028   3.855  17.599  1.5375  3.0947 -1.0365
  396MPD2    H2 5974   2.297   3.537  17.675  0.1720  1.3922  1.4489
  396MPD2    H3 5975   2.085   3.636  17.706 -1.1045  1.3302 -0.1405
  396MPD2     N 5976   2.190   3.967  17.404  0.5185  0.2594 -0.2837
  396MPD2    H5 5977   2.272   4.004  17.358 -0.1580  0.1626 -1.5627
  396MPD2    N1 5978   2.497   3.631  17.536 -0.5015 -0.0352  0.0273
  396MPD2    H7 5979   2.503   3.550  17.598 -1.2091 -0.5577 -0.5878
  397TMC3    C1 5980   2.715   3.575  17.455  0.3787  0.5892 -0.3502
  397TMC3    C2 5981   2.792   3.597  17.341 -0.3191 -0.0200 -0.0199
  397TMC3    C3 5982   2.818   3.492  17.255  0.0670  1.0046 -0.0535
  397TMC3    C4 5983   2.675   3.446  17.477  0.6875  0.0967 -0.2583
  397TMC3    C5 5984   2.692   3.345  17.389  0.3649  0.0991  0.3553
  397TMC3    C6 5985   2.768   3.371  17.281  0.1680  0.2281  0.0930
  397TMC3     C 5986   2.600   3.668  17.451 -0.5962  0.0425 -0.0329
  397TMC3     O 5987   2.622   3.778  17.400 -0.4280 -0.3001 -0.1038
  397TMC3     H 5988   2.831   3.698  17.335 -1.5204  0.4415 -0.0094
  397TMC3    H1 5989   2.611   3.428  17.563  1.3934 -0.6664  0.1054
  397TMC3    H2 5990   2.784   3.297  17.203 -1.6263 -0.6234  0.5429
  397TMC3    C7 5991   2.591   3.236  17.385 -0.2869 -0.4042  0.1256
  397TMC3    C8 5992   2.855   3.512  17.116 -0.1305  1.0544 -0.6998
  397TMC3    O1 5993   2.576   3.182  17.276  0.3043  0.8478  0.7032
  397TMC3    O2 5994   2.814   3.427  17.032  0.0254  0.0649 -0.0403
  398MPD2     C 5995   0.817   0.665   0.083 -0.0836 -0.5322 -0.7059
  398MPD2    C1 5996   0.834   0.628   0.213  0.0092 -0.1502 -0.2737
  398MPD2    C2 5997   0.919   0.701   0.289  0.2317  0.6468 -0.3147
  398MPD2    C3 5998   0.977   0.816   0.237 -0.2710 -1.1695  0.4642
  398MPD2    C4 5999   0.955   0.849   0.106  0.1362 -0.3485 -0.1575
  398MPD2    C5 6000   0.877   0.773   0.033 -0.2356  0.3762  0.5174
  398MPD2     H 6001   0.944   0.667   0.389 -1.0415  3.1919  0.8627
  398MPD2    H1 6002   0.999   0.936   0.058 -0.0115 -0.1720  0.0235
  398MPD2    H2 6003   0.757   0.610   0.012 -1.1589 -0.5923  0.2366
  398MPD2    H3 6004   0.863   0.809  17.674 -0.8507 -1.0705  0.0940
  398MPD2     N 6005   1.085   0.875   0.317  0.0013 -0.2601 -0.3305
  398MPD2    H5 6006   1.087   0.843   0.413 -2.6043  1.2091  0.2310
  398MPD2    N1 6007   0.782   0.512   0.269  0.0700  0.2498 -0.6341
  398MPD2    H7 6008   0.802   0.494   0.367 -0.1269 -0.9119 -0.8041
  399TMC3    C1 6009   0.669   0.302   0.286 -0.0545  0.0217 -0.9640
  399TMC3    C2 6010   0.764   0.250   0.373 -0.5880 -0.5206 -0.1013
  399TMC3    C3 6011   0.722   0.159   0.473  0.3350  0.2206  0.4542
  399TMC3    C4 6012   0.547   0.243   0.278 -0.1590 -0.0579  0.3213
  399TMC3    C5 6013   0.510   0.150   0.378 -0.0007 -0.2886  0.6917
  399TMC3    C6 6014   0.598   0.104   0.473 -0.1745  0.3490  0.3268
  399TMC3     C 6015   0.707   0.421   0.202  0.1106 -0.3489 -0.3096
  399TMC3     O 6016   0.626   0.442   0.113 -0.1335 -0.1850 -0.8163
  399TMC3     H 6017   0.868   0.279   0.370 -0.3826 -1.2561 -0.1714
  399TMC3    H1 6018   0.467   0.280   0.214  0.1468  1.4950  0.8638
  399TMC3    H2 6019   0.565   0.025   0.539 -2.0533 -0.0037 -1.0433
  399TMC3    C7 6020   0.376   0.089   0.379 -0.0681  0.2953 -0.2293
  399TMC3    C8 6021   0.815   0.138   0.577 -0.1293 -0.6367  0.5014
  399TMC3    O1 6022   0.353   4.726   0.447 -0.6613  0.1889 -0.4525
  399TMC3    O2 6023   0.808   0.028   0.633  0.2412 -0.5415 -0.1993
  400TMC3    C1 6024   4.021   3.029  16.878 -0.4933  0.5092 -0.0575
  400TMC3    C2 6025   3.897   3.041  16.813 -1.0798  0.0345 -0.6608
  400TMC3    C3 6026   3.837   3.161  16.839 -0.8780  0.0728 -0.1336
  400TMC3    C4 6027   4.084   3.123  16.952 -0.1423  0.1570  0.0132
  400TMC3    C5 6028   4.019   3.235  16.975 -0.3309 -0.4188  0.0082
  400TMC3    C6 6029   3.901   3.259  16.913  0.4774  0.3682  0.1146
  400TMC3     C 6030   4.061   2.892  16.916 -0.3783 -0.0426 -0.0518
  400TMC3     O 6031   4.110   2.877  17.026 -0.0253 -0.0360  0.2279
  400TMC3     H 6032   3.867   2.963  16.744 -0.4470 -0.7646 -0.0380
  400TMC3    H1 6033   4.182   3.101  16.992  0.2804  1.8945 -0.0583
  400TMC3    H2 6034   3.857   3.356  16.931 -1.3119 -0.7858  2.0141
  400TMC3    C7 6035   4.073   3.339  17.063 -0.1033  0.0112 -0.5080
  400TMC3    C8 6036   3.719   3.202  16.759 -0.0438 -0.6864  0.5856
  400TMC3    O1 6037   4.193   3.344  17.065 -0.8023 -0.4152  0.2366
  400TMC3    O2 6038   3.678   3.318  16.772  0.4105  0.8356 -0.2270
  401MPD2     C 6039   2.058   2.670   0.982 -0.4222 -0.3128  0.2512
  401MPD2    C1 6040   2.168   2.595   1.026 -0.1090  0.0931  0.2478
  401MPD2    C2 6041   2.189   2.484   0.952  0.2072  0.1506  0.1440
  401MPD2    C3 6042   2.108   2.441   0.845  0.0964  0.0036 -0.7054
  401MPD2    C4 6043   2.004   2.522   0.802 -0.3377 -0.2893 -0.9843
  401MPD2    C5 6044   1.977   2.637   0.875  0.4547  0.4810  0.2794
  401MPD2     H 6045   2.274   2.423   0.983 -0.9372 -1.6257 -0.2186
  401MPD2    H1 6046   1.936   2.497   0.721  1.6127 -2.5001 -1.9536
  401MPD2    H2 6047   2.026   2.757   1.039 -1.0385 -0.8531  0.7196
  401MPD2    H3 6048   1.893   2.705   0.864  0.2315 -0.0093 -1.0005
  401MPD2     N 6049   2.149   2.321   0.784  0.2721 -0.0535  0.6157
  401MPD2    H5 6050   2.218   2.267   0.837  2.0216  0.2043 -1.4319
  401MPD2    N1 6051   2.253   2.625   1.138 -0.5364 -0.7183 -0.5275
  401MPD2    H7 6052   2.335   2.565   1.146 -0.2118 -0.0387  1.2829
  402TMC3    C1 6053   2.158   2.128   0.647  0.2344 -0.3230 -0.2944
  402TMC3    C2 6054   2.211   2.051   0.750  0.2611  0.3604  0.8901
  402TMC3    C3 6055   2.244   1.925   0.718  0.0196 -0.3613  0.1374
  402TMC3    C4 6056   2.133   2.084   0.519  0.5775 -0.8776 -0.5639
  402TMC3    C5 6057   2.170   1.952   0.493 -0.2748  0.0414 -0.2256
  402TMC3    C6 6058   2.236   1.882   0.586  0.1347  0.2076 -0.1871
  402TMC3     C 6059   2.115   2.266   0.665 -0.4578  0.0977 -0.2060
  402TMC3     O 6060   2.043   2.319   0.579  0.6143 -0.1820 -0.1174
  402TMC3     H 6061   2.222   2.092   0.850 -2.2759 -3.1403  2.6038
  402TMC3    H1 6062   2.080   2.144   0.446  3.0246  2.3066  0.3072
  402TMC3    H2 6063   2.244   1.776   0.568 -0.5491  0.2885 -0.9681
  402TMC3    C7 6064   2.193   1.920   0.353  0.6160 -0.4514  0.2914
  402TMC3    C8 6065   2.313   1.844   0.824  0.2262 -0.6515 -0.2259
  402TMC3    O1 6066   2.243   2.007   0.281 -0.4751 -0.6745  0.7084
  402TMC3    O2 6067   2.414   1.782   0.787  0.7145 -0.0985 -0.3726
  403MPD2     C 6068   0.618   3.698  13.681  0.2180 -0.2964 -0.6791
  403MPD2    C1 6069   0.594   3.826  13.630  0.6158 -0.6224 -0.1375
  403MPD2    C2 6070   0.697   3.914  13.652  0.0473  0.3178 -0.6977
  403MPD2    C3 6071   0.809   3.895  13.732  0.2480  0.5681 -0.2696
  403MPD2    C4 6072   0.825   3.770  13.789 -0.5699  0.7413  0.1411
  403MPD2    C5 6073   0.729   3.677  13.758  0.3805  0.0867 -0.2397
  403MPD2     H 6074   0.691   4.014  13.610  0.4747  0.5096 -0.3020
  403MPD2    H1 6075   0.887   3.734  13.870  0.0784  0.1671 -0.6175
  403MPD2    H2 6076   0.542   3.622  13.672 -1.4575  1.0998  1.5157
  403MPD2    H3 6077   0.732   3.582  13.809 -0.5036 -0.2475 -0.8180
  403MPD2     N 6078   0.894   3.996  13.759 -0.0343 -0.2964 -0.4062
  403MPD2    H5 6079   0.876   4.090  13.725  0.1403 -1.8923 -4.8940
  403MPD2    N1 6080   0.470   3.857  13.573  0.2014 -0.8320 -0.6507
  403MPD2    H7 6081   0.401   3.783  13.570  0.1314 -0.7747 -0.4497
  404TMC3    C1 6082   0.302   3.991  13.525 -0.1670 -0.0347 -0.3748
  404TMC3    C2 6083   0.257   4.041  13.644  0.3319  0.3711  0.3243
  404TMC3    C3 6084   0.146   4.119  13.660  0.5866 -0.3481  0.2713
  404TMC3    C4 6085   0.236   4.032  13.416 -0.4993 -0.0014  0.3296
  404TMC3    C5 6086   0.123   4.107  13.429 -0.1562  0.8765  0.4882
  404TMC3    C6 6087   0.069   4.146  13.552  0.6434 -0.3891 -1.0057
  404TMC3     C 6088   0.441   3.975  13.518 -0.1782 -0.1351 -0.1141
  404TMC3     O 6089   0.499   4.076  13.496  0.4546  0.1380 -0.0459
  404TMC3     H 6090   0.330   4.026  13.723  1.2393 -0.0339 -0.6055
  404TMC3    H1 6091   0.279   4.017  13.318 -1.1267  1.3406 -0.1552
  404TMC3    H2 6092   4.718   4.208  13.569  0.5898 -0.0685 -2.4646
  404TMC3    C7 6093   0.074   4.169  13.307 -0.1125  0.1130  0.1197
  404TMC3    C8 6094   0.123   4.188  13.788  0.0065 -0.0990  0.2070
  404TMC3    O1 6095   0.155   4.232  13.237 -0.6181  0.3619  0.4103
  404TMC3    O2 6096   0.023   4.266  13.797 -0.0777  0.3920 -0.4782
  405MPD2     C 6097   0.770   0.878  14.696 -0.2785  0.1668 -0.5450
  405MPD2    C1 6098   0.795   0.794  14.592  0.0009  0.9682 -0.0944
  405MPD2    C2 6099   0.696   0.769  14.496 -0.3917 -0.9134 -0.2663
  405MPD2    C3 6100   0.583   0.835  14.500  0.0200 -0.6872 -0.8632
  405MPD2    C4 6101   0.554   0.937  14.597 -0.1207  0.3383 -0.0170
  405MPD2    C5 6102   0.649   0.949  14.701  0.2213 -0.2840 -0.4693
  405MPD2     H 6103   0.715   0.692  14.422 -0.7168 -0.4167 -0.8667
  405MPD2    H1 6104   0.457   0.985  14.601 -1.1685 -1.8991  0.9591
  405MPD2    H2 6105   0.842   0.880  14.777 -1.6222 -0.1849  0.6607
  405MPD2    H3 6106   0.635   1.018  14.783  2.2349 -1.1277  0.5758
  405MPD2     N 6107   0.488   0.802  14.405 -0.5608 -0.3820  0.2201
  405MPD2    H5 6108   0.526   0.751  14.326 -3.6964  0.5234 -1.8400
  405MPD2    N1 6109   0.919   0.724  14.601 -0.3549  0.4819  0.2387
  405MPD2    H7 6110   0.968   0.745  14.687  0.5406  0.1742 -0.2029
  406TMC3    C1 6111   0.091   0.598  14.273 -0.6060 -0.0291 -0.4558
  406TMC3    C2 6112   0.159   0.484  14.245 -0.1569  0.5646 -0.0549
  406TMC3    C3 6113   0.293   0.480  14.269 -0.2966 -0.0473  0.4920
  406TMC3    C4 6114   0.156   0.707  14.326 -0.3507  0.3018 -0.8045
  406TMC3    C5 6115   0.288   0.698  14.340 -0.1058 -0.2024 -0.2693
  406TMC3    C6 6116   0.363   0.583  14.321 -0.1776 -0.2199 -0.3044
  406TMC3     C 6117   4.688   0.588  14.290  0.7204  0.1878 -0.2033
  406TMC3     O 6118   4.624   0.527  14.208 -0.1355  0.1703  0.1285
  406TMC3     H 6119   0.095   0.405  14.210 -0.6802  2.0254 -2.4000
  406TMC3    H1 6120   0.098   0.798  14.341 -1.5677 -0.6595  0.3016
  406TMC3    H2 6121   0.470   0.575  14.341 -0.5013  0.1743  1.5996
  406TMC3    C7 6122   0.351   0.808  14.417 -0.1116 -0.0545 -0.8926
  406TMC3    C8 6123   0.365   0.353  14.246 -0.1668  0.4510  0.4775
  406TMC3    O1 6124   0.282   0.901  14.453 -0.5669  0.0531  0.0503
  406TMC3    O2 6125   0.313   0.247  14.273  0.0034 -0.0106 -1.0346
  407MPD2     C 6126   3.106   2.554   9.888 -0.7763  0.0856 -0.1848
  407MPD2    C1 6127   3.135   2.678   9.830  0.2671 -0.6372 -0.5348
  407MPD2    C2 6128   3.157   2.792   9.907 -0.3550  0.5955 -0.3023
  407MPD2    C3 6129   3.152   2.785  10.043  0.3085 -0.2540 -0.5904
  407MPD2    C4 6130   3.112   2.667  10.100  0.1525  0.1331  0.5707
  407MPD2    C5 6131   3.094   2.554  10.025  0.4401 -0.1119 -0.0064
  407MPD2     H 6132   3.184   2.887   9.862  0.9168 -0.1667 -1.1400
  407MPD2    H1 6133   3.103   2.660  10.208  0.6314  1.8211  0.7301
  407MPD2    H2 6134   3.095   2.467   9.823  0.8832 -1.5837  1.7720
  407MPD2    H3 6135   3.056   2.465  10.074 -0.7448  0.2423 -0.2824
  407MPD2     N 6136   3.203   2.893  10.113  0.2842 -1.0792 -0.3443
  407MPD2    H5 6137   3.228   2.979  10.065 -2.4053  0.0017  0.1999
  407MPD2    N1 6138   3.175   2.685   9.695  0.2260 -0.0518 -0.0990
  407MPD2    H7 6139   3.214   2.776   9.671  1.9510 -0.4636  1.1715
  408TMC3    C1 6140   3.304   2.615   9.512  0.1119 -0.7118  0.3552
  408TMC3    C2 6141   3.399   2.514   9.518 -0.1378  0.0830 -0.0865
  408TMC3    C3 6142   3.527   2.553   9.517  0.4070  0.2317  0.1575
  408TMC3    C4 6143   3.335   2.750   9.517  0.3804 -0.4055  0.8373
  408TMC3    C5 6144   3.467   2.782   9.509  1.3240  0.1176  0.1508
  408TMC3    C6 6145   3.563   2.686   9.528 -0.1528  0.6476  0.4729
  408TMC3     C 6146   3.192   2.589   9.600 -0.2843  0.2286  0.1950
  408TMC3     O 6147   3.143   2.475   9.603 -0.1179  0.0141  0.2226
  408TMC3     H 6148   3.380   2.409   9.501 -1.9486  0.7173 -1.9620
  408TMC3    H1 6149   3.259   2.819   9.483  1.7053  0.4500 -0.4005
  408TMC3    H2 6150   3.665   2.722   9.519 -0.6226  2.4785  2.4457
  408TMC3    C7 6151   3.496   2.922   9.553  0.3116  0.4749  0.4790
  408TMC3    C8 6152   3.618   2.452   9.564 -0.5193  0.1757  0.6539
  408TMC3    O1 6153   3.605   2.937   9.601 -0.0276 -0.2193  0.3688
  408TMC3    O2 6154   3.588   2.334   9.547 -0.1101 -0.1464  0.0521
  409MPD2     C 6155   2.434   2.925  16.936  0.0348 -0.4913  1.0689
  409MPD2    C1 6156   2.535   2.911  17.026 -0.4674  0.1175  0.6357
  409MPD2    C2 6157   2.663   2.963  17.005  0.1251  0.3805 -0.5324
  409MPD2    C3 6158   2.686   3.050  16.899 -0.1419 -0.5287 -0.4052
  409MPD2    C4 6159   2.587   3.065  16.806 -0.1734 -0.7130  0.0624
  409MPD2    C5 6160   2.464   3.007  16.828  0.0119 -0.4429  0.0796
  409MPD2     H 6161   2.740   2.936  17.077 -0.3869 -1.7926 -0.7928
  409MPD2    H1 6162   2.602   3.123  16.716  0.1106  1.0548  1.2460
  409MPD2    H2 6163   2.328   2.901  16.946 -0.8407  3.7527  1.9654
  409MPD2    H3 6164   2.386   3.045  16.763  0.4365  0.1871 -0.0605
  409MPD2     N 6165   2.806   3.106  16.870 -0.9466 -0.0328  0.1866
  409MPD2    H5 6166   2.809   3.164  16.786 -2.2315  1.1151  0.9338
  409MPD2    N1 6167   2.513   2.814  17.130 -0.3270 -0.5338 -0.1562
  409MPD2    H7 6168   2.595   2.784  17.181 -0.9896 -2.8591 -0.4202
  410TMC3    C1 6169   3.030   3.169  16.886  0.0282  0.1938  0.2005
  410TMC3    C2 6170   3.152   3.132  16.933 -0.2627 -0.0512  0.3600
  410TMC3    C3 6171   3.260   3.216  16.905 -0.3024 -0.2734 -0.2803
  410TMC3    C4 6172   3.007   3.290  16.831 -0.4104  0.3802 -0.2177
  410TMC3    C5 6173   3.113   3.374  16.816  0.1913 -0.4768  0.1984
  410TMC3    C6 6174   3.238   3.344  16.861 -0.6226 -0.2356 -0.2489
  410TMC3     C 6175   2.923   3.080  16.937  0.2801  0.2291  0.0655
  410TMC3     O 6176   2.957   3.017  17.038 -0.1076  0.3161 -0.3530
  410TMC3     H 6177   3.176   3.042  16.988 -0.4955  0.2686  0.9814
  410TMC3    H1 6178   2.908   3.333  16.833 -0.6879 -0.2582 -0.0470
  410TMC3    H2 6179   3.320   3.412  16.838 -1.5427  0.5330 -1.2154
  410TMC3    C7 6180   3.106   3.442  16.689 -0.0859  0.0403 -0.1776
  410TMC3    C8 6181   3.388   3.194  16.966 -0.3145 -0.5929  0.6683
  410TMC3    O1 6182   3.021   3.396  16.614 -0.0603 -0.1782 -0.0685
  410TMC3    O2 6183   3.432   3.291  17.029 -0.2058 -0.5399 -0.4868
  411MPD2     C 6184   2.597   3.087  14.545 -0.0125  0.6574  0.2975
  411MPD2    C1 6185   2.514   3.114  14.652  0.1461  0.0726 -0.7626
  411MPD2    C2 6186   2.392   3.058  14.659 -0.1565  0.2337  0.0158
  411MPD2    C3 6187   2.361   2.955  14.568  0.0522  0.0414 -0.5483
  411MPD2    C4 6188   2.453   2.906  14.474 -0.0336  0.2917  0.9012
  411MPD2    C5 6189   2.562   2.982  14.456  0.5587 -0.2995 -0.3512
  411MPD2     H 6190   2.313   3.085  14.728  0.1678  0.3422  0.3381
  411MPD2    H1 6191   2.431   2.821  14.410  0.4811  2.5626 -2.2893
  411MPD2    H2 6192   2.693   3.135  14.537 -0.0703  0.8342  0.6388
  411MPD2    H3 6193   2.631   2.946  14.381 -0.5723  1.3664 -2.1755
  411MPD2     N 6194   2.235   2.889  14.553 -0.2470  0.0328  0.2591
  411MPD2    H5 6195   2.231   2.810  14.490 -0.9201 -0.4258  0.8691
  411MPD2    N1 6196   2.564   3.210  14.743  0.1486  0.2184  0.6356
  411MPD2    H7 6197   2.644   3.270  14.725  0.4916 -0.5582 -0.4481
  412TMC3    C1 6198   2.016   2.889  14.519  0.0459  0.5913 -0.6138
  412TMC3    C2 6199   1.961   2.993  14.452 -0.1247  0.1335 -0.8072
  412TMC3    C3 6200   1.945   2.989  14.311  0.0151 -0.1868 -0.1019
  412TMC3    C4 6201   2.031   2.768  14.460  0.4261 -0.2601 -0.0445
  412TMC3    C5 6202   2.010   2.769  14.327 -0.3738 -0.6088 -0.1976
  412TMC3    C6 6203   1.965   2.869  14.246 -0.9716 -0.5015 -0.3178
  412TMC3     C 6204   2.120   2.942  14.598  0.1331 -0.3758  0.8563
  412TMC3     O 6205   2.097   3.029  14.686 -0.5182  0.7443  0.0041
  412TMC3     H 6206   1.970   3.089  14.502  0.1931  0.1955 -0.9803
  412TMC3    H1 6207   2.076   2.683  14.510  1.8944  0.3265 -0.3933
  412TMC3    H2 6208   1.958   2.859  14.139  0.7225 -0.6406 -0.4196
  412TMC3    C7 6209   2.120   2.690  14.274 -0.1588 -0.1456  0.5792
  412TMC3    C8 6210   2.030   3.092  14.251 -0.6694  0.1648 -0.8436
  412TMC3    O1 6211   2.136   2.571  14.296 -0.1256  0.1116  0.0832
  412TMC3    O2 6212   2.150   3.066  14.249 -0.6160  0.6026 -0.1703
  413MPD2     C 6213   4.710   1.972  15.365 -0.2724  0.4522  0.0162
  413MPD2    C1 6214   4.651   1.899  15.268 -0.0223  0.4554  0.1747
  413MPD2    C2 6215   4.721   1.806  15.196  0.0931 -0.5399 -0.8130
  413MPD2    C3 6216   0.113   1.772  15.235 -0.4057  0.2444  0.0889
  413MPD2    C4 6217   0.171   1.851  15.335 -0.0550 -0.6355 -0.7394
  413MPD2    C5 6218   0.106   1.949  15.398 -0.0886  0.2372  0.1335
  413MPD2     H 6219   4.671   1.745  15.122  0.1391  3.2486 -3.9826
  413MPD2    H1 6220   0.270   1.817  15.365 -0.5845 -1.7025 -0.1860
  413MPD2    H2 6221   4.653   2.049  15.416  1.1193  1.1365  0.5574
  413MPD2    H3 6222   0.153   2.005  15.478 -0.7129 -0.6769  1.1403
  413MPD2     N 6223   0.174   1.661  15.172  0.5379  0.2404 -0.1314
  413MPD2    H5 6224   0.127   1.600  15.105  0.7700 -0.8681  0.7046
  413MPD2    N1 6225   4.517   1.925  15.239 -0.5855  0.3041 -0.2990
  413MPD2    H7 6226   4.471   1.992  15.300 -0.9789 -0.7274  0.5179
  414TMC3    C1 6227   0.323   1.493  15.114  0.1017 -0.0897 -0.2955
  414TMC3    C2 6228   0.403   1.394  15.158  0.3875  0.2264 -0.2375
  414TMC3    C3 6229   0.443   1.301  15.065 -0.0531 -0.4325 -0.5032
  414TMC3    C4 6230   0.304   1.525  14.981 -0.1894 -0.2972  0.3059
  414TMC3    C5 6231   0.355   1.432  14.892 -1.1148 -0.5282 -0.0432
  414TMC3    C6 6232   0.416   1.315  14.937 -0.3226 -0.6829 -0.7243
  414TMC3     C 6233   0.292   1.599  15.208  0.4990 -0.7821 -0.3559
  414TMC3     O 6234   0.360   1.604  15.308  0.1476  0.0131  0.2105
  414TMC3     H 6235   0.413   1.368  15.263 -1.3289  0.4969 -0.0067
  414TMC3    H1 6236   0.276   1.623  14.943 -0.8545  0.3576  2.4963
  414TMC3    H2 6237   0.444   1.241  14.862 -1.0367 -0.1475 -1.5278
  414TMC3    C7 6238   0.293   1.435  14.759 -0.4517  0.3770  1.0634
  414TMC3    C8 6239   0.538   1.204  15.097  0.0880 -0.0402  0.2330
  414TMC3    O1 6240   0.172   1.452  14.761  0.3425 -0.3646 -0.3330
  414TMC3    O2 6241   0.560   1.119  15.009  0.4707 -0.3993 -0.7349
  415TMC3    C1 6242   1.066   0.036   9.924  0.3796 -0.2409  0.3523
  415TMC3    C2 6243   1.023   0.164   9.944 -0.3945 -0.1200  0.0977
  415TMC3    C3 6244   1.057   0.254   9.850  0.4369  0.0401 -0.0343
  415TMC3    C4 6245   1.147   4.733   9.823 -0.2146 -0.2065  0.1860
  415TMC3    C5 6246   1.182   0.101   9.736  0.4439  1.5073 -0.0316
  415TMC3    C6 6247   1.134   0.225   9.744 -0.7694 -0.4862 -0.3025
  415TMC3     C 6248   1.023   4.658  10.013  0.1347 -0.1817 -0.1220
  415TMC3     O 6249   1.041   4.543   9.971 -0.3656  0.4790 -0.3268
  415TMC3     H 6250   0.960   0.199  10.025 -0.1336  0.4639  0.0475
  415TMC3    H1 6251   1.185   4.631   9.819  5.0137  1.8319 -1.8582
  415TMC3    H2 6252   1.153   0.301   9.669 -0.3119 -0.5915 -0.2927
  415TMC3    C7 6253   1.263   0.070   9.618  0.6946 -0.3304 -0.2625
  415TMC3    C8 6254   0.990   0.385   9.869  0.9048  0.3251  0.5699
  415TMC3    O1 6255   1.351   0.147   9.586  0.3795 -0.0177  0.0622
  415TMC3    O2 6256   0.881   0.400   9.921  0.0067  0.4981 -0.3739
  416MPD2     C 6257   2.224   3.183  11.735  0.2110  0.3573 -0.2359
  416MPD2    C1 6258   2.130   3.210  11.637 -0.1767  0.5454 -0.1072
  416MPD2    C2 6259   2.167   3.169  11.512  0.3991 -0.3536 -1.1281
  416MPD2    C3 6260   2.276   3.087  11.488  1.2938  0.0310 -0.1943
  416MPD2    C4 6261   2.365   3.054  11.587 -0.7454  0.2338 -0.0233
  416MPD2    C5 6262   2.345   3.117  11.709 -0.0840  0.5634  0.1735
  416MPD2     H 6263   2.107   3.196  11.425 -0.3611 -0.2154 -0.5606
  416MPD2    H1 6264   2.448   2.990  11.561 -3.0702 -1.9359 -2.1090
  416MPD2    H2 6265   2.221   3.212  11.840 -1.2516  1.2407 -0.5313
  416MPD2    H3 6266   2.412   3.090  11.790 -2.7406 -3.7941  0.9073
  416MPD2     N 6267   2.306   3.021  11.367  0.5718 -0.1031 -0.3017
  416MPD2    H5 6268   2.379   2.951  11.376 -0.5385 -1.1527  0.5200
  416MPD2    N1 6269   2.014   3.291  11.673  0.0957  0.5528 -0.4641
  416MPD2    H7 6270   2.002   3.307  11.773 -0.2416 -0.1690 -0.3886
  417TMC3    C1 6271   1.788   3.365  11.646 -0.2999 -0.8878 -0.0389
  417TMC3    C2 6272   1.753   3.348  11.781  0.0736  0.0698 -0.3202
  417TMC3    C3 6273   1.621   3.358  11.826 -0.4891 -0.1653  0.4545
  417TMC3    C4 6274   1.691   3.388  11.554  0.0803  0.3700  0.0788
  417TMC3    C5 6275   1.565   3.405  11.603 -0.6039 -0.1713  0.2602
  417TMC3    C6 6276   1.527   3.399  11.736  0.2299 -0.7927 -0.1321
  417TMC3     C 6277   1.919   3.330  11.590  0.2140  0.0763 -0.8893
  417TMC3     O 6278   1.916   3.311  11.470  0.0025  0.3326 -0.5796
  417TMC3     H 6279   1.836   3.342  11.851 -1.2256  3.5821  1.5118
  417TMC3    H1 6280   1.704   3.399  11.447  1.5126 -2.7452 -0.0620
  417TMC3    H2 6281   1.426   3.417  11.769  0.0334 -0.2409 -1.0413
  417TMC3    C7 6282   1.487   3.483  11.507  0.6080 -0.0012 -0.6260
  417TMC3    C8 6283   1.579   3.357  11.968 -0.4605  0.6140  0.0403
  417TMC3    O1 6284   1.499   3.436  11.396 -0.0716  0.3943 -0.5578
  417TMC3    O2 6285   1.467   3.407  11.992  0.0159  0.6909 -0.2344
  418TMC3    C1 6286   1.486   1.094   0.412 -0.6786 -0.9716  1.3197
  418TMC3    C2 6287   1.395   1.051   0.316 -0.1039  0.5237 -0.3296
  418TMC3    C3 6288   1.270   1.015   0.367  0.1163 -0.3373  0.0854
  418TMC3    C4 6289   1.461   1.097   0.547  1.1302  0.8609 -0.0703
  418TMC3    C5 6290   1.332   1.066   0.584 -0.6458  0.6810  0.2781
  418TMC3    C6 6291   1.235   1.020   0.498 -0.6571  0.6283  0.4501
  418TMC3     C 6292   1.628   1.069   0.396  0.2024 -0.1289  0.1969
  418TMC3     O 6293   1.708   1.156   0.414  0.4527  0.3398  0.2721
  418TMC3     H 6294   1.421   1.043   0.211 -0.3595  1.9671 -0.5084
  418TMC3    H1 6295   1.543   1.108   0.617  0.9062 -0.9180  0.4499
  418TMC3    H2 6296   1.132   1.003   0.529 -1.5890  0.9373 -2.4794
  418TMC3    C7 6297   1.315   1.015   0.720  0.2486  0.5653  0.5866
  418TMC3    C8 6298   1.171   0.970   0.271 -0.3732  0.0454  0.0375
  418TMC3    O1 6299   1.241   0.921   0.736 -0.1718  0.1762  0.2575
  418TMC3    O2 6300   1.192   0.992   0.151 -0.5697  0.2264 -0.3105
  419MPD2     C 6301   4.309   3.011  12.850  0.0823  0.2940 -0.1963
  419MPD2    C1 6302   4.195   3.077  12.824 -0.4726  0.7796  0.1478
  419MPD2    C2 6303   4.148   3.161  12.926  0.1206  0.1555  0.5058
  419MPD2    C3 6304   4.225   3.184  13.042  0.0589 -0.1434  0.4922
  419MPD2    C4 6305   4.340   3.115  13.060  0.6812 -0.1890 -0.2423
  419MPD2    C5 6306   4.378   3.021  12.971 -0.2032 -0.2785 -0.2340
  419MPD2     H 6307   4.062   3.226  12.910  1.1218  1.4066  0.1927
  419MPD2    H1 6308   4.402   3.131  13.148 -0.5384  1.9832  0.2285
  419MPD2    H2 6309   4.350   2.952  12.769  1.6969 -1.8557  2.2224
  419MPD2    H3 6310   4.463   2.955  12.989 -0.3384 -0.3408  0.1824
  419MPD2     N 6311   4.169   3.278  13.128 -0.0862  0.1387 -0.2695
  419MPD2    H5 6312   4.086   3.324  13.091 -0.6659  1.1732  2.2968
  419MPD2    N1 6313   4.135   3.088  12.699  0.0544  0.8193 -0.1408
  419MPD2    H7 6314   4.074   3.167  12.686 -1.0365  0.2670  1.5797
  420TMC3    C1 6315   4.134   3.402  13.333 -0.2258  0.5133  0.3301
  420TMC3    C2 6316   4.044   3.474  13.256 -0.0874 -0.3871 -0.1892
  420TMC3    C3 6317   3.965   3.552  13.330  0.0187  0.1008 -0.4770
  420TMC3    C4 6318   4.155   3.418  13.471  0.3660  0.4024  0.1551
  420TMC3    C5 6319   4.067   3.500  13.532 -0.5042  0.5869  0.0388
  420TMC3    C6 6320   3.969   3.571  13.467 -0.3276 -0.1198  0.0283
  420TMC3     C 6321   4.214   3.304  13.260  0.1809  0.4356  0.2468
  420TMC3     O 6322   4.298   3.242  13.327  0.4418  0.4454 -0.0042
  420TMC3     H 6323   4.053   3.484  13.149 -1.4125  0.7000 -0.2000
  420TMC3    H1 6324   4.245   3.380  13.518  0.2544 -1.1733 -0.9214
  420TMC3    H2 6325   3.889   3.620  13.521  1.2683  1.1993  1.1998
  420TMC3    C7 6326   4.092   3.521  13.674 -0.2574  0.5473  0.5209
  420TMC3    C8 6327   3.879   3.643  13.268 -0.0600  0.0185  0.5444
  420TMC3    O1 6328   4.179   3.456  13.729 -0.0041 -0.1560 -0.6312
  420TMC3    O2 6329   3.830   3.612  13.160 -0.0732  0.6612 -0.4220
  421TMC3    C1 6330   1.069   4.103  13.863 -0.4754  0.0783  0.5465
  421TMC3    C2 6331   0.999   4.218  13.827 -0.5095  0.7480  1.0674
  421TMC3    C3 6332   1.067   4.336  13.827 -0.0431  0.3783 -0.3197
  421TMC3    C4 6333   1.193   4.100  13.926 -0.2529  0.3508 -0.9185
  421TMC3    C5 6334   1.256   4.222  13.918  0.0513  1.1251 -0.6429
  421TMC3    C6 6335   1.196   4.342  13.876 -0.4547 -0.1190 -0.2884
  421TMC3     C 6336   1.011   3.977  13.823  0.8573  0.2463  0.4256
  421TMC3     O 6337   1.079   3.877  13.841 -0.3566  0.2727  0.0180
  421TMC3     H 6338   0.894   4.214  13.802  0.2512 -0.5921 -1.9681
  421TMC3    H1 6339   1.244   4.005  13.938  0.0048  0.4303 -1.3948
  421TMC3    H2 6340   1.258   4.428  13.854  0.3449 -0.8512 -0.8898
  421TMC3    C7 6341   1.377   4.246  13.998  0.4804  0.0974 -0.2839
  421TMC3    C8 6342   0.999   4.466  13.821 -0.2471 -0.0979 -0.1049
  421TMC3    O1 6343   1.439   4.348  13.981  0.4583  0.3691 -0.1665
  421TMC3    O2 6344   1.072   4.552  13.870  0.3316  0.0155 -0.0620
  422TMC3    C1 6345   3.222   1.624  12.363 -0.0959 -0.4779  0.5141
  422TMC3    C2 6346   3.214   1.755  12.394  0.2043 -0.9919  0.3138
  422TMC3    C3 6347   3.099   1.803  12.449 -0.4775  0.2127 -0.3697
  422TMC3    C4 6348   3.120   1.536  12.393  0.5426  0.2848 -0.2726
  422TMC3    C5 6349   3.009   1.585  12.453  0.6135 -0.1895  0.0713
  422TMC3    C6 6350   2.993   1.719  12.478  0.2319  1.1440 -0.5673
  422TMC3     C 6351   3.349   1.567  12.315  0.8212  0.1643  0.6481
  422TMC3     O 6352   3.422   1.653  12.264  0.7547 -0.2048 -0.3101
  422TMC3     H 6353   3.298   1.816  12.362 -0.1265  0.1593  1.6435
  422TMC3    H1 6354   3.130   1.433  12.363  0.5598 -0.2518  1.5500
  422TMC3    H2 6355   2.893   1.759  12.481 -0.4286 -0.5623  0.2330
  422TMC3    C7 6356   2.894   1.496  12.456 -0.8191  0.2785  0.9374
  422TMC3    C8 6357   3.097   1.937  12.505 -0.4710  0.3522 -0.4942
  422TMC3    O1 6358   2.898   1.396  12.384 -0.0996 -0.1963  0.3466
  422TMC3    O2 6359   3.190   2.010  12.468 -0.4317  0.3610  0.1272
  423MPD2     C 6360   3.938   2.533   0.663 -0.5477 -0.1640  0.3561
  423MPD2    C1 6361   4.043   2.614   0.626  0.2892 -0.8394  0.0588
  423MPD2    C2 6362   4.119   2.576   0.515 -0.2728  0.4418  0.3512
  423MPD2    C3 6363   4.096   2.460   0.442 -0.4692 -0.3402  0.4157
  423MPD2    C4 6364   3.993   2.379   0.484 -0.1905  0.2410  1.1236
  423MPD2    C5 6365   3.916   2.413   0.598  0.0390 -0.5190  0.2063
  423MPD2     H 6366   4.197   2.643   0.479 -0.7494  0.1550 -1.2167
  423MPD2    H1 6367   3.971   2.284   0.437  1.8371  0.3222 -0.0049
  423MPD2    H2 6368   3.875   2.559   0.748  1.2109 -1.3231  2.0055
  423MPD2    H3 6369   3.820   2.367   0.615 -0.8846  0.9824 -0.9184
  423MPD2     N 6370   4.179   2.423   0.329  0.0416 -0.0562  0.2571
  423MPD2    H5 6371   4.155   2.338   0.279  1.8533 -0.0392 -0.6364
  423MPD2    N1 6372   4.079   2.729   0.696 -0.0137  0.5735  0.4412
  423MPD2    H7 6373   4.159   2.773   0.653 -0.6033  0.5322 -0.7054
  424TMC3    C1 6374   4.090   2.897   0.860 -0.7334 -0.3289 -0.0922
  424TMC3    C2 6375   4.231   2.880   0.878 -0.1496  0.2379  0.1921
  424TMC3    C3 6376   4.301   2.957   0.962 -0.8111 -0.6456  0.0392
  424TMC3    C4 6377   4.027   2.969   0.960 -0.8132  0.4408 -0.7408
  424TMC3    C5 6378   4.102   3.037   1.047  0.5201  0.2260 -0.0970
  424TMC3    C6 6379   4.241   3.037   1.050  0.5796 -0.7967  0.3672
  424TMC3     C 6380   4.008   2.799   0.791 -0.0756  0.0174 -0.4116
  424TMC3     O 6381   3.895   2.786   0.835  0.2606 -0.2331  0.3485
  424TMC3     H 6382   4.275   2.805   0.813 -1.9346  0.1524 -0.9351
  424TMC3    H1 6383   3.922   2.988   0.943 -0.5128  2.2120 -0.6003
  424TMC3    H2 6384   4.299   3.101   1.115 -2.2088  0.9071  1.1814
  424TMC3    C7 6385   4.040   3.047   1.181 -0.1231 -0.4768 -0.3376
  424TMC3    C8 6386   4.436   2.915   0.989 -0.5138  0.1433  0.1715
  424TMC3    O1 6387   4.121   3.069   1.270  0.1610  0.1620  0.6406
  424TMC3    O2 6388   4.498   2.876   0.892  0.8580 -0.1569  0.2453
  425MPD2     C 6389   3.451   1.845  17.193 -0.4307  0.0369 -0.9005
  425MPD2    C1 6390   3.401   1.714  17.175  0.1351 -0.0971 -0.5674
  425MPD2    C2 6391   3.262   1.694  17.173  0.1453 -0.1427 -0.0966
  425MPD2    C3 6392   3.177   1.799  17.192  0.1256 -0.1877 -0.9756
  425MPD2    C4 6393   3.222   1.923  17.195  0.4810  0.8260  0.3259
  425MPD2    C5 6394   3.360   1.945  17.194 -0.0470  0.6926 -0.4103
  425MPD2     H 6395   3.225   1.592  17.171  0.1267 -0.0830 -3.0538
  425MPD2    H1 6396   3.163   2.013  17.213  0.0647  0.8894 -1.3830
  425MPD2    H2 6397   3.558   1.862  17.199 -0.5597  0.6422 -0.2868
  425MPD2    H3 6398   3.395   2.045  17.213 -1.1880  0.9622  0.2699
  425MPD2     N 6399   3.040   1.779  17.195  0.2672  0.4034  0.3337
  425MPD2    H5 6400   3.001   1.697  17.149 -1.7850  1.9867 -0.7547
  425MPD2    N1 6401   3.485   1.590  17.166 -0.5373 -0.0247 -0.0714
  425MPD2    H7 6402   3.440   1.501  17.151 -1.2405  0.0746  1.4556
  426TMC3    C1 6403   3.661   1.455  17.152  0.9377  0.3548 -0.4785
  426TMC3    C2 6404   3.640   1.385  17.034  0.8704 -0.0183  0.3433
  426TMC3    C3 6405   3.622   1.251  17.041  0.1006  0.9391 -0.0063
  426TMC3    C4 6406   3.666   1.394  17.269 -0.6887 -0.6384  0.4873
  426TMC3    C5 6407   3.651   1.260  17.269  0.3108  0.1441 -0.0243
  426TMC3    C6 6408   3.626   1.183  17.159 -0.4555  0.3891 -0.2287
  426TMC3     C 6409   3.618   1.586  17.159  0.0245  0.0030 -0.1815
  426TMC3     O 6410   3.697   1.681  17.152  0.1613  0.4718 -0.5080
  426TMC3     H 6411   3.621   1.443  16.944  1.9558  0.5937  0.5140
  426TMC3    H1 6412   3.687   1.458  17.354  0.6977 -0.6197  0.1362
  426TMC3    H2 6413   3.610   1.077  17.178  0.0853 -0.0564 -2.2697
  426TMC3    C7 6414   3.662   1.175  17.388  0.1438  0.3561  0.1373
  426TMC3    C8 6415   3.584   1.181  16.923  0.6491  0.5461  0.3219
  426TMC3    O1 6416   3.707   1.064  17.384  0.1005  0.1248  0.1066
  426TMC3    O2 6417   3.596   1.235  16.813  0.2537 -0.0111  0.2663
  427MPD2     C 6418   2.032   3.094  15.364 -0.3604 -0.3997  0.0323
  427MPD2    C1 6419   2.028   3.202  15.448  0.0578  0.2432 -0.2447
  427MPD2    C2 6420   1.940   3.307  15.430  1.0862  0.5742 -0.3700
  427MPD2    C3 6421   1.853   3.311  15.327  0.5908  0.8512 -0.0671
  427MPD2    C4 6422   1.851   3.197  15.255  0.1221  0.0242  0.1960
  427MPD2    C5 6423   1.940   3.090  15.264 -0.1911 -0.4304 -0.4885
  427MPD2     H 6424   1.956   3.390  15.498 -1.8920  0.8113  0.0702
  427MPD2    H1 6425   1.772   3.178  15.183  1.4978 -0.6080 -1.1529
  427MPD2    H2 6426   2.095   3.006  15.371  0.2701 -0.0017 -0.5504
  427MPD2    H3 6427   1.940   3.007  15.194 -2.2529 -1.2229  0.4454
  427MPD2     N 6428   1.763   3.418  15.302  0.4334  0.1588 -0.7770
  427MPD2    H5 6429   1.695   3.412  15.227 -1.3608 -1.6394  0.9907
  427MPD2    N1 6430   2.117   3.217  15.559 -0.5380  0.2619  0.9220
  427MPD2    H7 6431   2.110   3.309  15.603  1.9781  0.8354  0.1326
  428TMC3    C1 6432   2.257   3.168  15.734  0.0756  0.0688 -0.0571
  428TMC3    C2 6433   2.280   3.076  15.837  0.6772  0.4651 -0.1045
  428TMC3    C3 6434   2.389   3.100  15.925 -0.5525  0.0459  0.4986
  428TMC3    C4 6435   2.350   3.270  15.718  0.6025 -0.6163 -0.4168
  428TMC3    C5 6436   2.464   3.278  15.793  0.1872  0.8191 -0.0181
  428TMC3    C6 6437   2.475   3.203  15.911  0.3559  0.6153 -0.5378
  428TMC3     C 6438   2.190   3.119  15.618  0.1774  0.1184  0.0138
  428TMC3     O 6439   2.183   2.996  15.612  0.3201  0.0309  0.1088
  428TMC3     H 6440   2.229   2.980  15.837 -0.1167  0.8796  1.7878
  428TMC3    H1 6441   2.351   3.338  15.634  2.4289  0.4587  0.4682
  428TMC3    H2 6442   2.564   3.205  15.972 -0.7662 -0.7259  1.1339
  428TMC3    C7 6443   2.573   3.358  15.743  0.6092  0.6473  0.4396
  428TMC3    C8 6444   2.431   2.984  16.000 -0.3980  0.1384 -0.7187
  428TMC3    O1 6445   2.664   3.357  15.824  0.4847  0.5166 -0.0414
  428TMC3    O2 6446   2.553   2.967  15.992 -0.0570  0.1704  0.4427
  429MPD2     C 6447   2.895   3.475   0.113  0.3148  0.2954  0.3812
  429MPD2    C1 6448   2.963   3.408   0.015  1.1833  0.1087 -0.3691
  429MPD2    C2 6449   3.068   3.475  17.694  0.2918  0.3209 -0.8633
  429MPD2    C3 6450   3.101   3.605  17.732  1.0857 -0.3562  0.7646
  429MPD2    C4 6451   3.039   3.669   0.093  0.6567 -0.0034  0.3659
  429MPD2    C5 6452   2.934   3.597   0.152  0.1712 -0.0250  0.5970
  429MPD2     H 6453   3.133   3.427  17.622  0.3812  0.9276 -1.1851
  429MPD2    H1 6454   3.067   3.768   0.130 -1.6875  0.1695  1.6560
  429MPD2    H2 6455   2.812   3.426   0.163 -1.0736  2.2153 -0.0338
  429MPD2    H3 6456   2.876   3.639   0.235  1.5575  3.2425 -0.0994
  429MPD2     N 6457   3.216   3.664  17.669  0.1824 -0.1333  0.3222
  429MPD2    H5 6458   3.274   3.606  17.609  1.9327  1.4846  0.4625
  429MPD2    N1 6459   2.939   3.276  17.716  0.6490  0.1641  0.1255
  429MPD2    H7 6460   3.000   3.242  17.643  1.1900  0.1762  0.5695
  430TMC3    C1 6461   3.362   3.839  17.584 -0.4523  0.1971 -0.7682
  430TMC3    C2 6462   3.375   3.971  17.550 -0.1853  0.8732 -0.5782
  430TMC3    C3 6463   3.497   4.006  17.492  0.1772 -0.5325  0.0076
  430TMC3    C4 6464   3.473   3.752  17.570 -0.1526 -0.0304  0.3796
  430TMC3    C5 6465   3.589   3.801  17.517 -0.3266 -0.0914  0.9114
  430TMC3    C6 6466   3.612   3.930  17.483  0.5607 -0.4373 -0.3017
  430TMC3     C 6467   3.239   3.801  17.662 -0.3308 -0.0595 -0.0195
  430TMC3     O 6468   3.166   3.895  17.686  0.3356 -0.1292  0.4338
  430TMC3     H 6469   3.286   4.033  17.547  0.2342  1.4184 -1.8642
  430TMC3    H1 6470   3.460   3.647  17.589 -2.4723 -0.0131 -1.0934
  430TMC3    H2 6471   3.696   3.960  17.421 -1.1367  0.5017 -2.1615
  430TMC3    C7 6472   3.686   3.698  17.461 -0.5952 -0.5069  0.0096
  430TMC3    C8 6473   3.479   4.101  17.380 -0.5297 -1.2226  0.1461
  430TMC3    O1 6474   3.633   3.592  17.440 -0.6396 -0.1477  0.3094
  430TMC3    O2 6475   3.370   4.112  17.334  0.0660 -0.2378  0.3331
  431MPD2     C 6476   3.581   3.642  12.703  0.0918  0.1142  0.2364
  431MPD2    C1 6477   3.710   3.634  12.733 -0.5214  0.0004 -0.7661
  431MPD2    C2 6478   3.790   3.538  12.677  0.0154 -0.7634 -0.5085
  431MPD2    C3 6479   3.736   3.453  12.575  1.5931  0.8483 -0.0146
  431MPD2    C4 6480   3.603   3.464  12.539 -0.2050 -0.6826  0.3663
  431MPD2    C5 6481   3.525   3.555  12.608 -0.4841 -0.5509  0.8665
  431MPD2     H 6482   3.895   3.530  12.702 -0.2089  0.1139  0.7042
  431MPD2    H1 6483   3.549   3.400  12.470  0.2881 -0.2337 -0.4395
  431MPD2    H2 6484   3.514   3.714  12.749  1.7442  0.3177  2.3342
  431MPD2    H3 6485   3.428   3.575  12.564 -0.6541 -0.4653  1.2795
  431MPD2     N 6486   3.817   3.350  12.521 -0.2652  0.5535  0.4296
  431MPD2    H5 6487   3.916   3.344  12.542 -0.0288 -0.1729 -0.8946
  431MPD2    N1 6488   3.761   3.741  12.814  0.1542 -0.2711 -0.2891
  431MPD2    H7 6489   3.686   3.805  12.839  0.9838  0.9082 -0.8091
  432TMC3    C1 6490   3.867   3.151  12.406 -0.4824  0.7279  0.4050
  432TMC3    C2 6491   3.902   3.132  12.272  0.2820  0.1031  0.3005
  432TMC3    C3 6492   4.031   3.087  12.244 -0.1359 -0.3999  0.1788
  432TMC3    C4 6493   3.954   3.124  12.510  0.6957 -0.2638 -0.3986
  432TMC3    C5 6494   4.074   3.062  12.476  0.2050 -0.2922 -0.7800
  432TMC3    C6 6495   4.114   3.041  12.350  0.0595 -0.7994 -0.3041
  432TMC3     C 6496   3.772   3.258  12.427  0.0875 -0.0832  0.5002
  432TMC3     O 6497   3.677   3.268  12.343 -0.0568 -0.3141 -0.6769
  432TMC3     H 6498   3.831   3.158  12.194 -1.1285 -0.7211  1.3079
  432TMC3    H1 6499   3.931   3.145  12.614 -1.8252  1.2635 -1.2673
  432TMC3    H2 6500   4.212   2.999  12.333  1.2805  2.2888 -1.0003
  432TMC3    C7 6501   4.164   3.023  12.582 -1.2014  0.2003  0.0109
  432TMC3    C8 6502   4.088   3.123  12.112  0.5616 -0.3010 -0.0912
  432TMC3    O1 6503   4.234   2.927  12.565 -0.3230  0.2950 -0.2087
  432TMC3    O2 6504   4.014   3.132  12.017  0.7649 -0.1167  0.2768
  433MPD2     C 6505   3.246   2.769  10.693 -0.7367  0.1679 -0.3242
  433MPD2    C1 6506   3.279   2.649  10.760  0.6535 -0.2483  0.2366
  433MPD2    C2 6507   3.312   2.663  10.894 -0.1054  0.2142 -0.0859
  433MPD2    C3 6508   3.313   2.783  10.963 -0.1270 -0.2627  0.1296
  433MPD2    C4 6509   3.277   2.900  10.896 -0.5589 -0.0710 -0.6288
  433MPD2    C5 6510   3.254   2.894  10.762  0.1046 -0.1067 -0.4046
  433MPD2     H 6511   3.357   2.580  10.946 -0.8608 -0.7598 -0.9840
  433MPD2    H1 6512   3.266   2.998  10.941 -0.0795 -0.8943  1.3032
  433MPD2    H2 6513   3.225   2.767  10.587 -1.9889  1.0117 -0.0886
  433MPD2    H3 6514   3.205   2.978  10.713 -0.2073 -0.2994 -0.4209
  433MPD2     N 6515   3.349   2.786  11.097 -0.0417 -0.6043  0.1431
  433MPD2    H5 6516   3.369   2.696  11.141  1.3637 -0.6865 -0.6647
  433MPD2    N1 6517   3.285   2.525  10.687  0.0755  0.7444  0.2548
  433MPD2    H7 6518   3.258   2.536  10.590  0.4113 -1.5887 -0.1123
  434TMC3    C1 6519   3.341   2.300  10.638  0.4203  0.3124  0.6570
  434TMC3    C2 6520   3.444   2.225  10.681 -0.1697  0.7077  0.8581
  434TMC3    C3 6521   3.424   2.094  10.718  0.9180 -0.2368  0.0338
  434TMC3    C4 6522   3.222   2.242  10.610 -0.1635 -0.0714  0.0493
  434TMC3    C5 6523   3.208   2.106  10.642 -0.1934 -0.5349 -0.5409
  434TMC3    C6 6524   3.305   2.030  10.703 -0.0624 -0.0294  0.3090
  434TMC3     C 6525   3.316   2.401  10.735 -0.3000 -0.1156  0.1545
  434TMC3     O 6526   3.349   2.373  10.851 -0.4452  0.3667 -0.1034
  434TMC3     H 6527   3.538   2.270  10.711  0.5898 -1.9446  2.4581
  434TMC3    H1 6528   3.132   2.300  10.594  0.2460  0.1325 -1.4769
  434TMC3    H2 6529   3.289   1.928  10.737  0.7763 -0.9262 -2.0063
  434TMC3    C7 6530   3.096   2.045  10.576 -0.4547  0.0832 -0.9609
  434TMC3    C8 6531   3.520   2.048  10.820 -0.7120  0.9262 -0.0048
  434TMC3    O1 6532   3.054   2.107  10.479  0.3306 -0.2166 -0.0264
  434TMC3    O2 6533   3.637   2.087  10.811  0.2588  0.3471  0.0909
  435MPD2     C 6534   0.500   2.387  15.449 -0.1122  0.6309  0.6154
  435MPD2    C1 6535   0.421   2.312  15.533  0.0080  0.2801  0.2604
  435MPD2    C2 6536   0.472   2.244  15.643 -0.2389  0.1278  0.1533
  435MPD2    C3 6537   0.610   2.229  15.662 -0.4788  0.3209 -0.0252
  435MPD2    C4 6538   0.682   2.278  15.554 -0.0480 -1.0482  0.1024
  435MPD2    C5 6539   0.633   2.355  15.454  0.2515  0.0783 -0.2419
  435MPD2     H 6540   0.403   2.208  15.718 -0.7405 -0.0055 -0.3735
  435MPD2    H1 6541   0.790   2.277  15.544 -0.3196 -4.4000 -2.5537
  435MPD2    H2 6542   0.472   2.463  15.377 -2.6067 -1.3400 -0.4779
  435MPD2    H3 6543   0.701   2.414  15.392  1.8377 -0.4248  1.0176
  435MPD2     N 6544   0.657   2.160  15.775  0.3322  0.2973 -0.5871
  435MPD2    H5 6545   0.592   2.141  15.850 -0.2918 -1.5285 -1.6024
  435MPD2    N1 6546   0.279   2.316  15.520  0.1641 -0.9550  0.4415
  435MPD2    H7 6547   0.231   2.277  15.600 -1.6844 -1.4748 -0.9084
  436TMC3    C1 6548   4.629   2.394  15.591  0.3680 -0.4756  0.0035
  436TMC3    C2 6549   0.026   2.420  15.562  0.6695 -0.0268  0.3005
  436TMC3    C3 6550   0.075   2.380  15.440 -0.6376 -0.1273 -0.3552
  436TMC3    C4 6551   4.538   2.344  15.499 -0.0070  0.0521  0.2923
  436TMC3    C5 6552   4.592   2.316  15.374  0.3627  0.0270  0.0662
  436TMC3    C6 6553   4.726   2.329  15.343  0.9388 -0.3449  0.2559
  436TMC3     C 6554   4.590   2.358  15.720 -0.6614  0.6284  0.2500
  436TMC3     O 6555   4.671   2.287  15.778  0.1348  0.1188  0.1605
  436TMC3     H 6556   0.085   2.418  15.653  1.9459 -0.4997 -0.5414
  436TMC3    H1 6557   4.435   2.318  15.516 -0.7454  0.1566 -4.0529
  436TMC3    H2 6558   0.024   2.305  15.243  1.8929  0.3826  0.4092
  436TMC3    C7 6559   4.495   2.302  15.269  0.2531 -0.8307  0.9393
  436TMC3    C8 6560   0.211   2.374  15.414  0.2298  0.0162  0.7300
  436TMC3    O1 6561   4.387   2.270  15.308  0.0078 -0.5849  0.5866
  436TMC3    O2 6562   0.256   2.402  15.300  0.7411 -0.0772  0.4472
  437TMC3    C1 6563   3.166   4.338  13.135  0.3436  0.4926 -0.4630
  437TMC3    C2 6564   3.034   4.351  13.100  0.2711 -0.0981  0.7932
  437TMC3    C3 6565   3.009   4.460  13.023 -0.1832 -0.5563  0.3850
  437TMC3    C4 6566   3.262   4.433  13.120  0.1457 -0.1928 -0.2775
  437TMC3    C5 6567   3.225   4.541  13.053  0.2324  0.6720 -0.3078
  437TMC3    C6 6568   3.099   4.564  13.007 -0.1799  0.1454  0.5437
  437TMC3     C 6569   3.213   4.225  13.216 -0.7062 -0.4167  0.0873
  437TMC3     O 6570   3.336   4.233  13.220 -0.0424 -0.2198 -0.4742
  437TMC3     H 6571   2.960   4.273  13.116 -0.9687  1.1133  1.0446
  437TMC3    H1 6572   3.356   4.437  13.174 -0.6912 -3.8904  1.4640
  437TMC3    H2 6573   3.063   4.654  12.958  2.1368  0.7015 -0.1856
  437TMC3    C7 6574   3.322   4.632  13.005  0.0117  0.3202 -0.8915
  437TMC3    C8 6575   2.870   4.476  12.978 -0.0289 -0.0862  0.2964
  437TMC3    O1 6576   3.278   4.725  12.940 -0.0622 -0.5176 -0.6296
  437TMC3    O2 6577   2.826   4.592  12.967  0.1395  0.2004 -0.1543
  438MPD2     C 6578   1.439   0.894  16.784  0.2960  1.0335  0.0874
  438MPD2    C1 6579   1.482   0.798  16.874  0.1414  0.1959  0.8474
  438MPD2    C2 6580   1.439   0.808  17.005 -0.2852 -0.4343  0.0462
  438MPD2    C3 6581   1.358   0.913  17.042 -0.0314 -0.2154 -0.1503
  438MPD2    C4 6582   1.328   1.015  16.957 -0.0385 -0.6820  0.1774
  438MPD2    C5 6583   1.374   1.006  16.831  0.0762 -0.1860  0.0180
  438MPD2     H 6584   1.468   0.732  17.077 -1.7980  0.3412  1.4793
  438MPD2    H1 6585   1.277   1.107  16.981  2.4632  0.5877  0.6212
  438MPD2    H2 6586   1.466   0.888  16.679 -2.2413  1.2899 -0.5886
  438MPD2    H3 6587   1.351   1.087  16.762  1.7866  0.3895  0.1291
  438MPD2     N 6588   1.322   0.934  17.175 -0.3011  0.0019  0.2568
  438MPD2    H5 6589   1.277   1.022  17.199 -1.2370 -0.1968 -0.7094
  438MPD2    N1 6590   1.552   0.684  16.836 -0.5591  0.0904 -0.0048
  438MPD2    H7 6591   1.585   0.618  16.905 -1.0072  1.5777  1.6142
  439TMC3    C1 6592   1.663   0.534  16.692  1.0430  0.5498 -0.0299
  439TMC3    C2 6593   1.653   0.466  16.568  0.3683 -0.9891  0.2971
  439TMC3    C3 6594   1.760   0.387  16.533  1.4431 -0.1334  0.6869
  439TMC3    C4 6595   1.781   0.522  16.767 -1.0031 -0.1643 -0.0279
  439TMC3    C5 6596   1.883   0.441  16.730 -0.2810 -0.4049  0.4258
  439TMC3    C6 6597   1.869   0.363  16.617  0.2793 -0.4384  0.3010
  439TMC3     C 6598   1.579   0.655  16.709 -0.0940 -0.2826  0.2115
  439TMC3     O 6599   1.544   0.702  16.603  0.2049  0.4586 -0.0378
  439TMC3     H 6600   1.556   0.475  16.519  0.4851  0.4177  0.3336
  439TMC3    H1 6601   1.788   0.576  16.861  2.2797  0.1864 -0.4772
  439TMC3    H2 6602   1.956   0.306  16.585  0.2806 -0.0516 -0.3756
  439TMC3    C7 6603   1.966   0.397  16.835  0.7639 -0.1611 -0.5206
  439TMC3    C8 6604   1.736   0.271  16.449 -0.0785  0.4197  0.2309
  439TMC3    O1 6605   1.988   0.277  16.839 -0.3485 -0.1662 -0.5559
  439TMC3    O2 6606   1.798   0.166  16.465  0.4821 -0.2298 -0.0469
  440MPD2     C 6607   0.320   0.524  14.658  0.8044  0.1616 -0.1685
  440MPD2    C1 6608   0.355   0.630  14.745 -0.0109 -0.1146  0.2525
  440MPD2    C2 6609   0.471   0.631  14.810 -0.3091 -0.2056 -0.3824
  440MPD2    C3 6610   0.572   0.530  14.793  0.3176  0.1967 -0.8132
  440MPD2    C4 6611   0.537   0.427  14.705  0.0091  0.0802 -0.1524
  440MPD2    C5 6612   0.418   0.430  14.639 -0.5238 -0.4117  0.5737
  440MPD2     H 6613   0.485   0.721  14.869 -2.5943  1.3604 -2.2292
  440MPD2    H1 6614   0.608   0.353  14.669  1.8929  2.8963 -2.2662
  440MPD2    H2 6615   0.239   0.515  14.585 -0.8175  1.7174  1.4443
  440MPD2    H3 6616   0.402   0.355  14.562 -1.0050 -0.2222  0.4857
  440MPD2     N 6617   0.697   0.529  14.867 -0.1806 -0.4391  0.6155
  440MPD2    H5 6618   0.750   0.442  14.862 -0.0605 -0.3291  0.0271
  440MPD2    N1 6619   0.273   0.739  14.767 -0.3759 -0.6579  0.1106
  440MPD2    H7 6620   0.306   0.815  14.827 -0.3204 -2.0983  1.9263
  441TMC3    C1 6621   0.859   0.562  15.040  0.2734 -0.5246  0.1358
  441TMC3    C2 6622   0.950   0.658  15.076 -0.0940 -0.1033  0.5848
  441TMC3    C3 6623   1.010   0.642  15.199 -0.0589 -0.1686 -0.3161
  441TMC3    C4 6624   0.828   0.451  15.115 -0.0041 -1.3015 -0.0537
  441TMC3    C5 6625   0.886   0.444  15.239 -0.1055 -0.2182 -0.6215
  441TMC3    C6 6626   0.973   0.540  15.282  0.6923  0.0587 -0.4679
  441TMC3     C 6627   0.747   0.615  14.962  0.1286  0.1890  0.3315
  441TMC3     O 6628   0.708   0.721  14.998  0.2764 -0.1563  0.0741
  441TMC3     H 6629   0.976   0.733  15.002 -0.0393 -0.5268  0.1744
  441TMC3    H1 6630   0.763   0.370  15.086  1.0776 -0.7296 -4.0748
  441TMC3    H2 6631   0.989   0.540  15.389 -0.6567  0.2937 -0.2716
  441TMC3    C7 6632   0.820   0.362  15.336  0.2261 -0.3337 -0.0324
  441TMC3    C8 6633   1.018   0.770  15.270  0.4541  0.8367  0.4660
  441TMC3    O1 6634   0.706   0.335  15.311  0.2788  0.3851  0.7339
  441TMC3    O2 6635   1.071   0.769  15.383 -0.4285 -0.2251 -0.0388
  442MPD2     C 6636   3.071   1.501  16.534  0.1607  0.4583  0.2662
  442MPD2    C1 6637   2.979   1.411  16.585 -0.4869  0.3322 -0.0647
  442MPD2    C2 6638   3.012   1.279  16.588 -0.2191  0.3826  0.1106
  442MPD2    C3 6639   3.127   1.233  16.522  0.7215 -0.1162 -0.0091
  442MPD2    C4 6640   3.209   1.328  16.474 -0.5153  0.2345 -0.2907
  442MPD2    C5 6641   3.190   1.456  16.485 -0.0988 -0.1953 -0.0034
  442MPD2     H 6642   2.949   1.206  16.638  1.2775  0.2031  1.7217
  442MPD2    H1 6643   3.297   1.305  16.415 -1.1032 -0.9953 -0.6933
  442MPD2    H2 6644   3.048   1.607  16.532 -0.6219  0.3233  1.7777
  442MPD2    H3 6645   3.256   1.522  16.431 -2.1371  1.1193 -0.8876
  442MPD2     N 6646   3.154   1.093  16.497  0.0406  0.1881  0.5758
  442MPD2    H5 6647   3.237   1.083  16.440 -0.0568  0.7908  0.3278
  442MPD2    N1 6648   2.859   1.446  16.648  0.0897  0.7858  0.4291
  442MPD2    H7 6649   2.816   1.374  16.705  0.4535  0.9330  0.8840
  443TMC3    C1 6650   2.668   1.569  16.723  0.4463 -0.2549  0.3417
  443TMC3    C2 6651   2.550   1.614  16.670  0.0862 -0.0171 -0.2697
  443TMC3    C3 6652   2.431   1.567  16.715  0.0153  0.1256 -0.2128
  443TMC3    C4 6653   2.662   1.479  16.827 -0.5814 -0.6251 -0.4495
  443TMC3    C5 6654   2.540   1.447  16.878 -0.0071  0.2240  0.1450
  443TMC3    C6 6655   2.427   1.490  16.830 -0.0067  0.3393 -0.4799
  443TMC3     C 6656   2.786   1.563  16.635 -0.0940 -0.0730 -0.2115
  443TMC3     O 6657   2.792   1.655  16.557 -0.2457  0.5867  0.7058
  443TMC3     H 6658   2.561   1.665  16.574  2.5924 -0.5013 -0.2469
  443TMC3    H1 6659   2.747   1.440  16.882  1.3859  0.7184 -2.5663
  443TMC3    H2 6660   2.335   1.448  16.868 -0.8801  1.1341 -1.7406
  443TMC3    C7 6661   2.547   1.366  16.993 -0.1755  0.4563 -0.0191
  443TMC3    C8 6662   2.303   1.622  16.671  0.4023  0.2375 -0.2995
  443TMC3    O1 6663   2.629   1.277  16.998  0.1097  0.6887  0.2585
  443TMC3    O2 6664   2.241   1.683  16.755 -0.4490 -0.0061 -0.4457
  444MPD2     C 6665   3.666   0.777  17.100  0.7575  0.0682 -0.7706
  444MPD2    C1 6666   3.566   0.687  17.061 -1.0709 -0.5191 -0.0504
  444MPD2    C2 6667   3.602   0.592  16.964 -0.0559  0.0689 -0.4826
  444MPD2    C3 6668   3.737   0.577  16.926 -0.1230 -0.0047  0.1107
  444MPD2    C4 6669   3.835   0.667  16.966 -0.1921  0.1355 -0.7315
  444MPD2    C5 6670   3.796   0.760  17.056  0.1147  0.2401 -0.3055
  444MPD2     H 6671   3.527   0.529  16.918 -0.0669 -0.9567  0.9124
  444MPD2    H1 6672   3.940   0.651  16.941  0.2989 -1.3372  2.2795
  444MPD2    H2 6673   3.648   0.866  17.159 -2.4258 -0.1903 -1.3845
  444MPD2    H3 6674   3.865   0.831  17.100  0.0198 -1.5614  2.7280
  444MPD2     N 6675   3.767   0.465  16.849  0.0832 -0.3053  0.5564
  444MPD2    H5 6676   3.687   0.423  16.803  0.0426  0.6885 -0.2928
  444MPD2    N1 6677   3.437   0.692  17.119 -0.5932  1.2110 -0.0299
  444MPD2    H7 6678   3.371   0.620  17.092 -0.0633  0.4815  0.6418
  445TMC3    C1 6679   3.895   0.296  16.749 -0.3670 -0.1835  0.3959
  445TMC3    C2 6680   3.780   0.249  16.695  1.0264  0.1536 -0.1428
  445TMC3    C3 6681   3.782   0.126  16.635 -0.2401  0.6138  0.0607
  445TMC3    C4 6682   4.012   0.241  16.724  0.2965  0.2440  0.1342
  445TMC3    C5 6683   4.020   0.133  16.643 -0.2863 -0.3505 -0.1015
  445TMC3    C6 6684   3.905   0.072  16.607  0.2708 -0.2721  0.3385
  445TMC3     C 6685   3.896   0.420  16.825 -0.7636 -0.4078 -0.2353
  445TMC3     O 6686   3.998   0.453  16.882  0.1765 -0.0157  0.4183
  445TMC3     H 6687   3.683   0.291  16.716  0.6430  0.9164 -3.4235
  445TMC3    H1 6688   4.110   0.280  16.749 -0.1266  0.1746  1.8816
  445TMC3    H2 6689   3.913   4.720  16.543 -3.6935  0.7683 -1.6283
  445TMC3    C7 6690   4.152   0.089  16.595 -0.1771  0.3935 -0.2930
  445TMC3    C8 6691   3.674   0.072  16.561 -0.3095 -0.0645 -0.2078
  445TMC3    O1 6692   4.250   0.156  16.619  0.0408  0.3069 -0.1535
  445TMC3    O2 6693   3.584   0.153  16.537 -0.0022  0.3391  0.0270
  446MPD2     C 6694   3.086   2.087  11.254 -0.8096  0.5050  0.4287
  446MPD2    C1 6695   3.081   2.131  11.121  0.5905 -0.9644 -0.3590
  446MPD2    C2 6696   3.194   2.198  11.071  0.1323 -0.1242 -0.8235
  446MPD2    C3 6697   3.308   2.213  11.143  0.4647 -0.3789  0.2255
  446MPD2    C4 6698   3.311   2.171  11.277  0.1739  0.6628 -0.2972
  446MPD2    C5 6699   3.196   2.106  11.329 -0.3080 -0.4488 -0.1069
  446MPD2     H 6700   3.186   2.214  10.965 -3.6224 -2.0915 -0.8207
  446MPD2    H1 6701   3.389   2.178  11.351 -1.0448 -2.1204  1.2473
  446MPD2    H2 6702   3.011   2.027  11.303  0.0333  0.6793  1.9375
  446MPD2    H3 6703   3.199   2.067  11.431  1.9568 -3.0925 -1.1810
  446MPD2     N 6704   3.420   2.281  11.086  0.1453  0.1287 -0.1469
  446MPD2    H5 6705   3.406   2.302  10.987 -1.6295  1.4438  0.3837
  446MPD2    N1 6706   2.972   2.118  11.035  0.3088  0.7393 -0.0431
  446MPD2    H7 6707   2.979   2.170  10.949 -0.7762  1.4116  0.2768
  447TMC3    C1 6708   3.651   2.330  11.049 -0.0253 -1.0702 -0.2254
  447TMC3    C2 6709   3.622   2.433  10.958  0.3722  0.1372  0.2781
  447TMC3    C3 6710   3.721   2.525  10.927  0.2090  0.3569 -0.0062
  447TMC3    C4 6711   3.778   2.323  11.097 -0.5381 -0.1059 -0.4686
  447TMC3    C5 6712   3.875   2.413  11.063 -0.3107 -0.1716  0.9120
  447TMC3    C6 6713   3.841   2.519  10.985 -0.2938 -0.4770 -0.7047
  447TMC3     C 6714   3.549   2.286  11.140 -0.1900 -0.2415  0.0254
  447TMC3     O 6715   3.591   2.244  11.247  0.3501 -0.8831 -0.5721
  447TMC3     H 6716   3.519   2.456  10.934  0.3384 -0.9393 -0.6096
  447TMC3    H1 6717   3.812   2.248  11.167  1.3730  0.5016 -0.7605
  447TMC3    H2 6718   3.918   2.576  10.933 -0.9685  0.4416 -0.6974
  447TMC3    C7 6719   4.016   2.388  11.103  0.0392 -0.3144 -0.2838
  447TMC3    C8 6720   3.672   2.647  10.868  0.4289  1.0971 -0.4833
  447TMC3    O1 6721   4.033   2.285  11.164  0.1740 -0.7999  0.4629
  447TMC3    O2 6722   3.599   2.633  10.770  0.0956  0.2955 -0.2017
  448TMC3    C1 6723   1.187   1.739  17.249 -0.4411  0.1043  0.0123
  448TMC3    C2 6724   1.226   1.698  17.122 -0.6825  0.8487 -0.2062
  448TMC3    C3 6725   1.354   1.732  17.079  0.2972  0.3170  0.1971
  448TMC3    C4 6726   1.270   1.800  17.335  0.0424  0.0902 -0.6535
  448TMC3    C5 6727   1.397   1.819  17.294  0.0801 -0.4338 -0.2446
  448TMC3    C6 6728   1.438   1.794  17.166  0.6038 -0.5952 -0.3461
  448TMC3     C 6729   1.074   1.672  17.304 -0.1139 -0.1554 -0.8242
  448TMC3     O 6730   1.045   1.568  17.248  0.0022  0.2003  0.3320
  448TMC3     H 6731   1.148   1.645  17.068  0.1830  0.6295 -1.2347
  448TMC3    H1 6732   1.238   1.819  17.437 -0.1257 -1.5369 -0.4029
  448TMC3    H2 6733   1.543   1.803  17.138  0.9112  2.3613  1.8372
  448TMC3    C7 6734   1.506   1.848  17.384  0.3380 -0.0628  0.4457
  448TMC3    C8 6735   1.414   1.662  16.971 -0.8961 -0.4803  0.1053
  448TMC3    O1 6736   1.606   1.900  17.336  0.0104 -0.0409 -0.1286
  448TMC3    O2 6737   1.538   1.653  16.964 -0.1500  0.0025 -0.2182
  449MPD2     C 6738   3.109   0.673  13.835 -0.1599  0.2556 -0.5793
  449MPD2    C1 6739   2.995   0.626  13.770 -0.5738 -1.1221 -0.7657
  449MPD2    C2 6740   2.951   0.498  13.796  0.0339 -0.8747 -0.4272
  449MPD2    C3 6741   3.029   0.406  13.856 -0.2780 -0.0832 -0.3259
  449MPD2    C4 6742   3.138   0.452  13.924  0.4943  0.3793 -0.3104
  449MPD2    C5 6743   3.181   0.584  13.916 -0.0333  0.6139 -0.1864
  449MPD2     H 6744   2.867   0.453  13.743  0.1207 -1.4330 -0.0954
  449MPD2    H1 6745   3.197   0.390  13.991  2.8266  1.2631 -1.5652
  449MPD2    H2 6746   3.142   0.776  13.824 -0.1988  0.2802 -0.4695
  449MPD2    H3 6747   3.261   0.627  13.974 -0.4966 -0.9325  1.5966
  449MPD2     N 6748   2.983   0.272  13.849 -0.7339  0.0129  0.3552
  449MPD2    H5 6749   2.911   0.251  13.780 -0.6363 -0.9906  0.5655
  449MPD2    N1 6750   2.910   0.702  13.694  0.1473 -0.4683 -0.4607
  449MPD2    H7 6751   2.827   0.656  13.657 -0.6243 -0.3752  1.1554
  450TMC3    C1 6752   2.841   0.857  13.536 -0.4885  0.1198 -0.3660
  450TMC3    C2 6753   2.920   0.877  13.423 -0.4402  0.2007 -0.2678
  450TMC3    C3 6754   2.860   0.817  13.316  0.2647 -0.5986  0.8286
  450TMC3    C4 6755   2.720   0.788  13.548  0.2389  0.3443 -0.0563
  450TMC3    C5 6756   2.671   0.732  13.438 -0.0601 -0.3068 -0.3625
  450TMC3    C6 6757   2.737   0.750  13.320  0.6514  0.5329  0.2774
  450TMC3     C 6758   2.933   0.830  13.651  0.2708 -0.0148  0.3110
  450TMC3     O 6759   3.034   0.899  13.652 -0.5304  0.1895  0.1650
  450TMC3     H 6760   2.999   0.951  13.429 -0.0971 -0.2130  0.3312
  450TMC3    H1 6761   2.675   0.774  13.645 -1.4727  2.2364 -0.5762
  450TMC3    H2 6762   2.691   0.700  13.236  1.4910  0.7833 -0.3294
  450TMC3    C7 6763   2.634   0.599  13.469  0.6854  0.0476  0.1806
  450TMC3    C8 6764   2.926   0.821  13.183 -0.0032  0.2462  0.7084
  450TMC3    O1 6765   2.677   0.561  13.578  1.0049 -0.7462 -0.0987
  450TMC3    O2 6766   2.849   0.843  13.088 -0.2454  0.3952 -0.4799
  451MPD2     C 6767   3.929   3.725   1.068  0.4490  0.1094  0.3783
  451MPD2    C1 6768   3.974   3.596   1.079  0.3959 -0.3388 -0.6578
  451MPD2    C2 6769   4.077   3.552   0.996 -0.5895 -0.3109 -0.5837
  451MPD2    C3 6770   4.130   3.637   0.896 -0.4179 -0.3450  0.6673
  451MPD2    C4 6771   4.089   3.766   0.896  0.4781 -0.3617  0.0482
  451MPD2    C5 6772   3.996   3.805   0.980  0.8353 -0.2464 -0.1084
  451MPD2     H 6773   4.100   3.447   1.009 -0.8512 -0.1959  0.8495
  451MPD2    H1 6774   4.130   3.844   0.832 -0.7994  1.0854  1.0024
  451MPD2    H2 6775   3.850   3.762   1.132  0.3305  0.6809 -0.0912
  451MPD2    H3 6776   3.973   3.911   0.977  2.1232 -0.0402 -3.0315
  451MPD2     N 6777   4.241   3.602   0.816 -0.1169  0.3031  0.0687
  451MPD2    H5 6778   4.266   3.655   0.734  2.4407  0.3995  0.9216
  451MPD2    N1 6779   3.907   3.515   1.171  0.5199 -0.1861 -0.1802
  451MPD2    H7 6780   3.830   3.552   1.225 -0.0092 -1.1407 -0.2799
  452TMC3    C1 6781   4.399   3.459   0.719  0.8491 -0.1126 -0.1669
  452TMC3    C2 6782   4.401   3.323   0.703  0.5965 -0.3619 -0.5697
  452TMC3    C3 6783   4.383   3.276   0.574  0.2308 -0.1722  0.1269
  452TMC3    C4 6784   4.405   3.546   0.618 -1.0269 -0.4020 -0.1004
  452TMC3    C5 6785   4.420   3.496   0.490 -0.3432 -0.2785 -0.4203
  452TMC3    C6 6786   4.397   3.360   0.469 -0.1058 -0.8728 -0.7710
  452TMC3     C 6787   4.309   3.486   0.825  0.2202  0.3492  0.1791
  452TMC3     O 6788   4.298   3.406   0.916 -0.3107  0.2464 -0.5874
  452TMC3     H 6789   4.401   3.257   0.788 -0.5320  1.2482  0.6823
  452TMC3    H1 6790   4.406   3.655   0.623  0.6780 -0.3798 -0.7317
  452TMC3    H2 6791   4.374   3.318   0.372 -1.5040  1.9819 -1.7026
  452TMC3    C7 6792   4.498   3.576   0.403  0.6971 -0.1698 -0.2370
  452TMC3    C8 6793   4.266   3.193   0.555  0.1380  0.4142  0.2794
  452TMC3    O1 6794   4.497   3.699   0.416 -0.2690 -0.5701 -0.3511
  452TMC3    O2 6795   4.241   3.140   0.446  0.5752  0.0485  0.0729
  453TMC3    C1 6796   0.472   0.572  11.814 -0.2829 -0.1477  0.7228
  453TMC3    C2 6797   0.415   0.449  11.817 -0.5774 -0.7182 -0.1331
  453TMC3    C3 6798   0.445   0.371  11.704  1.4224  0.7601 -0.1020
  453TMC3    C4 6799   0.545   0.622  11.706 -0.3760 -0.0579  0.6798
  453TMC3    C5 6800   0.574   0.543  11.602 -0.2769 -0.1381 -0.0766
  453TMC3    C6 6801   0.531   0.414  11.599 -0.1367  0.0772  0.2593
  453TMC3     C 6802   0.535   0.615  11.937  0.5759  0.0029 -0.0361
  453TMC3     O 6803   0.614   0.711  11.926 -0.3555 -0.3411 -0.5009
  453TMC3     H 6804   0.349   0.415  11.896 -1.5667 -1.3790 -1.2467
  453TMC3    H1 6805   0.567   0.728  11.702 -2.7814  0.4065 -0.3828
  453TMC3    H2 6806   0.563   0.357  11.514  0.7248  0.5289  0.2815
  453TMC3    C7 6807   0.692   0.565  11.521  0.0629 -0.3860 -0.5112
  453TMC3    C8 6808   0.403   0.230  11.688 -0.4890 -0.2058 -0.3868
  453TMC3    O1 6809   0.734   0.473  11.452 -0.0439  0.0956  0.2438
  453TMC3    O2 6810   0.431   0.183  11.576  0.4949  0.3348  0.1744
  454MPD2     C 6811   4.414   0.358  16.297  0.0385  0.1691 -0.5277
  454MPD2    C1 6812   4.318   0.442  16.264 -0.6525 -0.3326  0.2616
  454MPD2    C2 6813   4.254   0.519  16.353  0.5941 -0.0562 -0.0878
  454MPD2    C3 6814   4.292   0.522  16.485 -0.6506 -0.1575  0.1400
  454MPD2    C4 6815   4.402   0.447  16.518 -0.1055  0.3396  0.2135
  454MPD2    C5 6816   4.464   0.367  16.422 -0.2601 -0.5394 -0.1998
  454MPD2     H 6817   4.166   0.575  16.321  1.0462 -0.3127 -1.7923
  454MPD2    H1 6818   4.445   0.448  16.618  0.1346  1.1930  0.1000
  454MPD2    H2 6819   4.464   0.289  16.230  1.8697 -0.6259  1.6615
  454MPD2    H3 6820   4.554   0.311  16.447  0.8383  1.7844  1.0714
  454MPD2     N 6821   4.236   0.600  16.589  0.6312 -0.1386 -0.1489
  454MPD2    H5 6822   4.294   0.595  16.673 -0.6057 -1.1722  0.6445
  454MPD2    N1 6823   4.261   0.443  16.134  0.0580  0.0569  0.2127
  454MPD2    H7 6824   4.193   0.518  16.122 -3.6409 -2.9932  2.2388
  455TMC3    C1 6825   4.015   0.674  16.508  0.8938 -0.2738  1.0272
  455TMC3    C2 6826   3.926   0.779  16.488 -0.7253 -0.1444  0.6582
  455TMC3    C3 6827   3.796   0.761  16.466 -0.3036  0.0219  0.2807
  455TMC3    C4 6828   3.967   0.551  16.514 -0.6607 -0.4915 -0.1226
  455TMC3    C5 6829   3.837   0.530  16.475  0.3817  0.5199  0.2162
  455TMC3    C6 6830   3.747   0.633  16.461 -0.3971  0.0335  0.0922
  455TMC3     C 6831   4.150   0.707  16.565 -0.9506 -1.6369 -0.3683
  455TMC3     O 6832   4.141   0.814  16.620  0.4991  0.2422 -0.1944
  455TMC3     H 6833   3.968   0.879  16.495 -0.1299 -0.2619 -1.2568
  455TMC3    H1 6834   4.022   0.463  16.542 -0.2422 -0.0694  0.3871
  455TMC3    H2 6835   3.650   0.604  16.423 -0.4751  1.2727 -0.6294
  455TMC3    C7 6836   3.806   0.413  16.387  0.9158 -0.2686  0.7566
  455TMC3    C8 6837   3.707   0.852  16.528  0.2122 -0.2972  0.1735
  455TMC3    O1 6838   3.685   0.383  16.386  0.7908 -0.0917  0.4719
  455TMC3    O2 6839   3.742   0.969  16.539  0.6218  0.0184 -0.2297
  456MPD2     C 6840   1.808   0.459  16.096  0.3350 -0.3607 -0.8524
  456MPD2    C1 6841   1.920   0.456  16.172 -0.5093 -0.4943  0.3835
  456MPD2    C2 6842   1.933   0.551  16.275 -0.3339 -0.1493 -1.1793
  456MPD2    C3 6843   1.838   0.656  16.289  0.1100 -0.3255 -0.4894
  456MPD2    C4 6844   1.722   0.653  16.208  0.2157  0.3270 -0.2564
  456MPD2    C5 6845   1.711   0.553  16.119 -0.6499  0.5086  0.8421
  456MPD2     H 6846   2.015   0.552  16.346 -0.4485  0.7378 -1.0538
  456MPD2    H1 6847   1.637   0.720  16.209 -1.0434 -1.2414 -2.0676
  456MPD2    H2 6848   1.791   0.384  16.019  1.3086 -1.1732 -0.2911
  456MPD2    H3 6849   1.622   0.549  16.057  0.5088  0.8918 -0.8292
  456MPD2     N 6850   1.856   0.752  16.393  0.0370 -0.3482 -0.6020
  456MPD2    H5 6851   1.934   0.743  16.458 -0.2274  0.9269 -0.1171
  456MPD2    N1 6852   2.013   0.355  16.141  0.1306 -0.6893  0.2748
  456MPD2    H7 6853   2.003   0.307  16.052  0.0763 -1.6823  0.8168
  457TMC3    C1 6854   1.777   0.927  16.540 -0.5077 -0.6095  0.0370
  457TMC3    C2 6855   1.715   1.050  16.553  0.2262  0.1083 -0.6865
  457TMC3    C3 6856   1.730   1.119  16.670  0.0517 -0.3094 -0.2331
  457TMC3    C4 6857   1.841   0.874  16.647  0.2727  0.7472  0.2015
  457TMC3    C5 6858   1.857   0.947  16.762 -0.2533 -0.0320  0.4492
  457TMC3    C6 6859   1.797   1.067  16.780 -1.3513  0.1218  0.5789
  457TMC3     C 6860   1.769   0.860  16.416  0.0056 -0.8116  0.9002
  457TMC3     O 6861   1.689   0.908  16.339  0.3035 -0.2945  0.0362
  457TMC3     H 6862   1.670   1.095  16.465 -3.2091  0.7728  1.4079
  457TMC3    H1 6863   1.893   0.779  16.637  0.6142  0.9303  0.2534
  457TMC3    H2 6864   1.796   1.123  16.873  2.4659 -1.1304  1.3427
  457TMC3    C7 6865   1.940   0.886  16.864  0.2735  0.0308 -0.3695
  457TMC3    C8 6866   1.665   1.248  16.699 -0.0058 -0.0104 -0.7530
  457TMC3    O1 6867   1.954   0.766  16.860 -0.6497 -0.1015  0.0806
  457TMC3    O2 6868   1.720   1.322  16.777 -0.6831  0.2946 -0.4929
  458MPD2     C 6869   3.794   0.049  12.905 -0.5169  0.9015  0.0692
  458MPD2    C1 6870   3.802   4.672  12.981 -0.4864 -0.6119  0.0445
  458MPD2    C2 6871   3.685   4.618  13.029  0.3591 -0.9059  0.0198
  458MPD2    C3 6872   3.569   4.674  12.982  0.2059 -0.5632 -0.9300
  458MPD2    C4 6873   3.566   0.053  12.905 -0.0515 -0.0491  0.5901
  458MPD2    C5 6874   3.681   0.101  12.859  0.7912 -0.2902  0.5743
  458MPD2     H 6875   3.682   4.534  13.098 -0.9300 -1.6640 -0.9734
  458MPD2    H1 6876   3.476   0.096  12.861  0.0970 -0.4734 -0.1390
  458MPD2    H2 6877   3.883   0.105  12.879  0.6088 -1.1608 -0.5416
  458MPD2    H3 6878   3.680   0.183  12.788  3.1781  1.6066  2.7043
  458MPD2     N 6879   3.456   4.601  13.028 -0.9957  0.1127  0.5769
  458MPD2    H5 6880   3.474   4.524  13.092 -1.7637  0.2514  0.9588
  458MPD2    N1 6881   3.929   4.630  13.007  0.0887 -0.0608  0.3735
  458MPD2    H7 6882   4.003   4.693  12.976  1.0174 -1.1180  0.4280
  459TMC3    C1 6883   4.096   4.470  13.074 -0.6630  0.0374  0.2458
  459TMC3    C2 6884   4.188   4.542  13.011  0.1807 -0.2366 -0.0542
  459TMC3    C3 6885   4.316   4.535  13.057 -0.1648  0.0717 -0.2982
  459TMC3    C4 6886   4.121   4.400  13.188 -0.2211 -0.1758 -0.0584
  459TMC3    C5 6887   4.246   4.402  13.238 -0.4556  0.2038 -0.6436
  459TMC3    C6 6888   4.349   4.465  13.171  0.9719 -0.0081  0.3626
  459TMC3     C 6889   3.956   4.513  13.065  0.6631 -0.0704  0.3068
  459TMC3     O 6890   3.882   4.416  13.098 -0.0610  0.3763 -0.2117
  459TMC3     H 6891   4.169   4.606  12.925  3.2496  2.1087  1.0042
  459TMC3    H1 6892   4.034   4.368  13.244 -0.5560 -1.3355 -1.2367
  459TMC3    H2 6893   4.454   4.451  13.195  1.4633  0.0768 -1.6806
  459TMC3    C7 6894   4.289   4.328  13.354 -0.3635  0.3741  0.4924
  459TMC3    C8 6895   4.397   4.651  13.020  0.2007 -0.2583 -0.2167
  459TMC3    O1 6896   4.408   4.322  13.363  0.2577  0.2351 -0.6891
  459TMC3    O2 6897   4.328   0.017  12.998 -0.6894 -0.1732 -0.1041
  460MPD2     C 6898   3.774   2.996  10.937 -0.9782  0.2403 -0.3182
  460MPD2    C1 6899   3.707   2.895  10.875  0.8668 -0.7101 -0.0037
  460MPD2    C2 6900   3.628   2.923  10.770 -0.2184 -0.2638  0.9358
  460MPD2    C3 6901   3.616   3.052  10.722 -0.3736 -0.4698 -0.3269
  460MPD2    C4 6902   3.678   3.155  10.789  0.3207  0.0718  0.5796
  460MPD2    C5 6903   3.763   3.125  10.890  0.1585  1.1927  0.1429
  460MPD2     H 6904   3.571   2.847  10.718  0.5353 -0.8590  0.9814
  460MPD2    H1 6905   3.666   3.259  10.763 -1.6057 -0.3101 -0.0372
  460MPD2    H2 6906   3.847   2.977  11.015  0.3299  0.8402 -1.3843
  460MPD2    H3 6907   3.815   3.208  10.936  0.9307  1.8563 -1.9264
  460MPD2     N 6908   3.539   3.064  10.602  0.5023 -0.0821 -0.4103
  460MPD2    H5 6909   3.496   2.980  10.564  1.8886 -0.7332 -0.5438
  460MPD2    N1 6910   3.721   2.759  10.929 -0.2859  0.1559 -0.2977
  460MPD2    H7 6911   3.779   2.753  11.012 -0.3507 -1.6715 -0.4023
  461TMC3    C1 6912   3.413   3.156  10.431  0.4937 -0.7919  0.1151
  461TMC3    C2 6913   3.345   3.038  10.411  0.6505 -0.6623  0.0884
  461TMC3    C3 6914   3.280   3.023  10.289 -0.1402 -0.5456  0.8616
  461TMC3    C4 6915   3.398   3.274  10.357  0.5402 -0.2633  0.2512
  461TMC3    C5 6916   3.319   3.260  10.244 -0.7560 -0.4943  0.5591
  461TMC3    C6 6917   3.259   3.137  10.207  0.0439  0.3917  0.7220
  461TMC3     C 6918   3.498   3.180  10.547  0.0040 -0.0327  0.8722
  461TMC3     O 6919   3.538   3.291  10.568 -0.4407 -0.1295  0.2000
  461TMC3     H 6920   3.337   2.956  10.482  1.7744 -0.6784  0.1884
  461TMC3    H1 6921   3.447   3.367  10.383  1.4874 -0.8831  0.7074
  461TMC3    H2 6922   3.193   3.139  10.122 -0.7463  1.5229  1.3608
  461TMC3    C7 6923   3.289   3.380  10.158 -0.8352  0.3990 -0.1569
  461TMC3    C8 6924   3.221   2.898  10.249 -0.0127 -1.2694  0.2150
  461TMC3    O1 6925   3.230   3.366  10.051 -0.0835 -0.5214  0.9313
  461TMC3    O2 6926   3.198   2.818  10.336  0.1243 -0.4944 -0.3523
  462TMC3    C1 6927   3.392   3.462   0.194 -0.2633  0.3570 -0.2736
  462TMC3    C2 6928   3.459   3.435   0.074  0.3265  0.1260 -0.1132
  462TMC3    C3 6929   3.457   3.309   0.023 -0.0226  0.0306 -0.7947
  462TMC3    C4 6930   3.315   3.364   0.250 -0.0134 -0.2924  0.3061
  462TMC3    C5 6931   3.302   3.239   0.186  0.2948  0.1310 -0.4018
  462TMC3    C6 6932   3.382   3.205   0.084  0.9017  0.3243  0.3213
  462TMC3     C 6933   3.369   3.601   0.240  0.0747  0.2332 -0.4640
  462TMC3     O 6934   3.274   3.610   0.312  0.2995  0.2736  0.3418
  462TMC3     H 6935   3.508   3.511   0.015 -1.7725  1.2812 -0.3766
  462TMC3    H1 6936   3.261   3.384   0.342 -1.9866  0.9421 -1.1327
  462TMC3    H2 6937   3.343   3.129   0.018 -1.1043  1.1864  0.5195
  462TMC3    C7 6938   3.193   3.150   0.220 -0.5246 -0.3284  0.2175
  462TMC3    C8 6939   3.462   3.304  17.625  0.6676  0.1224  0.1841
  462TMC3    O1 6940   3.194   3.035   0.174 -0.2961 -0.0585  0.3378
  462TMC3    O2 6941   3.394   3.384  17.565  0.0286 -0.0555 -0.0859
  463MPD2     C 6942   4.422   2.751   1.558  1.2540  0.0999 -0.1607
  463MPD2    C1 6943   4.327   2.831   1.495 -0.0702  0.1776  0.0514
  463MPD2    C2 6944   4.281   2.951   1.560  0.0692 -0.6684  0.1387
  463MPD2    C3 6945   4.346   2.997   1.676  0.4727  0.1742  0.7297
  463MPD2    C4 6946   4.458   2.924   1.723 -0.2902  0.9087 -0.4933
  463MPD2    C5 6947   4.486   2.802   1.668 -0.7391  0.8046 -0.6042
  463MPD2     H 6948   4.200   3.007   1.514 -0.3015 -0.9235  0.4764
  463MPD2    H1 6949   4.513   2.958   1.810  0.5057 -2.0967  0.1866
  463MPD2    H2 6950   4.455   2.655   1.520 -1.3170 -1.2734  1.0404
  463MPD2    H3 6951   4.567   2.749   1.716  1.0878  2.5390 -1.8093
  463MPD2     N 6952   4.321   3.114   1.745  0.4745 -0.3523  0.9872
  463MPD2    H5 6953   4.378   3.125   1.828  1.0153 -0.2234  0.5971
  463MPD2    N1 6954   4.250   2.791   1.385 -0.2623  0.1976  0.2457
  463MPD2    H7 6955   4.174   2.854   1.359 -0.3514 -0.3017 -0.7041
  464TMC3    C1 6956   4.197   2.691   1.190  0.0221  0.1175 -0.5943
  464TMC3    C2 6957   4.064   2.669   1.223 -0.1990  0.2919 -0.0147
  464TMC3    C3 6958   3.969   2.621   1.133 -0.6708 -0.2748  0.0553
  464TMC3    C4 6959   4.239   2.626   1.075  0.0554  0.2957  0.0324
  464TMC3    C5 6960   4.142   2.567   0.992  0.3352  0.0308  0.4795
  464TMC3    C6 6961   4.011   2.567   1.017  0.8078  0.0081  1.0568
  464TMC3     C 6962   4.281   2.690   1.309 -0.0838  0.0377  0.3797
  464TMC3     O 6963   4.384   2.623   1.305 -0.4347 -0.6257 -0.0624
  464TMC3     H 6964   4.039   2.681   1.328  1.4631 -2.3126  0.6789
  464TMC3    H1 6965   4.342   2.631   1.042  0.8879  0.8677  2.7088
  464TMC3    H2 6966   3.943   2.539   0.937  1.3089  1.1295  0.2551
  464TMC3    C7 6967   4.187   2.482   0.887  0.4455 -0.0868 -0.8142
  464TMC3    C8 6968   3.825   2.603   1.155 -0.2182  0.0675 -0.4682
  464TMC3    O1 6969   4.296   2.505   0.836  0.3573 -0.2196 -0.0370
  464TMC3    O2 6970   3.748   2.600   1.061  0.4589 -0.0710  0.4694
  465MPD2     C 6971   1.286   1.370   0.006 -0.1098 -0.3609  0.1629
  465MPD2    C1 6972   1.172   1.321   0.068 -0.4337 -1.0822  0.4426
  465MPD2    C2 6973   1.082   1.258  17.725  0.0556 -0.9750  0.0885
  465MPD2    C3 6974   1.110   1.242  17.591  0.7514 -1.3685 -0.1946
  465MPD2    C4 6975   1.220   1.289  17.534 -0.2036  0.2198  0.0944
  465MPD2    C5 6976   1.305   1.360  17.615  0.4225  0.3127 -0.0150
  465MPD2     H 6977   0.997   1.211   0.031 -0.2650 -2.0452 -1.5397
  465MPD2    H1 6978   1.244   1.274  17.429  2.2953  0.4303  0.6392
  465MPD2    H2 6979   1.371   1.410   0.062 -0.0033  1.5654 -1.3533
  465MPD2    H3 6980   1.396   1.403  17.576  0.4803 -1.6973 -2.1280
  465MPD2     N 6981   1.018   1.167  17.512 -0.2649 -0.5620 -0.2905
  465MPD2    H5 6982   0.932   1.137  17.556 -0.4077  0.2614 -0.0146
  465MPD2    N1 6983   1.135   1.328   0.206  0.2747 -0.1578  0.1601
  465MPD2    H7 6984   1.055   1.278   0.243 -1.9831  1.2436 -2.8561
  466TMC3    C1 6985   0.693   1.005  17.374 -0.4549  0.1318 -0.5873
  466TMC3    C2 6986   0.650   1.019  17.249 -0.4036 -0.1065  0.1609
  466TMC3    C3 6987   0.752   1.055  17.169  1.0015 -0.3327  0.9846
  466TMC3    C4 6988   0.820   1.038  17.420 -0.4424  0.3623 -0.1394
  466TMC3    C5 6989   0.919   1.063  17.331  0.4374  0.0338 -0.0672
  466TMC3    C6 6990   0.884   1.074  17.198  0.3017 -0.0863 -0.4163
  466TMC3     C 6991   0.589   0.991  17.478 -0.4492  0.0768 -0.5064
  466TMC3     O 6992   0.613   1.009  17.597 -0.0631  0.1614  0.1776
  466TMC3     H 6993   0.562   0.978  17.200  0.0799 -0.0424 -0.7678
  466TMC3    H1 6994   0.847   1.006  17.520 -0.9016  1.5557  0.3640
  466TMC3    H2 6995   0.964   1.106  17.132 -0.5724 -0.0825 -1.4760
  466TMC3    C7 6996   1.037   1.130  17.383  0.1329 -0.6083  0.3022
  466TMC3    C8 6997   0.721   1.114  17.041 -0.5210 -0.3954  0.7350
  466TMC3    O1 6998   1.132   1.133  17.307 -0.9444 -0.8082 -0.4941
  466TMC3    O2 6999   0.779   1.076  16.939 -0.2723 -0.1574  0.1210
  467TMC3    C1 7000   1.762   3.781  14.110  0.2943  0.2205  0.2710
  467TMC3    C2 7001   1.695   3.886  14.058  0.5903  0.5017 -0.4661
  467TMC3    C3 7002   1.578   3.859  13.997 -0.6049 -0.4816  0.3057
  467TMC3    C4 7003   1.701   3.659  14.126 -0.1194 -0.2666  0.7482
  467TMC3    C5 7004   1.575   3.648  14.084  0.2016 -0.0568  0.3161
  467TMC3    C6 7005   1.514   3.742  14.006 -0.8250  0.3516  0.4215
  467TMC3     C 7006   1.896   3.785  14.057  0.1350 -0.2784 -0.5476
  467TMC3     O 7007   1.926   3.875  13.983  0.2141 -0.4065 -0.3442
  467TMC3     H 7008   1.749   3.980  14.058  0.7231  0.4247 -0.5681
  467TMC3    H1 7009   1.752   3.575  14.172 -0.7007 -1.8439 -1.5165
  467TMC3    H2 7010   1.423   3.715  13.954 -1.0906  0.2945  0.9177
  467TMC3    C7 7011   1.498   3.536  14.144 -0.1535 -0.0021 -0.1763
  467TMC3    C8 7012   1.542   3.930  13.877  0.3240  0.5971 -0.0260
  467TMC3    O1 7013   1.540   3.421  14.161 -0.2580 -0.2946 -0.0192
  467TMC3    O2 7014   1.451   3.880  13.809 -0.0301 -0.0430  0.2163
  468MPD2     C 7015   0.608   2.882  10.606  0.8520  0.3396  0.5700
  468MPD2    C1 7016   0.711   2.844  10.686 -0.3491  0.3489  0.1259
  468MPD2    C2 7017   0.712   2.719  10.746  0.4085 -0.5528  0.0559
  468MPD2    C3 7018   0.609   2.621  10.722  0.0389 -0.7767 -0.3575
  468MPD2    C4 7019   0.503   2.668  10.655  0.7537  0.8827  0.3928
  468MPD2    C5 7020   0.504   2.788  10.593  0.2725  0.0718  0.5630
  468MPD2     H 7021   0.801   2.702  10.807 -0.2374 -1.4576  0.7441
  468MPD2    H1 7022   0.423   2.600  10.626  1.4615  0.0691  0.3392
  468MPD2    H2 7023   0.610   2.976  10.552 -1.8298 -0.3130 -0.6811
  468MPD2    H3 7024   0.429   2.812  10.518  1.3554  0.6508 -0.3313
  468MPD2     N 7025   0.602   2.481  10.754  0.0480  0.2366 -0.4739
  468MPD2    H5 7026   0.517   2.426  10.745  0.1293 -0.0214  0.3008
  468MPD2    N1 7027   0.823   2.932  10.702  0.4121  0.0711  0.1733
  468MPD2    H7 7028   0.901   2.900  10.759  0.4910 -3.4517 -1.9194
  469TMC3    C1 7029   0.948   3.118  10.730 -0.3039  0.4209 -0.0496
  469TMC3    C2 7030   1.048   3.030  10.755  0.0377  0.4916 -0.5731
  469TMC3    C3 7031   1.117   3.026  10.869  0.0614 -0.1126 -0.2014
  469TMC3    C4 7032   0.919   3.212  10.827 -0.6950 -0.2365  0.0535
  469TMC3    C5 7033   0.976   3.200  10.950  0.0147  0.3390  0.3967
  469TMC3    C6 7034   1.078   3.109  10.972  0.0029 -0.0998 -0.5997
  469TMC3     C 7035   0.826   3.066  10.679 -0.1009 -0.1222  0.1723
  469TMC3     O 7036   0.737   3.146  10.652 -0.4560  0.6331 -0.0758
  469TMC3     H 7037   1.068   2.963  10.673 -0.4761  0.2444 -0.4946
  469TMC3    H1 7038   0.855   3.293  10.793 -0.4019  0.8677  2.1183
  469TMC3    H2 7039   1.125   3.106  11.070  1.7507  0.1915 -1.4454
  469TMC3    C7 7040   0.907   3.270  11.057 -0.3155 -0.5543  0.5205
  469TMC3    C8 7041   1.231   2.931  10.872 -0.3102 -0.3628  1.5858
  469TMC3    O1 7042   0.827   3.357  11.020  0.0452 -0.4806 -0.4034
  469TMC3    O2 7043   1.281   2.899  10.766 -0.2750  0.1657  0.0601
  470TMC3    C1 7044   2.414   2.814   0.748  0.4207 -0.2006  0.2293
  470TMC3    C2 7045   2.485   2.891   0.840  0.6264  0.1368 -0.0504
  470TMC3    C3 7046   2.425   2.998   0.904 -0.5257  0.2869 -0.0300
  470TMC3    C4 7047   2.274   2.831   0.737  0.0388  0.0251  0.4043
  470TMC3    C5 7048   2.219   2.939   0.803  0.1764  0.1720 -0.3132
  470TMC3    C6 7049   2.293   3.027   0.875  0.0321 -0.4996 -0.3568
  470TMC3     C 7050   2.479   2.695   0.707 -0.6849  0.7032  0.1210
  470TMC3     O 7051   2.596   2.675   0.743  0.6157  0.0732  0.0081
  470TMC3     H 7052   2.593   2.880   0.841  0.3352 -2.8714 -1.2521
  470TMC3    H1 7053   2.210   2.753   0.697 -0.3742  0.2938  0.5405
  470TMC3    H2 7054   2.255   3.120   0.915  0.8081 -0.5271  0.4374
  470TMC3    C7 7055   2.084   2.965   0.784 -0.0169  0.1486  0.9652
  470TMC3    C8 7056   2.502   3.095   0.981  0.1498 -0.5868 -0.5400
  470TMC3    O1 7057   2.026   2.929   0.682 -0.3608  0.0543  0.2021
  470TMC3    O2 7058   2.449   3.202   1.002  0.4744  0.1646 -0.0002
  471MPD2     C 7059   3.577   4.490  17.080 -0.8666 -0.9551  0.3885
  471MPD2    C1 7060   3.494   4.382  17.059 -0.3862 -0.1871  0.9081
  471MPD2    C2 7061   3.493   4.279  17.151  0.0646 -0.8389 -0.0442
  471MPD2    C3 7062   3.569   4.293  17.266 -0.2515 -0.1518  0.4180
  471MPD2    C4 7063   3.651   4.405  17.282 -0.4484 -0.4410 -0.2231
  471MPD2    C5 7064   3.655   4.499  17.189 -0.7482  0.1555 -0.1033
  471MPD2     H 7065   3.423   4.198  17.134 -0.9742  0.2056 -0.7838
  471MPD2    H1 7066   3.712   4.416  17.372 -0.2160 -2.4836 -0.1368
  471MPD2    H2 7067   3.583   4.572  17.009 -0.6317 -0.1263  1.3698
  471MPD2    H3 7068   3.715   4.587  17.209  1.9066 -1.4315 -1.0241
  471MPD2     N 7069   3.580   4.194  17.366 -0.3302 -0.3350  0.4896
  471MPD2    H5 7070   3.655   4.197  17.434  0.5734 -0.7465 -0.4773
  471MPD2    N1 7071   3.409   4.369  16.955  0.2126  0.1235  0.3916
  471MPD2    H7 7072   3.347   4.289  16.952 -0.4417  0.5053  3.3103
  472TMC3    C1 7073   3.339   4.401  16.739  0.6376 -0.1968  0.5280
  472TMC3    C2 7074   3.232   4.459  16.674 -0.3585 -0.1139 -0.5939
  472TMC3    C3 7075   3.172   4.379  16.586 -0.1331 -0.1754  0.7095
  472TMC3    C4 7076   3.385   4.277  16.705 -0.2835  0.3229  0.9420
  472TMC3    C5 7077   3.328   4.201  16.608 -0.2191  0.4069  0.2325
  472TMC3    C6 7078   3.218   4.258  16.548 -0.0946 -0.0375 -0.2986
  472TMC3     C 7079   3.392   4.471  16.853 -0.6796 -0.1722  0.2172
  472TMC3     O 7080   3.400   4.592  16.858 -0.3136 -0.2723 -0.2727
  472TMC3     H 7081   3.204   4.561  16.699  1.0618  0.4444 -1.2882
  472TMC3    H1 7082   3.473   4.239  16.756  1.4693  0.1067 -2.2125
  472TMC3    H2 7083   3.167   4.213  16.463 -0.5976 -0.8187  0.4205
  472TMC3    C7 7084   3.335   4.060  16.621 -0.2800  0.3185  0.3222
  472TMC3    C8 7085   3.033   4.376  16.623 -0.6152  0.5478  0.2062
  472TMC3    O1 7086   3.391   4.008  16.716 -0.1059  0.0616 -0.5571
  472TMC3    O2 7087   2.997   4.458  16.706  0.4231 -0.1501 -0.0804
  473MPD2     C 7088   2.881   1.359  13.909  0.6674  0.9795  0.4311
  473MPD2    C1 7089   2.947   1.457  13.841  0.7627 -0.8856 -0.0911
  473MPD2    C2 7090   3.015   1.551  13.917 -0.8062  0.4223 -0.0268
  473MPD2    C3 7091   3.030   1.543  14.052 -0.0035 -0.9701  0.6648
  473MPD2    C4 7092   2.981   1.435  14.121  0.4277 -0.2524  0.1132
  473MPD2    C5 7093   2.904   1.342  14.046 -0.0444  0.0694  0.5387
  473MPD2     H 7094   3.066   1.634  13.869  0.2843  0.4801  1.2233
  473MPD2    H1 7095   2.995   1.414  14.226  2.3802  0.7369  0.0483
  473MPD2    H2 7096   2.822   1.281  13.863  1.5649  0.3909  0.2733
  473MPD2    H3 7097   2.881   1.242  14.080 -0.5287  0.2901  0.8549
  473MPD2     N 7098   3.081   1.654  14.129  0.0878 -0.0534  1.0086
  473MPD2    H5 7099   3.120   1.633  14.220 -0.3392 -2.7466  0.5815
  473MPD2    N1 7100   2.922   1.490  13.703  0.5910  0.2743  0.0205
  473MPD2    H7 7101   2.983   1.562  13.664  0.3798  1.3027  1.5919
  474TMC3    C1 7102   3.194   1.867  14.168  0.3807  0.4005 -0.1544
  474TMC3    C2 7103   3.230   1.988  14.112 -0.6166 -0.5665  0.0019
  474TMC3    C3 7104   3.303   2.062  14.195  0.4798  0.0027  0.0817
  474TMC3    C4 7105   3.227   1.826  14.294 -0.3652  0.0706 -0.1620
  474TMC3    C5 7106   3.303   1.907  14.368  0.2974 -0.1287 -0.2336
  474TMC3    C6 7107   3.351   2.022  14.319 -0.0296 -0.2012  0.3214
  474TMC3     C 7108   3.114   1.782  14.080 -0.0623 -0.0322 -0.2140
  474TMC3     O 7109   3.091   1.832  13.971  0.3642 -0.4320 -0.0424
  474TMC3     H 7110   3.193   2.018  14.015 -0.3276 -2.2692 -0.6320
  474TMC3    H1 7111   3.182   1.738  14.339 -0.3054  1.2778  2.3082
  474TMC3    H2 7112   3.411   2.092  14.374 -0.2331 -0.1146  0.4333
  474TMC3    C7 7113   3.336   1.871  14.510 -0.8109 -0.2449  0.6281
  474TMC3    C8 7114   3.350   2.197  14.162 -0.0965 -0.4159 -0.5239
  474TMC3    O1 7115   3.328   1.751  14.533  0.3852  0.4282  0.3035
  474TMC3    O2 7116   3.401   2.269  14.245 -0.3246  0.0641  0.0709
  475MPD2     C 7117   1.090   0.020  11.240  0.0577  0.6189 -0.0109
  475MPD2    C1 7118   1.111   0.095  11.125  0.1555 -0.0405  0.4551
  475MPD2    C2 7119   0.995   0.136  11.058 -0.2605 -0.0300 -0.3944
  475MPD2    C3 7120   0.869   0.116  11.108  0.3110  0.4160  0.1488
  475MPD2    C4 7121   0.854   0.045  11.218  0.4843  0.4143  0.1475
  475MPD2    C5 7122   0.963   4.725  11.282 -0.3729  0.4141  0.3074
  475MPD2     H 7123   0.998   0.199  10.970 -1.1476  0.4379 -0.0958
  475MPD2    H1 7124   0.759   0.018  11.262 -0.0978  0.9281 -0.7850
  475MPD2    H2 7125   1.171   4.717  11.301 -1.2278 -0.8188  0.7769
  475MPD2    H3 7126   0.949   4.670  11.374 -3.8191 -0.1628 -0.5708
  475MPD2     N 7127   0.761   0.179  11.038  0.3864  0.5481 -0.0481
  475MPD2    H5 7128   0.792   0.246  10.967  1.3736 -0.5435 -0.6498
  475MPD2    N1 7129   1.241   0.131  11.096  0.5971 -0.0674 -0.3731
  475MPD2    H7 7130   1.303   0.134  11.176 -1.2161  2.3714  0.9518
  476TMC3    C1 7131   1.381   0.279  11.011 -0.5034  0.2388  0.3143
  476TMC3    C2 7132   1.460   0.308  10.911 -0.4351  0.2689 -0.2151
  476TMC3    C3 7133   1.535   0.420  10.909 -0.4926  0.2846 -0.3570
  476TMC3    C4 7134   1.391   0.351  11.129  0.5621 -1.0952 -0.4175
  476TMC3    C5 7135   1.463   0.466  11.126 -0.3057 -0.0320 -0.0872
  476TMC3    C6 7136   1.534   0.507  11.017 -0.7008 -0.1913 -0.0376
  476TMC3     C 7137   1.278   0.188  10.984 -0.1825  0.3733  0.8718
  476TMC3     O 7138   1.232   0.197  10.871 -0.1113 -0.8115 -0.2215
  476TMC3     H 7139   1.464   0.231  10.835 -0.1723  0.0051  0.0675
  476TMC3    H1 7140   1.331   0.332  11.218  1.2326  0.5555  0.3883
  476TMC3    H2 7141   1.601   0.593  11.020 -0.6327 -0.2209 -0.6875
  476TMC3    C7 7142   1.428   0.569  11.223 -0.5630  0.1249 -0.1080
  476TMC3    C8 7143   1.664   0.425  10.848  0.4572 -0.3096 -0.0836
  476TMC3    O1 7144   1.346   0.538  11.312 -0.2047  1.0177  0.2289
  476TMC3    O2 7145   1.750   0.497  10.897 -0.3549  0.1388  0.3162
  477MPD2     C 7146   4.347   1.902  11.931  0.0829 -0.8474  0.2897
  477MPD2    C1 7147   4.317   1.808  11.831  0.4362 -0.5108  0.9070
  477MPD2    C2 7148   4.345   1.669  11.867 -0.1552 -0.8418 -0.1456
  477MPD2    C3 7149   4.385   1.639  11.995 -0.5021  0.3128  0.5425
  477MPD2    C4 7150   4.394   1.733  12.094  0.2823  0.3975  0.2571
  477MPD2    C5 7151   4.377   1.870  12.059 -0.0473  0.2724  0.0407
  477MPD2     H 7152   4.335   1.596  11.787 -1.5553  1.6249 -2.2358
  477MPD2    H1 7153   4.421   1.725  12.199 -0.0247  0.6816  0.3582
  477MPD2    H2 7154   4.336   2.008  11.914 -0.5446 -0.8321  0.7711
  477MPD2    H3 7155   4.373   1.957  12.123  0.3059  0.8640 -0.7457
  477MPD2     N 7156   4.399   1.506  12.036 -0.9280  0.1348 -0.6655
  477MPD2    H5 7157   4.405   1.434  11.965 -0.6356  0.9005 -1.4126
  477MPD2    N1 7158   4.264   1.848  11.705  0.1440  0.5606  0.8291
  477MPD2    H7 7159   4.235   1.944  11.688  0.2535  0.8986  2.5394
  478TMC3    C1 7160   4.188   1.843  11.493 -0.4694 -0.1566 -0.5211
  478TMC3    C2 7161   4.231   1.967  11.474  0.2741  0.1875  0.0147
  478TMC3    C3 7162   4.156   2.059  11.413  0.4493  0.5514 -0.7297
  478TMC3    C4 7163   4.077   1.807  11.431 -0.9018 -0.1231  0.3214
  478TMC3    C5 7164   4.003   1.894  11.360 -0.3137  0.2603  0.9293
  478TMC3    C6 7165   4.036   2.029  11.354 -0.1906 -0.3723 -0.7928
  478TMC3     C 7166   4.233   1.765  11.600 -0.5586 -0.3333  0.4757
  478TMC3     O 7167   4.227   1.645  11.591  0.2493  0.6169 -0.3160
  478TMC3     H 7168   4.330   1.990  11.511  0.7724 -0.4598 -0.8920
  478TMC3    H1 7169   4.037   1.712  11.464 -0.0116 -0.7386 -0.3773
  478TMC3    H2 7170   3.966   2.091  11.299 -0.8164 -0.2406  0.1599
  478TMC3    C7 7171   3.869   1.848  11.330 -0.1648 -0.5081  0.2715
  478TMC3    C8 7172   4.181   2.190  11.463 -0.3260 -0.2305  0.7268
  478TMC3    O1 7173   3.834   1.753  11.389  0.4834 -0.1870 -0.4514
  478TMC3    O2 7174   4.280   2.209  11.529  0.0563 -0.2025  0.2966
  479MPD2     C 7175   2.680   3.428  15.398 -0.5549  0.3469 -0.2249
  479MPD2    C1 7176   2.679   3.442  15.537 -0.5101  0.1402  0.0633
  479MPD2    C2 7177   2.795   3.500  15.597 -0.6687  0.2256  0.5824
  479MPD2    C3 7178   2.893   3.575  15.526 -0.7647 -0.0566 -0.0869
  479MPD2    C4 7179   2.886   3.561  15.393  0.5364  0.6812  0.1430
  479MPD2    C5 7180   2.791   3.487  15.334  0.1970 -0.6505  0.0790
  479MPD2     H 7181   2.799   3.489  15.704 -4.6428  0.2362  0.7291
  479MPD2    H1 7182   2.965   3.597  15.329  0.5642  1.2516  0.4958
  479MPD2    H2 7183   2.606   3.375  15.340 -0.5087 -1.1686  1.1225
  479MPD2    H3 7184   2.801   3.480  15.226 -1.8646 -1.5759 -0.0559
  479MPD2     N 7185   2.986   3.668  15.577 -0.6603 -0.2889 -0.3138
  479MPD2    H5 7186   3.057   3.703  15.513 -1.0023 -1.6365 -1.4234
  479MPD2    N1 7187   2.573   3.380  15.606 -0.8026  0.5209 -0.3112
  479MPD2    H7 7188   2.508   3.318  15.560  0.5630 -1.0305 -0.1548
  480TMC3    C1 7189   2.772   3.695  15.991  0.2694  0.4935 -0.3377
  480TMC3    C2 7190   2.665   3.775  15.950  0.5494  0.3074 -0.2233
  480TMC3    C3 7191   2.645   3.803  15.821 -0.2249 -0.3147 -0.7509
  480TMC3    C4 7192   2.882   3.683  15.906  0.4867  0.5716 -0.2514
  480TMC3    C5 7193   2.861   3.728  15.777 -0.3495  0.5665  0.1837
  480TMC3    C6 7194   2.743   3.779  15.729  0.1969  0.1341  0.0184
  480TMC3     C 7195   2.742   3.577  16.074 -0.2727  0.6649  0.0624
  480TMC3     O 7196   2.833   3.510  16.117 -0.0322 -0.3316 -0.8953
  480TMC3     H 7197   2.585   3.801  16.018 -0.2546 -0.7678 -0.7473
  480TMC3    H1 7198   2.963   3.614  15.924 -2.6350 -3.3071 -1.1415
  480TMC3    H2 7199   2.727   3.793  15.623  1.5151 -0.9350 -0.3232
  480TMC3    C7 7200   2.980   3.733  15.698  0.2312  0.2040 -0.6307
  480TMC3    C8 7201   2.520   3.746  15.779 -0.4335  0.3078  0.7641
  480TMC3    O1 7202   3.072   3.797  15.752  0.2788  0.5315 -0.5121
  480TMC3    O2 7203   2.458   3.693  15.869  0.7261 -0.3477  0.2112
  481MPD2     C 7204   4.593   3.362  14.755 -0.0483 -0.4232  0.3654
  481MPD2    C1 7205   4.485   3.274  14.779  0.0589 -0.0437  0.0768
  481MPD2    C2 7206   4.477   3.217  14.900  0.3070 -0.2727 -0.1811
  481MPD2    C3 7207   4.584   3.229  14.991 -0.0100 -0.0857  0.2309
  481MPD2    C4 7208   4.696   3.299  14.960  0.8200  0.0876 -0.1068
  481MPD2    C5 7209   4.699   3.364  14.838  0.2735  0.7093  0.0253
  481MPD2     H 7210   4.386   3.168  14.933  0.2859 -0.4865 -0.5651
  481MPD2    H1 7211   0.052   3.306  15.017  0.8078 -1.4325  0.1113
  481MPD2    H2 7212   4.598   3.418  14.663  1.0923  0.7872  1.1659
  481MPD2    H3 7213   0.051   3.422  14.813  0.2195  0.8150  0.0804
  481MPD2     N 7214   4.577   3.178  15.124  0.0374 -0.6417 -0.3912
  481MPD2    H5 7215   4.644   3.209  15.193  0.3343 -2.6354  0.2266
  481MPD2    N1 7216   4.382   3.268  14.683  0.7554 -0.0753 -0.3582
  481MPD2    H7 7217   4.390   3.342  14.614 -0.6227  1.1691  0.8026
  482TMC3    C1 7218   4.181   3.185  14.578  0.1301  0.2173  0.5857
  482TMC3    C2 7219   4.107   3.077  14.541 -0.3497 -0.6737 -0.0353
  482TMC3    C3 7220   4.044   3.094  14.420  0.5824  0.5711  0.2723
  482TMC3    C4 7221   4.181   3.301  14.506  0.3691  0.3583  0.9760
  482TMC3    C5 7222   4.116   3.312  14.388 -0.5928 -0.1794  0.3478
  482TMC3    C6 7223   4.040   3.204  14.342  0.9917  0.3041 -0.0248
  482TMC3     C 7224   4.288   3.168  14.675 -0.0092  0.3707  1.0115
  482TMC3     O 7225   4.285   3.067  14.748  0.4863  0.4799 -0.0946
  482TMC3     H 7226   4.124   2.980  14.587  0.3402  0.4310  2.0307
  482TMC3    H1 7227   4.237   3.387  14.542  0.3399  0.2433  1.2968
  482TMC3    H2 7228   3.982   3.213  14.251  0.1025  2.7256  0.7788
  482TMC3    C7 7229   4.106   3.442  14.318 -0.0682 -0.5765 -0.1084
  482TMC3    C8 7230   3.955   2.982  14.372  0.5015 -0.4745 -0.2223
  482TMC3    O1 7231   4.096   3.535  14.393  0.3333  0.0017  0.3617
  482TMC3    O2 7232   3.997   2.871  14.388  0.1169 -0.0362 -0.5160
  483TMC3    C1 7233   2.384   2.752   1.282 -0.8307 -0.5266  0.3684
  483TMC3    C2 7234   2.504   2.791   1.224  0.0661 -0.1792 -0.5280
  483TMC3    C3 7235   2.623   2.748   1.264 -0.5428  0.1667 -0.4504
  483TMC3    C4 7236   2.394   2.645   1.370 -0.3984 -0.3513 -0.1693
  483TMC3    C5 7237   2.514   2.596   1.407  0.6170 -0.6985 -0.8531
  483TMC3    C6 7238   2.630   2.652   1.363  0.2726  0.8140 -0.5521
  483TMC3     C 7239   2.270   2.755   1.189 -0.1577 -0.5774  0.1560
  483TMC3     O 7240   2.242   2.864   1.136 -0.1965 -0.3846 -0.2112
  483TMC3     H 7241   2.508   2.858   1.139  1.5170 -0.3788 -0.6143
  483TMC3    H1 7242   2.301   2.597   1.399  1.2779 -1.3569  3.5494
  483TMC3    H2 7243   2.724   2.611   1.400 -1.5147 -3.6733 -1.0327
  483TMC3    C7 7244   2.532   2.464   1.452  0.2192  0.2393  0.5723
  483TMC3    C8 7245   2.709   2.717   1.145  0.0307 -0.4889  0.2945
  483TMC3    O1 7246   2.625   2.407   1.396 -0.0052 -0.4245 -0.0843
  483TMC3    O2 7247   2.684   2.771   1.039  0.5106  0.0652  0.2600
  484MPD2     C 7248   4.597   0.127  13.022 -0.4314 -0.5087 -0.0531
  484MPD2    C1 7249   4.624   4.730  12.995  0.0547 -0.1834 -0.1967
  484MPD2    C2 7250   0.015   4.696  12.950 -0.5302  0.7318 -0.3491
  484MPD2    C3 7251   0.112   0.060  12.912  0.8356  0.7606  0.0406
  484MPD2    C4 7252   0.078   0.194  12.944  0.3306 -0.2321 -0.5966
  484MPD2    C5 7253   4.696   0.221  13.013 -0.1529  0.6612  0.4401
  484MPD2     H 7254   0.034   4.594  12.919 -0.5644  0.2208  1.2909
  484MPD2    H1 7255   0.143   0.277  12.921  0.9288 -0.1666  1.3293
  484MPD2    H2 7256   4.501   0.153  13.064 -0.6954  1.3839 -1.8267
  484MPD2    H3 7257   4.679   0.324  13.040 -0.0936  0.6795  0.4089
  484MPD2     N 7258   0.232   0.040  12.847  0.2794 -0.1045  0.0678
  484MPD2    H5 7259   0.288   0.122  12.824  2.0104 -1.5898 -1.0970
  484MPD2    N1 7260   4.528   4.626  13.009  0.1775 -0.0471  0.0726
  484MPD2    H7 7261   4.566   4.532  13.003  0.5653  0.1428 -0.4296
  485TMC3    C1 7262   0.411   4.668  12.769  0.3076  0.3707  0.4390
  485TMC3    C2 7263   0.523   4.598  12.822 -0.2461 -0.1937  0.4227
  485TMC3    C3 7264   0.640   4.657  12.787  0.2777 -0.5084  0.5047
  485TMC3    C4 7265   0.419   0.033  12.680 -0.4060 -0.1154 -0.7377
  485TMC3    C5 7266   0.540   0.081  12.647 -0.6690 -0.4261  0.1237
  485TMC3    C6 7267   0.654   0.031  12.709  0.1181  0.2635  0.0594
  485TMC3     C 7268   0.279   4.648  12.824  0.3789  0.3099  0.6012
  485TMC3     O 7269   0.259   4.540  12.881  0.0178 -0.2309  1.1572
  485TMC3     H 7270   0.518   4.530  12.906 -0.2546 -0.5326  0.1469
  485TMC3    H1 7271   0.332   0.068  12.625 -0.3119  2.3029  0.6461
  485TMC3    H2 7272   0.748   0.084  12.696  0.7817 -0.8844  0.2009
  485TMC3    C7 7273   0.569   0.104  12.505 -0.2425  0.2241  0.1283
  485TMC3    C8 7274   0.749   4.564  12.760 -0.3020 -0.3069 -0.1531
  485TMC3    O1 7275   0.484   0.157  12.435 -0.0337  0.4467 -0.3994
  485TMC3    O2 7276   0.803   4.596  12.657  0.2786 -0.2608  0.9141
  486MPD2     C 7277   1.710   3.293  12.833  0.0859 -0.2766  0.5243
  486MPD2    C1 7278   1.818   3.338  12.761  0.6062  0.3794  0.3916
  486MPD2    C2 7279   1.808   3.451  12.685 -0.0656 -0.3931 -0.1883
  486MPD2    C3 7280   1.691   3.523  12.682  0.2057  0.1046 -0.0507
  486MPD2    C4 7281   1.585   3.469  12.748 -0.0187 -0.7537  0.4030
  486MPD2    C5 7282   1.585   3.352  12.810  0.1285  0.5340  0.7583
  486MPD2     H 7283   1.893   3.494  12.633  1.1382 -1.0423  1.2162
  486MPD2    H1 7284   1.491   3.523  12.744  0.7448  0.4431 -1.3434
  486MPD2    H2 7285   1.711   3.202  12.893  0.3954 -1.7732 -1.7509
  486MPD2    H3 7286   1.495   3.317  12.859  1.4837  0.5409  3.2637
  486MPD2     N 7287   1.685   3.642  12.608  0.2589 -0.1186 -0.1450
  486MPD2    H5 7288   1.771   3.684  12.575  0.6440 -0.2664  0.6614
  486MPD2    N1 7289   1.942   3.274  12.780 -0.4112 -0.3754  0.5171
  486MPD2    H7 7290   1.929   3.192  12.838  2.3396 -0.3268  1.1912
  487TMC3    C1 7291   2.172   3.216  12.782  0.2212  0.0293 -0.4901
  487TMC3    C2 7292   2.131   3.089  12.767  0.4904  0.5619 -0.4614
  487TMC3    C3 7293   2.219   2.997  12.811  0.2403 -0.1627  0.5681
  487TMC3    C4 7294   2.301   3.258  12.817  0.5219 -0.1800 -0.0044
  487TMC3    C5 7295   2.388   3.165  12.855  0.3910  0.6582  0.0869
  487TMC3    C6 7296   2.352   3.037  12.844 -0.2328  0.1382  0.1932
  487TMC3     C 7297   2.072   3.319  12.751  0.1825 -0.4059  0.4412
  487TMC3     O 7298   2.105   3.429  12.717 -0.5740 -0.8901  0.5110
  487TMC3     H 7299   2.029   3.063  12.738  0.6161 -0.9686  0.4696
  487TMC3    H1 7300   2.327   3.360  12.840 -1.6341 -0.0496  1.9107
  487TMC3    H2 7301   2.401   2.971  12.915  2.4425 -0.8292 -2.5251
  487TMC3    C7 7302   2.476   3.195  12.969 -0.2582 -1.2800  0.4476
  487TMC3    C8 7303   2.171   2.866  12.839  1.3266 -0.0622 -0.1416
  487TMC3    O1 7304   2.420   3.267  13.053  0.1349  0.7706 -0.4041
  487TMC3    O2 7305   2.262   2.784  12.850 -0.1468  0.1818  0.4648
  488MPD2     C 7306   2.744   0.577  16.743  0.5989  0.5053  0.2596
  488MPD2    C1 7307   2.737   0.717  16.772 -0.3983  0.2767 -0.5494
  488MPD2    C2 7308   2.725   0.753  16.906 -0.2127  0.1285  0.1262
  488MPD2    C3 7309   2.704   0.661  17.005  0.3345 -0.1568 -0.3170
  488MPD2    C4 7310   2.701   0.529  16.975 -0.5101  0.1012  0.3317
  488MPD2    C5 7311   2.713   0.485  16.845  0.2032 -0.6404  0.2490
  488MPD2     H 7312   2.723   0.860  16.922  1.5472  0.2847 -0.7748
  488MPD2    H1 7313   2.670   0.455  17.048  0.9987  0.3604  1.2246
  488MPD2    H2 7314   2.764   0.535  16.646  2.8788  2.1707  0.0009
  488MPD2    H3 7315   2.731   0.381  16.821  0.8362 -0.6880  0.9319
  488MPD2     N 7316   2.685   0.696  17.141 -0.2388  1.1941 -0.4728
  488MPD2    H5 7317   2.686   0.796  17.158 -1.1698  1.2632 -0.8015
  488MPD2    N1 7318   2.750   0.818  16.668  0.1583 -0.3503 -0.1991
  488MPD2    H7 7319   2.740   0.916  16.690  1.7062 -0.2852  0.2255
  489TMC3    C1 7320   2.673   0.685  17.384  0.1776  0.3048 -0.2596
  489TMC3    C2 7321   2.606   0.804  17.387  0.4868 -0.9490  0.2820
  489TMC3    C3 7322   2.569   0.852  17.517 -0.4211  0.1148  0.0078
  489TMC3    C4 7323   2.696   0.613  17.503  0.4541  0.0853 -0.3687
  489TMC3    C5 7324   2.657   0.659  17.626 -0.7150 -0.7368 -0.9414
  489TMC3    C6 7325   2.601   0.781  17.631 -0.6386 -0.1807 -0.1228
  489TMC3     C 7326   2.686   0.613  17.251  0.2003 -0.6109  0.4200
  489TMC3     O 7327   2.702   0.491  17.259 -0.4368  0.3315  0.1653
  489TMC3     H 7328   2.579   0.845  17.291 -1.4595  0.0253  1.2460
  489TMC3    H1 7329   2.737   0.514  17.484  0.9119 -0.0139  1.1404
  489TMC3    H2 7330   2.587   0.830  17.727 -0.9405 -0.9776  0.2410
  489TMC3    C7 7331   2.722   0.593  17.738 -0.2684 -0.2233 -0.3606
  489TMC3    C8 7332   2.522   0.990  17.535  0.3273  0.6425  0.6054
  489TMC3    O1 7333   2.809   0.510  17.710  0.3588 -0.5305 -0.0689
  489TMC3    O2 7334   2.474   1.022  17.644 -0.5550  0.0219 -0.2763
  490MPD2     C 7335   3.353   0.201  17.121  0.1430  0.9246 -0.0316
  490MPD2    C1 7336   3.398   0.085  17.183 -0.0972  0.7681 -0.6877
  490MPD2    C2 7337   3.507   0.088  17.261  0.7038 -0.6956 -0.3735
  490MPD2    C3 7338   3.579   0.205  17.276  0.7475  0.0795  0.0757
  490MPD2    C4 7339   3.540   0.321  17.210  0.0809  0.7050 -0.0031
  490MPD2    C5 7340   3.426   0.320  17.143  0.2553 -0.1217  0.7162
  490MPD2     H 7341   3.539   0.002  17.321 -0.4617 -0.4802  0.5668
  490MPD2    H1 7342   3.595   0.414  17.217  1.5809  0.0909 -3.7211
  490MPD2    H2 7343   3.263   0.210  17.061 -0.6226  0.2291  1.0062
  490MPD2    H3 7344   3.385   0.408  17.095  0.7910 -0.4034 -0.2578
  490MPD2     N 7345   3.679   0.216  17.377  0.2607  0.4159 -0.0145
  490MPD2    H5 7346   3.720   0.306  17.399  1.0738 -0.1563  0.8163
  490MPD2    N1 7347   3.332   4.701  17.174 -0.1829 -0.2449  0.6829
  490MPD2    H7 7348   3.375   4.623  17.222 -0.7813  0.4903  2.4032
  491TMC3    C1 7349   3.171   4.530  17.115 -0.0464 -0.0114 -0.3377
  491TMC3    C2 7350   3.199   4.466  17.229  1.0511 -0.3480  0.2215
  491TMC3    C3 7351   3.120   4.363  17.271 -0.0669 -0.1757  0.4298
  491TMC3    C4 7352   3.067   4.492  17.035 -0.8569  0.2185  0.4663
  491TMC3    C5 7353   2.980   4.398  17.078 -0.5234 -0.6273  0.0266
  491TMC3    C6 7354   3.005   4.331  17.201 -0.1994  0.0327  0.1347
  491TMC3     C 7355   3.216   4.668  17.104  0.3412  0.5200  0.2472
  491TMC3     O 7356   3.163   4.736  17.016 -0.3719 -0.2314 -0.0737
  491TMC3     H 7357   3.270   4.510  17.298  1.5126  0.3369 -0.6877
  491TMC3    H1 7358   3.058   4.540  16.938 -1.6718  0.9535  0.9064
  491TMC3    H2 7359   2.936   4.258  17.242 -0.0336 -0.3716 -0.2961
  491TMC3    C7 7360   2.846   4.392  17.036 -0.1542  0.0950 -0.5368
  491TMC3    C8 7361   3.117   4.321  17.409 -0.2726  0.0829  0.2419
  491TMC3    O1 7362   2.780   4.289  17.061 -0.2730  0.1765  0.7820
  491TMC3    O2 7363   3.017   4.261  17.450 -0.5138 -0.3587 -0.3962
  492MPD2     C 7364   3.551   0.309  11.862 -0.2898  0.1069 -0.1868
  492MPD2    C1 7365   3.474   0.259  11.766  0.3668  0.0967 -0.1405
  492MPD2    C2 7366   3.399   0.145  11.787 -0.5866  0.5853 -0.3290
  492MPD2    C3 7367   3.420   0.077  11.908 -0.0994 -0.2521 -0.3819
  492MPD2    C4 7368   3.498   0.118  12.005 -0.2172  0.5668  0.3234
  492MPD2    C5 7369   3.572   0.229  11.972  0.2316  0.3351  0.1849
  492MPD2     H 7370   3.330   0.106  11.714 -0.5956 -0.6534  0.3483
  492MPD2    H1 7371   3.519   0.070  12.100  0.0317  0.5240  0.2458
  492MPD2    H2 7372   3.608   0.400  11.847 -1.2749  0.7525 -0.0268
  492MPD2    H3 7373   3.638   0.264  12.051 -1.4166  2.6445  0.5523
  492MPD2     N 7374   3.348   4.694  11.942  0.0819  0.2503  0.7303
  492MPD2    H5 7375   3.375   4.643  12.025 -0.2155 -0.9902  0.0719
  492MPD2    N1 7376   3.474   0.329  11.643 -0.6504  0.2426  0.4601
  492MPD2    H7 7377   3.538   0.408  11.645 -0.2872  0.0185 -1.5809
  493TMC3    C1 7378   3.432   0.393  11.419  0.4127 -0.4590  0.5486
  493TMC3    C2 7379   3.418   0.526  11.457  0.0759 -0.1290 -0.0196
  493TMC3    C3 7380   3.377   0.608  11.356  0.2430  0.2897 -0.7690
  493TMC3    C4 7381   3.394   0.340  11.294  0.3480  0.1691  0.4673
  493TMC3    C5 7382   3.332   0.428  11.206  0.4428  0.5004 -0.6728
  493TMC3    C6 7383   3.329   0.561  11.234 -0.2695  0.0364 -0.4262
  493TMC3     C 7384   3.402   0.301  11.525  0.0992  0.2380  0.2461
  493TMC3     O 7385   3.325   0.206  11.507 -0.1342 -0.5554 -0.2373
  493TMC3     H 7386   3.433   0.564  11.557  0.5923  0.0538 -0.1687
  493TMC3    H1 7387   3.403   0.235  11.271  1.1517  0.3933 -0.2057
  493TMC3    H2 7388   3.275   0.622  11.162 -0.2803  0.6381  0.0956
  493TMC3    C7 7389   3.215   0.380  11.133  0.4031  0.3980 -0.2848
  493TMC3    C8 7390   3.376   0.754  11.376 -0.7628 -0.8724 -0.0895
  493TMC3    O1 7391   3.170   0.439  11.037  0.1814 -0.1449 -0.6612
  493TMC3    O2 7392   3.405   0.795  11.484  0.2036 -0.1409 -0.0417
  494TMC3    C1 7393   3.819   2.022   0.365  0.4808 -0.5081 -0.2267
  494TMC3    C2 7394   3.898   1.921   0.405  0.3069 -0.2525  0.5187
  494TMC3    C3 7395   3.999   1.877   0.321  0.2564  0.0768  0.3356
  494TMC3    C4 7396   3.837   2.086   0.244  0.0802  0.3941 -0.3364
  494TMC3    C5 7397   3.944   2.051   0.172 -0.6765 -1.0220 -0.7766
  494TMC3    C6 7398   4.027   1.949   0.209  0.0397  0.7389 -0.2166
  494TMC3     C 7399   3.704   2.054   0.443  0.0622 -0.1486  0.1744
  494TMC3     O 7400   3.707   2.042   0.563 -0.5649  0.5251  0.2623
  494TMC3     H 7401   3.864   1.864   0.491 -0.4959 -1.1362 -0.3901
  494TMC3    H1 7402   3.765   2.161   0.213  0.5752  0.4175 -1.4337
  494TMC3    H2 7403   4.118   1.924   0.154  0.0287 -0.2095  0.2018
  494TMC3    C7 7404   3.984   2.131   0.060  0.0792 -0.3326 -0.4946
  494TMC3    C8 7405   4.064   1.752   0.348  0.3020 -0.0348 -1.0327
  494TMC3    O1 7406   4.047   2.079  17.710  0.0581 -0.0483  0.0674
  494TMC3    O2 7407   4.076   1.715   0.466 -0.1888  0.0190  0.5880
  495TMC3    C1 7408   2.568   3.358  14.925  0.3081 -0.2302 -0.0331
  495TMC3    C2 7409   2.688   3.400  14.870 -0.1274 -0.0276  0.1334
  495TMC3    C3 7410   2.720   3.530  14.880  0.0824 -0.5000  0.4897
  495TMC3    C4 7411   2.489   3.443  15.002 -0.3148  0.1604  0.2004
  495TMC3    C5 7412   2.528   3.573  15.020  0.2738  0.3489 -0.6354
  495TMC3    C6 7413   2.646   3.616  14.961  0.5317  0.2506  0.1743
  495TMC3     C 7414   2.501   3.243  14.863 -0.2445  0.6103 -0.6694
  495TMC3     O 7415   2.392   3.206  14.907  0.2006 -0.0824  0.4424
  495TMC3     H 7416   2.755   3.344  14.804 -0.1406  1.6788 -1.3278
  495TMC3    H1 7417   2.409   3.392  15.053  0.2981  0.5723  1.5754
  495TMC3    H2 7418   2.678   3.718  14.980 -1.8391  0.9352  0.4677
  495TMC3    C7 7419   2.510   3.634  15.148 -0.2312 -0.1303 -0.0104
  495TMC3    C8 7420   2.833   3.588  14.817  0.1214 -0.0461  0.5112
  495TMC3    O1 7421   2.600   3.707  15.186 -0.1722 -0.0866  0.4013
  495TMC3    O2 7422   2.892   3.678  14.878 -0.0613  0.4220 -0.0596
  496MPD2     C 7423   0.212   3.970  15.387  0.2125  0.5622  0.1857
  496MPD2    C1 7424   0.187   4.033  15.506 -1.0439 -0.4127 -0.3878
  496MPD2    C2 7425   0.063   4.030  15.561  0.0445  0.4838  0.0947
  496MPD2    C3 7426   4.700   3.972  15.484 -0.2803 -0.0406 -0.1306
  496MPD2    C4 7427   4.730   3.903  15.365  0.1906  0.0110 -0.0846
  496MPD2    C5 7428   0.122   3.908  15.310 -0.3491  0.3309 -0.0692
  496MPD2     H 7429   0.055   4.069  15.661 -1.1692  3.2399 -1.0918
  496MPD2    H1 7430   4.653   3.849  15.309  0.3084  0.0236 -0.2590
  496MPD2    H2 7431   0.308   3.971  15.339  0.0322 -2.6244 -0.2493
  496MPD2    H3 7432   0.150   3.869  15.213  3.0374  0.0112  1.0658
  496MPD2     N 7433   4.562   3.964  15.533  0.2422 -0.0764 -0.5452
  496MPD2    H5 7434   4.505   3.898  15.481  0.6761 -1.3878  0.6146
  496MPD2    N1 7435   0.305   4.080  15.571 -0.4574  0.7540 -0.0250
  496MPD2    H7 7436   0.393   4.050  15.531  0.7360  0.5795  2.7135
  497TMC3    C1 7437   4.414   3.938  15.709  0.0826  0.2929 -0.3172
  497TMC3    C2 7438   4.338   3.858  15.631 -0.4833  0.3900  0.4002
  497TMC3    C3 7439   4.291   3.736  15.674  0.8280 -0.1790  0.3203
  497TMC3    C4 7440   4.440   3.892  15.835  0.4166  0.5787  0.0543
  497TMC3    C5 7441   4.403   3.765  15.880 -0.1631 -0.0471  0.1454
  497TMC3    C6 7442   4.318   3.690  15.805 -0.3983 -0.8139  0.2826
  497TMC3     C 7443   4.513   4.027  15.646 -0.2898 -0.4364  0.4147
  497TMC3     O 7444   4.566   4.102  15.726  0.5481 -0.3621  0.3093
  497TMC3     H 7445   4.323   3.893  15.530  0.7470 -3.4787 -1.1599
  497TMC3    H1 7446   4.524   3.946  15.877  1.4633 -0.2858 -0.9340
  497TMC3    H2 7447   4.273   3.604  15.854 -1.6589 -0.3503 -0.0559
  497TMC3    C7 7448   4.447   3.712  16.002 -0.0681 -0.0122 -0.1590
  497TMC3    C8 7449   4.178   3.668  15.612 -0.2829  0.8233  0.1102
  497TMC3    O1 7450   4.397   3.605  16.040 -0.5519 -0.0771  0.0297
  497TMC3    O2 7451   4.104   3.600  15.681  0.0153  0.7073  0.0965
  498MPD2     C 7452   0.995   0.886   9.836  0.6254 -0.1615  0.3487
  498MPD2    C1 7453   1.118   0.845   9.794  0.3499 -0.4469  0.8100
  498MPD2    C2 7454   1.141   0.710   9.798  0.3144  0.3468  0.2724
  498MPD2    C3 7455   1.047   0.623   9.836 -0.1571 -0.2299  0.0258
  498MPD2    C4 7456   0.922   0.669   9.878 -0.4847  0.3566 -0.2451
  498MPD2    C5 7457   0.897   0.802   9.876  0.1893  0.5223 -0.8834
  498MPD2     H 7458   1.242   0.680   9.775  0.2867  0.2487  0.2820
  498MPD2    H1 7459   0.835   0.606   9.896 -0.6201  0.9263  1.0695
  498MPD2    H2 7460   0.981   0.992   9.851  2.6809 -0.1505  2.1961
  498MPD2    H3 7461   0.797   0.837   9.904  0.6834  1.0341  0.2843
  498MPD2     N 7462   1.079   0.482   9.830 -0.1013  0.1589  0.0957
  498MPD2    H5 7463   1.175   0.462   9.806  0.3070 -0.7509  2.5237
  498MPD2    N1 7464   1.225   0.928   9.776  0.3764  0.0125  0.0115
  498MPD2    H7 7465   1.311   0.875   9.789  0.2559 -0.1138  0.3020
  499TMC3    C1 7466   1.342   1.129   9.739 -0.7541  0.9278  0.8475
  499TMC3    C2 7467   1.457   1.079   9.801 -0.1117 -0.0700 -0.1599
  499TMC3    C3 7468   1.572   1.154   9.805 -0.1982  0.3453  0.7528
  499TMC3    C4 7469   1.342   1.263   9.700 -0.4446  0.2606 -0.1062
  499TMC3    C5 7470   1.451   1.340   9.706  1.0065 -0.3848  0.8532
  499TMC3    C6 7471   1.569   1.288   9.760 -0.1124 -0.1462  0.0326
  499TMC3     C 7472   1.215   1.058   9.741  0.3815  0.0671  0.5835
  499TMC3     O 7473   1.117   1.123   9.708  0.5470 -0.3381  0.1443
  499TMC3     H 7474   1.450   0.981   9.847 -1.5698 -1.0319 -2.4206
  499TMC3    H1 7475   1.263   1.286   9.629 -0.2895  0.3615 -0.2441
  499TMC3    H2 7476   1.654   1.356   9.765  0.3338 -0.6653 -0.4969
  499TMC3    C7 7477   1.455   1.463   9.620  0.3755  0.1531  0.1764
  499TMC3    C8 7478   1.683   1.106   9.885 -0.6996  0.6582  0.7289
  499TMC3    O1 7479   1.569   1.494   9.587 -0.9543 -0.1103 -0.1620
  499TMC3    O2 7480   1.659   1.007   9.958 -0.3951  0.6461  0.8691
  500MPD2     C 7481   2.090   1.181  10.714  0.2238 -0.8447  0.0820
  500MPD2    C1 7482   2.183   1.274  10.665 -0.7330  0.1899 -0.2033
  500MPD2    C2 7483   2.163   1.307  10.532 -0.3411  0.5835  0.7067
  500MPD2    C3 7484   2.065   1.260  10.451 -0.0219  0.8880 -0.4134
  500MPD2    C4 7485   1.979   1.168  10.498  0.3796  0.1490  1.1813
  500MPD2    C5 7486   1.987   1.135  10.631  0.7285 -0.0605  0.0171
  500MPD2     H 7487   2.229   1.379  10.485 -0.9221  0.1553 -0.7481
  500MPD2    H1 7488   1.905   1.113  10.439 -0.5598  1.2510  1.3292
  500MPD2    H2 7489   2.085   1.148  10.818 -0.0642 -1.4386 -0.1225
  500MPD2    H3 7490   1.913   1.062  10.663  0.5279  0.8312  1.5660
  500MPD2     N 7491   2.038   1.312  10.322  0.1729 -0.3288 -0.8824
  500MPD2    H5 7492   1.951   1.284  10.280 -1.8988  2.6690  1.3928
  500MPD2    N1 7493   2.288   1.330  10.745 -0.6216  0.4070 -0.7141
  500MPD2    H7 7494   2.347   1.398  10.698  0.8680 -1.8757 -2.1172
  501TMC3    C1 7495   2.447   1.336  10.915 -0.3612  0.2911 -0.8541
  501TMC3    C2 7496   2.520   1.435  10.854 -0.2837  0.0036  0.6323
  501TMC3    C3 7497   2.645   1.458  10.903 -0.0624  0.5799  0.2777
  501TMC3    C4 7498   2.491   1.280  11.031  0.0130  0.0331 -0.0923
  501TMC3    C5 7499   2.608   1.314  11.080 -1.8083 -0.0729  0.6495
  501TMC3    C6 7500   2.695   1.393  11.012  0.1016 -0.0715  0.4762
  501TMC3     C 7501   2.319   1.282  10.868 -0.2086  0.2662  0.1953
  501TMC3     O 7502   2.268   1.202  10.942  0.8140 -0.0523 -0.7379
  501TMC3     H 7503   2.473   1.498  10.780  2.6631  0.8906 -0.4611
  501TMC3    H1 7504   2.437   1.197  11.076  0.7556 -0.2888  0.1960
  501TMC3    H2 7505   2.799   1.399  11.043 -0.2754  0.2480  1.6850
  501TMC3    C7 7506   2.638   1.269  11.215 -1.0847  0.0759  0.5243
  501TMC3    C8 7507   2.724   1.568  10.859 -0.4208 -0.3546 -0.4382
  501TMC3    O1 7508   2.564   1.187  11.269  0.2181 -0.1769  0.5695
  501TMC3    O2 7509   2.797   1.631  10.939  0.3888  1.0229 -0.6747
  502TMC3    C1 7510   2.308   4.580  15.324  0.3550 -0.5812 -0.8674
  502TMC3    C2 7511   2.322   4.713  15.311 -0.5535 -0.3085 -0.3977
  502TMC3    C3 7512   2.216   0.062  15.322  0.0720  0.6127 -0.2394
  502TMC3    C4 7513   2.184   4.527  15.322  0.5733  0.1285 -0.1029
  502TMC3    C5 7514   2.075   4.611  15.335 -0.5528 -0.8711 -0.4755
  502TMC3    C6 7515   2.087   0.009  15.338 -0.5047  0.6619  0.1295
  502TMC3     C 7516   2.390   4.513  15.423 -0.4445  0.0342  0.6910
  502TMC3     O 7517   2.509   4.530  15.444  0.4525 -0.3740  0.5414
  502TMC3     H 7518   2.423   0.016  15.307  0.0446 -1.6542  1.6580
  502TMC3    H1 7519   2.167   4.420  15.318  3.3725 -0.4203  2.2146
  502TMC3    H2 7520   2.004   0.077  15.352 -1.2358 -0.0781 -0.6578
  502TMC3    C7 7521   1.957   4.551  15.393  0.4502 -0.2576 -0.0204
  502TMC3    C8 7522   2.228   0.197  15.268 -0.2299  0.7764 -0.0708
  502TMC3    O1 7523   1.977   4.450  15.458  0.3411 -0.0410  0.1776
  502TMC3    O2 7524   2.328   0.223  15.208 -0.0047  0.4605 -0.0863
  503MPD2     C 7525   4.395   1.073  16.754  0.0505  0.4171  0.8059
  503MPD2    C1 7526   4.426   1.122  16.877 -0.4938  0.0513  0.0560
  503MPD2    C2 7527   4.510   1.043  16.948 -0.2226 -0.3607  0.1101
  503MPD2    C3 7528   4.562   0.921  16.912  0.0641 -0.6849 -0.0024
  503MPD2    C4 7529   4.527   0.876  16.791  0.2479 -0.3165 -0.0328
  503MPD2    C5 7530   4.439   0.948  16.714  0.3266  0.6912 -0.0295
  503MPD2     H 7531   4.535   1.072  17.050 -4.8851 -0.5984  1.3039
  503MPD2    H1 7532   4.575   0.786  16.754  1.8788  0.4045  0.3210
  503MPD2    H2 7533   4.342   1.135  16.683 -2.7951 -0.7270  1.9415
  503MPD2    H3 7534   4.403   0.923  16.615 -1.7200 -1.9665  1.3700
  503MPD2     N 7535   4.634   0.846  17.001 -0.2912 -0.0788 -0.0695
  503MPD2    H5 7536   4.668   0.891  17.086 -0.2378 -0.1556 -0.0498
  503MPD2    N1 7537   4.387   1.232  16.937 -0.2704  0.5353  0.9502
  503MPD2    H7 7538   4.425   1.237  17.031  0.9341 -0.6101  0.5128
  504TMC3    C1 7539   0.020   0.699  17.104 -0.4892 -0.5835 -0.0680
  504TMC3    C2 7540   4.714   0.729  17.231 -0.1393 -0.4209 -0.4625
  504TMC3    C3 7541   0.044   0.681  17.344 -0.3063  0.0599 -0.0623
  504TMC3    C4 7542   0.125   0.619  17.091  0.2820  0.2529  0.9646
  504TMC3    C5 7543   0.202   0.592  17.206  0.7911 -0.3119 -1.0160
  504TMC3    C6 7544   0.171   0.632  17.336 -0.2259 -0.1289  0.2740
  504TMC3     C 7545   4.674   0.717  16.989 -0.1102  0.7265  0.2707
  504TMC3     O 7546   4.668   0.640  16.896  0.4852 -0.1874 -0.3350
  504TMC3     H 7547   4.623   0.784  17.253  0.6887  0.7251  0.0975
  504TMC3    H1 7548   0.154   0.584  16.993 -2.0886  1.7181 -0.2423
  504TMC3    H2 7549   0.218   0.583  17.420 -0.6062  1.6763  1.5456
  504TMC3    C7 7550   0.340   0.593  17.172  0.0982  0.8343 -0.2989
  504TMC3    C8 7551   4.709   0.685  17.468 -0.5248  0.6951 -0.2618
  504TMC3    O1 7552   0.368   0.597  17.052 -0.1057 -0.3925 -0.5604
  504TMC3    O2 7553   4.588   0.671  17.462 -0.0539 -0.1490 -0.6944
  505MPD2     C 7554   0.640   4.239   9.469  0.7326 -0.6117 -0.1192
  505MPD2    C1 7555   0.720   4.126   9.487  0.0500 -0.1004 -0.4788
  505MPD2    C2 7556   0.689   4.047   9.599 -0.1935 -0.5722 -0.4778
  505MPD2    C3 7557   0.585   4.079   9.686  0.2116  0.0923  0.1880
  505MPD2    C4 7558   0.506   4.186   9.659 -0.2667  0.1480 -0.1174
  505MPD2    C5 7559   0.540   4.268   9.557  0.2524  0.0255 -0.2290
  505MPD2     H 7560   0.754   3.965   9.626  1.3690  1.2525  1.3194
  505MPD2    H1 7561   0.423   4.214   9.723 -1.3449 -2.4793 -0.3779
  505MPD2    H2 7562   0.656   4.301   9.382 -1.8627 -0.3534 -0.3833
  505MPD2    H3 7563   0.486   4.361   9.542  0.0963  0.0431  0.4528
  505MPD2     N 7564   0.578   4.001   9.803  0.0398  0.5727 -0.3661
  505MPD2    H5 7565   0.642   3.922   9.807 -0.9579 -0.2829 -1.4983
  505MPD2    N1 7566   0.817   4.094   9.390  0.5095 -0.3464 -0.6442
  505MPD2    H7 7567   0.841   4.155   9.312 -2.5239  1.0633 -0.4982
  506TMC3    C1 7568   0.991   3.963   9.297 -0.2057  0.0509  0.3522
  506TMC3    C2 7569   1.073   4.075   9.282 -0.1684  0.6481  1.1080
  506TMC3    C3 7570   1.208   4.058   9.253 -0.3207  0.1230  0.3542
  506TMC3    C4 7571   1.056   3.838   9.309 -0.6704  0.1246 -0.2666
  506TMC3    C5 7572   1.197   3.831   9.292  0.0423 -0.0173  0.3677
  506TMC3    C6 7573   1.274   3.942   9.273 -0.4567  0.2358 -0.1033
  506TMC3     C 7574   0.891   3.973   9.393  0.1082  1.0658  0.6452
  506TMC3     O 7575   0.889   3.885   9.475 -0.5101 -0.0429  0.2261
  506TMC3     H 7576   1.023   4.171   9.289  0.7977  1.2141  0.3132
  506TMC3    H1 7577   0.996   3.748   9.315 -0.6153  0.2336  1.9054
  506TMC3    H2 7578   1.382   3.941   9.262 -0.5248 -0.2991 -0.7498
  506TMC3    C7 7579   1.241   3.749   9.408 -0.1862 -0.6119  0.1271
  506TMC3    C8 7580   1.293   4.176   9.258 -0.2356 -0.4468 -0.4448
  506TMC3    O1 7581   1.364   3.749   9.429 -0.0734 -0.4849 -0.4393
  506TMC3    O2 7582   1.364   4.186   9.158  0.1245  0.1136  0.0479
  507TMC3    C1 7583   1.039   0.338  14.665 -0.7905 -0.2873  0.9066
  507TMC3    C2 7584   1.100   0.268  14.562 -0.2783  0.7906  0.2687
  507TMC3    C3 7585   1.131   0.330  14.449  0.3923 -0.4977 -0.9651
  507TMC3    C4 7586   1.032   0.475  14.664  0.4230  0.5862  0.0982
  507TMC3    C5 7587   1.074   0.537  14.546  0.5238 -0.5555 -0.1991
  507TMC3    C6 7588   1.112   0.461  14.438  0.2479 -0.3528 -0.0637
  507TMC3     C 7589   0.919   0.271  14.718 -0.6055  0.7923  0.4738
  507TMC3     O 7590   0.881   0.312  14.825  0.0166 -0.3650 -0.2635
  507TMC3     H 7591   1.104   0.160  14.564 -2.3633  0.7724  2.9426
  507TMC3    H1 7592   0.966   0.531  14.729  0.7530  1.7552 -0.5733
  507TMC3    H2 7593   1.144   0.518  14.351  1.5209  0.3617  0.8743
  507TMC3    C7 7594   0.970   0.636  14.503  0.9820  0.1179 -0.6840
  507TMC3    C8 7595   1.068   0.251  14.349 -0.7842 -0.5906 -0.1410
  507TMC3    O1 7596   0.942   0.616  14.383  0.7094  0.3889  0.0274
  507TMC3    O2 7597   1.090   0.131  14.357  0.0721  0.5568 -0.1980
  508MPD2     C 7598   1.304   2.529  16.328  0.2566  0.2475 -0.4839
  508MPD2    C1 7599   1.439   2.563  16.339  0.3779  0.4279 -0.9419
  508MPD2    C2 7600   1.521   2.545  16.228  0.8572 -0.1596 -0.3627
  508MPD2    C3 7601   1.470   2.505  16.110  0.1924  0.0431  0.3621
  508MPD2    C4 7602   1.335   2.478  16.097  0.0802 -0.1453  0.7472
  508MPD2    C5 7603   1.255   2.489  16.207  0.6418  0.2115 -0.5758
  508MPD2     H 7604   1.626   2.571  16.236  0.6148 -0.1111  2.8099
  508MPD2    H1 7605   1.288   2.452  16.003  0.4572  0.2044  0.4652
  508MPD2    H2 7606   1.233   2.548  16.408 -1.0707  0.0108 -1.6327
  508MPD2    H3 7607   1.153   2.455  16.193  0.6929 -0.4690  0.6757
  508MPD2     N 7608   1.560   2.514  16.000 -0.3235 -0.0960  0.0055
  508MPD2    H5 7609   1.648   2.554  16.030 -0.9077  0.3636  1.0964
  508MPD2    N1 7610   1.493   2.615  16.460  0.3167 -0.1519 -0.2364
  508MPD2    H7 7611   1.591   2.638  16.450  0.1456  0.7022  0.0698
  509TMC3    C1 7612   1.664   2.707  15.623  0.3095 -0.3501 -0.5207
  509TMC3    C2 7613   1.746   2.780  15.699  0.4424  0.2772  0.0308
  509TMC3    C3 7614   1.798   2.729  15.809 -0.0492 -0.4608 -0.1817
  509TMC3    C4 7615   1.615   2.588  15.664 -0.6455  0.3110 -0.4070
  509TMC3    C5 7616   1.648   2.527  15.781 -0.6852 -0.0569  0.1184
  509TMC3    C6 7617   1.749   2.603  15.847 -0.2990  0.5834  0.3044
  509TMC3     C 7618   1.590   2.765  15.516  0.1122  0.2583  0.0583
  509TMC3     O 7619   1.578   2.688  15.421  0.7277 -0.4880 -0.6639
  509TMC3     H 7620   1.781   2.876  15.664 -0.8967  1.1713  1.1748
  509TMC3    H1 7621   1.543   2.531  15.604  0.6197 -0.0241 -1.6101
  509TMC3    H2 7622   1.795   2.562  15.936 -1.0141 -0.5638  0.1444
  509TMC3    C7 7623   1.539   2.485  15.861  0.0802  0.5881 -0.3778
  509TMC3    C8 7624   1.879   2.815  15.902  0.1703  0.1490  0.4619
  509TMC3    O1 7625   1.442   2.437  15.805 -0.1597  0.8313  0.1984
  509TMC3    O2 7626   1.908   2.762  16.008  0.1669  0.2802  0.0029
  510MPD2     C 7627   3.853   4.414  14.374  0.4537 -0.0094  0.4057
  510MPD2    C1 7628   3.903   4.398  14.497 -0.0344 -0.0616 -0.0564
  510MPD2    C2 7629   4.032   4.442  14.530 -0.5517 -0.5798 -0.4410
  510MPD2    C3 7630   4.113   4.493  14.427 -0.0674  0.3519  0.0504
  510MPD2    C4 7631   4.052   4.511  14.299  0.0495 -0.3291  0.8916
  510MPD2    C5 7632   3.924   4.477  14.275 -0.7367 -0.3588 -0.1108
  510MPD2     H 7633   4.071   4.428  14.631  0.8748  0.7109 -0.8180
  510MPD2    H1 7634   4.120   4.522  14.216  1.4989 -1.5948  1.8867
  510MPD2    H2 7635   3.748   4.391  14.358  0.0531  1.6378  0.7429
  510MPD2    H3 7636   3.892   4.481  14.172  0.2699 -2.0589 -0.5008
  510MPD2     N 7637   4.242   4.527  14.466  0.0374  0.5931  0.1036
  510MPD2    H5 7638   4.269   4.502  14.561  0.4784 -2.6447 -0.8625
  510MPD2    N1 7639   3.829   4.317  14.580  0.5347 -0.1343  0.5564
  510MPD2    H7 7640   3.743   4.275  14.548  1.1225 -0.4890 -0.5646
  511TMC3    C1 7641   3.790   4.207  14.798  0.5536  0.3553 -0.4607
  511TMC3    C2 7642   3.810   4.213  14.936 -0.0797 -0.6610 -0.8443
  511TMC3    C3 7643   3.786   4.098  15.008 -0.1533 -0.8199  0.6346
  511TMC3    C4 7644   3.778   4.079  14.743 -0.0843  1.4789 -0.0533
  511TMC3    C5 7645   3.754   3.971  14.830 -0.1439  0.2038 -0.7982
  511TMC3    C6 7646   3.754   3.970  14.966  0.4860 -0.0033 -0.3308
  511TMC3     C 7647   3.851   4.317  14.721  0.5729 -0.5123  0.7838
  511TMC3     O 7648   3.914   4.392  14.791  0.1595  0.2881 -0.2510
  511TMC3     H 7649   3.831   4.303  14.994  0.5796 -1.2121 -0.2408
  511TMC3    H1 7650   3.764   4.067  14.636 -0.4183  2.5492 -0.1262
  511TMC3    H2 7651   3.715   3.891  15.030  1.9854  0.5163  1.2568
  511TMC3    C7 7652   3.715   3.855  14.761  0.0704 -0.1225  0.5217
  511TMC3    C8 7653   3.788   4.130  15.150 -0.6853 -0.1733 -0.5129
  511TMC3    O1 7654   3.740   3.854  14.643  0.0121 -0.4369  0.2307
  511TMC3    O2 7655   3.768   4.243  15.193  0.2382 -0.4763 -0.2323
  512TMC3    C1 7656   3.205   3.123  13.723  0.4918 -0.4413  0.1447
  512TMC3    C2 7657   3.241   3.218  13.814  0.3391 -1.1492 -0.2210
  512TMC3    C3 7658   3.238   3.358  13.778  0.3627  0.1413 -0.1138
  512TMC3    C4 7659   3.164   3.162  13.598 -0.1945 -0.0944  0.2626
  512TMC3    C5 7660   3.161   3.294  13.568 -0.3214 -0.4744 -0.2602
  512TMC3    C6 7661   3.203   3.394  13.650  0.4074 -0.4204  0.2548
  512TMC3     C 7662   3.184   2.992  13.764  0.1963 -0.2020 -0.3108
  512TMC3     O 7663   3.259   2.935  13.842  0.0695 -0.3236 -0.0777
  512TMC3     H 7664   3.271   3.195  13.916  2.2503 -0.1551 -0.5445
  512TMC3    H1 7665   3.116   3.093  13.528  1.9629 -0.4668 -0.8463
  512TMC3    H2 7666   3.199   3.496  13.612 -1.7737 -0.6326 -0.1058
  512TMC3    C7 7667   3.123   3.334  13.429 -0.0134 -0.6296  0.2665
  512TMC3    C8 7668   3.314   3.445  13.861 -0.7459 -0.2204  0.3410
  512TMC3    O1 7669   3.066   3.441  13.408  0.0497 -0.1440  0.1392
  512TMC3    O2 7670   3.376   3.392  13.951 -0.8390 -0.1275  0.0041
  513MPD2     C 7671   4.418   3.617  13.502 -0.6730  0.1666 -0.1051
  513MPD2    C1 7672   4.520   3.542  13.449 -0.8384  0.1604  0.0457
  513MPD2    C2 7673   4.618   3.497  13.531 -0.3790 -0.1305 -0.2823
  513MPD2    C3 7674   4.622   3.522  13.668 -0.0192  0.8948 -0.3922
  513MPD2    C4 7675   4.519   3.593  13.725  0.3432  0.5898  0.4340
  513MPD2    C5 7676   4.417   3.636  13.643 -0.4827 -0.1760  0.2317
  513MPD2     H 7677   4.704   3.446  13.490  0.8650  2.0997 -0.4159
  513MPD2    H1 7678   4.518   3.607  13.832 -0.0771  2.4430  0.1945
  513MPD2    H2 7679   4.329   3.641  13.446 -0.9649  2.2307  1.2441
  513MPD2    H3 7680   4.324   3.666  13.690  0.4335  1.1364  1.2219
  513MPD2     N 7681   4.722   3.457  13.742  0.2468 -0.5623 -0.7264
  513MPD2    H5 7682   0.046   3.389  13.696 -0.7198 -2.4005  0.7671
  513MPD2    N1 7683   4.520   3.510  13.309 -0.4307  0.2489  0.5844
  513MPD2    H7 7684   4.448   3.558  13.255 -1.6514  0.8393  2.7149
  514TMC3    C1 7685   4.583   3.395  13.105 -0.2313 -0.6341  0.7779
  514TMC3    C2 7686   4.584   3.508  13.027 -0.2034 -0.8584  0.1714
  514TMC3    C3 7687   4.679   3.502  12.929  0.5571  0.5883  0.5007
  514TMC3    C4 7688   4.661   3.283  13.079  0.7192 -0.0327  0.6398
  514TMC3    C5 7689   0.022   3.298  12.988 -0.9246 -0.4566  0.3617
  514TMC3    C6 7690   0.025   3.401  12.904  0.0169 -0.0628 -0.4240
  514TMC3     C 7691   4.599   3.423  13.244  0.2013  0.4683  0.2623
  514TMC3     O 7692   4.696   3.363  13.290 -0.2851 -0.0756 -0.2533
  514TMC3     H 7693   4.528   3.599  13.047 -0.4777 -0.6939 -1.3450
  514TMC3    H1 7694   4.662   3.197  13.145 -1.2899 -0.6035 -0.0677
  514TMC3    H2 7695   0.108   3.417  12.837 -0.2652 -0.4728 -0.8723
  514TMC3    C7 7696   0.148   3.236  13.010  0.7968 -0.2768  0.3351
  514TMC3    C8 7697   4.712   3.630  12.860  0.8348 -0.3916  0.0941
  514TMC3    O1 7698   0.242   3.240  12.931  0.1676  0.8597 -0.0524
  514TMC3    O2 7699   4.697   3.732  12.928  0.8244 -0.2158 -0.2460
  515MPD2     C 7700   2.612   0.486  14.994  0.1092  0.1696 -0.0442
  515MPD2    C1 7701   2.713   0.415  14.934 -0.2900  0.9197 -0.6826
  515MPD2    C2 7702   2.843   0.430  14.980 -0.0043  0.0460  0.4506
  515MPD2    C3 7703   2.875   0.513  15.085 -0.6861  0.3587  0.0194
  515MPD2    C4 7704   2.765   0.575  15.147 -0.0766  0.4328  0.3985
  515MPD2    C5 7705   2.642   0.567  15.098  0.0924 -0.3673 -0.3718
  515MPD2     H 7706   2.922   0.380  14.925 -2.5284 -2.7868 -0.6282
  515MPD2    H1 7707   2.779   0.643  15.230  0.6897 -0.6306  1.1412
  515MPD2    H2 7708   2.508   0.458  14.979  0.3879 -0.4886 -0.7341
  515MPD2    H3 7709   2.570   0.631  15.147 -1.2180 -1.4287 -0.9123
  515MPD2     N 7710   3.010   0.538  15.131 -0.0163 -0.1013  0.0893
  515MPD2    H5 7711   3.021   0.611  15.201 -0.2896 -0.7119  0.7649
  515MPD2    N1 7712   2.693   0.325  14.827  0.3914  0.2358  0.4300
  515MPD2    H7 7713   2.778   0.282  14.793  0.9423  1.2326  0.5283
  516TMC3    C1 7714   2.596   0.187  14.669 -0.6435 -0.4163  0.2526
  516TMC3    C2 7715   2.696   0.207  14.579  0.0314  0.1925  0.3432
  516TMC3    C3 7716   2.702   0.130  14.467 -0.9136  0.7334  0.3528
  516TMC3    C4 7717   2.494   0.095  14.654 -0.1276 -0.3130  0.0438
  516TMC3    C5 7718   2.519   0.011  14.547 -0.0483 -0.5440  0.2406
  516TMC3    C6 7719   2.617   0.025  14.457  0.6447 -0.0423  0.3208
  516TMC3     C 7720   2.575   0.270  14.786 -0.4766  0.6396 -0.4104
  516TMC3     O 7721   2.463   0.266  14.838 -0.2833 -0.3202  0.1182
  516TMC3     H 7722   2.747   0.302  14.582 -0.6694  0.4987  2.4700
  516TMC3    H1 7723   2.421   0.071  14.730 -0.9644 -2.4846 -1.4313
  516TMC3    H2 7724   2.622   4.691  14.374 -3.0973 -0.2948  0.2834
  516TMC3    C7 7725   2.436   4.629  14.516  0.5697 -0.6196 -0.3816
  516TMC3    C8 7726   2.752   0.194  14.348 -0.6436  0.1590  0.6151
  516TMC3    O1 7727   2.480   4.534  14.448 -0.3759 -0.1105  0.1987
  516TMC3    O2 7728   2.712   0.141  14.243  0.0252 -0.2140  0.3231
  517MPD2     C 7729   2.383   2.059  17.605 -0.6122  0.0661 -0.3919
  517MPD2    C1 7730   2.521   2.059  17.608  0.5444  0.1495  0.6303
  517MPD2    C2 7731   2.587   2.157  17.689 -0.2803 -0.6332  0.8262
  517MPD2    C3 7732   2.519   2.252   0.023  0.5944  0.1767  0.0907
  517MPD2    C4 7733   2.382   2.241   0.029  0.5041  0.2668  0.3834
  517MPD2    C5 7734   2.310   2.151  17.691  1.2747 -0.6291  0.1817
  517MPD2     H 7735   2.694   2.144  17.699  0.2394  2.0261 -1.3007
  517MPD2    H1 7736   2.322   2.304   0.094  0.3107 -0.3763  0.8367
  517MPD2    H2 7737   2.329   1.988  17.543 -0.6691 -0.5148  0.3071
  517MPD2    H3 7738   2.201   2.150  17.689  1.2670 -0.6842  0.6802
  517MPD2     N 7739   2.587   2.338   0.109  0.9826  0.1510  0.3062
  517MPD2    H5 7740   2.526   2.410   0.147  0.3045 -1.3940  2.1304
  517MPD2    N1 7741   2.600   1.958  17.552  0.1456  0.2101 -0.2677
  517MPD2    H7 7742   2.701   1.957  17.542  0.0821  2.1399 -1.2589
  518TMC3    C1 7743   2.647   1.783  17.415 -0.2180  0.9705 -0.2823
  518TMC3    C2 7744   2.630   1.650  17.399 -0.2543 -0.1336 -0.4827
  518TMC3    C3 7745   2.724   1.584  17.326  0.5250  0.9598 -0.1191
  518TMC3    C4 7746   2.729   1.857  17.341 -0.0405 -0.0475 -0.1769
  518TMC3    C5 7747   2.815   1.797  17.255 -0.2518 -0.2922 -0.0821
  518TMC3    C6 7748   2.815   1.661  17.252  0.5790 -0.4020  0.3987
  518TMC3     C 7749   2.544   1.849  17.491  0.2276 -0.1617  0.2202
  518TMC3     O 7750   2.428   1.806  17.471 -0.3848 -0.0178 -0.1226
  518TMC3     H 7751   2.570   1.602  17.475 -0.9102  2.3525  0.5689
  518TMC3    H1 7752   2.725   1.965  17.345  1.3147 -0.0134 -0.0397
  518TMC3    H2 7753   2.883   1.614  17.183  0.5683  0.0760  0.0659
  518TMC3    C7 7754   2.943   1.866  17.234  0.4419  0.5511 -0.5968
  518TMC3    C8 7755   2.758   1.443  17.343  0.0974 -0.9762 -0.0049
  518TMC3    O1 7756   2.951   1.979  17.286  0.4096  0.0136  0.0080
  518TMC3    O2 7757   2.822   1.393  17.251  0.2688  0.2274  0.5900
  519MPD2     C 7758   4.605   0.308  14.605  0.3104 -0.2762 -0.3680
  519MPD2    C1 7759   4.531   0.249  14.506  0.0058  0.1006 -0.1788
  519MPD2    C2 7760   4.589   0.202  14.393 -0.3230  0.8349  0.4839
  519MPD2    C3 7761   4.724   0.206  14.385  0.2334  0.2620 -0.4751
  519MPD2    C4 7762   0.064   0.265  14.487 -0.2910 -0.1514  0.1128
  519MPD2    C5 7763   0.002   0.324  14.593  0.5290  0.2676  0.0609
  519MPD2     H 7764   4.523   0.167  14.315 -0.2091  2.1307 -0.1983
  519MPD2    H1 7765   0.171   0.279  14.486 -0.3496  0.2428 -0.3808
  519MPD2    H2 7766   4.559   0.334  14.700  0.5120 -2.0224  0.2010
  519MPD2    H3 7767   0.061   0.380  14.665  1.4145 -1.3207  0.5573
  519MPD2     N 7768   0.062   0.147  14.276  0.6835 -0.1302 -0.5470
  519MPD2    H5 7769   0.158   0.177  14.265  1.4908 -1.7273  2.1195
  519MPD2    N1 7770   4.386   0.253  14.499 -0.2099  0.5016  0.1638
  519MPD2    H7 7771   4.344   0.211  14.417  0.5058 -1.0985  0.6085
  520TMC3    C1 7772   0.111   0.017  14.090 -0.5255  0.3129 -0.5102
  520TMC3    C2 7773   0.066   0.001  13.960 -0.0713 -0.6750  0.3469
  520TMC3    C3 7774   0.157   4.713  13.864  0.3260 -0.4932  0.0375
  520TMC3    C4 7775   0.235   4.727  14.131 -0.3911 -0.2257  0.7595
  520TMC3    C5 7776   0.327   4.687  14.033 -0.5829 -0.7390  0.2454
  520TMC3    C6 7777   0.285   4.679  13.902  0.3393 -0.2043 -0.5109
  520TMC3     C 7778   0.008   0.058  14.182 -0.1729  0.2431  0.7869
  520TMC3     O 7779   4.629   0.010  14.163 -0.0008 -0.3870 -0.0471
  520TMC3     H 7780   4.696   0.016  13.941 -0.1693 -1.4444  0.3035
  520TMC3    H1 7781   0.255   4.719  14.237 -1.3072 -2.9598  0.7304
  520TMC3    H2 7782   0.362   4.673  13.825  0.2319 -0.9919 -0.5602
  520TMC3    C7 7783   0.422   4.586  14.078  0.4370  0.4111  0.6685
  520TMC3    C8 7784   0.145   0.031  13.732  0.7959 -0.2215 -0.5919
  520TMC3    O1 7785   0.441   4.581  14.200  0.1309  0.1012 -0.1162
  520TMC3    O2 7786   0.232   0.018  13.653  0.1609 -0.1997  0.3663
  521MPD2     C 7787   0.323   4.006  16.918 -0.4946 -0.3530  0.3507
  521MPD2    C1 7788   0.315   3.875  16.880 -0.1937 -0.1685 -0.2660
  521MPD2    C2 7789   0.439   3.815  16.844  0.1093  0.1725 -0.1763
  521MPD2    C3 7790   0.557   3.886  16.850 -0.0300 -0.0873  0.4687
  521MPD2    C4 7791   0.554   4.018  16.887 -0.6402  0.1860 -0.0860
  521MPD2    C5 7792   0.434   4.076  16.924  0.5100 -0.2171 -0.5869
  521MPD2     H 7793   0.450   3.710  16.823 -3.1842 -0.3416  0.6227
  521MPD2    H1 7794   0.646   4.074  16.887  0.7116 -2.0304 -1.5561
  521MPD2    H2 7795   0.231   4.056  16.943  0.0521  0.7701  0.1295
  521MPD2    H3 7796   0.425   4.181  16.948  1.8234  0.1625 -1.7569
  521MPD2     N 7797   0.669   3.811  16.819  0.0830  0.3216  0.4287
  521MPD2    H5 7798   0.651   3.717  16.788  0.0303  0.9451 -1.4140
  521MPD2    N1 7799   0.195   3.811  16.910  0.0041 -0.0025  0.3108
  521MPD2    H7 7800   0.117   3.871  16.936 -1.6018 -2.8077  1.8859
  522TMC3    C1 7801   0.895   3.736  16.824 -0.9762  0.3652 -0.2883
  522TMC3    C2 7802   1.025   3.759  16.807 -0.0522 -0.2660 -0.2991
  522TMC3    C3 7803   1.110   3.649  16.829 -0.1390 -0.3203  0.0743
  522TMC3    C4 7804   0.849   3.609  16.859 -0.3189  0.1531  0.6286
  522TMC3    C5 7805   0.938   3.511  16.891  0.4279  0.1238  0.0464
  522TMC3    C6 7806   1.070   3.529  16.874 -0.2323 -0.1631 -0.4117
  522TMC3     C 7807   0.806   3.850  16.849  0.1601  0.0696 -0.1401
  522TMC3     O 7808   0.856   3.949  16.903 -0.0582  0.1281 -0.2133
  522TMC3     H 7809   1.066   3.858  16.792  3.1342 -1.4569  0.6785
  522TMC3    H1 7810   0.747   3.590  16.889 -0.2576 -0.5041  0.4249
  522TMC3    H2 7811   1.133   3.446  16.903 -0.4500 -0.9856 -2.2916
  522TMC3    C7 7812   0.886   3.375  16.913 -0.1240  0.0608 -0.1387
  522TMC3    C8 7813   1.249   3.656  16.793  0.3254 -0.1356  0.1283
  522TMC3    O1 7814   0.957   3.300  16.983 -0.3335  0.1493  0.4899
  522TMC3    O2 7815   1.315   3.759  16.808  0.1376 -1.2777 -0.5023
  523MPD2     C 7816   3.375   3.739  10.174  0.1840 -0.8194 -0.2254
  523MPD2    C1 7817   3.305   3.625  10.142 -0.5177  0.1023  0.4997
  523MPD2    C2 7818   3.186   3.650  10.069  0.0782  0.1412 -0.6134
  523MPD2    C3 7819   3.155   3.773  10.015  0.5787 -0.5273 -0.1753
  523MPD2    C4 7820   3.231   3.879  10.041 -0.0371 -0.4551  0.0807
  523MPD2    C5 7821   3.345   3.855  10.116  0.3679 -0.0963  0.6268
  523MPD2     H 7822   3.111   3.573  10.060  0.1146 -0.1098  1.2803
  523MPD2    H1 7823   3.201   3.974   9.999  1.4048  0.5736  1.3835
  523MPD2    H2 7824   3.469   3.719  10.224  0.3226  2.1833  0.7133
  523MPD2    H3 7825   3.415   3.934  10.140  1.4114 -1.3965  1.9034
  523MPD2     N 7826   3.035   3.800   9.939  0.3334 -0.2661 -0.8196
  523MPD2    H5 7827   3.023   3.899   9.921  1.4673 -0.3729 -2.1015
  523MPD2    N1 7828   3.346   3.502  10.199  0.9442 -0.5337  0.1154
  523MPD2    H7 7829   3.412   3.508  10.277 -1.8193  2.3013  2.2409
  524TMC3    C1 7830   2.823   3.758   9.837  0.8424 -0.2296 -0.1799
  524TMC3    C2 7831   2.761   3.692   9.737 -0.6215 -0.1544 -0.2355
  524TMC3    C3 7832   2.657   3.757   9.675  0.1231  0.3790 -0.5030
  524TMC3    C4 7833   2.768   3.866   9.891 -0.1105  0.4211  0.6954
  524TMC3    C5 7834   2.662   3.917   9.840 -1.0217  0.0859 -0.1059
  524TMC3    C6 7835   2.600   3.869   9.726 -0.0230  0.1893  0.7635
  524TMC3     C 7836   2.947   3.703   9.889  0.7807 -0.0803 -0.6822
  524TMC3     O 7837   2.974   3.584   9.869  0.2461 -0.0858 -0.5312
  524TMC3     H 7838   2.826   3.627   9.681 -1.7145 -1.1733 -0.3185
  524TMC3    H1 7839   2.792   3.894   9.993 -2.1650  1.9781  0.7549
  524TMC3    H2 7840   2.508   3.905   9.682 -0.8848 -2.0791  0.7097
  524TMC3    C7 7841   2.589   4.005   9.935 -0.3583 -0.5129 -0.1120
  524TMC3    C8 7842   2.588   3.677   9.574 -0.6833 -0.3986  0.1842
  524TMC3    O1 7843   2.604   3.986  10.055  0.2847 -0.3176  0.7760
  524TMC3    O2 7844   2.507   3.736   9.501 -0.0447  0.4052 -0.2725
  525MPD2     C 7845   1.259   4.377  14.369  0.3154  0.1034  0.4236
  525MPD2    C1 7846   1.382   4.380  14.425  0.1526  0.2212  0.0330
  525MPD2    C2 7847   1.493   4.447  14.371 -0.1788  0.1510 -0.8002
  525MPD2    C3 7848   1.467   4.521  14.259 -0.0242 -0.7334  0.8636
  525MPD2    C4 7849   1.342   4.522  14.198 -0.6525  0.2149  0.0440
  525MPD2    C5 7850   1.240   4.446  14.256 -0.4368 -0.0409 -0.7154
  525MPD2     H 7851   1.592   4.445  14.413  0.0128 -0.4790 -1.2866
  525MPD2    H1 7852   1.328   4.590  14.115  2.3909 -1.8557 -2.1488
  525MPD2    H2 7853   1.171   4.321  14.399  0.0582 -0.3874 -1.2558
  525MPD2    H3 7854   1.138   4.441  14.218 -0.8653  1.6441  0.2276
  525MPD2     N 7855   1.556   4.621  14.216  0.1104  0.0792  0.1321
  525MPD2    H5 7856   1.512   4.693  14.159 -0.3100  0.8125  1.3976
  525MPD2    N1 7857   1.401   4.316  14.548  0.0805  0.5057 -0.3995
  525MPD2    H7 7858   1.494   4.323  14.589  0.3989  0.2523 -1.0818
  526TMC3    C1 7859   1.330   4.245  14.761 -0.4993 -0.0513 -0.4206
  526TMC3    C2 7860   1.249   4.259  14.874 -0.8163  0.5262 -0.7015
  526TMC3    C3 7861   1.267   4.174  14.982 -0.1143  0.0017  0.0160
  526TMC3    C4 7862   1.426   4.151  14.763  0.0653 -0.7638 -0.2543
  526TMC3    C5 7863   1.441   4.080  14.883  0.2106 -0.3010  0.5642
  526TMC3    C6 7864   1.359   4.079  14.991  1.1188 -0.0724  0.9546
  526TMC3     C 7865   1.288   4.291  14.630 -0.5901 -0.3023 -0.4581
  526TMC3     O 7866   1.177   4.344  14.627 -0.3123  0.0045 -0.4026
  526TMC3     H 7867   1.163   4.325  14.866 -1.2834 -0.4014 -3.0930
  526TMC3    H1 7868   1.487   4.129  14.677  0.4411 -1.6546  0.2316
  526TMC3    H2 7869   1.356   4.015  15.078  3.4361  0.2687  1.2893
  526TMC3    C7 7870   1.570   4.015  14.895  1.0993 -0.3618 -0.3668
  526TMC3    C8 7871   1.193   4.199  15.110 -0.0860  0.2237 -0.2493
  526TMC3    O1 7872   1.615   3.980  14.789  0.1200  0.7590 -0.0029
  526TMC3    O2 7873   1.262   4.175  15.210 -0.0741  0.0706 -0.0521
  527MPD2     C 7874   3.692   2.910   1.536 -0.0450  0.0923  0.1489
  527MPD2    C1 7875   3.641   2.885   1.412 -0.9768 -0.3084 -0.5223
  527MPD2    C2 7876   3.720   2.907   1.300 -1.0532 -0.1046 -0.3815
  527MPD2    C3 7877   3.841   2.966   1.312  0.9690  0.3179  0.5356
  527MPD2    C4 7878   3.889   2.996   1.434 -0.2584  0.2431  0.0883
  527MPD2    C5 7879   3.810   2.977   1.543  0.5473 -0.1469  0.5340
  527MPD2     H 7880   3.685   2.872   1.203 -1.8776  0.0882 -0.1521
  527MPD2    H1 7881   3.994   3.018   1.449 -0.8228  2.5958  0.5196
  527MPD2    H2 7882   3.636   2.888   1.626 -0.7450  0.9957 -0.0669
  527MPD2    H3 7883   3.848   2.996   1.643 -0.1799 -0.3351  0.8478
  527MPD2     N 7884   3.919   2.975   1.194 -0.1741  0.3963 -0.5124
  527MPD2    H5 7885   3.882   2.947   1.104  1.1746  0.4871 -1.0891
  527MPD2    N1 7886   3.505   2.849   1.389 -0.1120 -0.2459 -0.5757
  527MPD2    H7 7887   3.480   2.862   1.292 -2.9717 -2.0205 -0.0611
  528TMC3    C1 7888   3.293   2.799   1.405  0.3080  0.5682 -0.6794
  528TMC3    C2 7889   3.300   2.759   1.275  0.1731  0.2769  0.2490
  528TMC3    C3 7890   3.188   2.785   1.196  0.5264  0.0889  0.7862
  528TMC3    C4 7891   3.183   2.854   1.462  0.1598  0.7644 -0.0567
  528TMC3    C5 7892   3.079   2.871   1.386  0.6349 -0.1295  0.7716
  528TMC3    C6 7893   3.073   2.836   1.253  0.3542  0.3749 -0.3679
  528TMC3     C 7894   3.407   2.827   1.482  0.4407  0.9942 -0.2923
  528TMC3     O 7895   3.404   2.857   1.598  0.1233  0.7214  0.2359
  528TMC3     H 7896   3.389   2.711   1.237 -0.8498 -1.2675 -0.1771
  528TMC3    H1 7897   3.184   2.889   1.565 -2.2567 -0.5334  0.3846
  528TMC3    H2 7898   2.990   2.856   1.185  0.4893  1.0267 -0.3465
  528TMC3    C7 7899   2.952   2.906   1.443  0.1916  0.3355 -1.0688
  528TMC3    C8 7900   3.201   2.773   1.059 -0.3389  0.0273  0.0601
  528TMC3    O1 7901   2.876   2.943   1.357  0.6436  0.1329  0.4581
  528TMC3    O2 7902   3.312   2.736   1.028 -0.3014  0.5692  0.8613
  529MPD2     C 7903   1.755   1.344   1.245 -0.2151  0.3747 -0.4156
  529MPD2    C1 7904   1.729   1.270   1.134 -0.5008  0.6913 -0.2383
  529MPD2    C2 7905   1.720   1.330   1.014  0.2085  0.6201 -0.1155
  529MPD2    C3 7906   1.725   1.468   1.001 -0.2552 -0.0381  0.1676
  529MPD2    C4 7907   1.751   1.547   1.109  0.0637  0.4807  0.3371
  529MPD2    C5 7908   1.759   1.481   1.236 -0.1725 -0.0637  0.4842
  529MPD2     H 7909   1.694   1.263   0.933  0.8495 -0.1795  0.3462
  529MPD2    H1 7910   1.751   1.655   1.119  1.9975  0.4990  0.0714
  529MPD2    H2 7911   1.776   1.288   1.336  0.4003  1.7932  0.3178
  529MPD2    H3 7912   1.777   1.540   1.324 -1.2126 -1.6363  1.7508
  529MPD2     N 7913   1.690   1.526   0.883 -0.8863  0.6179  0.7151
  529MPD2    H5 7914   1.686   1.626   0.896 -0.1715  0.5125  1.7030
  529MPD2    N1 7915   1.720   1.128   1.136  0.0230  0.2593  0.1011
  529MPD2    H7 7916   1.724   1.077   1.048  0.3483 -1.8551  1.3487
  530TMC3    C1 7917   1.707   0.920   1.223 -0.4864 -0.1416  0.4980
  530TMC3    C2 7918   1.818   0.871   1.154  0.1150  0.3111 -0.4310
  530TMC3    C3 7919   1.839   0.739   1.153 -0.5743 -0.3438  0.5181
  530TMC3    C4 7920   1.628   0.842   1.301  0.3093  0.3718 -0.8062
  530TMC3    C5 7921   1.658   0.708   1.299  0.0354  0.5511 -0.2211
  530TMC3    C6 7922   1.755   0.655   1.221  0.3367 -1.0509 -0.4580
  530TMC3     C 7923   1.676   1.057   1.243 -0.7668 -1.0142 -0.0193
  530TMC3     O 7924   1.609   1.097   1.339  0.5406 -0.0529 -0.5642
  530TMC3     H 7925   1.875   0.932   1.085 -0.1557  0.0587 -0.8731
  530TMC3    H1 7926   1.538   0.884   1.343 -0.2506 -0.3909 -1.2326
  530TMC3    H2 7927   1.768   0.547   1.221  0.9052 -0.9903 -1.2817
  530TMC3    C7 7928   1.600   0.622   1.395 -0.1583  0.6114  0.1080
  530TMC3    C8 7929   1.960   0.682   1.102  0.2000 -0.5992 -0.7685
  530TMC3    O1 7930   1.594   0.499   1.386 -0.6568 -0.0121 -0.2610
  530TMC3    O2 7931   2.013   0.743   1.007  0.2038  0.7970  0.2583
  531MPD2     C 7932   0.494   3.122  13.386 -0.1947  0.0230  0.3751
  531MPD2    C1 7933   0.384   3.172  13.440  0.7551  0.3208 -0.5160
  531MPD2    C2 7934   0.278   3.204  13.355 -0.0131 -0.0576  0.0714
  531MPD2    C3 7935   0.279   3.183  13.218  0.1602  0.6509  0.1807
  531MPD2    C4 7936   0.400   3.157  13.162 -0.1338  0.7387  0.3195
  531MPD2    C5 7937   0.506   3.116  13.248  0.4547  0.6296  0.2539
  531MPD2     H 7938   0.184   3.249  13.383  0.4622  1.8394 -1.4112
  531MPD2    H1 7939   0.408   3.153  13.054  0.5141  0.5500  0.3737
  531MPD2    H2 7940   0.590   3.097  13.431 -0.1481 -0.0592  0.2300
  531MPD2    H3 7941   0.599   3.085  13.201  0.5891  1.9503 -0.3429
  531MPD2     N 7942   0.164   3.226  13.148  0.0825 -0.3345  0.2731
  531MPD2    H5 7943   0.099   3.276  13.208  0.9162  1.5148 -0.3310
  531MPD2    N1 7944   0.373   3.192  13.578 -0.6993 -0.5006  0.1987
  531MPD2    H7 7945   0.452   3.166  13.636 -0.1195  0.8416  0.0138
  532TMC3    C1 7946   0.255   3.246  13.786  0.9318 -0.5296  0.0621
  532TMC3    C2 7947   0.130   3.277  13.835  0.6532  0.0123 -0.4199
  532TMC3    C3 7948   0.120   3.386  13.910 -0.4726  0.0485 -0.2348
  532TMC3    C4 7949   0.367   3.316  13.821  0.4710 -0.1938  0.7687
  532TMC3    C5 7950   0.356   3.424  13.910 -0.2779  0.1808  0.2074
  532TMC3    C6 7951   0.232   3.462  13.953 -0.1116 -0.2177 -0.7372
  532TMC3     C 7952   0.252   3.228  13.641 -0.6301  0.2044 -0.1075
  532TMC3     O 7953   0.140   3.245  13.602 -0.0391 -0.4703 -0.3039
  532TMC3     H 7954   0.045   3.212  13.816  0.2398  0.1360  1.0636
  532TMC3    H1 7955   0.462   3.286  13.777  0.0170 -0.3362 -0.1175
  532TMC3    H2 7956   0.207   3.547  14.016 -0.8504  1.5517 -3.3991
  532TMC3    C7 7957   0.468   3.452  14.001 -0.0581 -0.4457  0.1565
  532TMC3    C8 7958   0.012   3.473  13.877  0.7415  0.1383 -0.1890
  532TMC3    O1 7959   0.455   3.508  14.108  0.5595  0.2079 -0.1682
  532TMC3    O2 7960   4.696   3.553  13.948  0.2627 -0.1416  0.1665
  533TMC3    C1 7961   1.693   0.058  14.283 -0.0926 -0.7250  0.6426
  533TMC3    C2 7962   1.817   0.097  14.327 -0.1656  0.8033  0.3380
  533TMC3    C3 7963   1.819   0.201  14.416 -0.0115  0.4751 -0.3862
  533TMC3    C4 7964   1.584   0.132  14.313  0.5960  0.0527 -0.6174
  533TMC3    C5 7965   1.586   0.242  14.393  0.4557  0.2730 -0.4454
  533TMC3    C6 7966   1.707   0.268  14.451 -0.5355  0.0594 -1.2294
  533TMC3     C 7967   1.678   4.650  14.275 -0.2867  0.1469 -0.3885
  533TMC3     O 7968   1.751   4.589  14.353  0.5594 -0.3324 -0.0612
  533TMC3     H 7969   1.899   0.030  14.304  0.2630  0.3825  3.1074
  533TMC3    H1 7970   1.482   0.107  14.287  0.1779 -1.8848  2.9000
  533TMC3    H2 7971   1.722   0.340  14.531  0.0244 -1.1389 -0.2558
  533TMC3    C7 7972   1.474   0.253  14.484 -0.8334 -0.2380  0.0148
  533TMC3    C8 7973   1.951   0.238  14.473 -0.0507 -0.1968 -0.9702
  533TMC3    O1 7974   1.431   0.149  14.533 -0.0330 -0.4265  0.4963
  533TMC3    O2 7975   1.953   0.280  14.588 -0.1909 -0.6495 -0.0849
  534MPD2     C 7976   4.241   2.233   0.710  0.4931  0.0953  0.6125
  534MPD2    C1 7977   4.149   2.242   0.813 -0.3514 -0.1873  0.2138
  534MPD2    C2 7978   4.077   2.133   0.844 -0.6642 -0.1866  0.5728
  534MPD2    C3 7979   4.105   2.011   0.774  0.3566 -0.5610 -0.0586
  534MPD2    C4 7980   4.206   1.999   0.682  0.7438  0.2061 -0.3411
  534MPD2    C5 7981   4.270   2.113   0.647  0.9102 -0.3780 -0.0290
  534MPD2     H 7982   3.993   2.139   0.912  0.0351  2.4502  1.1835
  534MPD2    H1 7983   4.226   1.906   0.630  2.5804  0.2284  0.3369
  534MPD2    H2 7984   4.289   2.324   0.677 -3.7068  1.4184 -1.8723
  534MPD2    H3 7985   4.335   2.108   0.561 -1.5125 -3.0091 -1.7505
  534MPD2     N 7986   4.034   1.893   0.799  0.1875 -0.3160 -0.0034
  534MPD2    H5 7987   4.068   1.818   0.739  0.5862  0.2017 -0.4267
  534MPD2    N1 7988   4.120   2.360   0.889  0.8576  0.3049 -0.3007
  534MPD2    H7 7989   4.052   2.355   0.964 -1.3599 -1.0795 -2.3747
  535TMC3    C1 7990   3.868   1.733   0.883 -1.0964 -0.3780  0.3827
  535TMC3    C2 7991   3.808   1.675   0.993  0.1501  0.2797 -0.4121
  535TMC3    C3 7992   3.747   1.554   0.963  0.1363 -0.4973 -0.6466
  535TMC3    C4 7993   3.874   1.675   0.760 -0.8125 -0.3077  0.5999
  535TMC3    C5 7994   3.839   1.544   0.743 -0.1263  0.5195  0.7331
  535TMC3    C6 7995   3.755   1.488   0.839  0.1269 -0.4528 -0.1346
  535TMC3     C 7996   3.936   1.867   0.891 -0.2263  0.3197 -0.5338
  535TMC3     O 7997   3.899   1.938   0.982  0.0052 -0.7396  0.3391
  535TMC3     H 7998   3.801   1.715   1.094 -1.1214  1.2444 -0.8910
  535TMC3    H1 7999   3.932   1.721   0.680 -1.3223 -1.1774 -0.2761
  535TMC3    H2 8000   3.716   1.388   0.830 -2.8644  0.6618  0.5634
  535TMC3    C7 8001   3.814   1.511   0.601 -0.1730 -0.0430  0.1939
  535TMC3    C8 8002   3.638   1.513   1.048  0.4028  0.3861  0.4020
  535TMC3    O1 8003   3.845   1.401   0.555  0.0828  0.5058 -0.6190
  535TMC3    O2 8004   3.556   1.440   0.999 -0.6956  0.0995  0.0837
  536MPD2     C 8005   1.982   3.844  16.773  0.6368 -0.1060 -0.4808
  536MPD2    C1 8006   1.952   3.984  16.790  0.1822  0.8387 -0.1670
  536MPD2    C2 8007   1.935   4.063  16.675 -0.0665  0.8035  0.1937
  536MPD2    C3 8008   1.952   4.012  16.548 -0.2292 -1.0150 -0.4191
  536MPD2    C4 8009   1.967   3.874  16.541  0.4417  0.9782  0.9182
  536MPD2    C5 8010   1.976   3.788  16.651  0.0155 -0.1017  0.3608
  536MPD2     H 8011   1.911   4.168  16.684 -2.8878  0.0113  1.8560
  536MPD2    H1 8012   1.973   3.819  16.448  0.8316  1.2118  0.8039
  536MPD2    H2 8013   1.986   3.780  16.860 -3.4058  1.4860  0.9003
  536MPD2    H3 8014   1.975   3.680  16.642 -1.2865  0.0521 -1.3895
  536MPD2     N 8015   1.922   4.103  16.445 -0.8621  0.4883  0.1410
  536MPD2    H5 8016   1.874   4.187  16.476  1.0229  1.1642  1.1803
  536MPD2    N1 8017   1.956   4.042  16.923 -0.1480  0.3711 -0.3086
  536MPD2    H7 8018   2.012   3.992  16.991  0.0879  0.3144 -0.5445
  537TMC3    C1 8019   1.987   4.211  17.081 -0.2140  0.3722 -0.0206
  537TMC3    C2 8020   2.099   4.282  17.068 -0.2479  0.6306  0.8255
  537TMC3    C3 8021   2.194   4.279  17.161  0.1918  0.1848  0.0120
  537TMC3    C4 8022   1.962   4.137  17.192  0.0010  0.6490 -0.1369
  537TMC3    C5 8023   2.059   4.131  17.288  0.8581  0.4863 -0.4012
  537TMC3    C6 8024   2.177   4.200  17.275  0.4305 -0.2735 -0.7538
  537TMC3     C 8025   1.927   4.172  16.954 -0.6226  0.5666  0.1338
  537TMC3     O 8026   1.853   4.252  16.889 -0.3153 -0.0057 -0.3171
  537TMC3     H 8027   2.138   4.317  16.973 -0.4350 -2.9483 -0.5632
  537TMC3    H1 8028   1.883   4.063  17.194  0.9660 -0.3157  2.4100
  537TMC3    H2 8029   2.249   4.212  17.355  0.0337 -1.1242 -0.2708
  537TMC3    C7 8030   2.063   4.015  17.370 -0.1803 -1.0287  0.1840
  537TMC3    C8 8031   2.323   4.331  17.130  0.2487  0.4336  0.8329
  537TMC3    O1 8032   1.956   3.984  17.415  0.8792 -0.4202 -0.8506
  537TMC3    O2 8033   2.416   4.267  17.176  0.6770  0.1230  0.0216
  538TMC3    C1 8034   4.050   2.947  11.468  0.0001 -0.4486  0.0449
  538TMC3    C2 8035   4.155   2.952  11.377  0.4716 -0.1225 -0.2055
  538TMC3    C3 8036   4.133   3.017  11.265  0.2434  0.0949 -0.2969
  538TMC3    C4 8037   3.930   3.005  11.436 -0.0913  0.0604  0.5095
  538TMC3    C5 8038   3.913   3.072  11.321 -0.4009 -0.1729 -0.3712
  538TMC3    C6 8039   4.009   3.072  11.226 -0.5528  0.7014  0.5254
  538TMC3     C 8040   4.069   2.902  11.605  0.4700 -0.0813  0.3682
  538TMC3     O 8041   3.971   2.902  11.676 -0.5828  0.3625  0.2202
  538TMC3     H 8042   4.256   2.920  11.400  0.9012  0.9643 -0.6194
  538TMC3    H1 8043   3.845   3.005  11.503 -1.6203 -1.6167 -1.4247
  538TMC3    H2 8044   3.993   3.125  11.133 -0.7475 -1.0858 -0.4640
  538TMC3    C7 8045   3.783   3.135  11.301  0.1449  0.6319 -0.1938
  538TMC3    C8 8046   4.243   3.031  11.171  0.8981  0.5129  0.4424
  538TMC3    O1 8047   3.688   3.058  11.336  0.3914  0.3409 -0.0811
  538TMC3    O2 8048   4.332   2.953  11.190  0.9555  0.4747  0.5686
  539MPD2     C 8049   4.090   2.415  11.627 -0.2232  0.3168 -0.1251
  539MPD2    C1 8050   4.043   2.393  11.501  0.0769 -0.4115  0.4742
  539MPD2    C2 8051   3.943   2.469  11.451  0.5919 -0.3905 -0.1424
  539MPD2    C3 8052   3.880   2.566  11.530  0.2317 -0.9530  0.2849
  539MPD2    C4 8053   3.938   2.595  11.654 -0.2865 -0.2290  0.0600
  539MPD2    C5 8054   4.042   2.518  11.704  0.1309 -0.8573  0.8619
  539MPD2     H 8055   3.907   2.447  11.351 -0.9742  0.2993  0.2725
  539MPD2    H1 8056   3.899   2.678  11.712 -0.5886 -0.1124 -0.3048
  539MPD2    H2 8057   4.141   2.334  11.677 -1.4929 -0.3872  0.0126
  539MPD2    H3 8058   4.078   2.528  11.806  1.6488  2.3870  0.0329
  539MPD2     N 8059   3.761   2.631  11.497  0.5807  1.0182 -0.4139
  539MPD2    H5 8060   3.722   2.687  11.572 -1.0036  0.1227 -0.5763
  539MPD2    N1 8061   4.083   2.279  11.424 -0.2085 -0.0356 -0.2553
  539MPD2    H7 8062   4.036   2.259  11.337 -0.7006  1.0318 -0.2227
  540TMC3    C1 8063   3.553   2.683  11.401 -0.3040  0.2091 -0.2857
  540TMC3    C2 8064   3.517   2.757  11.290 -0.1034 -0.6361 -0.1024
  540TMC3    C3 8065   3.410   2.846  11.301 -0.0569 -0.0801 -0.6305
  540TMC3    C4 8066   3.491   2.700  11.522 -0.3554  0.0458 -0.0153
  540TMC3    C5 8067   3.370   2.769  11.520  0.5707  0.3160  0.5833
  540TMC3    C6 8068   3.332   2.847  11.409  0.3791  0.4242 -0.2972
  540TMC3     C 8069   3.679   2.614  11.388 -0.3406  0.6973 -0.5147
  540TMC3     O 8070   3.715   2.593  11.271  0.4143 -0.2895  0.2218
  540TMC3     H 8071   3.576   2.766  11.200  1.1165 -0.9095  0.6609
  540TMC3    H1 8072   3.510   2.632  11.605 -0.4619  0.8252  0.6423
  540TMC3    H2 8073   3.233   2.891  11.403  0.2136 -0.0794 -1.3612
  540TMC3    C7 8074   3.266   2.736  11.618 -0.4232 -0.2680 -0.2889
  540TMC3    C8 8075   3.358   2.892  11.175  0.2274 -0.1042 -0.0079
  540TMC3    O1 8076   3.271   2.618  11.652  0.1093  0.3284 -0.2949
  540TMC3    O2 8077   3.327   3.010  11.169 -0.2013  0.2108  0.3845
  541MPD2     C 8078   1.223   3.356  13.429  0.4187 -0.2448 -0.2778
  541MPD2    C1 8079   1.259   3.264  13.330 -0.3859 -0.8478 -0.7699
  541MPD2    C2 8080   1.244   3.300  13.202 -0.2723 -0.2436  0.2672
  541MPD2    C3 8081   1.174   3.417  13.165  0.2610  0.2099  0.3598
  541MPD2    C4 8082   1.134   3.503  13.262 -0.0378 -0.2831  0.0661
  541MPD2    C5 8083   1.161   3.472  13.392 -0.1917 -0.5263  0.3447
  541MPD2     H 8084   1.275   3.227  13.129 -1.4563 -2.0223  1.5322
  541MPD2    H1 8085   1.100   3.596  13.219 -0.0281 -0.9843 -1.4569
  541MPD2    H2 8086   1.237   3.325  13.532 -0.5733 -2.8189 -0.9071
  541MPD2    H3 8087   1.143   3.543  13.472 -1.8023 -1.3031  0.6825
  541MPD2     N 8088   1.159   3.453  13.029  0.5052  0.1543 -0.1506
  541MPD2    H5 8089   1.118   3.542  13.004  1.6136  1.3942  2.5343
  541MPD2    N1 8090   1.322   3.148  13.375  0.8099 -0.4944  0.1655
  541MPD2    H7 8091   1.356   3.141  13.471  1.3048  1.9605  0.1777
  542TMC3    C1 8092   1.164   3.436  12.787  0.3003  0.0151 -0.5945
  542TMC3    C2 8093   1.245   3.402  12.681 -0.3889  0.2734  0.0572
  542TMC3    C3 8094   1.227   3.452  12.555  0.2198  0.2312 -1.0314
  542TMC3    C4 8095   1.068   3.530  12.773  0.1436  0.0178 -0.2385
  542TMC3    C5 8096   1.053   3.587  12.644  0.3772  0.6392 -0.4145
  542TMC3    C6 8097   1.135   3.550  12.540 -0.1718  0.0444  0.0386
  542TMC3     C 8098   1.189   3.373  12.920 -0.1802  0.2716  0.3663
  542TMC3     O 8099   1.252   3.270  12.908  0.1433 -0.0495 -0.3140
  542TMC3     H 8100   1.324   3.329  12.694  0.7141  1.3913 -0.2890
  542TMC3    H1 8101   1.002   3.564  12.852 -0.4602 -3.7788  0.8933
  542TMC3    H2 8102   1.129   3.611  12.450 -1.2175 -1.5208 -0.9480
  542TMC3    C7 8103   0.954   3.684  12.618  0.2352 -1.0231  0.2096
  542TMC3    C8 8104   1.323   3.436  12.446  0.2800  0.0209 -0.5686
  542TMC3    O1 8105   0.977   3.784  12.552  0.3813 -0.2517 -0.3513
  542TMC3    O2 8106   1.276   3.465  12.337  0.6306  0.2500 -0.1921
  543TMC3    C1 8107   1.279   0.880  17.402 -0.0296  0.0525  0.3257
  543TMC3    C2 8108   1.215   0.787  17.473 -0.8616  0.1719  0.0037
  543TMC3    C3 8109   1.218   0.775  17.610  0.1244 -0.0900 -0.8050
  543TMC3    C4 8110   1.373   0.958  17.465 -0.5827 -0.0385 -0.4657
  543TMC3    C5 8111   1.394   0.937  17.601  0.7404 -0.0758  0.3652
  543TMC3    C6 8112   1.324   0.846  17.676 -0.2697 -0.1029 -0.6490
  543TMC3     C 8113   1.318   0.836  17.270 -0.2763 -0.2808  0.2674
  543TMC3     O 8114   1.318   0.713  17.272 -0.6050 -0.2683 -0.3871
  543TMC3     H 8115   1.150   0.719  17.418  0.4363  1.8105 -3.5711
  543TMC3    H1 8116   1.440   1.019  17.406 -0.0419 -1.5468 -1.3850
  543TMC3    H2 8117   1.353   0.831   0.038 -0.6337 -1.5767 -0.7650
  543TMC3    C7 8118   1.504   1.005  17.675  0.0855  0.4520  0.2629
  543TMC3    C8 8119   1.188   0.643  17.670 -0.2465 -0.6753 -1.0475
  543TMC3    O1 8120   1.549   0.947   0.034 -0.0477 -0.4444 -0.1332
  543TMC3    O2 8121   1.144   0.562  17.592  0.1785  0.0248 -0.1985
  544MPD2     C 8122   1.164   0.281   0.304  0.2618 -0.0137 -0.3462
  544MPD2    C1 8123   1.194   0.268   0.169 -0.3350 -0.1940 -0.0268
  544MPD2    C2 8124   1.205   0.387   0.091  0.3894  0.0030  0.3969
  544MPD2    C3 8125   1.195   0.515   0.142  0.6556  0.5008 -0.3125
  544MPD2    C4 8126   1.169   0.524   0.276 -0.5448  0.2734  0.0908
  544MPD2    C5 8127   1.159   0.411   0.354  0.2466 -0.5200  0.3104
  544MPD2     H 8128   1.232   0.385  17.727 -0.8021 -2.2169  0.1197
  544MPD2    H1 8129   1.162   0.612   0.339  0.1402  0.0987  0.4195
  544MPD2    H2 8130   1.145   0.201   0.374  1.5101  0.4254  0.4788
  544MPD2    H3 8131   1.131   0.415   0.459  0.3275  0.6309  0.2926
  544MPD2     N 8132   1.205   0.637   0.067 -0.4153 -0.3260 -0.3081
  544MPD2    H5 8133   1.204   0.717   0.129  0.1674  0.4661 -1.3338
  544MPD2    N1 8134   1.215   0.144   0.113 -0.0287  0.3497 -0.1347
  544MPD2    H7 8135   1.185   0.070   0.175  1.6635 -0.7851 -0.6654
  545TMC3    C1 8136   1.283   4.713  17.709 -0.6286 -0.1662  0.5183
  545TMC3    C2 8137   1.407   4.679  17.669  0.0800 -0.5068  0.0430
  545TMC3    C3 8138   1.441   4.547  17.683  0.3546  0.0466  0.5321
  545TMC3    C4 8139   1.196   4.622   0.016 -0.1768  0.2674  0.2613
  545TMC3    C5 8140   1.237   4.493   0.029  0.1128  0.7083 -0.1309
  545TMC3    C6 8141   1.360   4.453   0.003 -0.8487 -0.4915 -0.0453
  545TMC3     C 8142   1.259   0.118  17.728 -0.8701 -0.1372 -0.5417
  545TMC3     O 8143   1.308   0.189  17.642 -0.2359  0.1978  0.5003
  545TMC3     H 8144   1.473   0.022  17.632 -0.1107  0.3380  1.5240
  545TMC3    H1 8145   1.091   4.640   0.034 -0.2261 -0.0794  0.3207
  545TMC3    H2 8146   1.386   4.348  17.731 -1.3655 -0.6590  0.2610
  545TMC3    C7 8147   1.136   4.392   0.025 -0.4145  0.3080 -0.2154
  545TMC3    C8 8148   1.555   4.501  17.623  0.7411 -0.1883 -0.3806
  545TMC3    O1 8149   1.025   4.417  17.728 -0.1326 -0.4070  0.1628
  545TMC3    O2 8150   1.603   4.394  17.664  0.1662 -0.4824 -0.1266
  546MPD2     C 8151   3.015   4.691  17.550  0.4604  0.5568  0.4455
  546MPD2    C1 8152   2.952   0.004  17.432 -0.7025  0.1543  0.2059
  546MPD2    C2 8153   2.993   0.126  17.383 -0.0388  0.1722 -0.7316
  546MPD2    C3 8154   3.091   0.194  17.456  0.1841  0.2529 -0.3999
  546MPD2    C4 8155   3.151   0.139  17.565 -0.1301 -0.3750  0.1257
  546MPD2    C5 8156   3.113   0.014  17.610  0.9535  0.2757 -0.0970
  546MPD2     H 8157   2.932   0.179  17.310 -1.2799 -2.5899 -1.6654
  546MPD2    H1 8158   3.218   0.200  17.626 -2.2647  2.7372 -0.6287
  546MPD2    H2 8159   2.979   4.598  17.592 -0.7756  0.8354  0.0232
  546MPD2    H3 8160   3.146   4.713  17.707 -0.6622  1.2116  0.8069
  546MPD2     N 8161   3.123   0.326  17.407 -0.4637 -0.5460  0.0580
  546MPD2    H5 8162   3.076   0.347  17.319  0.1696 -2.1007 -0.6585
  546MPD2    N1 8163   2.835   4.676  17.387 -0.0014  0.0524 -0.4712
  546MPD2    H7 8164   2.794   4.607  17.449  1.2474 -1.4334 -1.3102
  547TMC3    C1 8165   2.620   4.674  17.271 -0.2136  0.2369  0.3517
  547TMC3    C2 8166   2.539   0.028  17.214  0.1682  0.2176  0.9797
  547TMC3    C3 8167   2.405   0.013  17.218  0.0078 -0.5487  0.0925
  547TMC3    C4 8168   2.571   4.560  17.336 -0.8366  0.4923  0.0461
  547TMC3    C5 8169   2.433   4.553  17.339 -0.7596  0.0950  0.5313
  547TMC3    C6 8170   2.352   4.646  17.293  0.2313 -0.3573 -0.3711
  547TMC3     C 8171   2.760   4.714  17.274 -0.8301 -0.0746 -0.2662
  547TMC3     O 8172   2.795   0.051  17.180  0.2655  0.5499  0.2817
  547TMC3     H 8173   2.589   0.107  17.160 -1.0198 -0.1766 -0.7210
  547TMC3    H1 8174   2.641   4.499  17.392 -1.7384 -0.7955 -0.2171
  547TMC3    H2 8175   2.245   4.629  17.287 -0.6353  4.9141  0.2725
  547TMC3    C7 8176   2.387   4.480  17.454 -0.0037 -0.0607 -0.6861
  547TMC3    C8 8177   2.318   0.108  17.151  0.4494 -0.1501 -0.0802
  547TMC3    O1 8178   2.279   4.517  17.494  0.3152  0.1802 -0.5997
  547TMC3    O2 8179   2.209   0.066  17.120 -0.5466 -0.1010 -0.1336
  548MPD2     C 8180   2.276   0.241  12.951  0.0284  0.3310  0.6895
  548MPD2    C1 8181   2.207   0.143  12.891 -0.1867  0.6530  0.2479
  548MPD2    C2 8182   2.274   0.044  12.822  0.4774  0.2034 -0.0408
  548MPD2    C3 8183   2.408   0.059  12.807  0.4910 -0.0785 -0.6066
  548MPD2    C4 8184   2.480   0.167  12.854  0.0727  0.0125  0.0880
  548MPD2    C5 8185   2.413   0.257  12.931  0.2244  0.3403 -0.0828
  548MPD2     H 8186   2.226   4.695  12.775  3.0362 -2.0180  1.3616
  548MPD2    H1 8187   2.586   0.185  12.841 -0.1675  0.7545 -0.8296
  548MPD2    H2 8188   2.219   0.316  13.005 -0.1843  1.7640 -1.5206
  548MPD2    H3 8189   2.452   0.345  12.980 -2.1654  1.6431 -0.5444
  548MPD2     N 8190   2.480   4.697  12.736 -0.5694 -0.1890 -0.4560
  548MPD2    H5 8191   2.415   4.623  12.711 -0.6375 -0.5008  0.6832
  548MPD2    N1 8192   2.064   0.142  12.908  0.3066 -0.5776 -0.0422
  548MPD2    H7 8193   2.018   0.212  12.965  0.2454 -1.0311  0.4630
  549TMC3    C1 8194   1.834   0.088  12.898  0.9969 -0.1011  0.0939
  549TMC3    C2 8195   1.799   0.218  12.866  0.2524 -0.9078 -0.7546
  549TMC3    C3 8196   1.663   0.239  12.876  0.3918  0.0124 -0.0688
  549TMC3    C4 8197   1.747   4.720  12.931 -0.2699 -0.3128 -0.9570
  549TMC3    C5 8198   1.611   0.022  12.946  0.3329  0.5357  0.0914
  549TMC3    C6 8199   1.570   0.152  12.914 -0.0369 -0.0685 -0.5143
  549TMC3     C 8200   1.974   0.046  12.864 -0.3228 -0.9011  1.1912
  549TMC3     O 8201   1.989   4.678  12.803  0.2604 -0.4760 -0.1248
  549TMC3     H 8202   1.870   0.280  12.813 -0.0403  0.2966  0.2725
  549TMC3    H1 8203   1.790   4.625  12.958 -1.1091 -0.4120  0.0199
  549TMC3    H2 8204   1.469   0.187  12.936  0.8904  2.9608 -1.1462
  549TMC3    C7 8205   1.505   4.657  12.959 -0.1413  0.1444  0.2258
  549TMC3    C8 8206   1.612   0.364  12.830  0.2141 -0.5592 -0.0908
  549TMC3    O1 8207   1.394   4.701  12.998  0.5324 -0.3145 -0.4187
  549TMC3    O2 8208   1.493   0.379  12.822 -0.2123 -0.0827 -0.1353
  550TMC3    C1 8209   1.120   3.131  12.450 -0.2071 -0.2471 -0.5600
  550TMC3    C2 8210   1.056   3.127  12.574  0.6034  0.4822  0.0521
  550TMC3    C3 8211   0.946   3.208  12.590 -0.3955  0.2986 -0.1731
  550TMC3    C4 8212   1.074   3.211  12.347  0.8961  0.3449  0.4963
  550TMC3    C5 8213   0.967   3.304  12.372 -0.3199  0.5724 -0.2470
  550TMC3    C6 8214   0.905   3.291  12.492 -0.4659  0.8445 -0.0984
  550TMC3     C 8215   1.238   3.054  12.428 -0.1897  0.3581 -0.2042
  550TMC3     O 8216   1.278   2.984  12.521 -0.6840 -0.1711  0.2756
  550TMC3     H 8217   1.089   3.071  12.661  0.6251 -0.4142 -0.5353
  550TMC3    H1 8218   1.128   3.221  12.254  1.0516 -0.9612  0.4450
  550TMC3    H2 8219   0.818   3.352  12.511 -2.0177 -1.2843 -0.3994
  550TMC3    C7 8220   0.895   3.376  12.269  0.2239 -0.3415 -0.2147
  550TMC3    C8 8221   0.901   3.244  12.726  0.2121  0.0450 -0.3677
  550TMC3    O1 8222   0.795   3.438  12.301 -0.5453  0.1512  0.0272
  550TMC3    O2 8223   0.858   3.359  12.732  0.3581  0.6097  0.3598
  551TMC3    C1 8224   3.115   1.265  13.446 -0.1429 -0.4588  0.7609
  551TMC3    C2 8225   3.229   1.297  13.381  0.4449  0.0901  0.3583
  551TMC3    C3 8226   3.344   1.286  13.451 -0.1854  0.3562  0.2272
  551TMC3    C4 8227   3.115   1.209  13.572 -0.3742 -0.2864  0.8819
  551TMC3    C5 8228   3.237   1.203  13.643 -1.0100  0.4028 -1.1293
  551TMC3    C6 8229   3.356   1.234  13.574 -0.0965  0.1786  0.1101
  551TMC3     C 8230   2.995   1.269  13.371  0.3632  0.1881 -0.4993
  551TMC3     O 8231   2.898   1.201  13.404  0.2723 -0.2286  0.1057
  551TMC3     H 8232   3.230   1.326  13.277  0.3736 -1.3128 -0.0267
  551TMC3    H1 8233   3.016   1.189  13.612 -0.4548  1.8791  1.7983
  551TMC3    H2 8234   3.455   1.210  13.612 -0.6055 -3.4422 -0.7771
  551TMC3    C7 8235   3.246   1.164  13.777 -0.1955 -0.7568  0.0660
  551TMC3    C8 8236   3.464   1.331  13.388 -0.6821  0.3480  0.2894
  551TMC3    O1 8237   3.349   1.200  13.834  0.5269 -0.6189  0.1868
  551TMC3    O2 8238   3.576   1.286  13.414 -0.2518 -0.2664 -0.1666
  552MPD2     C 8239   0.568   3.299  14.392 -0.4640 -0.1325  0.2991
  552MPD2    C1 8240   0.611   3.169  14.380  0.4069 -0.0948 -0.3261
  552MPD2    C2 8241   0.707   3.130  14.473 -0.8978  0.5940  0.0937
  552MPD2    C3 8242   0.761   3.218  14.566  0.4720 -0.6148 -0.2873
  552MPD2    C4 8243   0.722   3.352  14.568  0.4286  0.1049  0.1066
  552MPD2    C5 8244   0.623   3.387  14.481  0.3679 -0.2083  0.0447
  552MPD2     H 8245   0.740   3.027  14.467  0.5192  0.9245  2.0467
  552MPD2    H1 8246   0.754   3.422  14.645  0.3215 -0.2375  0.4658
  552MPD2    H2 8247   0.493   3.353  14.336  0.8120  0.5049 -0.7873
  552MPD2    H3 8248   0.581   3.487  14.476 -0.7114 -0.6575  0.1044
  552MPD2     N 8249   0.842   3.172  14.676  0.2752 -1.1325  0.1397
  552MPD2    H5 8250   0.886   3.240  14.738 -1.1725 -0.4044  0.3785
  552MPD2    N1 8251   0.553   3.071  14.300 -0.1408 -0.2133 -0.1787
  552MPD2    H7 8252   0.585   2.974  14.298  0.6187  0.0676 -1.6598
  553TMC3    C1 8253   0.428   2.968  14.134 -0.2670 -0.1504  0.1618
  553TMC3    C2 8254   0.360   2.983  14.021  0.5394  0.1282  0.3959
  553TMC3    C3 8255   0.379   2.883  13.926  0.0205 -0.4496 -0.8173
  553TMC3    C4 8256   0.495   2.852  14.170 -0.4374 -0.4621  0.1510
  553TMC3    C5 8257   0.505   2.752  14.076 -0.3356 -0.3014  0.3005
  553TMC3    C6 8258   0.453   2.767  13.958  0.3131 -0.1560 -0.0158
  553TMC3     C 8259   0.453   3.085  14.203  0.7403  0.2997 -0.0089
  553TMC3     O 8260   0.385   3.182  14.172  0.4095 -0.2365 -0.7940
  553TMC3     H 8261   0.312   3.075  13.989 -0.0157  0.2571  1.6132
  553TMC3    H1 8262   0.536   2.825  14.267  1.4050 -0.5409 -0.6449
  553TMC3    H2 8263   0.450   2.683  13.890 -1.8361 -0.1407  0.0754
  553TMC3    C7 8264   0.594   2.628  14.093 -0.5229 -0.1593  0.4266
  553TMC3    C8 8265   0.427   2.943  13.801  0.9907 -0.1817 -1.0171
  553TMC3    O1 8266   0.538   2.521  14.074 -0.0785 -0.3183  0.4088
  553TMC3    O2 8267   0.484   3.050  13.811 -0.3194 -0.1032 -0.3250
  554TMC3    C1 8268   2.796   2.123  11.455  0.7949  0.7604 -0.3165
  554TMC3    C2 8269   2.679   2.116  11.387 -0.6965  0.2706  0.4358
  554TMC3    C3 8270   2.629   2.238  11.356  0.4929 -0.0989  0.4710
  554TMC3    C4 8271   2.841   2.245  11.509 -0.3018  0.2405 -0.0588
  554TMC3    C5 8272   2.780   2.364  11.477 -0.3002 -0.2154 -0.3393
  554TMC3    C6 8273   2.672   2.361  11.393 -0.8657 -0.6536 -0.4497
  554TMC3     C 8274   2.848   1.998  11.517  0.1514  0.3254 -0.6792
  554TMC3     O 8275   2.964   1.992  11.554  0.3839 -0.1695  0.3929
  554TMC3     H 8276   2.654   2.022  11.340 -0.2029  0.4697 -0.2170
  554TMC3    H1 8277   2.932   2.251  11.567 -0.0542  0.9697 -0.5251
  554TMC3    H2 8278   2.639   2.451  11.342  0.3973 -0.0652 -0.2149
  554TMC3    C7 8279   2.858   2.480  11.459 -0.3613 -0.4308 -0.1145
  554TMC3    C8 8280   2.563   2.254  11.228  0.1218 -0.1268  0.9151
  554TMC3    O1 8281   2.974   2.484  11.417  0.1941 -0.3011 -0.3705
  554TMC3    O2 8282   2.613   2.333  11.146 -0.6526  0.0731 -0.4320
  555TMC3    C1 8283   1.340   1.490  14.874 -0.1341 -0.2657 -0.0134
  555TMC3    C2 8284   1.314   1.626  14.903 -0.2926  0.6160  0.0170
  555TMC3    C3 8285   1.326   1.671  15.029 -0.4983  0.1951  0.2117
  555TMC3    C4 8286   1.369   1.399  14.975 -0.6808 -0.5032  0.2912
  555TMC3    C5 8287   1.383   1.451  15.103  0.1931  0.2465  0.4608
  555TMC3    C6 8288   1.371   1.586  15.131  0.1096  0.0191 -0.3818
  555TMC3     C 8289   1.322   1.430  14.739 -0.4600  0.1814 -0.3719
  555TMC3     O 8290   1.339   1.310  14.727 -0.6729 -0.2920 -0.5333
  555TMC3     H 8291   1.280   1.694  14.826  0.6758 -1.1578 -1.9664
  555TMC3    H1 8292   1.391   1.297  14.948  2.9973  0.3007  0.1268
  555TMC3    H2 8293   1.372   1.617  15.234  0.0120 -1.0375 -0.0611
  555TMC3    C7 8294   1.443   1.367  15.199  0.0719 -0.6596 -0.1731
  555TMC3    C8 8295   1.317   1.810  15.049  0.3457  0.2457 -0.1687
  555TMC3    O1 8296   1.428   1.397  15.319 -0.9205 -0.1083  0.2280
  555TMC3    O2 8297   1.257   1.892  14.976 -0.0290  0.1358  0.1101
  556MPD2     C 8298   4.047   4.267  10.967 -0.3329 -0.0840  0.5986
  556MPD2    C1 8299   4.142   4.170  11.002  0.7101 -0.4847  0.3967
  556MPD2    C2 8300   4.163   4.066  10.912 -0.6677  0.2027  0.4984
  556MPD2    C3 8301   4.081   4.041  10.800  0.1839 -0.0220  0.5664
  556MPD2    C4 8302   3.977   4.127  10.778  0.3830 -0.5312  0.1180
  556MPD2    C5 8303   3.963   4.239  10.862 -0.0716 -0.1098 -0.0138
  556MPD2     H 8304   4.244   3.997  10.936  0.5441  1.1964 -0.7256
  556MPD2    H1 8305   3.904   4.118  10.698  1.4967 -1.4007 -0.7942
  556MPD2    H2 8306   4.039   4.356  11.028  1.1866 -0.6590  1.6123
  556MPD2    H3 8307   3.885   4.309  10.833  2.7929  2.4504 -1.5427
  556MPD2     N 8308   4.114   3.941  10.709  0.2173  0.6632  0.2954
  556MPD2    H5 8309   4.198   3.889  10.732 -1.2148 -2.2251 -1.0592
  556MPD2    N1 8310   4.214   4.172  11.122  0.4680 -0.3301 -0.5819
  556MPD2    H7 8311   4.288   4.104  11.135  2.0703  1.3895 -0.7564
  557TMC3    C1 8312   4.108   3.778  10.552 -1.0235 -0.4203  0.3988
  557TMC3    C2 8313   4.074   3.732  10.432 -0.2248  0.5483 -0.0051
  557TMC3    C3 8314   4.103   3.603  10.400  0.1910 -0.3430  0.2018
  557TMC3    C4 8315   4.175   3.708  10.645  0.2058 -0.9397 -0.4935
  557TMC3    C5 8316   4.209   3.579  10.605 -0.2218  0.4405  0.4607
  557TMC3    C6 8317   4.175   3.526  10.485 -0.1228  0.3033  0.0224
  557TMC3     C 8318   4.042   3.898  10.607  0.0816  0.4624 -0.0453
  557TMC3     O 8319   3.951   3.953  10.547 -0.4530 -0.3990 -0.6638
  557TMC3     H 8320   4.028   3.790  10.352 -1.2189  1.3594  1.1676
  557TMC3    H1 8321   4.206   3.737  10.745 -0.3195  2.0961 -1.2112
  557TMC3    H2 8322   4.183   3.419  10.478  1.0997  0.3012  1.5658
  557TMC3    C7 8323   4.252   3.492  10.714 -0.1672  0.6269  0.4982
  557TMC3    C8 8324   4.058   3.545  10.275  0.0619 -0.0336  1.0175
  557TMC3    O1 8325   4.231   3.528  10.833 -0.0365  0.3546  0.0512
  557TMC3    O2 8326   3.955   3.591  10.230  0.2610 -0.0995  0.6297
  558TMC3    C1 8327   2.068   1.428  10.122  0.4916  0.0151  0.2152
  558TMC3    C2 8328   1.929   1.437  10.114 -0.3627 -0.2028  0.5863
  558TMC3    C3 8329   1.871   1.526  10.032 -0.1734 -0.6687  0.0827
  558TMC3    C4 8330   2.149   1.506  10.039 -0.6988  0.3683 -0.7236
  558TMC3    C5 8331   2.077   1.606   9.970 -0.0893 -0.2026  0.2497
  558TMC3    C6 8332   1.941   1.624   9.968 -0.5558  0.1104 -0.6306
  558TMC3     C 8333   2.134   1.380  10.243  0.3575  0.3958  0.1455
  558TMC3     O 8334   2.253   1.401  10.266  0.2038  0.1965 -0.1138
  558TMC3     H 8335   1.869   1.371  10.176 -1.4967 -0.2386 -0.5544
  558TMC3    H1 8336   2.258   1.500  10.045 -0.7595  0.8860  0.8466
  558TMC3    H2 8337   1.872   1.694   9.921  1.6012  1.9415 -1.0678
  558TMC3    C7 8338   2.149   1.693   9.885  0.3591  0.4437  0.6528
  558TMC3    C8 8339   1.745   1.578  10.088 -0.1627 -0.0030  0.2173
  558TMC3    O1 8340   2.266   1.716   9.916  0.2480 -0.1164  0.1630
  558TMC3    O2 8341   1.654   1.613  10.010 -0.0854 -0.0451  0.1038
  559MPD2     C 8342   2.309   2.267  10.272 -0.1574  0.2725  0.3467
  559MPD2    C1 8343   2.242   2.206  10.374  0.7509 -0.4352  0.3358
  559MPD2    C2 8344   2.301   2.179  10.494  0.5750 -0.3825  0.2695
  559MPD2    C3 8345   2.437   2.190  10.506 -0.4661  0.1289 -0.2183
  559MPD2    C4 8346   2.510   2.236  10.392  0.4201  0.1001 -0.4188
  559MPD2    C5 8347   2.447   2.283  10.282 -0.0403 -0.0949 -0.1546
  559MPD2     H 8348   2.240   2.140  10.575 -0.5831  0.9836  0.0523
  559MPD2    H1 8349   2.616   2.258  10.388  0.0147  2.0659 -0.1679
  559MPD2    H2 8350   2.252   2.307  10.189  2.2680 -0.9228 -1.8815
  559MPD2    H3 8351   2.495   2.334  10.200 -0.1026 -0.1449 -0.2225
  559MPD2     N 8352   2.502   2.154  10.627 -0.0587 -0.0632  1.0870
  559MPD2    H5 8353   2.440   2.112  10.696 -1.9924  1.1543  0.0934
  559MPD2    N1 8354   2.097   2.202  10.366 -0.4575 -0.2191  0.3656
  559MPD2    H7 8355   2.057   2.242  10.282  0.8364 -1.3455 -0.7826
  560TMC3    C1 8356   2.659   2.046  10.749  0.4000  0.4424 -0.7074
  560TMC3    C2 8357   2.549   1.955  10.777 -0.5651  0.2146  0.1553
  560TMC3    C3 8358   2.551   1.909  10.906  0.1162 -0.0937 -0.3176
  560TMC3    C4 8359   2.758   2.075  10.838  0.4544 -0.2072 -0.1854
  560TMC3    C5 8360   2.746   2.027  10.963  0.1687  0.8348  0.2236
  560TMC3    C6 8361   2.643   1.947  10.999  0.2005 -0.4168 -0.2059
  560TMC3     C 8362   2.636   2.140  10.640 -0.2859 -0.2086  0.3178
  560TMC3     O 8363   2.736   2.174  10.576 -0.4499  0.1431 -0.4473
  560TMC3     H 8364   2.478   1.919  10.704 -0.0601  0.5050 -0.4735
  560TMC3    H1 8365   2.843   2.130  10.799  1.7412 -2.9805 -1.2799
  560TMC3    H2 8366   2.625   1.928  11.104 -1.2388  1.1811 -0.1664
  560TMC3    C7 8367   2.853   2.050  11.068 -0.4380 -0.5003 -0.3685
  560TMC3    C8 8368   2.449   1.811  10.937 -0.0485  0.6957  0.1354
  560TMC3    O1 8369   2.834   1.993  11.170 -0.2838  0.2617 -0.0632
  560TMC3    O2 8370   2.367   1.776  10.849 -0.0868 -0.0214  0.5216
  561TMC3    C1 8371   0.593   1.391  11.364 -0.1479 -0.2825 -0.0476
  561TMC3    C2 8372   0.504   1.290  11.380 -0.2550 -0.0580  0.8479
  561TMC3    C3 8373   0.377   1.312  11.434 -0.2778 -0.2629  1.1260
  561TMC3    C4 8374   0.567   1.509  11.410  0.2989 -0.1408 -0.6813
  561TMC3    C5 8375   0.434   1.538  11.457 -0.5462 -0.6864  0.6380
  561TMC3    C6 8376   0.332   1.437  11.467  0.1437  0.6471 -0.2050
  561TMC3     C 8377   0.733   1.349  11.349  0.6521 -0.2637 -0.4590
  561TMC3     O 8378   0.755   1.225  11.360  0.3156 -0.4849 -0.3156
  561TMC3     H 8379   0.538   1.188  11.367 -0.7536 -0.4944  2.9569
  561TMC3    H1 8380   0.642   1.587  11.408  1.6386 -1.4652 -1.4304
  561TMC3    H2 8381   0.229   1.473  11.463 -1.3075 -3.4397  0.6786
  561TMC3    C7 8382   0.401   1.676  11.488  0.1577  0.0764 -0.6737
  561TMC3    C8 8383   0.294   1.199  11.452  0.5759  0.9023  0.1484
  561TMC3    O1 8384   0.308   1.693  11.569 -0.1568 -0.2053  0.2482
  561TMC3    O2 8385   0.294   1.115  11.366  0.4397  0.4203 -0.0773
  562TMC3    C1 8386   1.111   2.936  16.948 -0.3585 -0.7279  1.4175
  562TMC3    C2 8387   1.122   2.992  16.821 -0.9648  0.3804  0.3020
  562TMC3    C3 8388   1.100   2.895  16.722 -0.0825  0.5133 -0.2130
  562TMC3    C4 8389   1.121   2.802  16.977 -0.5044 -0.0261  0.1518
  562TMC3    C5 8390   1.098   2.717  16.873 -0.3463 -0.0410 -0.0307
  562TMC3    C6 8391   1.079   2.763  16.745  0.8632 -1.5093  0.5856
  562TMC3     C 8392   1.147   3.019  17.061 -0.7931  0.4872 -0.2083
  562TMC3     O 8393   1.123   2.981  17.176 -0.9557  1.1016  0.0861
  562TMC3     H 8394   1.116   3.098  16.801 -0.7747  0.6577  1.6681
  562TMC3    H1 8395   1.113   2.770  17.080  0.3110  0.2967  0.3120
  562TMC3    H2 8396   1.056   2.696  16.663  1.6564 -0.7875 -0.2272
  562TMC3    C7 8397   1.068   2.576  16.899  0.2744  0.0745  0.0405
  562TMC3    C8 8398   1.127   2.946  16.583  0.1789 -0.2904  0.0644
  562TMC3    O1 8399   1.010   2.551  17.004  0.4569  0.0251  0.2795
  562TMC3    O2 8400   1.155   3.065  16.578  0.0481 -0.4457  0.0980
  563MPD2     C 8401   3.641   3.521  15.652  0.7394 -1.4705  0.1312
  563MPD2    C1 8402   3.665   3.582  15.776 -0.5433 -0.7066  0.1289
  563MPD2    C2 8403   3.756   3.519  15.865 -0.0277 -0.0541  0.1840
  563MPD2    C3 8404   3.810   3.393  15.837 -0.0499 -0.1288  0.4371
  563MPD2    C4 8405   3.781   3.332  15.715 -0.5019 -0.5855  0.5757
  563MPD2    C5 8406   3.694   3.396  15.627 -0.2875  0.2806 -0.0864
  563MPD2     H 8407   3.770   3.559  15.965  0.4132 -0.4063  0.2587
  563MPD2    H1 8408   3.824   3.236  15.688  3.0883  1.0712  0.3875
  563MPD2    H2 8409   3.585   3.569  15.572  1.6836 -3.4982 -1.7356
  563MPD2    H3 8410   3.683   3.345  15.532  1.1978 -1.5219  0.6940
  563MPD2     N 8411   3.895   3.335  15.938 -0.7075  0.2768  0.0261
  563MPD2    H5 8412   3.904   3.377  16.030 -1.4535  1.2081 -0.3228
  563MPD2    N1 8413   3.598   3.704  15.808  0.4387 -0.1883  0.7275
  563MPD2    H7 8414   3.514   3.739  15.762 -0.2432  0.3839  2.3977
  564TMC3    C1 8415   3.535   3.740  16.030 -0.1966 -0.0255 -0.4662
  564TMC3    C2 8416   3.410   3.712  15.981  0.4733 -0.4452  0.0966
  564TMC3    C3 8417   3.326   3.623  16.041  0.8662  0.1294 -0.5257
  564TMC3    C4 8418   3.580   3.679  16.149  0.2357  0.3053  0.0195
  564TMC3    C5 8419   3.499   3.577  16.193 -0.3174 -0.0627  0.0871
  564TMC3    C6 8420   3.375   3.546  16.143 -0.1250  0.1069  0.3987
  564TMC3     C 8421   3.631   3.763  15.929  0.5228 -0.2991  0.6177
  564TMC3     O 8422   3.742   3.780  15.977 -0.7945  0.0527  0.1356
  564TMC3     H 8423   3.365   3.792  15.923  3.0470  0.4686 -0.6455
  564TMC3    H1 8424   3.684   3.684  16.179 -0.1821 -1.2936  1.7334
  564TMC3    H2 8425   3.316   3.461  16.176  0.6393 -0.3641  0.5361
  564TMC3    C7 8426   3.563   3.447  16.210  0.4960 -0.2584  0.0109
  564TMC3    C8 8427   3.238   3.544  15.963  0.9687  0.4549 -0.4328
  564TMC3    O1 8428   3.638   3.423  16.297 -0.3624  0.3729  0.4600
  564TMC3    O2 8429   3.143   3.486  16.014 -0.1405  0.2195  0.6358
  565TMC3    C1 8430   3.743   0.323  10.560  0.0694 -0.3160  0.4515
  565TMC3    C2 8431   3.771   0.231  10.654 -0.6459  0.4586 -0.0197
  565TMC3    C3 8432   3.684   0.125  10.663 -0.0052 -0.1369  0.6549
  565TMC3    C4 8433   3.650   0.300  10.466 -0.7206 -0.2171  0.1001
  565TMC3    C5 8434   3.577   0.188  10.474  0.2923 -0.5281  0.8318
  565TMC3    C6 8435   3.590   0.093  10.570 -0.3058  0.2571 -0.0573
  565TMC3     C 8436   3.829   0.445  10.539 -0.3060  0.1771  0.1041
  565TMC3     O 8437   3.827   0.492  10.425  0.1755 -0.4728 -0.0475
  565TMC3     H 8438   3.870   0.232  10.698 -0.2371  0.3776 -0.9525
  565TMC3    H1 8439   3.638   0.373  10.387  0.7066  1.7673  1.7156
  565TMC3    H2 8440   3.510   0.024  10.593 -0.5973  0.4843 -0.3844
  565TMC3    C7 8441   3.483   0.176  10.373  0.7402  0.2042  0.5562
  565TMC3    C8 8442   3.688   0.030  10.778 -0.2669  0.8089  0.1412
  565TMC3    O1 8443   3.445   0.280  10.321 -0.0923  0.0952  0.1829
  565TMC3    O2 8444   3.783   0.049  10.855 -0.5082  0.7901  0.7929
  566MPD2     C 8445   1.402   0.853  14.235  0.6923  0.3453  0.5343
  566MPD2    C1 8446   1.494   0.949  14.277 -0.4313 -0.6105  0.1765
  566MPD2    C2 8447   1.489   1.073  14.221 -0.0470  1.0048 -0.2011
  566MPD2    C3 8448   1.388   1.112  14.130  0.2924 -0.1165  0.4141
  566MPD2    C4 8449   1.291   1.015  14.107 -0.2239  0.1520  0.4542
  566MPD2    C5 8450   1.305   0.889  14.157  0.4958  0.0856 -0.3277
  566MPD2     H 8451   1.564   1.146  14.250 -2.3673  2.4006  2.3035
  566MPD2    H1 8452   1.205   1.030  14.042 -0.1448 -1.3512  0.0094
  566MPD2    H2 8453   1.390   0.756  14.282  0.1592 -0.2594 -0.8621
  566MPD2    H3 8454   1.221   0.825  14.132  0.9283 -0.3332 -0.6971
  566MPD2     N 8455   1.381   1.241  14.070 -0.3716 -0.1971  0.3132
  566MPD2    H5 8456   1.319   1.250  13.990 -1.8633  0.3554  1.5428
  566MPD2    N1 8457   1.590   0.906  14.371 -0.4632 -0.0714  0.4459
  566MPD2    H7 8458   1.577   0.810  14.401  0.3906 -0.6838 -1.1408
  567TMC3    C1 8459   1.767   0.911  14.520 -0.2768  0.4431 -0.0285
  567TMC3    C2 8460   1.897   0.959  14.515 -0.0171  0.0696 -0.2650
  567TMC3    C3 8461   1.962   0.966  14.633  0.9455  0.6706 -0.2076
  567TMC3    C4 8462   1.705   0.861  14.633  0.1219 -0.3867 -0.0557
  567TMC3    C5 8463   1.777   0.873  14.746 -0.8015 -0.4973 -0.0787
  567TMC3    C6 8464   1.906   0.918  14.746  0.0984 -0.4056 -0.3516
  567TMC3     C 8465   1.694   0.978  14.418  0.3187  0.1584  0.2054
  567TMC3     O 8466   1.734   1.082  14.379  0.2193  0.1292 -0.5161
  567TMC3     H 8467   1.934   0.989  14.418 -2.5879  0.5587 -1.0841
  567TMC3    H1 8468   1.599   0.842  14.642  0.2900 -0.8461  0.9371
  567TMC3    H2 8469   1.936   0.958  14.843 -0.2486 -0.8057 -0.0757
  567TMC3    C7 8470   1.731   0.833  14.877 -0.1462  0.3923  0.0447
  567TMC3    C8 8471   2.065   1.070  14.643  0.1420 -0.5048 -0.4209
  567TMC3    O1 8472   1.814   0.790  14.953 -0.5676 -0.2117  0.4677
  567TMC3    O2 8473   2.091   1.129  14.539  0.4717 -0.6086 -0.1005
  568MPD2     C 8474   3.560   2.162  16.356 -0.0093  0.9888  0.2680
  568MPD2    C1 8475   3.447   2.217  16.413  0.6557  0.4828 -0.0536
  568MPD2    C2 8476   3.383   2.320  16.349 -0.8102 -0.1225  0.1067
  568MPD2    C3 8477   3.436   2.371  16.227  0.8294  0.0659  1.0104
  568MPD2    C4 8478   3.545   2.316  16.162  0.1147 -0.3934  0.3792
  568MPD2    C5 8479   3.600   2.209  16.231  0.1841  0.6807  0.3412
  568MPD2     H 8480   3.289   2.361  16.384 -0.0238  0.5845  1.3819
  568MPD2    H1 8481   3.599   2.354  16.076  1.8236 -0.1608  1.5576
  568MPD2    H2 8482   3.614   2.080  16.402 -1.0197  0.7599  1.0364
  568MPD2    H3 8483   3.679   2.149  16.188  0.9551  1.3127  0.8522
  568MPD2     N 8484   3.362   2.473  16.169 -0.8811 -0.7425 -0.2421
  568MPD2    H5 8485   3.308   2.524  16.238 -0.7331  0.7161 -1.1923
  568MPD2    N1 8486   3.403   2.155  16.531 -0.0104  0.0963  0.1441
  568MPD2    H7 8487   3.470   2.096  16.579 -1.0486  0.1478  1.6815
  569TMC3    C1 8488   3.317   2.656  16.039  0.1427 -0.1478  1.1092
  569TMC3    C2 8489   3.301   2.725  16.161 -0.5220  0.9325 -0.2880
  569TMC3    C3 8490   3.235   2.838  16.158  0.3924 -0.5137  0.6026
  569TMC3    C4 8491   3.283   2.716  15.921  0.1867 -0.1087  0.3155
  569TMC3    C5 8492   3.222   2.838  15.923 -0.2485  0.0510  0.1231
  569TMC3    C6 8493   3.181   2.893  16.043  0.0070  0.1278 -0.1111
  569TMC3     C 8494   3.376   2.523  16.050  0.4813 -0.3173  0.5258
  569TMC3     O 8495   3.421   2.473  15.946  0.2900  0.4595  0.0315
  569TMC3     H 8496   3.329   2.691  16.261 -1.9563 -1.3474 -0.6561
  569TMC3    H1 8497   3.317   2.676  15.826  1.5149  0.6288  0.4898
  569TMC3    H2 8498   3.139   2.992  16.058  1.3331  0.5410  0.9070
  569TMC3    C7 8499   3.244   2.924  15.807  0.1693 -0.3622 -0.0441
  569TMC3    C8 8500   3.231   2.923  16.276 -0.4232 -0.1473  0.1851
  569TMC3    O1 8501   3.287   2.883  15.699 -0.1281  0.3509  0.1206
  569TMC3    O2 8502   3.123   2.980  16.308  0.0727  0.2670 -0.3359
  570TMC3    C1 8503   2.758   0.910  16.462  0.5161  1.3925  0.0608
  570TMC3    C2 8504   2.848   0.914  16.360  0.0735  0.2680  0.4068
  570TMC3    C3 8505   2.874   1.034  16.297 -0.3767 -0.3634 -0.2975
  570TMC3    C4 8506   2.704   1.023  16.515  0.1796  0.5441 -0.5067
  570TMC3    C5 8507   2.724   1.137  16.451  0.8011  0.4893 -0.4598
  570TMC3    C6 8508   2.803   1.147  16.336 -0.5818  0.6109 -0.0887
  570TMC3     C 8509   2.742   0.791  16.534  0.8018  0.4862 -0.4040
  570TMC3     O 8510   2.753   0.686  16.472 -0.0280  0.3044  0.3995
  570TMC3     H 8511   2.900   0.825  16.327  0.0035  0.3172  0.1574
  570TMC3    H1 8512   2.632   1.009  16.594  0.4813  1.9071  0.0076
  570TMC3    H2 8513   2.812   1.240  16.282  0.9141 -0.1454 -1.1405
  570TMC3    C7 8514   2.607   1.230  16.459 -0.6032  0.1358  0.1705
  570TMC3    C8 8515   2.965   1.053  16.187  0.1755  0.2498 -0.0311
  570TMC3    O1 8516   2.568   1.259  16.573 -0.3378  1.0719  0.1711
  570TMC3    O2 8517   2.968   1.166  16.140  0.1989  0.5949  0.5867
  571MPD2     C 8518   0.487   3.194  17.597 -0.7556  0.1396  0.3793
  571MPD2    C1 8519   0.389   3.155  17.691 -0.4489  0.3532 -0.5710
  571MPD2    C2 8520   0.335   3.248   0.035 -0.1090 -0.1508 -0.1575
  571MPD2    C3 8521   0.383   3.383   0.033  0.3354  0.0329 -0.0714
  571MPD2    C4 8522   0.474   3.417  17.678  0.4355  0.0201 -0.0179
  571MPD2    C5 8523   0.523   3.325  17.596 -1.3347  0.1633 -0.0035
  571MPD2     H 8524   0.253   3.215   0.098 -0.1561 -1.8387 -1.1091
  571MPD2    H1 8525   0.524   3.514  17.671 -0.1206  0.4878  2.5917
  571MPD2    H2 8526   0.526   3.113  17.537  1.2243  0.5394  1.0998
  571MPD2    H3 8527   0.592   3.357  17.518 -0.8283  4.6784  2.3443
  571MPD2     N 8528   0.343   3.481   0.126  0.3216 -0.3273 -0.1360
  571MPD2    H5 8529   0.374   3.575   0.101 -0.6141 -0.2495 -1.0390
  571MPD2    N1 8530   0.356   3.014  17.678  0.2673 -0.5233 -0.6149
  571MPD2    H7 8531   0.409   2.970  17.604  1.5622  0.5249 -0.3189
  572TMC3    C1 8532   0.230   3.559   0.335  0.4442 -0.2664  0.6224
  572TMC3    C2 8533   0.163   3.517   0.452  0.0377  0.2114  1.0810
  572TMC3    C3 8534   0.135   3.624   0.531 -0.1500  0.1679  0.3381
  572TMC3    C4 8535   0.286   3.685   0.314  0.1931 -0.0839  0.9743
  572TMC3    C5 8536   0.269   3.775   0.416  0.2581  0.2713 -0.2661
  572TMC3    C6 8537   0.192   3.747   0.523 -0.1374 -0.1000 -0.7484
  572TMC3     C 8538   0.265   3.453   0.237  0.2419 -1.0719  0.0573
  572TMC3     O 8539   0.244   3.341   0.280  0.3873 -0.4605 -0.0811
  572TMC3     H 8540   0.088   3.439   0.456 -1.3448  1.7134  4.1067
  572TMC3    H1 8541   0.350   3.713   0.232 -0.3256  0.6860  0.8207
  572TMC3    H2 8542   0.168   3.818   0.601 -2.7458 -1.3411 -0.4010
  572TMC3    C7 8543   0.312   3.910   0.388 -0.1373 -0.5887 -0.6901
  572TMC3    C8 8544   0.091   3.584   0.659  0.0372 -0.0620 -0.3120
  572TMC3    O1 8545   0.326   3.941   0.273 -0.0433  0.2972 -0.3821
  572TMC3    O2 8546   0.135   3.477   0.696  0.1990 -0.5003  0.0153
  573MPD2     C 8547   1.499   3.589   1.170  0.2972  0.1349  0.0698
  573MPD2    C1 8548   1.435   3.690   1.103 -0.0053 -0.4408  0.2690
  573MPD2    C2 8549   1.415   3.683   0.964  0.2570  0.5612  0.4719
  573MPD2    C3 8550   1.479   3.588   0.888 -0.1075  0.4685 -0.3394
  573MPD2    C4 8551   1.543   3.486   0.958  0.8121  0.0211  0.0317
  573MPD2    C5 8552   1.540   3.482   1.096 -0.3579  0.0463  0.6277
  573MPD2     H 8553   1.365   3.768   0.919  0.0050  0.0190 -0.2632
  573MPD2    H1 8554   1.584   3.398   0.910  1.6468  0.6174 -0.3336
  573MPD2    H2 8555   1.503   3.580   1.278  1.3955  1.6669  0.1504
  573MPD2    H3 8556   1.602   3.408   1.144  1.0818 -0.7793 -2.5209
  573MPD2     N 8557   1.490   3.582   0.748  0.4687  0.0805  0.6426
  573MPD2    H5 8558   1.549   3.506   0.715  3.1786  2.6680 -0.5391
  573MPD2    N1 8559   1.372   3.788   1.188  0.3972 -0.1515 -0.4182
  573MPD2    H7 8560   1.372   3.773   1.288 -0.4792 -0.0886 -0.4052
  574TMC3    C1 8561   1.457   3.643   0.522  0.1865  0.4307  0.1818
  574TMC3    C2 8562   1.355   3.676   0.435  0.2098  0.3869 -0.6791
  574TMC3    C3 8563   1.365   3.633   0.303 -0.9205 -0.1377 -0.3802
  574TMC3    C4 8564   1.575   3.577   0.479 -0.1722  0.9298 -0.3049
  574TMC3    C5 8565   1.577   3.540   0.348  0.4949  0.3133  0.4225
  574TMC3    C6 8566   1.472   3.564   0.262  0.0295  0.5638  0.4728
  574TMC3     C 8567   1.434   3.668   0.663  0.0242  0.6995  0.9067
  574TMC3     O 8568   1.359   3.764   0.685  0.1726  0.3941  0.4283
  574TMC3     H 8569   1.267   3.734   0.459  1.5856  1.9527  0.5836
  574TMC3    H1 8570   1.659   3.574   0.547 -1.2627  0.3605  1.0312
  574TMC3    H2 8571   1.468   3.533   0.158 -0.1610  0.8904  0.3837
  574TMC3    C7 8572   1.711   3.510   0.303  0.2437 -0.0093  0.0398
  574TMC3    C8 8573   1.273   3.691   0.209 -0.1327 -0.7592  0.2247
  574TMC3    O1 8574   1.796   3.494   0.389 -0.6257  0.5033 -0.5189
  574TMC3    O2 8575   1.223   3.616   0.123 -0.1512  0.2539 -0.5035
  575TMC3    C1 8576   3.936   4.557  11.613  0.0060  0.7349 -0.7698
  575TMC3    C2 8577   3.952   4.431  11.651  0.1931 -0.0722  1.0996
  575TMC3    C3 8578   3.918   4.337  11.558  0.5623 -0.1072  0.1977
  575TMC3    C4 8579   3.882   4.593  11.487  0.1388  0.0947 -1.1492
  575TMC3    C5 8580   3.855   4.497  11.396 -0.4159  0.8119 -0.0596
  575TMC3    C6 8581   3.885   4.374  11.429  0.2689 -0.2461  0.7860
  575TMC3     C 8582   3.975   4.663  11.705 -0.0677 -0.0744  0.2055
  575TMC3     O 8583   4.004   4.630  11.820  0.0409  0.2064 -0.1872
  575TMC3     H 8584   3.994   4.412  11.749  0.5478  1.2129  1.2022
  575TMC3    H1 8585   3.860   4.696  11.465  1.4956  0.7518  0.6047
  575TMC3    H2 8586   3.871   4.290  11.362 -1.3044  0.5927  0.0393
  575TMC3    C7 8587   3.809   4.524  11.258  0.1151  0.3953 -0.3242
  575TMC3    C8 8588   3.932   4.198  11.604 -0.7835  0.2874  0.2901
  575TMC3    O1 8589   3.852   4.626  11.207 -0.7288 -0.0081 -0.4398
  575TMC3    O2 8590   4.004   4.182  11.700  0.1655 -0.0767 -0.2605
  576MPD2     C 8591   4.115   0.879  12.542  0.0520 -0.6404 -0.1829
  576MPD2    C1 8592   4.090   1.006  12.494 -0.2724  0.0460  0.3529
  576MPD2    C2 8593   3.983   1.072  12.545  0.0276  0.3673  0.6700
  576MPD2    C3 8594   3.884   1.015  12.630 -0.0706  0.3271 -0.6694
  576MPD2    C4 8595   3.908   0.885  12.672  0.5878 -0.3260 -0.4540
  576MPD2    C5 8596   4.019   0.820  12.625  0.2236 -0.0232 -0.1830
  576MPD2     H 8597   3.954   1.167  12.503 -0.8384  0.0775  0.6215
  576MPD2    H1 8598   3.841   0.840  12.745 -0.5896 -1.3208 -2.1738
  576MPD2    H2 8599   4.204   0.825  12.511  0.5673 -0.5622  1.1586
  576MPD2    H3 8600   4.038   0.718  12.657  1.9930  0.0175 -1.0745
  576MPD2     N 8601   3.785   1.105  12.677 -0.1355  0.4439  0.4760
  576MPD2    H5 8602   3.797   1.204  12.659 -2.4729  0.8248  1.0669
  576MPD2    N1 8603   4.169   1.068  12.395 -0.0117  0.1599 -0.5040
  576MPD2    H7 8604   4.145   1.162  12.366 -0.4671  0.6035  1.3554
  577TMC3    C1 8605   4.354   1.109  12.250 -0.9033  0.2316 -0.5398
  577TMC3    C2 8606   4.417   1.054  12.151  0.1833  0.4083  0.5780
  577TMC3    C3 8607   4.486   1.129  12.059  0.0618 -0.0002  0.4528
  577TMC3    C4 8608   4.358   1.247  12.266  0.4455 -0.5532 -0.4895
  577TMC3    C5 8609   4.429   1.322  12.171  0.2978  0.1706  0.2189
  577TMC3    C6 8610   4.490   1.265  12.061 -0.4160 -0.6912  0.0523
  577TMC3     C 8611   4.283   1.017  12.341 -0.3134  0.3580 -0.0943
  577TMC3     O 8612   4.325   0.904  12.333 -0.1905 -0.1885  0.0492
  577TMC3     H 8613   4.414   0.948  12.133  1.6433  0.8564 -2.1946
  577TMC3    H1 8614   4.306   1.297  12.347  2.2891 -1.8321  1.4903
  577TMC3    H2 8615   4.544   1.326  11.989 -0.9033 -0.9045 -0.4986
  577TMC3    C7 8616   4.412   1.462  12.169  0.0626 -0.2497 -0.5789
  577TMC3    C8 8617   4.511   1.061  11.933 -0.3703  0.4343  0.1328
  577TMC3    O1 8618   4.408   1.516  12.278  0.5772 -0.1953  0.3799
  577TMC3    O2 8619   4.442   0.961  11.902 -0.2728  0.3644 -0.3926
  578MPD2     C 8620   2.217   1.826   1.185 -0.0961  0.8490  0.3737
  578MPD2    C1 8621   2.299   1.797   1.071 -0.4631 -0.1185  0.0086
  578MPD2    C2 8622   2.417   1.721   1.077 -0.1110 -0.2157  0.0571
  578MPD2    C3 8623   2.458   1.668   1.202  0.1828 -0.6095 -0.3064
  578MPD2    C4 8624   2.380   1.704   1.314 -0.2538  0.5911  0.3906
  578MPD2    C5 8625   2.262   1.775   1.308 -0.0068 -0.3837 -0.0094
  578MPD2     H 8626   2.479   1.705   0.990  1.1057  1.2694  0.6397
  578MPD2    H1 8627   2.406   1.660   1.410 -0.7017 -0.5184  0.0001
  578MPD2    H2 8628   2.137   1.898   1.179 -0.2396  0.6933  0.4306
  578MPD2    H3 8629   2.209   1.791   1.401  1.0265  1.2462  0.3031
  578MPD2     N 8630   2.576   1.588   1.216  0.2633  1.6201  0.0814
  578MPD2    H5 8631   2.599   1.550   1.125  1.0424  0.1432  0.8857
  578MPD2    N1 8632   2.256   1.861   0.948  0.2406 -0.1436  0.1810
  578MPD2    H7 8633   2.175   1.922   0.951  0.2468 -0.1767  1.1962
  579TMC3    C1 8634   2.730   1.450   1.303 -0.3097  0.0715 -0.1512
  579TMC3    C2 8635   2.850   1.453   1.372  0.9849  0.3135 -0.3031
  579TMC3    C3 8636   2.965   1.394   1.316 -0.2427  0.7575  0.1221
  579TMC3    C4 8637   2.716   1.384   1.178 -0.0795  0.3454 -0.0611
  579TMC3    C5 8638   2.827   1.320   1.135 -0.3710  0.4109  0.0479
  579TMC3    C6 8639   2.954   1.331   1.199  0.0261 -0.6133  0.5693
  579TMC3     C 8640   2.634   1.547   1.333  0.2182 -0.1246 -0.2734
  579TMC3     O 8641   2.621   1.572   1.450  0.2655 -0.3911 -0.7921
  579TMC3     H 8642   2.854   1.498   1.471  2.2211 -0.3919 -0.0303
  579TMC3    H1 8643   2.621   1.370   1.128  0.3930 -0.1823 -0.8073
  579TMC3    H2 8644   3.041   1.280   1.157  0.7081 -0.7397  2.1255
  579TMC3    C7 8645   2.810   1.222   1.024 -0.4686 -0.1104 -1.0203
  579TMC3    C8 8646   3.090   1.413   1.392  0.1104  0.0167 -0.5616
  579TMC3    O1 8647   2.917   1.186   0.973 -0.4660  0.0685 -0.3732
  579TMC3    O2 8648   3.069   1.426   1.510 -0.7237  1.0390  0.0658
  580TMC3    C1 8649   1.879   0.233  12.520 -0.5930 -0.4363  0.2198
  580TMC3    C2 8650   1.985   0.313  12.481  0.8480 -0.3892 -0.3376
  580TMC3    C3 8651   2.090   0.244  12.434  0.0968 -0.6518  0.0932
  580TMC3    C4 8652   1.888   0.098  12.527 -0.6238 -0.0791 -0.5774
  580TMC3    C5 8653   2.002   0.036  12.493  0.9062 -0.0094  0.0935
  580TMC3    C6 8654   2.113   0.107  12.447 -0.2019  0.1479 -0.8592
  580TMC3     C 8655   1.737   0.283  12.521 -0.6813  0.0026 -0.0285
  580TMC3     O 8656   1.647   0.211  12.560 -1.2457  0.1108 -0.2924
  580TMC3     H 8657   1.985   0.420  12.466  1.8424 -0.2662  0.5243
  580TMC3    H1 8658   1.805   0.044  12.571 -0.4044  1.9271  2.3566
  580TMC3    H2 8659   2.210   0.063  12.424  0.9991  2.6222 -0.4548
  580TMC3    C7 8660   1.996   4.629  12.488  0.1432  0.0907 -0.4504
  580TMC3    C8 8661   2.196   0.323  12.379  0.0551  0.4391  1.0935
  580TMC3    O1 8662   1.885   4.584  12.511  0.0134  0.2237 -0.0431
  580TMC3    O2 8663   2.220   0.432  12.436  0.7001  0.5898 -0.2068
  581MPD2     C 8664   4.374   0.118  15.246  0.3190 -0.0840  0.0950
  581MPD2    C1 8665   4.363   0.023  15.152  0.6195 -1.0387 -0.1486
  581MPD2    C2 8666   4.265   0.041  15.057  0.3311 -0.1058  0.7559
  581MPD2    C3 8667   4.173   0.146  15.068 -0.4366  0.1639  0.7693
  581MPD2    C4 8668   4.186   0.240  15.168  0.3339  0.1129 -0.1584
  581MPD2    C5 8669   4.289   0.222  15.250  0.5969  0.4735  0.1449
  581MPD2     H 8670   4.250   4.702  14.979 -3.2285  0.8344  0.5339
  581MPD2    H1 8671   4.122   0.327  15.176 -0.0087 -0.0622 -0.9423
  581MPD2    H2 8672   4.453   0.112  15.319 -1.1810 -3.1425  1.4326
  581MPD2    H3 8673   4.310   0.299  15.323  3.0923  0.4816 -0.5975
  581MPD2     N 8674   4.072   0.169  14.971 -0.0811 -0.5746 -0.2552
  581MPD2    H5 8675   4.019   0.253  14.993  0.5262 -0.1480 -0.4320
  581MPD2    N1 8676   4.453   4.651  15.164 -0.4204 -0.3475 -0.2956
  581MPD2    H7 8677   4.513   4.649  15.245 -0.8600  1.4107  0.0658
  582TMC3    C1 8678   4.558   4.440  15.108 -0.3181 -0.6335  0.1665
  582TMC3    C2 8679   4.666   4.460  15.186 -0.8477  0.6281  0.0671
  582TMC3    C3 8680   0.001   4.358  15.240  0.0095  0.2937  0.3979
  582TMC3    C4 8681   4.536   4.311  15.068 -0.5445  0.7411  0.2047
  582TMC3    C5 8682   4.604   4.211  15.133  0.1708  0.6738  0.3148
  582TMC3    C6 8683   4.701   4.233  15.223  0.1404 -0.1633  0.0873
  582TMC3     C 8684   4.451   4.535  15.081 -0.3319 -0.0954 -0.4175
  582TMC3     O 8685   4.365   4.495  15.003 -0.2652 -0.1292 -0.1012
  582TMC3     H 8686   4.700   4.561  15.208 -0.1466  0.3159  0.4484
  582TMC3    H1 8687   4.441   4.289  15.019 -0.3855 -0.3721  0.4045
  582TMC3    H2 8688   0.020   4.154  15.273 -0.2493 -0.6991 -0.3307
  582TMC3    C7 8689   4.509   4.111  15.195 -0.2459  0.0755  0.2674
  582TMC3    C8 8690   0.044   4.390  15.374  0.7637 -0.0823 -0.1185
  582TMC3    O1 8691   4.425   4.062  15.121  0.3521 -0.1615  0.2750
  582TMC3    O2 8692   4.692   4.410  15.457 -0.5724 -0.6262 -0.2756
  583MPD2     C 8693   4.550   1.695  16.971 -0.2679 -0.3282  1.0581
  583MPD2    C1 8694   4.534   1.778  16.862  0.1051 -0.2829 -0.3922
  583MPD2    C2 8695   4.470   1.899  16.883  0.0684  0.1610  0.4793
  583MPD2    C3 8696   4.415   1.941  17.006 -0.2496  0.2383  0.3350
  583MPD2    C4 8697   4.425   1.850  17.110 -0.4545 -0.3343 -0.3491
  583MPD2    C5 8698   4.495   1.734  17.097 -0.0550  0.3470 -0.0136
  583MPD2     H 8699   4.469   1.969  16.801  0.7532  0.7650  0.9898
  583MPD2    H1 8700   4.388   1.875  17.209 -1.3090  0.5281 -0.8867
  583MPD2    H2 8701   4.618   1.610  16.976  0.5590  0.3740  2.0620
  583MPD2    H3 8702   4.494   1.670  17.185 -0.1232 -1.8305 -1.5898
  583MPD2     N 8703   4.355   2.065  17.038  0.5300  0.5588  0.4267
  583MPD2    H5 8704   4.320   2.078  17.133  0.0870 -0.3383  0.3833
  583MPD2    N1 8705   4.585   1.747  16.735 -0.5702 -0.3300 -0.1509
  583MPD2    H7 8706   4.594   1.818  16.663  0.4220 -1.0161 -0.6941
  584TMC3    C1 8707   4.293   2.294  17.031 -0.5306 -0.9524  0.9623
  584TMC3    C2 8708   4.356   2.412  16.987 -0.0180  0.0569  0.0270
  584TMC3    C3 8709   4.392   2.505  17.087  0.2755  0.4290 -0.0122
  584TMC3    C4 8710   4.263   2.279  17.159  0.7651 -0.3169  0.6654
  584TMC3    C5 8711   4.293   2.382  17.249 -0.5621  0.7368  0.0056
  584TMC3    C6 8712   4.356   2.500  17.217 -0.1705 -0.4261  0.3172
  584TMC3     C 8713   4.327   2.174  16.954  0.2809  0.4602 -0.1711
  584TMC3     O 8714   4.348   2.178  16.831  0.2483 -0.3740 -0.0368
  584TMC3     H 8715   4.378   2.432  16.883 -1.0933 -2.5748 -0.7036
  584TMC3    H1 8716   4.222   2.185  17.194  1.1666 -0.2067  1.4383
  584TMC3    H2 8717   4.391   2.567  17.294  0.6798  2.7116 -2.7621
  584TMC3    C7 8718   4.258   2.358  17.390 -0.6220 -0.3655 -0.4404
  584TMC3    C8 8719   4.512   2.575  17.050 -0.0083  0.0116  0.0471
  584TMC3    O1 8720   4.235   2.244  17.412 -0.0856 -0.5487  0.2207
  584TMC3    O2 8721   4.598   2.499  17.010 -0.1059 -0.0897 -0.5946
  585MPD2     C 8722   3.970   0.871   0.292 -0.8747 -0.1616 -0.3879
  585MPD2    C1 8723   3.983   0.860   0.156  0.5376 -0.2585  0.6440
  585MPD2    C2 8724   3.987   0.736   0.095  0.0857 -0.4939 -0.7304
  585MPD2    C3 8725   3.984   0.626   0.173  0.4624 -0.4813  0.4113
  585MPD2    C4 8726   3.985   0.637   0.310 -0.2370  0.2086 -0.1934
  585MPD2    C5 8727   3.981   0.759   0.370 -0.1433 -0.7547  0.0779
  585MPD2     H 8728   3.976   0.730  17.730 -2.4221 -0.7295 -0.4466
  585MPD2    H1 8729   3.982   0.555   0.381  0.7353  0.3125 -0.0261
  585MPD2    H2 8730   3.970   0.973   0.329 -3.0923  0.0413 -0.9482
  585MPD2    H3 8731   3.973   0.766   0.478 -1.5519 -2.1983  0.0589
  585MPD2     N 8732   3.959   0.491   0.126  0.0890  0.7707 -0.0901
  585MPD2    H5 8733   3.948   0.417   0.195 -0.8539  1.6565  0.7103
  585MPD2    N1 8734   3.980   0.982   0.085  0.6491 -0.1697 -0.4113
  585MPD2    H7 8735   3.979   1.068   0.138 -2.2064  1.0556 -2.4157
  586TMC3    C1 8736   3.883   0.319  17.723 -0.0345 -0.1667  0.5723
  586TMC3    C2 8737   3.964   0.220   0.043  0.5230 -0.1500 -0.8029
  586TMC3    C3 8738   3.969   0.092  17.732 -0.0762  0.7198  0.7147
  586TMC3    C4 8739   3.813   0.285  17.608  0.3137  0.1562 -0.2349
  586TMC3    C5 8740   3.811   0.153  17.570 -1.0062 -0.4961 -0.4922
  586TMC3    C6 8741   3.893   0.064  17.621  0.5090  0.3988  0.3705
  586TMC3     C 8742   3.926   0.459   0.000  0.3650  0.2093 -0.4535
  586TMC3     O 8743   3.925   0.527  17.641  0.3038 -0.0688 -0.7324
  586TMC3     H 8744   4.044   0.237   0.114  1.2444 -2.1011 -1.1458
  586TMC3    H1 8745   3.749   0.356  17.557  0.9824  2.2660  1.8662
  586TMC3    H2 8746   3.890   4.694  17.596 -0.2042  0.6404 -0.5610
  586TMC3    C7 8747   3.716   0.112  17.465 -0.2277  0.5995  0.7485
  586TMC3    C8 8748   4.065   4.732   0.045  0.1028 -0.4348  0.0870
  586TMC3    O1 8749   3.712   4.725  17.449  0.8452  0.0896 -0.1379
  586TMC3    O2 8750   4.105   0.011   0.160 -0.3777 -0.0832 -0.3836
  587TMC3    C1 8751   1.223   4.612  16.198  0.3322 -0.3778  0.5684
  587TMC3    C2 8752   1.255   4.700  16.294  0.8526  0.0551  0.2787
  587TMC3    C3 8753   1.364   4.667  16.369 -0.3054  0.5237 -0.1485
  587TMC3    C4 8754   1.272   4.495  16.176  0.2021 -1.5159  0.0007
  587TMC3    C5 8755   1.372   4.461  16.263 -0.0613 -0.2725 -0.0104
  587TMC3    C6 8756   1.420   4.550  16.353  0.1496  0.7547 -0.7359
  587TMC3     C 8757   1.095   4.625  16.143 -0.1427  0.4357  0.8031
  587TMC3     O 8758   1.081   4.711  16.053  1.3018  0.1108 -0.3419
  587TMC3     H 8759   1.205   0.061  16.299 -1.2376 -1.2137  3.6335
  587TMC3    H1 8760   1.236   4.429  16.098  1.2806 -3.4205  1.1275
  587TMC3    H2 8761   1.515   4.523  16.399 -1.1038  0.8546  1.9343
  587TMC3    C7 8762   1.445   4.338  16.252  0.3195 -0.8327 -0.4935
  587TMC3    C8 8763   1.418   0.007  16.484 -0.1199  0.1653  0.4709
  587TMC3    O1 8764   1.448   4.294  16.141 -0.4063 -0.4757  0.3702
  587TMC3    O2 8765   1.494   4.682  16.559  0.8877 -0.1862 -0.3320
  588TMC3    C1 8766   3.604   2.257   9.980  0.1389 -0.5531  0.0672
  588TMC3    C2 8767   3.539   2.140   9.990 -0.4534  0.1065  0.5804
  588TMC3    C3 8768   3.616   2.035  10.038 -0.1755  0.1749  0.6328
  588TMC3    C4 8769   3.731   2.283  10.018  0.3776  0.2870  0.4566
  588TMC3    C5 8770   3.803   2.178  10.068 -0.0130 -0.7600 -0.0171
  588TMC3    C6 8771   3.748   2.050  10.083  0.2961  0.3974  0.0519
  588TMC3     C 8772   3.528   2.376   9.953 -0.3499  0.1587 -0.8933
  588TMC3     O 8773   3.425   2.363   9.893 -0.4057 -0.1724 -0.3684
  588TMC3     H 8774   3.433   2.133   9.969 -0.1303 -1.5300 -0.5720
  588TMC3    H1 8775   3.776   2.378   9.990  0.9900  0.3466  1.6522
  588TMC3    H2 8776   3.805   1.968  10.123 -1.2610 -0.7807 -0.1597
  588TMC3    C7 8777   3.927   2.209  10.141 -0.1049  0.0331 -0.0789
  588TMC3    C8 8778   3.543   1.914  10.053  0.1176  0.7837 -0.3056
  588TMC3    O1 8779   3.980   2.117  10.202  0.4440 -0.8586  0.0006
  588TMC3    O2 8780   3.446   1.896   9.982 -0.1759 -0.1832 -0.5815
  589TMC3    C1 8781   2.675   3.905   1.265 -0.1978 -0.6657  0.3272
  589TMC3    C2 8782   2.789   3.913   1.348  0.5529 -0.5148 -0.2697
  589TMC3    C3 8783   2.885   3.816   1.336 -0.8530 -0.2690 -0.0359
  589TMC3    C4 8784   2.653   3.797   1.185 -0.3251  0.0609 -0.0431
  589TMC3    C5 8785   2.748   3.704   1.182 -0.2375  0.2768  0.5288
  589TMC3    C6 8786   2.869   3.709   1.252 -0.1914  0.1721 -0.9295
  589TMC3     C 8787   2.569   4.004   1.269  0.2604 -0.8244 -0.2456
  589TMC3     O 8788   2.497   4.013   1.172 -0.5036  0.5864  0.4075
  589TMC3     H 8789   2.808   4.000   1.409 -1.7960 -0.5795  0.5742
  589TMC3    H1 8790   2.556   3.783   1.138 -0.2566  2.0876 -0.7988
  589TMC3    H2 8791   2.951   3.638   1.245  0.0949  0.2910  1.2484
  589TMC3    C7 8792   2.705   3.580   1.131  0.8574 -0.3949  0.0398
  589TMC3    C8 8793   3.007   3.831   1.420  0.7695  0.6718  0.1026
  589TMC3    O1 8794   2.590   3.567   1.081  0.5643  0.1261  0.0954
  589TMC3    O2 8795   3.026   3.941   1.473 -0.2582  0.4601 -0.0722
  590MPD2     C 8796   2.044   2.397  16.656 -0.5900  0.7741 -0.2122
  590MPD2    C1 8797   2.034   2.529  16.648 -0.3983 -0.3243  0.5942
  590MPD2    C2 8798   2.141   2.599  16.590  0.0296 -0.3811  0.3421
  590MPD2    C3 8799   2.259   2.539  16.554  0.4063  0.3818 -0.1626
  590MPD2    C4 8800   2.262   2.402  16.565 -0.1941  0.3577  0.3394
  590MPD2    C5 8801   2.158   2.333  16.620  0.6001 -0.2071  0.2851
  590MPD2     H 8802   2.128   2.706  16.579  1.1566 -0.4106 -1.1693
  590MPD2    H1 8803   2.341   2.335  16.531 -0.6436  2.0546 -4.1487
  590MPD2    H2 8804   1.961   2.334  16.686 -1.4396  0.9540 -2.1806
  590MPD2    H3 8805   2.173   2.226  16.629  0.6304 -0.2094  0.2084
  590MPD2     N 8806   2.366   2.614  16.505  0.2968  0.1413 -0.4473
  590MPD2    H5 8807   2.342   2.712  16.488  0.6037  0.2470 -0.2728
  590MPD2    N1 8808   1.908   2.590  16.680 -0.0431  0.0899  0.5075
  590MPD2    H7 8809   1.828   2.530  16.696  1.4226 -2.1536 -0.4984
  591TMC3    C1 8810   2.579   2.678  16.426 -0.3678  0.9363  0.2014
  591TMC3    C2 8811   2.666   2.635  16.327  0.1721  0.4936  0.2389
  591TMC3    C3 8812   2.728   2.740  16.258 -0.1967  0.2797 -0.4864
  591TMC3    C4 8813   2.558   2.812  16.452 -0.0423  0.0915  1.0134
  591TMC3    C5 8814   2.629   2.910  16.385  0.0598  0.4691 -0.6825
  591TMC3    C6 8815   2.708   2.874  16.279 -0.1870  0.9878  0.0962
  591TMC3     C 8816   2.488   2.566  16.471 -0.2838 -0.0978 -0.1819
  591TMC3     O 8817   2.534   2.453  16.462  0.9101  0.5879  0.1879
  591TMC3     H 8818   2.684   2.528  16.317  1.4348  0.5982  1.4186
  591TMC3    H1 8819   2.492   2.846  16.531 -0.7620 -2.6418  1.5963
  591TMC3    H2 8820   2.763   2.940  16.213  3.0732 -1.5116  0.3192
  591TMC3    C7 8821   2.543   3.028  16.382  0.5275 -0.4010  0.1793
  591TMC3    C8 8822   2.837   2.693  16.171  0.6891  0.5552  0.5852
  591TMC3    O1 8823   2.430   3.023  16.427  0.5824 -0.1209  0.1033
  591TMC3    O2 8824   2.877   2.583  16.193  0.0111 -0.5850 -0.2857
  592MPD2     C 8825   2.535   4.115  11.631  0.1804  0.0744  0.1129
  592MPD2    C1 8826   2.465   4.146  11.748 -0.1490 -0.1819  0.6487
  592MPD2    C2 8827   2.412   4.043  11.820 -0.5829  0.8304 -0.6700
  592MPD2    C3 8828   2.416   3.912  11.782  0.2529 -0.4640  0.5095
  592MPD2    C4 8829   2.481   3.884  11.667  0.7847 -0.7153 -0.2485
  592MPD2    C5 8830   2.537   3.983  11.587 -0.7066 -0.2048 -0.9818
  592MPD2     H 8831   2.355   4.060  11.910 -1.2622  2.0573 -1.3475
  592MPD2    H1 8832   2.513   3.785  11.637 -0.9351 -1.4515  0.3662
  592MPD2    H2 8833   2.590   4.188  11.574 -1.5414  0.0779 -1.5554
  592MPD2    H3 8834   2.604   3.970  11.503  0.5422 -1.1267  0.1330
  592MPD2     N 8835   2.370   3.821  11.881 -0.2912 -0.7020 -0.0924
  592MPD2    H5 8836   2.332   3.865  11.963  0.2715 -0.7258  0.1841
  592MPD2    N1 8837   2.464   4.283  11.785  0.3727 -0.1352  0.5379
  592MPD2    H7 8838   2.488   4.355  11.717  1.0238 -1.1266 -0.2932
  593TMC3    C1 8839   2.416   4.463  11.932 -0.1069  0.4699 -0.2272
  593TMC3    C2 8840   2.413   4.514  12.062  0.0448 -0.0666  0.5364
  593TMC3    C3 8841   2.415   4.652  12.060  0.9225 -0.2966  0.4027
  593TMC3    C4 8842   2.406   4.538  11.814 -0.3975  0.1331  0.1241
  593TMC3    C5 8843   2.400   4.672  11.831 -0.1896  0.0458 -0.6262
  593TMC3    C6 8844   2.404   4.734  11.956  0.5855  0.4081 -0.6937
  593TMC3     C 8845   2.447   4.325  11.918  0.4265 -0.6363 -0.2445
  593TMC3     O 8846   2.469   4.256  12.019  0.3684  0.1606  0.0065
  593TMC3     H 8847   2.425   4.463  12.157  0.6932 -0.0338  0.4706
  593TMC3    H1 8848   2.393   4.496  11.715 -0.0117 -0.5550  0.3667
  593TMC3    H2 8849   2.413   0.106  11.957 -2.2615  0.6368  0.0979
  593TMC3    C7 8850   2.379   0.038  11.732  0.0920  0.1989 -0.2132
  593TMC3    C8 8851   2.446   4.709  12.183 -1.2850 -0.6293 -0.1818
  593TMC3    O1 8852   2.321   0.139  11.763  0.4925  0.3273 -0.3866
  593TMC3    O2 8853   2.387   4.664  12.285 -0.3757  0.0758  0.2628
  594MPD2     C 8854   1.457   3.141  14.471  0.1769  0.1263 -0.3889
  594MPD2    C1 8855   1.461   3.163  14.612  0.7362 -0.8736 -0.0005
  594MPD2    C2 8856   1.572   3.221  14.678 -0.2707 -1.3371 -0.4279
  594MPD2    C3 8857   1.681   3.252  14.603 -0.4248 -0.5646  0.4593
  594MPD2    C4 8858   1.679   3.227  14.468  0.9309  0.4163  0.1376
  594MPD2    C5 8859   1.573   3.167  14.408 -0.1602 -0.4141 -0.1894
  594MPD2     H 8860   1.576   3.231  14.786 -1.3555  0.0800 -0.5223
  594MPD2    H1 8861   1.758   3.256  14.399 -0.9439  0.6415 -1.9259
  594MPD2    H2 8862   1.379   3.079  14.428  0.5465 -0.7874  0.2567
  594MPD2    H3 8863   1.566   3.136  14.304 -3.1531  0.8396 -0.3695
  594MPD2     N 8864   1.795   3.312  14.663 -0.8151 -0.0774 -0.4668
  594MPD2    H5 8865   1.787   3.311  14.764 -3.5566  0.6256 -0.6723
  594MPD2    N1 8866   1.338   3.132  14.684 -0.1738 -0.8384 -0.2495
  594MPD2    H7 8867   1.254   3.123  14.627  0.9054  0.4234 -2.0272
  595TMC3    C1 8868   2.235   3.464  14.695 -0.3478 -0.7300  0.3963
  595TMC3    C2 8869   2.144   3.387  14.644 -0.1399  0.6555  0.2236
  595TMC3    C3 8870   2.021   3.380  14.698 -0.5588 -0.1663  0.1505
  595TMC3    C4 8871   2.205   3.523  14.812 -0.2424 -0.0838  0.0479
  595TMC3    C5 8872   2.093   3.507  14.877  0.6415 -0.8045  0.0879
  595TMC3    C6 8873   1.986   3.443  14.816  0.2692 -0.5858  0.2339
  595TMC3     C 8874   2.363   3.510  14.636  0.0121 -0.5955  0.7243
  595TMC3     O 8875   2.401   3.615  14.680  0.1388  0.1560  0.6621
  595TMC3     H 8876   2.153   3.324  14.556  0.0110  0.6884  0.2158
  595TMC3    H1 8877   2.281   3.581  14.863 -1.5973  0.3184  1.5993
  595TMC3    H2 8878   1.888   3.434  14.861  0.5274  0.1338  0.9490
  595TMC3    C7 8879   2.074   3.624  14.974  0.4398 -0.3366 -0.3602
  595TMC3    C8 8880   1.910   3.349  14.595  0.2281 -0.2900  0.8909
  595TMC3    O1 8881   2.163   3.663  15.045 -0.6963  0.0685  0.8049
  595TMC3    O2 8882   1.941   3.348  14.474  0.2909  0.3065 -0.2944
  596MPD2     C 8883   0.675   1.693  17.115 -0.4842  0.2257 -0.0463
  596MPD2    C1 8884   0.644   1.756  16.995 -0.1866  0.9206  0.7972
  596MPD2    C2 8885   0.669   1.686  16.878 -0.3513  1.0741 -0.1424
  596MPD2    C3 8886   0.721   1.564  16.873  0.4987 -0.1947  0.2753
  596MPD2    C4 8887   0.768   1.510  16.995 -0.1924  0.3079  0.3999
  596MPD2    C5 8888   0.743   1.578  17.113  0.3810  0.3686  0.1147
  596MPD2     H 8889   0.648   1.735  16.783 -1.4721 -1.0886 -1.0116
  596MPD2    H1 8890   0.818   1.414  17.005 -0.8284 -0.1071 -0.4272
  596MPD2    H2 8891   0.666   1.749  17.208 -0.0474 -1.8817  1.2625
  596MPD2    H3 8892   0.771   1.538  17.210  2.2328 -1.9483 -1.3744
  596MPD2     N 8893   0.759   1.497  16.750 -0.2384 -0.1961 -0.4037
  596MPD2    H5 8894   0.832   1.428  16.763 -0.3374  0.4178  3.3274
  596MPD2    N1 8895   0.584   1.878  16.999 -0.0578  0.9996 -0.0670
  596MPD2    H7 8896   0.566   1.918  16.907 -0.8957 -0.0276 -0.3529
  597TMC3    C1 8897   0.488   2.075  17.073  0.0035 -1.0799  0.2227
  597TMC3    C2 8898   0.561   2.148  16.978  0.2803  0.1195 -0.4498
  597TMC3    C3 8899   0.525   2.278  16.945 -0.4543 -0.3197  0.3987
  597TMC3    C4 8900   0.395   2.139  17.142 -0.1187 -0.0820 -0.3148
  597TMC3    C5 8901   0.369   2.269  17.111 -0.6132  0.2735  0.1367
  597TMC3    C6 8902   0.423   2.337  17.003  1.0322 -0.1190  0.8579
  597TMC3     C 8903   0.531   1.941  17.113 -0.5701 -0.1591 -0.0599
  597TMC3     O 8904   0.517   1.916  17.232 -0.1513  0.9680 -0.0716
  597TMC3     H 8905   0.659   2.110  16.952 -0.0651 -0.5879 -0.7113
  597TMC3    H1 8906   0.341   2.094  17.224 -0.0085 -1.3566 -0.9462
  597TMC3    H2 8907   0.393   2.436  16.970 -0.8202 -0.6054  1.0686
  597TMC3    C7 8908   0.246   2.315  17.180 -0.1876 -0.0785  0.1024
  597TMC3    C8 8909   0.600   2.350  16.839 -0.2471  0.4394  0.6406
  597TMC3    O1 8910   0.153   2.239  17.205  0.1565 -0.1192 -0.8536
  597TMC3    O2 8911   0.590   2.475  16.837  0.3537 -0.0880  0.2706
  598TMC3    C1 8912   3.487   3.084  15.360  0.3252  1.0389  0.1351
  598TMC3    C2 8913   3.396   2.989  15.314  0.2169 -0.1656  0.1655
  598TMC3    C3 8914   3.349   3.001  15.187  0.8257 -0.7880  0.2585
  598TMC3    C4 8915   3.527   3.187  15.278  0.7252  0.0028 -0.1089
  598TMC3    C5 8916   3.462   3.207  15.160 -0.0208 -0.3996  0.1168
  598TMC3    C6 8917   3.375   3.111  15.110 -0.5165 -0.0603 -0.0555
  598TMC3     C 8918   3.588   3.048  15.467  0.0843 -0.2090 -0.0471
  598TMC3     O 8919   3.666   3.136  15.495  0.5967 -0.5044 -0.4968
  598TMC3     H 8920   3.363   2.908  15.378  0.4483 -0.6727 -0.3506
  598TMC3    H1 8921   3.615   3.248  15.295  0.6239  0.6806 -1.9969
  598TMC3    H2 8922   3.329   3.118  15.011 -1.9960  0.8192  0.6979
  598TMC3    C7 8923   3.494   3.333  15.085  0.3266 -0.4624  0.4960
  598TMC3    C8 8924   3.224   2.931  15.150 -0.6484  0.0804 -0.0461
  598TMC3    O1 8925   3.528   3.428  15.153  0.3191  0.1760 -0.0467
  598TMC3    O2 8926   3.168   2.958  15.046  0.0372 -0.2814  0.5206
  599MPD2     C 8927   3.844   0.852  16.128 -0.4099 -0.3151 -0.0972
  599MPD2    C1 8928   3.783   0.728  16.116  0.3246  0.0910 -0.5246
  599MPD2    C2 8929   3.651   0.717  16.146  0.3876  0.5379  0.3405
  599MPD2    C3 8930   3.578   0.828  16.196  0.1138 -0.2570 -0.3542
  599MPD2    C4 8931   3.644   0.949  16.197  0.8165 -0.5670  0.4197
  599MPD2    C5 8932   3.776   0.968  16.159 -0.3161  0.2928 -0.2497
  599MPD2     H 8933   3.596   0.624  16.142  1.0576  0.1686 -0.1880
  599MPD2    H1 8934   3.604   1.043  16.234  0.8581 -0.9676  1.4791
  599MPD2    H2 8935   3.950   0.861  16.105 -0.5547  0.5590 -0.4257
  599MPD2    H3 8936   3.830   1.061  16.170  0.2710  0.0342 -0.9412
  599MPD2     N 8937   3.449   0.824  16.253  0.2813 -0.3968  0.4817
  599MPD2    H5 8938   3.418   0.905  16.306  2.1424  0.9652 -0.4789
  599MPD2    N1 8939   3.865   0.623  16.065 -0.0890  0.6225 -0.9490
  599MPD2    H7 8940   3.964   0.643  16.066  0.4600 -1.9605 -2.6618
  600TMC3    C1 8941   3.263   0.731  16.350 -0.2239 -0.5539  0.7140
  600TMC3    C2 8942   3.217   0.615  16.413  0.4462  0.7599  0.5333
  600TMC3    C3 8943   3.139   0.623  16.523 -0.0164 -0.0669  0.7046
  600TMC3    C4 8944   3.220   0.858  16.387 -0.7849 -0.1640  0.1909
  600TMC3    C5 8945   3.141   0.855  16.501 -0.3089  0.4928 -0.0593
  600TMC3    C6 8946   3.090   0.743  16.562 -0.6816  0.1064 -0.9658
  600TMC3     C 8947   3.371   0.716  16.252 -0.6752  0.4353 -1.1733
  600TMC3     O 8948   3.394   0.598  16.213 -0.0822  0.3576  0.0822
  600TMC3     H 8949   3.257   0.519  16.381 -2.6628 -1.7970  4.2316
  600TMC3    H1 8950   3.242   0.946  16.328  1.7556 -1.0764 -0.2115
  600TMC3    H2 8951   3.035   0.750  16.655 -0.3120  0.7431 -0.7966
  600TMC3    C7 8952   3.095   0.983  16.551  0.0415  0.2948 -0.4108
  600TMC3    C8 8953   3.075   0.498  16.553  0.2465 -0.5495  0.2248
  600TMC3    O1 8954   3.011   0.982  16.640 -0.6277 -0.0281  0.2728
  600TMC3    O2 8955   3.062   0.468  16.673  0.6931  0.0903  0.1783
  601MPD2     C 8956   0.548   4.364   0.504 -0.1191  0.2010  0.3873
  601MPD2    C1 8957   0.465   4.323   0.403 -0.0899  0.0647 -0.0829
  601MPD2    C2 8958   0.391   4.204   0.399 -0.5685 -0.4471 -0.4472
  601MPD2    C3 8959   0.402   4.114   0.505 -0.5519 -0.5492 -0.0127
  601MPD2    C4 8960   0.474   4.158   0.606  0.6648 -0.0002 -0.3705
  601MPD2    C5 8961   0.542   4.282   0.609  0.7562 -0.3975  0.4738
  601MPD2     H 8962   0.328   4.168   0.319  0.5981  1.4451 -2.2338
  601MPD2    H1 8963   0.488   4.092   0.690 -0.1076  1.1180  0.6270
  601MPD2    H2 8964   0.601   4.458   0.514  1.1809 -0.4286 -0.5632
  601MPD2    H3 8965   0.594   4.318   0.697  0.9775 -2.1064  1.0396
  601MPD2     N 8966   0.346   3.980   0.506  0.5617 -0.1135  0.6888
  601MPD2    H5 8967   0.343   3.926   0.592 -1.2245  1.7211  1.7933
  601MPD2    N1 8968   0.444   4.396   0.288  0.2244 -0.0997  0.4531
  601MPD2    H7 8969   0.378   4.351   0.226 -0.3868 -1.4514  2.0922
  602TMC3    C1 8970   0.474   4.535   0.102 -0.2559 -0.3712  0.0704
  602TMC3    C2 8971   0.503   4.658   0.051  0.5862  0.1145  0.4163
  602TMC3    C3 8972   0.459   4.693  17.666  0.2354  0.3989  0.2043
  602TMC3    C4 8973   0.413   4.440   0.022  0.0707  0.3401 -0.6265
  602TMC3    C5 8974   0.363   4.481  17.645 -0.1551  0.0692 -0.2256
  602TMC3    C6 8975   0.388   4.603  17.589 -0.4535  0.1643 -0.0966
  602TMC3     C 8976   0.506   4.507   0.243 -0.0571 -0.0201 -0.5929
  602TMC3     O 8977   0.581   4.581   0.303 -0.6073 -0.1650 -0.4032
  602TMC3     H 8978   0.558   4.725   0.116  0.7253  0.0456  0.3711
  602TMC3    H1 8979   0.392   4.339   0.054 -0.3027  0.8597  0.7813
  602TMC3    H2 8980   0.349   4.633  17.492  0.2140 -2.3834 -1.1375
  602TMC3    C7 8981   0.308   4.386  17.560  0.3170  0.9220  0.5538
  602TMC3    C8 8982   0.410   0.101  17.654  0.1511 -0.0808 -0.8589
  602TMC3    O1 8983   0.346   4.275  17.578 -0.4187  0.4392  0.2702
  602TMC3    O2 8984   0.400   0.168   0.017  0.2555 -0.1018 -0.1957
  603TMC3    C1 8985   3.170   4.464  11.311 -0.1063 -0.1872 -0.3461
  603TMC3    C2 8986   3.239   4.395  11.405  0.2846 -0.1286 -0.3067
  603TMC3    C3 8987   3.363   4.441  11.446  0.5056  0.6336  0.3017
  603TMC3    C4 8988   3.215   4.577  11.251 -0.4301 -0.5630 -0.0419
  603TMC3    C5 8989   3.337   4.620  11.296 -0.2438  0.4400 -0.7365
  603TMC3    C6 8990   3.408   4.567  11.402 -0.1246  0.0774  0.1765
  603TMC3     C 8991   3.030   4.427  11.307  0.0532  0.1390  0.4815
  603TMC3     O 8992   2.985   4.396  11.415  0.3294  0.3542  0.2960
  603TMC3     H 8993   3.202   4.300  11.442  1.4426  0.1917  1.6546
  603TMC3    H1 8994   3.158   4.621  11.170 -0.0729 -0.5020 -0.2591
  603TMC3    H2 8995   3.515   4.584  11.402  0.2735 -2.3918  0.6204
  603TMC3    C7 8996   3.417   4.715  11.217  0.4609  0.3273  0.8192
  603TMC3    C8 8997   3.429   4.389  11.560  0.1220 -0.3338 -0.4180
  603TMC3    O1 8998   3.516   0.024  11.266 -0.0244  0.4190 -0.1854
  603TMC3    O2 8999   3.396   4.275  11.584 -0.2072  0.1477 -0.2745
  604MPD2     C 9000   4.288   2.329  16.132 -0.1324 -0.1490  0.1768
  604MPD2    C1 9001   4.271   2.450  16.068 -0.0961  0.7334 -0.6769
  604MPD2    C2 9002   4.325   2.466  15.943 -0.8605 -0.2108  0.2479
  604MPD2    C3 9003   4.422   2.388  15.889 -0.1036  0.5125 -0.7020
  604MPD2    C4 9004   4.455   2.275  15.958  0.0978 -0.6228 -0.1586
  604MPD2    C5 9005   4.386   2.244  16.076  0.0151  0.4330  0.2823
  604MPD2     H 9006   4.304   2.555  15.885  2.7071  1.1367  0.9936
  604MPD2    H1 9007   4.513   2.195  15.912 -2.1695 -1.5985 -1.2933
  604MPD2    H2 9008   4.241   2.318  16.229  1.5364  3.0751  1.3762
  604MPD2    H3 9009   4.399   2.144  16.116  0.3322 -0.2057 -1.4314
  604MPD2     N 9010   4.474   2.415  15.761 -0.2496  0.3690  0.0747
  604MPD2    H5 9011   4.433   2.487  15.703 -1.4372 -1.8042 -1.7903
  604MPD2    N1 9012   4.195   2.544  16.139  1.0700 -0.4935  0.3767
  604MPD2    H7 9013   4.166   2.521  16.233  2.3395 -0.9878  0.6375
  605TMC3    C1 9014   4.086   2.726  16.198 -0.3960  0.1395 -0.0849
  605TMC3    C2 9015   4.170   2.725  16.309 -0.0471  0.0757  0.4975
  605TMC3    C3 9016   4.132   2.804  16.418  0.6407 -0.0727  0.0412
  605TMC3    C4 9017   3.975   2.808  16.193  0.2987 -0.5205  0.2049
  605TMC3    C5 9018   3.939   2.886  16.306  0.1377  0.7796  0.4666
  605TMC3    C6 9019   4.020   2.886  16.420 -0.3005  0.4467 -0.4086
  605TMC3     C 9020   4.137   2.645  16.082  0.1171  0.3715 -0.7860
  605TMC3     O 9021   4.136   2.698  15.971 -0.4529  0.1894  0.2500
  605TMC3     H 9022   4.272   2.690  16.317 -0.5116 -1.8088 -2.1209
  605TMC3    H1 9023   3.924   2.805  16.097 -0.7343 -0.0226  0.7399
  605TMC3    H2 9024   3.989   2.954  16.498  0.9809  2.0598 -1.2896
  605TMC3    C7 9025   3.821   2.974  16.310  0.2536  0.0764  0.4656
  605TMC3    C8 9026   4.232   2.861  16.515  0.1551  0.2641 -0.0813
  605TMC3    O1 9027   3.811   3.061  16.395  0.5442  0.2435  0.2313
  605TMC3    O2 9028   4.194   2.902  16.625 -0.2105  0.3004 -0.4016
  606TMC3    C1 9029   0.747   2.397   0.740  0.0975 -0.7970  0.5565
  606TMC3    C2 9030   0.835   2.326   0.815  0.6092 -0.5723 -0.7544
  606TMC3    C3 9031   0.827   2.191   0.796 -0.0357  0.2015  0.0093
  606TMC3    C4 9032   0.685   2.345   0.635  0.3546  0.6857 -0.0586
  606TMC3    C5 9033   0.673   2.216   0.619 -0.8545 -0.2616  0.2526
  606TMC3    C6 9034   0.749   2.128   0.699 -0.5462 -0.3563 -0.5195
  606TMC3     C 9035   0.750   2.539   0.757  0.2749 -0.3535 -0.8795
  606TMC3     O 9036   0.862   2.584   0.783  0.0156 -0.3360 -0.0262
  606TMC3     H 9037   0.899   2.369   0.892  1.2848 -0.7771 -1.1986
  606TMC3    H1 9038   0.620   2.399   0.567 -1.9107 -1.5087  0.3771
  606TMC3    H2 9039   0.771   2.024   0.679  0.6112 -0.3677  0.7740
  606TMC3    C7 9040   0.654   2.170   0.488 -0.0096  1.0411  0.0088
  606TMC3    C8 9041   0.945   2.120   0.829  0.0530  0.6522  0.0099
  606TMC3    O1 9042   0.700   2.229   0.395 -0.9492  0.5650 -0.1596
  606TMC3    O2 9043   0.938   2.000   0.827  0.3527  0.1814 -0.4224
  607MPD2     C 9044   2.920   3.916  11.789 -0.2146 -0.1586  0.0498
  607MPD2    C1 9045   2.910   3.977  11.908 -0.7928  0.1484  0.1332
  607MPD2    C2 9046   2.843   3.921  12.009 -0.3999  0.1362 -0.2151
  607MPD2    C3 9047   2.794   3.793  11.998  0.4094  0.1486  0.4656
  607MPD2    C4 9048   2.799   3.728  11.876 -0.1718  0.5365 -0.4112
  607MPD2    C5 9049   2.863   3.788  11.771 -0.4248 -0.1776  0.3255
  607MPD2     H 9050   2.845   3.980  12.100 -0.1200  0.0281 -0.1518
  607MPD2    H1 9051   2.757   3.634  11.843  0.7948 -0.1148  0.2031
  607MPD2    H2 9052   2.967   3.953  11.698  0.4320 -2.2520 -0.4617
  607MPD2    H3 9053   2.862   3.748  11.670  2.5094  2.1161 -0.6183
  607MPD2     N 9054   2.734   3.747  12.117  0.1191  0.0724  0.2418
  607MPD2    H5 9055   2.733   3.807  12.198 -2.1040  0.2434  0.0933
  607MPD2    N1 9056   2.958   4.108  11.938  0.2994 -0.9893 -0.3965
  607MPD2    H7 9057   2.934   4.156  12.025  0.4750  0.5505 -1.2070
  608TMC3    C1 9058   3.062   4.325  11.911 -0.3669  0.0190  0.1056
  608TMC3    C2 9059   3.018   4.347  12.036 -0.4998 -0.0558  0.2539
  608TMC3    C3 9060   3.083   4.445  12.110  0.5068 -0.1998  0.2407
  608TMC3    C4 9061   3.155   4.408  11.850 -0.8278 -0.5727  0.5344
  608TMC3    C5 9062   3.221   4.500  11.932 -0.7105 -0.6485 -0.3240
  608TMC3    C6 9063   3.190   4.510  12.065 -0.1455 -0.1112  0.3592
  608TMC3     C 9064   3.034   4.197  11.857 -0.9555  0.2690  0.0076
  608TMC3     O 9065   3.084   4.170  11.746 -0.4126  0.2755 -0.1042
  608TMC3     H 9066   2.923   4.309  12.074  0.6199 -5.1303 -2.0644
  608TMC3    H1 9067   3.191   4.396  11.749 -0.5445  0.6020  0.5060
  608TMC3    H2 9068   3.251   4.578  12.124 -0.3039  2.2297 -2.1288
  608TMC3    C7 9069   3.266   4.617  11.862  0.1322  0.2841 -0.3529
  608TMC3    C8 9070   3.083   4.427  12.260 -0.4080 -0.9582 -0.6868
  608TMC3    O1 9071   3.231   4.632  11.747  0.3860 -0.7582  0.5938
  608TMC3    O2 9072   3.129   4.515  12.328  0.3906 -0.2199 -0.5433
  609TMC3    C1 9073   2.484   3.044   8.990  0.0194  1.3497  0.1545
  609TMC3    C2 9074   2.490   3.175   8.963  0.5115  0.0615 -0.0914
  609TMC3    C3 9075   2.580   3.249   9.036 -0.3753 -0.0724 -0.6952
  609TMC3    C4 9076   2.550   2.982   9.091 -0.1009  0.3060 -0.7296
  609TMC3    C5 9077   2.633   3.062   9.166  0.1997 -0.4341  0.3290
  609TMC3    C6 9078   2.650   3.192   9.138 -0.7816 -0.3039 -0.2846
  609TMC3     C 9079   2.394   2.954   8.917  0.2518 -0.1036 -0.5906
  609TMC3     O 9080   2.419   2.835   8.916 -0.1344  0.5538  0.2016
  609TMC3     H 9081   2.434   3.227   8.886  2.3484  1.2253 -0.6308
  609TMC3    H1 9082   2.524   2.877   9.104  1.8521 -0.0339  0.3883
  609TMC3    H2 9083   2.733   3.244   9.183  0.4575  0.0255 -2.9387
  609TMC3    C7 9084   2.714   3.012   9.275 -0.2170  0.6017  0.7704
  609TMC3    C8 9085   2.594   3.390   8.998  0.7518 -0.2636  0.4209
  609TMC3    O1 9086   2.767   3.091   9.349 -0.5184 -0.7280  0.1628
  609TMC3    O2 9087   2.539   3.440   8.900  0.0248 -0.1758 -0.4244
  610TMC3    C1 9088   3.151   3.986  12.891 -0.4332  0.3061  0.1784
  610TMC3    C2 9089   3.165   4.070  12.790 -0.2317 -0.2202  0.0026
  610TMC3    C3 9090   3.293   4.116  12.765 -0.1838 -0.2200  0.5229
  610TMC3    C4 9091   3.258   3.943  12.966 -0.0805 -1.1917  0.0744
  610TMC3    C5 9092   3.375   3.990  12.940  0.4674  0.4061  0.4235
  610TMC3    C6 9093   3.402   4.086  12.848  0.0118  0.0578 -0.5924
  610TMC3     C 9094   3.017   3.978  12.945  0.9205 -0.5071  0.1988
  610TMC3     O 9095   2.948   4.078  12.939 -0.1988  0.6391 -0.3569
  610TMC3     H 9096   3.076   4.099  12.735 -0.9545  0.5035  1.5391
  610TMC3    H1 9097   3.252   3.869  13.045  2.1251 -1.8898 -0.4415
  610TMC3    H2 9098   3.505   4.105  12.821  0.3407 -1.5179 -0.4282
  610TMC3    C7 9099   3.488   3.941  13.012 -0.3399  0.3987  0.3474
  610TMC3    C8 9100   3.322   4.138  12.629  0.4638 -0.2757  0.3156
  610TMC3    O1 9101   3.492   3.821  13.016 -0.5697 -0.2695  0.2004
  610TMC3    O2 9102   3.422   4.200  12.603  0.0406  0.1516  0.3728
  611MPD2     C 9103   2.756   4.442  10.097 -0.1435 -0.2137  0.3137
  611MPD2    C1 9104   2.735   4.479  10.228  0.1414 -0.7006 -0.1147
  611MPD2    C2 9105   2.805   4.586  10.283 -0.3321 -0.5686  0.4383
  611MPD2    C3 9106   2.879   4.664  10.194  0.1365  0.1648  0.3310
  611MPD2    C4 9107   2.893   4.630  10.064  0.4069 -0.6190 -0.0426
  611MPD2    C5 9108   2.837   4.516  10.012  0.7460  0.8645  0.1171
  611MPD2     H 9109   2.793   4.621  10.385  0.6048  1.5685 -0.1727
  611MPD2    H1 9110   2.935   4.705   9.999 -1.1634 -0.6637 -1.1312
  611MPD2    H2 9111   2.717   4.347  10.062  1.4605 -1.0539  0.7987
  611MPD2    H3 9112   2.857   4.493   9.908 -1.4157 -2.6105  0.4519
  611MPD2     N 9113   2.961   0.044  10.230  0.1730 -0.2911  0.1099
  611MPD2    H5 9114   2.990   0.101  10.152  1.2650 -0.9296  0.0553
  611MPD2    N1 9115   2.640   4.408  10.301 -0.3023  0.9055 -0.3383
  611MPD2    H7 9116   2.599   4.325  10.258  0.5620 -0.2009  0.9499
  612TMC3    C1 9117   3.066   0.205  10.365  0.1072  0.1556 -0.6982
  612TMC3    C2 9118   3.129   0.233  10.482  0.1988 -0.7581  0.5525
  612TMC3    C3 9119   3.176   0.357  10.503 -0.9564  0.1302 -0.0196
  612TMC3    C4 9120   3.030   0.314  10.285 -0.4778 -0.4944  0.5124
  612TMC3    C5 9121   3.076   0.439  10.321  0.0440 -0.2115  0.2379
  612TMC3    C6 9122   3.154   0.463  10.426  0.1217  0.4296 -0.1987
  612TMC3     C 9123   3.002   0.073  10.358 -0.3321  0.6112  0.8091
  612TMC3     O 9124   3.008   4.732  10.453  0.1254  0.1793  0.4359
  612TMC3     H 9125   3.163   0.149  10.540  0.7326  0.1953  1.6255
  612TMC3    H1 9126   2.960   0.290  10.206 -0.1899  1.0105 -0.1981
  612TMC3    H2 9127   3.198   0.556  10.461  0.2113  0.0192  0.7888
  612TMC3    C7 9128   3.000   0.546  10.260 -0.0591  0.2415 -0.2654
  612TMC3    C8 9129   3.267   0.378  10.621  0.6203 -0.3931  0.2963
  612TMC3    O1 9130   2.916   0.515  10.177 -0.1823 -0.5925  0.0036
  612TMC3    O2 9131   3.350   0.463  10.599 -0.0910 -0.3443  0.3635
  613MPD2     C 9132   1.921   2.449  16.149  0.6755  0.0514  0.1098
  613MPD2    C1 9133   1.909   2.316  16.100 -1.0105 -0.2655 -0.8360
  613MPD2    C2 9134   1.862   2.228  16.191  0.1995  0.3380  0.5974
  613MPD2    C3 9135   1.810   2.259  16.320 -0.0387  0.5806  0.1375
  613MPD2    C4 9136   1.826   2.390  16.362  0.1863  0.4301  0.5246
  613MPD2    C5 9137   1.883   2.480  16.278  0.1588 -0.0860 -0.3665
  613MPD2     H 9138   1.838   2.128  16.156  2.5395 -0.8323  2.3117
  613MPD2    H1 9139   1.807   2.419  16.465  2.3531 -1.5722  1.4690
  613MPD2    H2 9140   1.955   2.534  16.091 -1.6497  0.7504 -0.1941
  613MPD2    H3 9141   1.904   2.579  16.315 -0.4358  0.3395 -1.1925
  613MPD2     N 9142   1.749   2.169  16.411 -0.1860  0.3492  0.5367
  613MPD2    H5 9143   1.712   2.204  16.499 -1.1541 -0.4071  0.4330
  613MPD2    N1 9144   1.945   2.268  15.972 -0.3717  0.1129 -0.1992
  613MPD2    H7 9145   1.942   2.168  15.959 -2.3053  0.2608 -0.8787
  614TMC3    C1 9146   2.001   2.249  15.752  0.4973  0.3456 -0.2128
  614TMC3    C2 9147   2.028   2.121  15.797  0.4342  0.2130 -0.3912
  614TMC3    C3 9148   1.949   2.018  15.746  0.1176 -0.9358 -0.1654
  614TMC3    C4 9149   1.894   2.261  15.666 -0.2544 -0.0656  0.2957
  614TMC3    C5 9150   1.830   2.159  15.604  0.0965 -0.4845  0.0119
  614TMC3    C6 9151   1.864   2.030  15.639  0.2859 -0.7649 -0.0143
  614TMC3     C 9152   1.992   2.341  15.864 -1.2773 -0.5006 -0.2116
  614TMC3     O 9153   1.998   2.462  15.847  0.0279  0.1867 -0.6394
  614TMC3     H 9154   2.099   2.108  15.877 -0.4494  1.4285  0.5875
  614TMC3    H1 9155   1.863   2.363  15.645 -0.5124  0.1272  1.6163
  614TMC3    H2 9156   1.810   1.941  15.610 -0.6437  0.1620 -1.1002
  614TMC3    C7 9157   1.711   2.197  15.526 -0.0567  0.4236 -0.4675
  614TMC3    C8 9158   1.918   1.922  15.852  0.2318 -0.0478  0.7485
  614TMC3    O1 9159   1.681   2.316  15.520  0.6895 -0.1190 -0.5858
  614TMC3    O2 9160   1.925   1.974  15.961 -0.5594  0.5372  0.3781
  615MPD2     C 9161   1.388   2.872  15.839  1.0753  0.0462 -0.1831
  615MPD2    C1 9162   1.389   3.005  15.827  0.4589  0.1802  0.2320
  615MPD2    C2 9163   1.293   3.066  15.753  0.7408 -0.6523 -0.3800
  615MPD2    C3 9164   1.208   2.987  15.669  0.0591 -1.0279  0.3342
  615MPD2    C4 9165   1.217   2.851  15.679 -0.2528  0.4216 -0.2123
  615MPD2    C5 9166   1.297   2.799  15.767 -0.1694  0.4591  0.1223
  615MPD2     H 9167   1.287   3.173  15.765  0.6967 -0.8765  1.6032
  615MPD2    H1 9168   1.153   2.788  15.618  2.5997 -0.3606 -2.4177
  615MPD2    H2 9169   1.445   2.813  15.910  0.5707  0.0466  0.2230
  615MPD2    H3 9170   1.281   2.696  15.796 -3.2181  1.0896  0.6172
  615MPD2     N 9171   1.120   3.054  15.580  0.2329 -0.1625 -0.7041
  615MPD2    H5 9172   1.137   3.154  15.572  0.6562 -0.1628  0.1363
  615MPD2    N1 9173   1.472   3.090  15.908 -0.0034  0.0072  0.3165
  615MPD2    H7 9174   1.470   3.190  15.891 -0.2531  0.2314  1.6056
  616TMC3    C1 9175   1.574   3.163  16.101 -0.2159  0.1151 -0.5224
  616TMC3    C2 9176   1.671   3.142  16.191 -0.1734  0.7360  0.2430
  616TMC3    C3 9177   1.682   3.225  16.299  0.4965 -0.1948  0.6781
  616TMC3    C4 9178   1.475   3.259  16.119 -0.3766  0.2119  0.1166
  616TMC3    C5 9179   1.489   3.334  16.230 -0.1673  1.0253 -0.1921
  616TMC3    C6 9180   1.593   3.325  16.318 -0.2025  0.6784 -0.1904
  616TMC3     C 9181   1.554   3.057  16.012 -0.6164 -0.2872 -0.3645
  616TMC3     O 9182   1.610   2.953  16.038  0.0812 -0.2518  0.0262
  616TMC3     H 9183   1.741   3.060  16.187  1.1772  1.9451 -0.6550
  616TMC3    H1 9184   1.390   3.260  16.051 -0.5995 -1.1325  0.3833
  616TMC3    H2 9185   1.594   3.378  16.413 -2.2329  0.6882 -0.1790
  616TMC3    C7 9186   1.376   3.420  16.263  0.3678 -0.6236 -0.3535
  616TMC3    C8 9187   1.773   3.198  16.406 -0.1023 -0.4481  0.2065
  616TMC3    O1 9188   1.269   3.373  16.223 -0.9361 -0.9110  0.7942
  616TMC3    O2 9189   1.778   3.079  16.440 -0.3561 -0.2519 -0.0011
  617MPD2     C 9190   4.001   1.695  14.116  0.2959 -0.4020 -0.1512
  617MPD2    C1 9191   4.033   1.572  14.173  0.4207 -0.4476  0.1997
  617MPD2    C2 9192   3.940   1.469  14.175  0.7874 -0.0846 -0.1873
  617MPD2    C3 9193   3.813   1.491  14.119  0.5027 -0.0372 -0.2707
  617MPD2    C4 9194   3.777   1.615  14.071 -0.1462 -0.7123  0.0647
  617MPD2    C5 9195   3.871   1.714  14.073  0.3464  0.1087  1.1820
  617MPD2     H 9196   3.966   1.378  14.228 -0.5561  0.0798  0.7453
  617MPD2    H1 9197   3.687   1.632  14.014  0.3384 -1.0820 -0.8112
  617MPD2    H2 9198   4.069   1.780  14.111 -0.8064  0.3934 -1.8331
  617MPD2    H3 9199   3.847   1.807  14.024  3.4543  0.8387  1.0385
  617MPD2     N 9200   3.716   1.386  14.111 -0.6284  0.4418 -1.0002
  617MPD2    H5 9201   3.641   1.406  14.045  0.6855 -0.8088 -2.8604
  617MPD2    N1 9202   4.162   1.543  14.223 -0.2218  0.4372  0.1475
  617MPD2    H7 9203   4.173   1.449  14.260 -3.1879  0.9357  2.3564
  618TMC3    C1 9204   4.400   1.565  14.229  0.5029 -0.4020 -0.2101
  618TMC3    C2 9205   4.413   1.449  14.300 -0.5067 -0.0738 -0.1614
  618TMC3    C3 9206   4.519   1.361  14.271  0.3847 -0.1336 -0.0467
  618TMC3    C4 9207   4.492   1.604  14.128 -0.2633  0.7168  0.4433
  618TMC3    C5 9208   4.591   1.511  14.099 -0.2707 -0.7674 -0.1858
  618TMC3    C6 9209   4.608   1.395  14.176  0.3354  0.7411 -0.6134
  618TMC3     C 9210   4.267   1.629  14.204  0.1402 -0.3746 -0.2902
  618TMC3     O 9211   4.275   1.743  14.162  0.0803  0.2448 -0.3186
  618TMC3     H 9212   4.337   1.425  14.373 -0.0321 -0.1879  0.2919
  618TMC3    H1 9213   4.474   1.694  14.071  1.3984  0.9531  0.2665
  618TMC3    H2 9214   4.700   1.338  14.163  1.7104  2.4858  1.4967
  618TMC3    C7 9215   4.720   1.562  14.045  0.4636  0.1317 -0.1000
  618TMC3    C8 9216   4.479   1.222  14.269 -0.1848  0.0567 -0.0820
  618TMC3    O1 9217   0.014   1.681  14.073  0.5161 -0.0132  0.0787
  618TMC3    O2 9218   4.363   1.205  14.301 -0.0238 -0.2178  0.4179
  619MPD2     C 9219   1.050   2.374  13.838 -0.1434 -0.2352  0.5480
  619MPD2    C1 9220   0.957   2.479  13.832 -1.4047 -0.8866  0.1730
  619MPD2    C2 9221   0.825   2.459  13.805 -0.6996  0.1380 -0.2004
  619MPD2    C3 9222   0.771   2.331  13.790  0.1470  0.2803 -0.1635
  619MPD2    C4 9223   0.861   2.230  13.781  0.1881 -0.2174 -0.1877
  619MPD2    C5 9224   0.991   2.252  13.808 -0.0521 -0.0123 -0.0763
  619MPD2     H 9225   0.758   2.544  13.799  0.5329  1.0427 -1.0143
  619MPD2    H1 9226   0.827   2.127  13.777 -1.9912  0.4455  1.1516
  619MPD2    H2 9227   1.156   2.373  13.864 -0.0360  0.2117  0.1206
  619MPD2    H3 9228   1.054   2.164  13.807 -0.1157 -0.1040  2.2565
  619MPD2     N 9229   0.635   2.325  13.771 -0.2870 -0.1073  0.3499
  619MPD2    H5 9230   0.589   2.413  13.750 -0.7656 -0.4005  0.1634
  619MPD2    N1 9231   0.988   2.615  13.829 -0.0581 -0.6002  0.7599
  619MPD2    H7 9232   0.909   2.677  13.818 -0.9953 -1.5727  2.0005
  620TMC3    C1 9233   1.137   2.800  13.820 -0.4631  0.1547  0.3871
  620TMC3    C2 9234   1.088   2.833  13.697 -0.2762 -0.0749  0.6236
  620TMC3    C3 9235   1.078   2.964  13.663 -0.2646  0.7166  0.2423
  620TMC3    C4 9236   1.174   2.896  13.903  0.7736  0.0115 -0.0556
  620TMC3    C5 9237   1.171   3.032  13.871 -0.7348  0.5391  0.2264
  620TMC3    C6 9238   1.119   3.064  13.746 -0.2018  0.7104  0.1194
  620TMC3     C 9239   1.120   2.660  13.861  0.0091 -0.1494 -0.9302
  620TMC3     O 9240   1.215   2.598  13.905 -0.1726 -0.0706  0.1598
  620TMC3     H 9241   1.066   2.752  13.627 -0.1271 -0.2278  0.7526
  620TMC3    H1 9242   1.190   2.864  14.005 -0.3626  1.4144  0.5743
  620TMC3    H2 9243   1.119   3.167  13.713 -2.4746  0.6508 -0.0866
  620TMC3    C7 9244   1.126   3.130  13.971 -0.6228  0.1287 -0.0180
  620TMC3    C8 9245   0.945   3.003  13.615  0.2309 -0.1712  1.3924
  620TMC3    O1 9246   1.168   3.119  14.084 -0.0837 -0.1340 -0.1091
  620TMC3    O2 9247   0.892   3.103  13.660 -0.4437 -0.5917  0.4130
  621MPD2     C 9248   1.651   3.809   9.048  0.6916 -0.3518  0.0472
  621MPD2    C1 9249   1.601   3.768   9.170  0.6497  0.1918  1.0286
  621MPD2    C2 9250   1.608   3.845   9.283  0.6691 -0.1458  0.0072
  621MPD2    C3 9251   1.669   3.970   9.280  0.4085 -0.6313 -0.3741
  621MPD2    C4 9252   1.719   4.015   9.160 -0.2076 -0.0822 -0.2211
  621MPD2    C5 9253   1.712   3.933   9.050 -0.7083  0.0472 -0.1853
  621MPD2     H 9254   1.564   3.805   9.374 -2.0133  0.5798 -0.9785
  621MPD2    H1 9255   1.778   4.105   9.146  1.5066 -1.3316 -1.0004
  621MPD2    H2 9256   1.652   3.764   8.949 -0.5137 -0.2167 -0.0296
  621MPD2    H3 9257   1.758   3.968   8.958 -1.3207 -1.7797 -1.1900
  621MPD2     N 9258   1.684   4.046   9.398  0.2750  0.6489  0.0166
  621MPD2    H5 9259   1.643   4.002   9.480  2.1673 -1.2688 -0.0643
  621MPD2    N1 9260   1.541   3.643   9.197  0.3301 -0.4838 -0.0761
  621MPD2    H7 9261   1.538   3.613   9.293 -1.8019 -1.8335 -0.5538
  622TMC3    C1 9262   1.440   3.442   9.149  0.3797  0.0755  0.2292
  622TMC3    C2 9263   1.355   3.381   9.056 -0.4155 -0.2663 -0.4294
  622TMC3    C3 9264   1.252   3.300   9.105 -0.5052  0.5575  0.2789
  622TMC3    C4 9265   1.430   3.413   9.287  0.0876 -0.2279 -0.1297
  622TMC3    C5 9266   1.326   3.334   9.323 -0.1850 -0.0057 -0.2238
  622TMC3    C6 9267   1.232   3.276   9.236 -0.0775  0.8040 -0.7336
  622TMC3     C 9268   1.510   3.559   9.090  0.0143  0.4763  0.1992
  622TMC3     O 9269   1.502   3.577   8.968  0.9768  0.4650  0.3695
  622TMC3     H 9270   1.356   3.410   8.951 -0.0093 -0.2132 -0.4094
  622TMC3    H1 9271   1.501   3.454   9.358  0.6249 -1.7510  0.2173
  622TMC3    H2 9272   1.155   3.208   9.269 -0.0560  1.0006 -0.2778
  622TMC3    C7 9273   1.306   3.325   9.468  0.7276 -0.7084 -0.1394
  622TMC3    C8 9274   1.149   3.271   9.010 -0.1287  0.7112  0.8373
  622TMC3    O1 9275   1.403   3.346   9.541 -0.1006 -0.0795 -0.4766
  622TMC3    O2 9276   1.146   3.337   8.908 -0.0731  0.0850  0.3591
  623MPD2     C 9277   4.523   3.293  15.915  0.1236 -0.3729  0.3008
  623MPD2    C1 9278   4.517   3.174  15.977  0.0606  0.5959 -0.0355
  623MPD2    C2 9279   4.628   3.109  16.014 -0.0911  0.1376  0.5031
  623MPD2    C3 9280   0.013   3.164  15.995  0.4871  1.0874 -0.4493
  623MPD2    C4 9281   0.015   3.285  15.928 -0.2425  0.0082 -0.2210
  623MPD2    C5 9282   4.642   3.351  15.882 -0.4777 -0.6725 -0.0617
  623MPD2     H 9283   4.624   3.022  16.080  0.2143 -1.4825 -1.6068
  623MPD2    H1 9284   0.111   3.330  15.905 -0.0084  0.9776  2.6276
  623MPD2    H2 9285   4.433   3.348  15.891  0.6672  0.3169 -0.1541
  623MPD2    H3 9286   4.660   3.438  15.819 -3.6264  1.8262  2.4478
  623MPD2     N 9287   0.125   3.093  16.051 -1.0231  0.1793 -0.4573
  623MPD2    H5 9288   0.103   3.008  16.103 -0.8439 -0.3445 -1.2241
  623MPD2    N1 9289   4.386   3.130  16.012  0.2352 -0.0645  0.0382
  623MPD2    H7 9290   4.311   3.193  15.985  0.7526 -0.1071 -1.5033
  624TMC3    C1 9291   0.403   3.088  16.359  0.2449 -0.5667  1.0171
  624TMC3    C2 9292   0.317   2.990  16.403 -0.0476  0.4565 -0.5720
  624TMC3    C3 9293   0.250   2.916  16.311 -0.4545  0.0569  0.5048
  624TMC3    C4 9294   0.414   3.129  16.227 -0.2153  0.7901  0.2567
  624TMC3    C5 9295   0.336   3.057  16.135  0.1539  0.8914 -0.0100
  624TMC3    C6 9296   0.265   2.947  16.177 -0.1547  0.4826 -0.5281
  624TMC3     C 9297   0.483   3.152  16.464 -0.7743  0.1705 -0.1142
  624TMC3     O 9298   0.548   3.253  16.440 -0.3060 -0.1037 -0.1891
  624TMC3     H 9299   0.273   3.001  16.502 -3.1202 -0.4681 -1.8369
  624TMC3    H1 9300   0.475   3.213  16.196 -1.8047  1.2880 -1.5323
  624TMC3    H2 9301   0.215   2.886  16.102 -1.6363  0.9054  0.1071
  624TMC3    C7 9302   0.265   3.138  16.044  0.7431 -0.4286 -0.2312
  624TMC3    C8 9303   0.125   2.853  16.351 -0.4528  0.2018 -0.5898
  624TMC3    O1 9304   0.314   3.240  16.003 -0.3162 -0.2864  0.5491
  624TMC3    O2 9305   0.047   2.840  16.256  0.4706 -0.1391  0.2358
  625MPD2     C 9306   0.608   0.384   0.810  0.5715 -0.3021  0.1648
  625MPD2    C1 9307   0.641   0.514   0.844  0.1662  0.6497  0.3894
  625MPD2    C2 9308   0.728   0.538   0.948  0.3825  0.6502 -0.4912
  625MPD2    C3 9309   0.783   0.435   1.021  0.1020 -0.5191 -0.4864
  625MPD2    C4 9310   0.732   0.308   0.998  0.4546 -0.2534  0.2219
  625MPD2    C5 9311   0.662   0.281   0.884 -0.1753  0.7895  0.1196
  625MPD2     H 9312   0.757   0.642   0.965  1.0530  0.6562 -1.7038
  625MPD2    H1 9313   0.773   0.223   1.051  0.9260 -1.2722 -1.8104
  625MPD2    H2 9314   0.533   0.369   0.733 -0.6932  2.8855  0.8037
  625MPD2    H3 9315   0.620   0.183   0.866 -1.8077  1.4660  0.2452
  625MPD2     N 9316   0.880   0.469   1.120  0.2643  0.0060  0.1956
  625MPD2    H5 9317   0.931   0.557   1.112  1.0424 -0.1357  3.4606
  625MPD2    N1 9318   0.594   0.631   0.774  0.1333 -0.3547 -0.6036
  625MPD2    H7 9319   0.598   0.721   0.821  0.8030  0.3473 -1.9935
  626TMC3    C1 9320   0.460   0.766   0.621 -0.1625 -0.5284 -0.3768
  626TMC3    C2 9321   0.424   0.773   0.487 -0.9169  0.5053  0.3608
  626TMC3    C3 9322   0.310   0.839   0.446  0.1608  0.0256 -0.2696
  626TMC3    C4 9323   0.389   0.830   0.714 -0.3064  0.2305  0.5058
  626TMC3    C5 9324   0.273   0.886   0.675  0.3319  0.0929  0.1500
  626TMC3    C6 9325   0.220   0.887   0.540  0.6858  0.0338 -0.0811
  626TMC3     C 9326   0.529   0.636   0.650 -0.8383 -0.7062 -0.7685
  626TMC3     O 9327   0.525   0.541   0.569 -0.6050  0.1251 -0.2371
  626TMC3     H 9328   0.484   0.720   0.414  0.1114  2.0640  0.0861
  626TMC3    H1 9329   0.435   0.841   0.812 -1.1731  0.5077  0.8874
  626TMC3    H2 9330   0.131   0.943   0.516  1.6037  1.7390  0.4943
  626TMC3    C7 9331   0.176   0.888   0.776  0.0101  0.2329 -0.2637
  626TMC3    C8 9332   0.263   0.801   0.319 -0.1648  1.3060  0.5127
  626TMC3    O1 9333   0.211   0.900   0.895  0.3422  0.1206 -0.1060
  626TMC3    O2 9334   0.351   0.763   0.246  0.7334 -0.0109  0.0322
  627MPD2     C 9335   3.519   4.570  14.360 -0.2911  0.6735  0.5929
  627MPD2    C1 9336   3.511   4.554  14.501  0.2834  0.5019  0.5152
  627MPD2    C2 9337   3.414   4.465  14.540 -1.0050 -0.4101 -0.2533
  627MPD2    C3 9338   3.345   4.386  14.449  0.0961 -0.1650 -0.6844
  627MPD2    C4 9339   3.351   4.411  14.315  0.5323  0.3204  0.1317
  627MPD2    C5 9340   3.433   4.509  14.275 -0.3022 -0.1235 -0.0216
  627MPD2     H 9341   3.384   4.456  14.644  0.1546 -1.0156  0.0234
  627MPD2    H1 9342   3.286   4.362  14.243  0.2762  0.3810  0.3220
  627MPD2    H2 9343   3.591   4.639  14.316  2.2413 -1.4806  1.3983
  627MPD2    H3 9344   3.450   4.531  14.170  4.1018  1.3771  1.0191
  627MPD2     N 9345   3.259   4.292  14.501 -0.0012 -0.6439 -0.5635
  627MPD2    H5 9346   3.264   4.269  14.600  0.5554 -1.6109 -0.8104
  627MPD2    N1 9347   3.584   4.623  14.597  0.0713  0.1884 -0.6131
  627MPD2    H7 9348   3.568   4.603  14.695 -1.8376  2.0103 -0.5447
  628TMC3    C1 9349   3.723   0.074  14.668 -0.4885  0.2964  0.2563
  628TMC3    C2 9350   3.843   0.034  14.723 -0.2842 -1.1454 -0.1441
  628TMC3    C3 9351   3.919   0.131  14.788  0.7390  0.2450 -0.3998
  628TMC3    C4 9352   3.683   0.207  14.680 -0.0667  0.4073  0.0367
  628TMC3    C5 9353   3.763   0.303  14.741 -0.6764  0.7512  0.8393
  628TMC3    C6 9354   3.879   0.265  14.796  0.8078 -0.3881 -0.5788
  628TMC3     C 9355   3.664   0.000  14.556  0.9370 -0.2727  0.1997
  628TMC3     O 9356   3.646   0.064  14.453  0.2008  0.1931  0.4181
  628TMC3     H 9357   3.870   4.666  14.706  0.2242 -0.9157 -0.7062
  628TMC3    H1 9358   3.586   0.234  14.639  0.7157  0.4376 -1.7918
  628TMC3    H2 9359   3.949   0.332  14.844  0.5309 -1.2011  0.9740
  628TMC3    C7 9360   3.706   0.434  14.771 -0.1800 -0.1663 -0.8000
  628TMC3    C8 9361   4.033   0.087  14.866  0.7865  0.1323 -0.3052
  628TMC3    O1 9362   3.754   0.500  14.863 -0.4008 -0.0252  0.2404
  628TMC3    O2 9363   4.073   4.711  14.837 -0.0129 -0.2953 -0.2008
  629MPD2     C 9364   2.198   3.278  16.678 -0.0821  0.2358 -0.4351
  629MPD2    C1 9365   2.175   3.383  16.594  0.2014  0.3060 -0.1515
  629MPD2    C2 9366   2.061   3.392  16.522  0.8675 -0.5429 -0.7378
  629MPD2    C3 9367   1.972   3.285  16.527 -0.7160  0.2342  0.3370
  629MPD2    C4 9368   1.994   3.180  16.606  0.0852  0.3252 -0.3462
  629MPD2    C5 9369   2.105   3.173  16.679  0.0358 -0.3446  0.2954
  629MPD2     H 9370   2.049   3.471  16.449  0.4680  0.7950  0.7779
  629MPD2    H1 9371   1.928   3.095  16.617 -2.6690  2.6232  0.9254
  629MPD2    H2 9372   2.289   3.261  16.734 -0.6462  1.6601  0.9201
  629MPD2    H3 9373   2.130   3.084  16.735  1.4443 -0.2739 -0.1946
  629MPD2     N 9374   1.863   3.298  16.436  0.3517 -0.2745  0.0529
  629MPD2    H5 9375   1.846   3.388  16.392 -1.7183  0.0230  1.4817
  629MPD2    N1 9376   2.278   3.475  16.589  0.3112  0.7441 -0.2496
  629MPD2    H7 9377   2.352   3.454  16.656 -1.4020  0.5289  1.5701
  630TMC3    C1 9378   2.449   3.598  16.481  0.0788 -0.3922 -0.0800
  630TMC3    C2 9379   2.489   3.721  16.426  0.2919 -0.2267  0.1927
  630TMC3    C3 9380   2.618   3.736  16.385  0.0792 -0.7309 -0.6576
  630TMC3    C4 9381   2.541   3.491  16.494  0.3689 -0.4870  0.2387
  630TMC3    C5 9382   2.674   3.523  16.482 -0.3999  0.0653 -0.4855
  630TMC3    C6 9383   2.713   3.641  16.421 -0.8205 -0.2063  0.0512
  630TMC3     C 9384   2.302   3.575  16.493 -0.1810  0.4967 -0.6873
  630TMC3     O 9385   2.234   3.627  16.406  0.4687 -0.2447 -0.0880
  630TMC3     H 9386   2.425   3.804  16.398 -0.5516 -1.2339 -0.8673
  630TMC3    H1 9387   2.507   3.400  16.543  2.8238 -0.2758  2.3890
  630TMC3    H2 9388   2.813   3.649  16.380 -1.9034 -1.9341 -2.9482
  630TMC3    C7 9389   2.736   3.540  16.613 -0.4101 -0.5986  0.3911
  630TMC3    C8 9390   2.681   3.871  16.387  1.1494 -0.0039  0.9656
  630TMC3    O1 9391   2.696   3.468  16.704  0.3098  0.1777  0.4364
  630TMC3    O2 9392   2.796   3.885  16.342 -0.5503  0.1436  0.0666
  631MPD2     C 9393   0.635   3.559  15.964 -0.7397  0.0510 -0.6057
  631MPD2    C1 9394   0.622   3.620  15.835 -0.5752  0.3991 -0.1374
  631MPD2    C2 9395   0.610   3.534  15.727  0.2465  0.2360 -0.0049
  631MPD2    C3 9396   0.629   3.400  15.735 -0.3122 -0.3525  1.0571
  631MPD2    C4 9397   0.658   3.347  15.858 -0.4319 -0.5891  0.5511
  631MPD2    C5 9398   0.653   3.422  15.969  0.0820 -0.3887  1.1138
  631MPD2     H 9399   0.598   3.583  15.631 -1.0138 -2.2570 -1.1273
  631MPD2    H1 9400   0.662   3.241  15.879  0.6983 -0.5164  0.7003
  631MPD2    H2 9401   0.626   3.620  16.054  1.8405  1.6610 -1.4335
  631MPD2    H3 9402   0.669   3.374  16.065  1.3245 -1.0710  0.5709
  631MPD2     N 9403   0.611   3.331  15.620 -0.6655  0.3509 -0.0757
  631MPD2    H5 9404   0.583   3.380  15.536 -0.9872 -0.2758 -0.3371
  631MPD2    N1 9405   0.606   3.759  15.817 -0.2949 -0.4113 -0.0225
  631MPD2    H7 9406   0.578   3.801  15.729  0.9749 -1.6027 -0.9811
  632TMC3    C1 9407   0.603   3.973  15.849  0.4012  0.7437  0.6303
  632TMC3    C2 9408   0.486   4.037  15.853  0.2253  0.3002 -0.2166
  632TMC3    C3 9409   0.458   4.117  15.741 -0.1181 -0.3268 -0.0716
  632TMC3    C4 9410   0.690   3.977  15.742  0.2147 -0.2710 -0.1685
  632TMC3    C5 9411   0.666   4.073  15.647  0.3321  0.3056  0.5693
  632TMC3    C6 9412   0.544   4.144  15.639  0.0141  0.5105  0.2266
  632TMC3     C 9413   0.604   3.847  15.919  0.3608 -0.1481  0.9659
  632TMC3     O 9414   0.634   3.853  16.039 -0.0735  0.4148  0.2843
  632TMC3     H 9415   0.414   4.014  15.931 -1.5564 -1.0656 -2.2316
  632TMC3    H1 9416   0.791   3.936  15.749  1.2750  2.0986 -1.5505
  632TMC3    H2 9417   0.525   4.213  15.557 -0.1621 -0.5698 -0.6548
  632TMC3    C7 9418   0.713   4.044  15.516  0.2756 -0.3456 -0.2740
  632TMC3    C8 9419   0.319   4.112  15.704 -0.8824  0.9444  0.2064
  632TMC3    O1 9420   0.629   4.053  15.431 -0.1188 -0.1390 -0.2760
  632TMC3    O2 9421   0.232   4.119  15.790 -0.3837  0.3914 -0.1980
  633MPD2     C 9422   4.692   1.954  17.610 -0.2209 -0.7317 -0.0183
  633MPD2    C1 9423   4.720   1.833  17.561 -0.5955  0.3423  0.2738
  633MPD2    C2 9424   4.723   1.725  17.647  0.1628 -0.1662 -0.3994
  633MPD2    C3 9425   4.712   1.731   0.041 -0.2102  0.7151 -0.9722
  633MPD2    C4 9426   4.695   1.857   0.089 -0.7098 -0.4370  0.1791
  633MPD2    C5 9427   4.682   1.963   0.003  0.9041  0.2565  0.1077
  633MPD2     H 9428   0.008   1.636  17.589 -0.3898 -1.1582  0.9015
  633MPD2    H1 9429   4.680   1.875   0.195 -0.4691  0.6713  0.0264
  633MPD2    H2 9430   4.674   2.040  17.546  2.8459  0.0390  0.1515
  633MPD2    H3 9431   4.653   2.058   0.046  0.3202  0.1113  0.0336
  633MPD2     N 9432   4.733   1.633   0.136 -0.0511  0.0185  0.2196
  633MPD2    H5 9433   4.733   1.666   0.232  0.4390 -0.5371  0.4153
  633MPD2    N1 9434   0.008   1.810  17.419  0.0407  0.6058 -0.3299
  633MPD2    H7 9435   0.004   1.715  17.385  1.6593  0.9370 -1.4326
  634TMC3    C1 9436   0.081   1.855  17.200 -0.0566 -0.1243 -0.1366
  634TMC3    C2 9437   0.152   1.738  17.189 -0.8359  0.4685  0.0345
  634TMC3    C3 9438   0.203   1.707  17.072 -0.3821 -1.2711  0.1723
  634TMC3    C4 9439   0.055   1.936  17.092  0.2924 -0.0118 -0.0681
  634TMC3    C5 9440   0.120   1.907  16.980  0.2178 -0.6741  0.8797
  634TMC3    C6 9441   0.197   1.798  16.969  0.0000 -1.0204  0.3601
  634TMC3     C 9442   0.040   1.907  17.329  0.2816  0.1743 -0.2290
  634TMC3     O 9443   0.026   2.030  17.329  0.0956 -0.1544 -0.3732
  634TMC3     H 9444   0.172   1.690  17.285 -1.2805  2.9848  1.3733
  634TMC3    H1 9445   4.720   2.018  17.098  0.4284 -0.0236  1.6851
  634TMC3    H2 9446   0.251   1.782  16.876  1.2796  1.2534  0.7153
  634TMC3    C7 9447   0.095   1.982  16.856  0.1640 -0.3009  0.4302
  634TMC3    C8 9448   0.266   1.574  17.071 -0.3567  0.0927 -0.0811
  634TMC3    O1 9449   0.146   1.934  16.754 -0.0369 -0.0302  0.4101
  634TMC3    O2 9450   0.276   1.503  17.169 -0.2870 -0.4850 -0.4920
  635TMC3    C1 9451   0.274   2.788  17.726 -0.0223  0.5243 -0.3447
  635TMC3    C2 9452   0.365   2.736  17.642 -0.0998  0.5838 -0.2628
  635TMC3    C3 9453   0.353   2.604  17.608 -0.3559  0.7609  0.1122
  635TMC3    C4 9454   0.171   2.716   0.044  0.6018 -0.4792  0.7186
  635TMC3    C5 9455   0.175   2.580   0.020 -0.2477 -0.4690 -0.1552
  635TMC3    C6 9456   0.260   2.526  17.672 -0.2555 -0.1845 -0.0324
  635TMC3     C 9457   0.274   2.934   0.016 -0.0185 -0.0792  0.4667
  635TMC3     O 9458   0.199   2.975   0.107  0.7164  0.0727 -0.7729
  635TMC3     H 9459   0.445   2.796  17.600  1.2919 -2.5193 -2.0341
  635TMC3    H1 9460   0.099   2.767   0.107 -0.6674 -0.7509 -0.5140
  635TMC3    H2 9461   0.248   2.424  17.638  2.4196  0.0845 -1.7971
  635TMC3    C7 9462   0.083   2.479   0.082  0.3945 -0.2605  0.8993
  635TMC3    C8 9463   0.458   2.546  17.522  0.2884  0.1784 -0.4960
  635TMC3    O1 9464   0.063   2.376   0.022 -0.5363 -0.1080 -0.3084
  635TMC3    O2 9465   0.528   2.629  17.462  0.3080  0.0057  0.2440
  636MPD2     C 9466   1.052   2.285  16.894  0.0303  0.3274  0.4890
  636MPD2    C1 9467   1.135   2.354  16.808  0.5324 -0.0943  0.8201
  636MPD2    C2 9468   1.210   2.281  16.713  0.3911  0.0494  0.1567
  636MPD2    C3 9469   1.219   2.142  16.716  0.2335  0.0996  1.4035
  636MPD2    C4 9470   1.132   2.077  16.797  0.0320 -0.1766 -0.9764
  636MPD2    C5 9471   1.046   2.149  16.882 -0.3145 -0.4972  0.0387
  636MPD2     H 9472   1.278   2.337  16.650  1.6952  0.7939  2.2312
  636MPD2    H1 9473   1.120   1.969  16.798  1.4093 -0.3310 -0.9921
  636MPD2    H2 9474   0.990   2.332  16.971 -1.0105 -2.9540  1.6392
  636MPD2    H3 9475   0.982   2.094  16.950  1.1083 -0.5715  1.3112
  636MPD2     N 9476   1.319   2.078  16.636 -0.1913 -0.1138 -0.1385
  636MPD2    H5 9477   1.379   2.132  16.575 -0.2550 -1.1403 -1.0931
  636MPD2    N1 9478   1.142   2.500  16.818 -0.0216 -0.0554 -0.0727
  636MPD2    H7 9479   1.190   2.539  16.737 -1.3231 -1.8340 -1.7323
  637TMC3    C1 9480   1.463   1.908  16.563  0.1686  0.0528  0.7303
  637TMC3    C2 9481   1.570   2.002  16.550 -0.9734 -0.5250  0.2171
  637TMC3    C3 9482   1.689   1.952  16.507 -0.1888 -0.4036  0.3878
  637TMC3    C4 9483   1.482   1.776  16.528  0.9128 -0.4473 -0.5658
  637TMC3    C5 9484   1.602   1.734  16.474  0.2387 -0.4302  0.8408
  637TMC3    C6 9485   1.705   1.823  16.466 -0.1018 -0.8229  0.4212
  637TMC3     C 9486   1.334   1.939  16.624  0.4348 -0.1453  0.0978
  637TMC3     O 9487   1.256   1.848  16.650 -0.1034 -0.2993 -0.0865
  637TMC3     H 9488   1.567   2.106  16.583  1.7734 -0.7347  1.1603
  637TMC3    H1 9489   1.396   1.712  16.541  0.7153  0.0117  0.4030
  637TMC3    H2 9490   1.802   1.784  16.439  0.6531  1.6163 -0.3607
  637TMC3    C7 9491   1.586   1.654  16.354  0.0865  0.2728  0.5005
  637TMC3    C8 9492   1.753   2.033  16.406  0.5358  0.6729 -0.3680
  637TMC3    O1 9493   1.519   1.551  16.345  0.0706  0.0210  0.0837
  637TMC3    O2 9494   1.794   1.969  16.316  0.5779  0.3005  0.8912
  638MPD2     C 9495   1.441   0.549  14.694 -0.2430  0.1245 -0.1326
  638MPD2    C1 9496   1.414   0.422  14.659  0.8985 -0.0973  0.2118
  638MPD2    C2 9497   1.361   0.329  14.743 -0.1827  0.3783  0.3462
  638MPD2    C3 9498   1.320   0.378  14.863 -0.4046 -0.7983  0.8217
  638MPD2    C4 9499   1.345   0.510  14.899  0.1770 -0.6755  0.4670
  638MPD2    C5 9500   1.409   0.595  14.814 -0.5609  0.9899 -0.2459
  638MPD2     H 9501   1.346   0.225  14.720 -0.6139  0.3676  0.6944
  638MPD2    H1 9502   1.321   0.544  14.999  0.4273 -0.0429  0.3174
  638MPD2    H2 9503   1.485   0.623  14.628 -1.4288  1.2833  0.3722
  638MPD2    H3 9504   1.438   0.697  14.834  1.2717  0.6557 -1.1491
  638MPD2     N 9505   1.238   0.295  14.944 -0.7965 -0.1817  0.7401
  638MPD2    H5 9506   1.219   0.203  14.907 -3.1814 -0.2002  2.0001
  638MPD2    N1 9507   1.475   0.379  14.536  0.5521 -0.2667 -0.0378
  638MPD2    H7 9508   1.538   0.444  14.489  1.6245 -0.0778  1.6766
  639TMC3    C1 9509   1.139   0.192  15.125  0.0496  0.3829  0.2352
  639TMC3    C2 9510   1.044   0.122  15.049 -0.0114  0.3624 -0.2291
  639TMC3    C3 9511   0.997   0.005  15.101  0.9552 -0.2083  0.6733
  639TMC3    C4 9512   1.192   0.135  15.234  1.1033 -0.6756  0.2663
  639TMC3    C5 9513   1.150   0.014  15.273 -0.8002 -0.2949 -0.5824
  639TMC3    C6 9514   1.050   4.684  15.209  0.3268  1.0185 -0.5349
  639TMC3     C 9515   1.207   0.308  15.077  0.1049 -0.0637  0.1221
  639TMC3     O 9516   1.252   0.381  15.159  0.3181 -0.3313  0.2406
  639TMC3     H 9517   1.005   0.162  14.956 -1.1931 -1.0996 -0.3752
  639TMC3    H1 9518   1.259   0.192  15.298  1.3475 -1.6978  0.9096
  639TMC3    H2 9519   1.028   4.581  15.235  0.0450  0.5915 -2.4851
  639TMC3    C7 9520   1.232   4.663  15.347 -0.6007  0.6067 -0.1233
  639TMC3    C8 9521   0.927   4.649  15.011 -0.3940  0.2132  0.0522
  639TMC3    O1 9522   1.174   4.586  15.424 -0.3699 -0.1980  0.3987
  639TMC3    O2 9523   0.991   4.634  14.908  0.6213 -0.3487 -0.1064
  640MPD2     C 9524   2.053   4.041  10.349 -0.9239  0.2549 -0.8866
  640MPD2    C1 9525   2.098   4.086  10.225  0.0130  0.7250 -0.0691
  640MPD2    C2 9526   2.073   4.214  10.181  0.5401 -0.3750  0.2425
  640MPD2    C3 9527   2.006   4.305  10.257  0.3136  0.0115  0.5127
  640MPD2    C4 9528   1.967   4.255  10.380 -0.2479 -0.1259 -0.5751
  640MPD2    C5 9529   1.986   4.129  10.421 -0.4650  0.1028 -0.5503
  640MPD2     H 9530   2.117   4.246  10.087  1.3878 -0.0708  0.7436
  640MPD2    H1 9531   1.912   4.322  10.446 -1.1263 -1.2645 -0.1414
  640MPD2    H2 9532   2.059   3.942  10.392 -2.2096  0.0618 -1.1482
  640MPD2    H3 9533   1.942   4.097  10.515 -2.6352  1.7108 -1.0113
  640MPD2     N 9534   1.976   4.438  10.212  0.7320  0.7594  0.2038
  640MPD2    H5 9535   1.911   4.493  10.267 -0.0305 -0.0501  0.1170
  640MPD2    N1 9536   2.160   3.994  10.138 -0.1558  0.9594  0.1945
  640MPD2    H7 9537   2.181   3.902  10.176  2.1013  1.6501  0.6093
  641TMC3    C1 9538   2.249   3.904   9.937 -0.1688 -0.8624  0.8400
  641TMC3    C2 9539   2.312   3.800  10.010  0.0180  0.1071 -0.2977
  641TMC3    C3 9540   2.310   3.678   9.946  0.4418  0.0282  0.1568
  641TMC3    C4 9541   2.199   3.888   9.809  0.0434  0.4715  0.1947
  641TMC3    C5 9542   2.204   3.765   9.755  0.0130 -0.1100 -0.4298
  641TMC3    C6 9543   2.262   3.658   9.822  0.7416 -0.0791 -0.4412
  641TMC3     C 9544   2.196   4.017  10.005 -0.3216 -0.8293  0.6532
  641TMC3     O 9545   2.166   4.109   9.935 -0.4048 -0.0282 -0.4536
  641TMC3     H 9546   2.375   3.823  10.095 -0.7347 -1.0844  0.5805
  641TMC3    H1 9547   2.144   3.974   9.772 -0.2577  0.7731  1.3425
  641TMC3    H2 9548   2.278   3.566   9.766 -1.2205 -0.3493 -0.5571
  641TMC3    C7 9549   2.167   3.751   9.607 -0.4111  0.3860  0.1364
  641TMC3    C8 9550   2.422   3.588   9.983 -0.2538 -0.0079  0.1059
  641TMC3    O1 9551   2.160   3.637   9.565 -0.2649 -0.8569 -0.2232
  641TMC3    O2 9552   2.427   3.489   9.918  0.3185  0.4229 -0.3235
  642TMC3    C1 9553   2.656   4.594  12.608  0.3291 -0.1060  0.0156
  642TMC3    C2 9554   2.740   4.644  12.514 -0.3810 -0.9883  0.1799
  642TMC3    C3 9555   2.751   4.578  12.391  0.4818  0.2369  0.2044
  642TMC3    C4 9556   2.586   4.472  12.589  0.4257 -0.3161 -0.0077
  642TMC3    C5 9557   2.613   4.402  12.468 -0.3768  0.6687  0.1574
  642TMC3    C6 9558   2.690   4.458  12.373 -0.0714 -0.0188  0.3482
  642TMC3     C 9559   2.620   4.691  12.710 -0.3017 -0.1954 -0.3510
  642TMC3     O 9560   2.712   0.030  12.737  0.5707 -0.0673  0.8927
  642TMC3     H 9561   2.774   0.011  12.526  2.0747 -2.0819  2.6399
  642TMC3    H1 9562   2.525   4.446  12.675 -0.2661 -0.9752 -0.6969
  642TMC3    H2 9563   2.694   4.411  12.275  0.9602  1.9900 -0.5965
  642TMC3    C7 9564   2.557   4.273  12.445  0.6850  1.1002  0.5510
  642TMC3    C8 9565   2.824   4.639  12.282  0.0216 -0.2711  0.5518
  642TMC3    O1 9566   2.575   4.220  12.339  0.2377 -0.1518  0.4348
  642TMC3    O2 9567   2.804   4.616  12.166  0.1292 -0.3503 -0.3789
  643TMC3    C1 9568   1.918   4.276   0.429  0.4609  0.1884 -0.2723
  643TMC3    C2 9569   1.808   4.361   0.402 -0.6202 -0.2344 -0.7461
  643TMC3    C3 9570   1.764   4.371   0.272  0.3040 -0.3071 -0.4388
  643TMC3    C4 9571   1.981   4.216   0.324  0.3368  0.0290 -0.6732
  643TMC3    C5 9572   1.948   4.248   0.199 -0.0253 -0.7042  0.7441
  643TMC3    C6 9573   1.838   4.326   0.170  0.4090 -0.1280  0.0548
  643TMC3     C 9574   1.929   4.241   0.570  0.0424 -0.3152  0.1843
  643TMC3     O 9575   1.830   4.254   0.642  0.4890  0.9036 -0.2808
  643TMC3     H 9576   1.747   4.401   0.481 -1.2929 -0.1938 -1.2835
  643TMC3    H1 9577   2.064   4.150   0.349  0.6601 -0.1935 -2.3566
  643TMC3    H2 9578   1.809   4.348   0.068 -1.5200  1.9652  1.0626
  643TMC3    C7 9579   2.056   4.275   0.110 -0.2292  0.1156 -0.1669
  643TMC3    C8 9580   1.697   4.497   0.254 -0.3381 -0.1932 -0.2089
  643TMC3    O1 9581   2.040   4.384   0.057  0.3531  0.1832  0.8387
  643TMC3    O2 9582   1.600   4.530   0.327  0.3829 -0.2842  0.4667
  644MPD2     C 9583   2.949   4.540   9.596 -0.2922  0.4859 -0.0654
  644MPD2    C1 9584   2.934   4.671   9.608 -0.2164  0.4582 -0.4723
  644MPD2    C2 9585   3.044   0.015   9.641  0.5610 -0.0488 -0.0323
  644MPD2    C3 9586   3.170   4.693   9.670  0.1865  0.2183 -0.0077
  644MPD2    C4 9587   3.185   4.553   9.663 -0.2258 -0.1148 -0.3063
  644MPD2    C5 9588   3.073   4.484   9.617 -1.1770 -0.0142  0.1666
  644MPD2     H 9589   3.030   0.119   9.667  1.0071  0.3273 -1.2800
  644MPD2    H1 9590   3.275   4.497   9.682  0.3929  1.4700  1.4507
  644MPD2    H2 9591   2.867   4.476   9.565 -0.9787  1.6185 -0.5924
  644MPD2    H3 9592   3.080   4.376   9.611  2.0183  0.2586 -1.3126
  644MPD2     N 9593   3.275   0.036   9.708 -0.4873 -0.1312  0.2917
  644MPD2    H5 9594   3.269   0.136   9.719  1.8058  0.0227  0.0386
  644MPD2    N1 9595   2.799   4.717   9.600  0.3686 -0.0035 -1.0260
  644MPD2    H7 9596   2.726   4.648   9.585 -1.4366  1.2044  2.0988
  645TMC3    C1 9597   3.492   0.082   9.816  0.3318 -0.3513  0.3193
  645TMC3    C2 9598   3.463   0.213   9.829 -0.2500  0.1943  0.0559
  645TMC3    C3 9599   3.527   0.292   9.923  0.2066 -0.6254  0.4130
  645TMC3    C4 9600   3.587   0.032   9.894  0.2902  0.1184  0.2210
  645TMC3    C5 9601   3.648   0.111   9.987 -0.7192 -0.3827 -0.2377
  645TMC3    C6 9602   3.622   0.243  10.009  0.1304 -0.3874  0.1849
  645TMC3     C 9603   3.401   4.723   9.749  0.2776 -0.0458  0.1728
  645TMC3     O 9604   3.439   4.608   9.732 -0.1082  0.0618 -0.6042
  645TMC3     H 9605   3.405   0.270   9.757  0.4421  1.9924  0.8983
  645TMC3    H1 9606   3.602   4.660   9.901 -2.2356 -0.2446  0.0976
  645TMC3    H2 9607   3.659   0.301  10.093 -1.1581  1.2359 -0.3540
  645TMC3    C7 9608   3.734   0.042  10.086  0.1375 -1.0142  0.4889
  645TMC3    C8 9609   3.473   0.428   9.938  0.1486  0.2132 -0.8258
  645TMC3    O1 9610   3.732   4.657  10.090 -0.4018 -0.2229 -0.0165
  645TMC3    O2 9611   3.398   0.478   9.856  0.9529  0.7485  0.2937
  646MPD2     C 9612   1.540   3.608  14.744 -0.2539 -0.1540 -0.0703
  646MPD2    C1 9613   1.464   3.662  14.844  0.5694  0.1975  0.1784
  646MPD2    C2 9614   1.367   3.754  14.807  0.6275  0.2983 -0.0233
  646MPD2    C3 9615   1.336   3.781  14.677 -0.8083 -0.1545 -0.0789
  646MPD2    C4 9616   1.407   3.712  14.583  0.8000  0.2901 -0.1919
  646MPD2    C5 9617   1.514   3.634  14.616 -0.2795  0.2435 -1.1763
  646MPD2     H 9618   1.306   3.798  14.884  0.1391  1.0349 -0.8291
  646MPD2    H1 9619   1.382   3.715  14.477  0.9790  2.1239 -0.1770
  646MPD2    H2 9620   1.618   3.537  14.769 -1.6149 -1.4655  0.5286
  646MPD2    H3 9621   1.577   3.610  14.531  1.0636 -1.6748  0.3503
  646MPD2     N 9622   1.230   3.877  14.652  0.5750 -0.1603 -0.1293
  646MPD2    H5 9623   1.178   3.908  14.733  1.9310 -1.9271  1.4373
  646MPD2    N1 9624   1.494   3.619  14.973 -0.2457 -0.1192  0.0944
  646MPD2    H7 9625   1.576   3.561  14.988 -1.0361 -0.4733  3.0410
  647TMC3    C1 9626   1.465   3.605  15.203 -0.0655 -0.0097  0.6588
  647TMC3    C2 9627   1.379   3.563  15.301  0.6048  0.6928  0.2841
  647TMC3    C3 9628   1.431   3.544  15.427 -0.0020  0.4816  0.2354
  647TMC3    C4 9629   1.600   3.626  15.227  0.5313  0.2809  0.0572
  647TMC3    C5 9630   1.645   3.614  15.353 -0.1546 -0.2865 -0.0078
  647TMC3    C6 9631   1.561   3.591  15.458 -0.7159  0.6676 -0.5289
  647TMC3     C 9632   1.412   3.648  15.077  0.1322 -0.6884 -0.4092
  647TMC3     O 9633   1.296   3.687  15.084  1.2983 -0.1187 -0.2621
  647TMC3     H 9634   1.272   3.565  15.280  0.5297 -0.7848  0.4773
  647TMC3    H1 9635   1.667   3.630  15.142  0.1746 -1.8811 -0.3300
  647TMC3    H2 9636   1.610   3.564  15.551 -0.4297  1.8339 -0.3449
  647TMC3    C7 9637   1.764   3.537  15.375 -0.7865  0.2597 -0.0690
  647TMC3    C8 9638   1.428   3.406  15.466 -0.2981 -0.2084  0.4125
  647TMC3    O1 9639   1.838   3.575  15.462 -0.8662 -0.4264  0.4544
  647TMC3    O2 9640   1.487   3.368  15.564 -0.1195  0.4278  0.5130
  648TMC3    C1 9641   0.773   1.466  16.520 -0.4745 -0.9727  0.2330
  648TMC3    C2 9642   0.855   1.361  16.536 -0.3465  0.3402  0.1967
  648TMC3    C3 9643   0.883   1.285  16.428 -0.4187  0.0163 -0.6280
  648TMC3    C4 9644   0.727   1.500  16.395  0.3782 -0.2636  0.6705
  648TMC3    C5 9645   0.770   1.431  16.284 -0.6142  0.2493  0.6012
  648TMC3    C6 9646   0.846   1.324  16.297 -0.3973  0.5028 -0.5278
  648TMC3     C 9647   0.705   1.528  16.621  0.5896 -0.4123 -0.3025
  648TMC3     O 9648   0.601   1.595  16.597 -0.5243  0.0479  0.1664
  648TMC3     H 9649   0.923   1.353  16.621 -1.8921 -0.4168  1.3743
  648TMC3    H1 9650   0.673   1.593  16.378  1.6558  0.7430  2.0865
  648TMC3    H2 9651   0.869   1.267  16.207  1.3540 -2.2111  1.6388
  648TMC3    C7 9652   0.748   1.478  16.150  0.9949  0.4627  0.3619
  648TMC3    C8 9653   0.959   1.158  16.449  0.6062  0.7547 -0.2473
  648TMC3    O1 9654   0.806   1.432  16.055 -0.0619  0.8189 -1.0193
  648TMC3    O2 9655   0.973   1.116  16.563  0.0418  0.5358 -0.0940
  649TMC3    C1 9656   4.106   2.671  13.068 -0.1661 -0.0031  0.0821
  649TMC3    C2 9657   4.202   2.711  13.159  0.3332 -0.3071  0.3765
  649TMC3    C3 9658   4.275   2.614  13.221  0.0069 -0.5403  0.1057
  649TMC3    C4 9659   4.080   2.542  13.036 -0.1660  0.4184  0.2747
  649TMC3    C5 9660   4.160   2.449  13.100 -0.6400 -0.0087  0.0082
  649TMC3    C6 9661   4.253   2.482  13.195  0.2257 -0.3623 -0.1359
  649TMC3     C 9662   4.014   2.776  13.020 -0.3447 -0.4602 -0.5336
  649TMC3     O 9663   3.990   2.876  13.093 -0.5509 -0.1028  0.3357
  649TMC3     H 9664   4.223   2.816  13.177  1.2430 -0.1775 -1.4276
  649TMC3    H1 9665   3.998   2.508  12.973 -2.3306 -1.8040  4.2322
  649TMC3    H2 9666   4.308   2.407  13.251 -0.5146 -1.8373 -1.3926
  649TMC3    C7 9667   4.093   2.323  13.120 -0.2378 -1.2874 -0.4444
  649TMC3    C8 9668   4.400   2.633  13.299  0.7133  0.4262 -0.7993
  649TMC3    O1 9669   4.032   2.269  13.030  0.0057  0.3344 -0.0966
  649TMC3    O2 9670   4.476   2.538  13.315 -0.2739 -0.5890  0.1967
  650TMC3    C1 9671   1.596   3.826  12.487 -0.4345 -0.1620 -0.6186
  650TMC3    C2 9672   1.518   3.931  12.524 -1.1077  0.0441 -0.8462
  650TMC3    C3 9673   1.543   4.054  12.472 -0.1271  0.7404  0.4877
  650TMC3    C4 9674   1.712   3.840  12.419  0.3174 -0.0479 -0.3665
  650TMC3    C5 9675   1.734   3.966  12.365  0.1433 -0.4503  0.5154
  650TMC3    C6 9676   1.652   4.069  12.391 -0.1012 -0.8019 -0.2877
  650TMC3     C 9677   1.573   3.705  12.570 -0.3613  0.2097  0.5407
  650TMC3     O 9678   1.455   3.677  12.589  0.3913 -0.3131 -0.1835
  650TMC3     H 9679   1.438   3.919  12.596  0.2593  1.0835  0.8692
  650TMC3    H1 9680   1.788   3.764  12.404 -0.0253 -0.5043  0.2159
  650TMC3    H2 9681   1.674   4.167  12.352 -2.6568 -0.6133 -1.2828
  650TMC3    C7 9682   1.868   4.010  12.322  0.3132 -0.0933 -0.1565
  650TMC3    C8 9683   1.503   4.170  12.546 -0.5144  0.9198 -0.1825
  650TMC3    O1 9684   1.941   3.922  12.276 -0.4704  0.0589  0.1533
  650TMC3    O2 9685   1.550   4.274  12.501 -0.2091  0.0954 -0.0471
  651MPD2     C 9686   1.136   1.801  10.715 -0.3750 -0.7917 -0.3773
  651MPD2    C1 9687   1.129   1.938  10.694  0.4089  0.3426 -0.6747
  651MPD2    C2 9688   1.241   1.999  10.641  0.0821 -0.6626 -0.6919
  651MPD2    C3 9689   1.361   1.934  10.616 -1.0413  0.2534 -0.7844
  651MPD2    C4 9690   1.372   1.808  10.669  0.1200  0.5182  0.1840
  651MPD2    C5 9691   1.260   1.743  10.706  0.3934  0.3271  0.5791
  651MPD2     H 9692   1.230   2.100  10.603 -1.9358 -0.8957 -0.7237
  651MPD2    H1 9693   1.465   1.753  10.665  0.1628  0.4309  2.6519
  651MPD2    H2 9694   1.057   1.739  10.755 -1.1369 -0.4794 -1.4024
  651MPD2    H3 9695   1.259   1.639  10.739  1.0630  0.1222 -0.0377
  651MPD2     N 9696   1.462   2.000  10.549 -0.3829  0.2901 -0.2526
  651MPD2    H5 9697   1.435   2.092  10.514  0.8429  0.6610 -0.2112
  651MPD2    N1 9698   1.013   2.017  10.712 -0.0979  0.2528 -0.4378
  651MPD2    H7 9699   1.029   2.117  10.720 -0.4573  0.2409  0.3742
  652TMC3    C1 9700   1.868   2.140  10.423 -0.5380 -0.4396 -0.0716
  652TMC3    C2 9701   1.787   2.034  10.452  0.0060 -0.9381  0.4591
  652TMC3    C3 9702   1.651   2.039  10.432 -0.0196 -0.4573 -0.2787
  652TMC3    C4 9703   1.816   2.260  10.386 -0.9790 -0.2267 -0.3178
  652TMC3    C5 9704   1.678   2.266  10.372  0.1439  0.4485 -0.7355
  652TMC3    C6 9705   1.593   2.158  10.394 -0.2095  0.4177 -0.3185
  652TMC3     C 9706   2.013   2.126  10.447  0.1349 -0.3524 -0.0993
  652TMC3     O 9707   2.046   2.051  10.538  0.2458  0.0617  0.2283
  652TMC3     H 9708   1.837   1.940  10.469  0.9112 -0.3343  1.1499
  652TMC3    H1 9709   1.874   2.351  10.375  1.9444 -1.9491  0.6201
  652TMC3    H2 9710   1.486   2.163  10.382 -0.4493 -0.7013  1.4317
  652TMC3    C7 9711   1.619   2.391  10.334  0.1646 -0.3521  0.1924
  652TMC3    C8 9712   1.575   1.947  10.510 -0.0203 -0.2486  0.4393
  652TMC3    O1 9713   1.497   2.384  10.322  0.1416 -0.1393 -0.3916
  652TMC3    O2 9714   1.633   1.848  10.552  0.2109  0.4485  0.0187
  653MPD2     C 9715   4.348   1.816  17.707  0.6732 -0.1668 -0.4257
  653MPD2    C1 9716   4.330   1.908  17.611  0.0781  0.2953 -0.6077
  653MPD2    C2 9717   4.297   1.851  17.489  0.2379  0.2349 -1.0793
  653MPD2    C3 9718   4.294   1.718  17.465 -0.0126 -0.0843  0.2613
  653MPD2    C4 9719   4.322   1.629  17.563  0.4688  0.4061  0.1115
  653MPD2    C5 9720   4.355   1.684  17.687  1.2214 -0.1580  0.6133
  653MPD2     H 9721   4.282   1.912  17.400  0.4184  0.4065 -0.9916
  653MPD2    H1 9722   4.313   1.521  17.560 -1.9827  0.5988  0.1286
  653MPD2    H2 9723   4.370   1.841   0.068 -0.6225  0.2918 -0.2588
  653MPD2    H3 9724   4.371   1.613   0.025  0.7316 -0.1375  0.7306
  653MPD2     N 9725   4.245   1.667  17.341  0.2429  0.6141 -0.1676
  653MPD2    H5 9726   4.209   1.729  17.269 -1.1870 -1.1134 -0.9252
  653MPD2    N1 9727   4.343   2.048  17.627 -0.1696  0.0992 -0.3217
  653MPD2    H7 9728   4.313   2.110  17.553  0.1406 -0.7428 -1.1552
  654TMC3    C1 9729   4.210   1.528  17.161  0.3538  0.3433 -1.0000
  654TMC3    C2 9730   4.152   1.637  17.102  0.8693  0.2454 -0.3577
  654TMC3    C3 9731   4.170   1.650  16.969  0.0168 -0.2806  1.0627
  654TMC3    C4 9732   4.285   1.438  17.093 -0.6591 -0.3112  0.1652
  654TMC3    C5 9733   4.302   1.451  16.958  0.5730  0.7683  0.1240
  654TMC3    C6 9734   4.244   1.559  16.896  0.0818  0.1588  0.3965
  654TMC3     C 9735   4.237   1.532  17.307  0.2744 -0.4584  0.1285
  654TMC3     O 9736   4.283   1.434  17.365 -0.0278 -0.4999  0.4891
  654TMC3     H 9737   4.089   1.706  17.157 -0.4625 -0.4423 -1.0181
  654TMC3    H1 9738   4.335   1.361  17.150  0.4656  0.3889  0.1260
  654TMC3    H2 9739   4.253   1.581  16.790  2.1183  1.2611  0.7821
  654TMC3    C7 9740   4.316   1.333  16.877  0.1736  0.1181 -0.0644
  654TMC3    C8 9741   4.048   1.694  16.901  0.1671 -0.3255 -0.2515
  654TMC3    O1 9742   4.259   1.334  16.769  0.3231 -0.5051  0.0029
  654TMC3    O2 9743   4.003   1.804  16.931  0.4835  1.0418  0.0079
  655MPD2     C 9744   1.213   1.572  15.807 -0.2561 -0.0598  0.3608
  655MPD2    C1 9745   1.111   1.634  15.739  0.8878 -0.3778 -0.3777
  655MPD2    C2 9746   1.090   1.601  15.610 -0.2083 -0.9371 -0.4564
  655MPD2    C3 9747   1.175   1.510  15.545  0.6242 -0.1659 -0.1120
  655MPD2    C4 9748   1.276   1.458  15.618 -0.5168  0.2743  0.6705
  655MPD2    C5 9749   1.301   1.488  15.747  0.7484 -1.7037 -0.6581
  655MPD2     H 9750   1.011   1.649  15.553 -1.1328 -3.4125 -1.2860
  655MPD2    H1 9751   1.346   1.389  15.572 -0.1057 -0.8994  3.0370
  655MPD2    H2 9752   1.234   1.592  15.912 -0.5179  0.0319  0.3958
  655MPD2    H3 9753   1.382   1.436  15.797  0.7193 -1.7896 -0.6997
  655MPD2     N 9754   1.155   1.458  15.415 -0.3512 -0.8186  0.1188
  655MPD2    H5 9755   1.224   1.389  15.384  0.2210  1.2303 -3.2694
  655MPD2    N1 9756   1.025   1.726  15.803 -0.5624  0.0727  0.3204
  655MPD2    H7 9757   0.952   1.775  15.752  0.5099  0.1902 -1.1019
  656TMC3    C1 9758   0.959   1.873  15.979  0.1634  0.2813 -0.2552
  656TMC3    C2 9759   0.874   1.871  16.089 -0.6920 -0.4729 -0.4314
  656TMC3    C3 9760   0.780   1.963  16.108 -0.0293 -0.0836 -0.2204
  656TMC3    C4 9761   0.928   1.958  15.877 -0.1582  0.2184 -0.4320
  656TMC3    C5 9762   0.821   2.045  15.898 -0.7303  0.3860 -0.7950
  656TMC3    C6 9763   0.743   2.049  16.010  1.0806  0.9069  0.1732
  656TMC3     C 9764   1.025   1.749  15.944  0.7767  0.1062  0.0462
  656TMC3     O 9765   1.069   1.675  16.031 -0.7873  0.2230  0.1853
  656TMC3     H 9766   0.885   1.800  16.171  0.5562  0.1299 -0.0659
  656TMC3    H1 9767   0.980   1.966  15.782 -0.5805 -1.4143 -0.8146
  656TMC3    H2 9768   0.664   2.122  16.024 -0.7589 -0.5178 -2.7243
  656TMC3    C7 9769   0.790   2.129  15.783 -0.0222 -0.4024 -0.2010
  656TMC3    C8 9770   0.688   1.948  16.221  0.1110 -0.2007 -0.3440
  656TMC3    O1 9771   0.884   2.165  15.715 -0.1872 -0.5703 -0.1331
  656TMC3    O2 9772   0.677   1.844  16.285  0.4190 -0.2065  0.4124
  657TMC3    C1 9773   0.098   0.879  14.753 -0.6114 -0.5806 -0.0356
  657TMC3    C2 9774   0.102   0.930  14.875 -0.9692 -0.7644  0.7844
  657TMC3    C3 9775   0.052   1.058  14.897 -0.1260 -0.1647  0.4977
  657TMC3    C4 9776   0.041   0.944  14.649  0.2602 -0.4802  0.1364
  657TMC3    C5 9777   0.015   1.075  14.672  0.0536  0.0313  0.5278
  657TMC3    C6 9778   0.007   1.135  14.797 -0.3128  0.1065 -0.4891
  657TMC3     C 9779   0.141   0.748  14.722 -0.4835  0.0552  0.1059
  657TMC3     O 9780   0.091   0.679  14.635  0.2325  0.1442 -0.2985
  657TMC3     H 9781   0.143   0.862  14.948  1.8151  1.7923  1.6097
  657TMC3    H1 9782   0.042   0.890  14.555 -1.0876 -0.1185 -0.0842
  657TMC3    H2 9783   0.002   1.242  14.809 -0.1807  0.2724 -1.8775
  657TMC3    C7 9784   0.021   1.176  14.569  0.0694  0.7530  0.0028
  657TMC3    C8 9785   0.052   1.125  15.027 -0.0666  0.1859  0.1209
  657TMC3    O1 9786   4.681   1.274  14.593  0.6585 -0.7527 -0.9192
  657TMC3    O2 9787   4.714   1.223  15.039  0.4362 -0.3980 -0.2375
  658MPD2     C 9788   1.405   0.879  15.271  0.1750  0.4879 -0.0799
  658MPD2    C1 9789   1.355   0.949  15.159 -0.2082 -0.1308  0.0694
  658MPD2    C2 9790   1.427   0.944  15.044 -0.3412  0.3707  0.2828
  658MPD2    C3 9791   1.548   0.871  15.042 -0.0339  0.3044  0.1332
  658MPD2    C4 9792   1.588   0.784  15.147 -0.6745  0.2501  0.3066
  658MPD2    C5 9793   1.514   0.790  15.265  0.4459  0.0584  0.2794
  658MPD2     H 9794   1.410   1.022  14.971 -0.4053  2.3589  2.4372
  658MPD2    H1 9795   1.677   0.724  15.137 -0.8291  0.3321 -1.5741
  658MPD2    H2 9796   1.343   0.888  15.360 -0.2122  1.2801 -0.4303
  658MPD2    H3 9797   1.531   0.727  15.352 -0.7650 -1.4619 -0.5926
  658MPD2     N 9798   1.609   0.880  14.909  0.2450  0.8014  0.2222
  658MPD2    H5 9799   1.567   0.927  14.829 -0.3097  1.6087  0.9970
  658MPD2    N1 9800   1.250   1.043  15.175  0.2067  0.3220  0.0069
  658MPD2    H7 9801   1.218   1.062  15.270  0.8939  0.2275  0.2633
  659TMC3    C1 9802   1.090   1.209  15.098 -0.7936  0.0601  0.8688
  659TMC3    C2 9803   1.116   1.293  15.206  0.0295 -0.6254 -0.2093
  659TMC3    C3 9804   1.056   1.417  15.202 -0.1241  0.0044 -0.9352
  659TMC3    C4 9805   1.024   1.252  14.987  0.2879 -0.4316 -0.2629
  659TMC3    C5 9806   0.962   1.372  14.995 -0.2387  0.0223 -1.0724
  659TMC3    C6 9807   0.984   1.456  15.104  0.1174 -0.3512  0.5559
  659TMC3     C 9808   1.182   1.100  15.067 -0.2037 -0.3274 -0.1997
  659TMC3     O 9809   1.187   1.068  14.950 -0.3569  0.4060  0.0343
  659TMC3     H 9810   1.177   1.257  15.287 -0.3632 -0.3982  0.1867
  659TMC3    H1 9811   1.011   1.193  14.896 -2.3690  0.5959 -0.5455
  659TMC3    H2 9812   0.946   1.557  15.103 -0.4179 -0.5793 -1.5193
  659TMC3    C7 9813   0.831   1.388  14.935 -0.5512  0.1954 -0.2208
  659TMC3    C8 9814   1.054   1.495  15.327 -0.4988  0.2445  0.2349
  659TMC3    O1 9815   0.746   1.454  14.996 -0.3409 -0.1753 -0.7457
  659TMC3    O2 9816   0.978   1.593  15.331 -0.4984 -0.2276 -0.4027
  660MPD2     C 9817   3.618   0.332  12.365 -0.0313  0.3952  0.2999
  660MPD2    C1 9818   3.555   0.427  12.440 -0.3021  0.0128  0.1168
  660MPD2    C2 9819   3.591   0.454  12.570  0.0070 -0.4459  0.3700
  660MPD2    C3 9820   3.704   0.398  12.614  0.4546 -0.6580  0.1413
  660MPD2    C4 9821   3.775   0.318  12.530 -0.0506 -0.7395  0.1520
  660MPD2    C5 9822   3.733   0.275  12.413  0.5327 -0.2041 -0.2265
  660MPD2     H 9823   3.537   0.523  12.633  0.4428  0.6487 -0.4473
  660MPD2    H1 9824   3.871   0.271  12.548 -0.9424 -1.8994  1.9088
  660MPD2    H2 9825   3.588   0.307  12.264  1.4530  0.4899 -0.1728
  660MPD2    H3 9826   3.791   0.205  12.353  1.5101 -0.2327  0.7628
  660MPD2     N 9827   3.771   0.444  12.728  0.1671 -0.1027 -0.2298
  660MPD2    H5 9828   3.853   0.394  12.760 -0.0679  0.5349  1.3981
  660MPD2    N1 9829   3.439   0.498  12.386  0.4689 -0.1874  0.1268
  660MPD2    H7 9830   3.384   0.556  12.448 -1.0343 -3.3265  1.7124
  661TMC3    C1 9831   3.277   0.590  12.248 -0.5076  0.7935 -0.5007
  661TMC3    C2 9832   3.254   0.649  12.124 -0.2570  0.2092  0.2465
  661TMC3    C3 9833   3.127   0.657  12.069  0.5172  0.5872  0.2687
  661TMC3    C4 9834   3.169   0.536  12.310 -0.1786 -0.0085  0.6739
  661TMC3    C5 9835   3.048   0.539  12.248 -0.4457  0.1276 -0.9844
  661TMC3    C6 9836   3.023   0.605  12.131 -0.5653  0.1617 -0.1375
  661TMC3     C 9837   3.408   0.519  12.253 -0.1891  0.5355  0.3094
  661TMC3     O 9838   3.463   0.492  12.145  0.3117 -0.4096  0.2402
  661TMC3     H 9839   3.340   0.680  12.066 -0.2307 -0.9965 -0.3570
  661TMC3    H1 9840   3.188   0.484  12.404 -2.0339  0.0779  1.0970
  661TMC3    H2 9841   2.924   0.609  12.087  0.0692  0.1147 -1.5495
  661TMC3    C7 9842   2.943   0.478  12.331 -0.0375 -0.3422 -0.4107
  661TMC3    C8 9843   3.128   0.673  11.922 -0.1585 -0.4592 -0.2414
  661TMC3    O1 9844   2.946   0.501  12.451  0.1263  0.2720  0.5666
  661TMC3    O2 9845   3.190   0.767  11.874 -0.2089  0.2763 -0.4241
  662MPD2     C 9846   4.316   4.293  17.672 -0.4003 -1.1231  0.2064
  662MPD2    C1 9847   4.304   4.360   0.054 -0.1839  0.2238 -0.0987
  662MPD2    C2 9848   4.236   4.475   0.066 -0.7919  0.8576  0.7091
  662MPD2    C3 9849   4.186   4.529  17.688 -0.1840  0.3787 -0.3946
  662MPD2    C4 9850   4.206   4.472  17.563  0.1582  0.2054  0.0616
  662MPD2    C5 9851   4.276   4.351  17.559  0.1483 -0.2567  0.1483
  662MPD2     H 9852   4.217   4.511   0.166 -0.9289  1.5795  0.4220
  662MPD2    H1 9853   4.171   4.504  17.465  1.0649  3.3168  0.7467
  662MPD2    H2 9854   4.355   4.193  17.658  2.1650 -0.3655  1.9678
  662MPD2    H3 9855   4.287   4.301  17.464 -0.1382  0.1274 -0.0888
  662MPD2     N 9856   4.110   4.648  17.681  0.8513  0.5932  0.0121
  662MPD2    H5 9857   4.096   4.684  17.587  1.7118  1.9918  0.4158
  662MPD2    N1 9858   4.351   4.301   0.177  0.4693 -0.4059 -0.0462
  662MPD2    H7 9859   4.334   4.354   0.262  3.0485  0.4019 -0.0321
  663TMC3    C1 9860   4.387   4.126   0.335  0.8290 -0.6014 -0.0529
  663TMC3    C2 9861   4.349   4.207   0.435 -0.9148 -0.0042  0.1952
  663TMC3    C3 9862   4.328   4.154   0.559  0.0053 -0.1918  0.2380
  663TMC3    C4 9863   4.372   3.987   0.352 -0.0615 -1.0080  0.5062
  663TMC3    C5 9864   4.319   3.934   0.466  0.3274  0.3000  0.0291
  663TMC3    C6 9865   4.303   4.021   0.569  0.1064 -0.0396 -0.5883
  663TMC3     C 9866   4.384   4.166   0.194 -0.1057 -0.1487 -0.2162
  663TMC3     O 9867   4.393   4.077   0.109 -0.3642  0.1822 -0.5565
  663TMC3     H 9868   4.366   4.314   0.432  2.0506 -0.4877 -0.2015
  663TMC3    H1 9869   4.394   3.913   0.276 -0.8322 -1.6105  0.8661
  663TMC3    H2 9870   4.267   3.974   0.661 -1.3195  1.7703 -0.2287
  663TMC3    C7 9871   4.248   3.808   0.481  0.5447  0.1835 -0.0952
  663TMC3    C8 9872   4.232   4.231   0.641 -0.3747 -0.4913 -0.0007
  663TMC3    O1 9873   4.214   3.776   0.589  0.1323 -0.1592  0.5552
  663TMC3    O2 9874   4.272   4.325   0.702 -0.9014  0.1595 -0.3070
  664MPD2     C 9875   2.370   3.040  17.413 -0.3261 -0.0990 -0.1727
  664MPD2    C1 9876   2.413   3.123  17.513 -0.1685 -0.5064  1.2655
  664MPD2    C2 9877   2.354   3.106  17.640 -0.3131 -0.1252  0.2874
  664MPD2    C3 9878   2.243   3.029  17.660 -0.5844  0.4962  0.4111
  664MPD2    C4 9879   2.197   2.953  17.555 -0.7244  0.2474  0.1072
  664MPD2    C5 9880   2.261   2.959  17.433  0.0921 -0.1956 -0.3457
  664MPD2     H 9881   2.393   3.169  17.719  0.4543 -0.5089  0.2134
  664MPD2    H1 9882   2.107   2.892  17.556 -0.4226 -0.1575  2.3806
  664MPD2    H2 9883   2.411   3.041  17.312 -2.5364  1.1159 -1.0811
  664MPD2    H3 9884   2.216   2.904  17.351  1.8382 -2.2330  0.0422
  664MPD2     N 9885   2.185   3.036   0.049 -0.0074  0.0053  0.1144
  664MPD2    H5 9886   2.239   3.082   0.121  0.0144 -1.0357  0.7593
  664MPD2    N1 9887   2.519   3.218  17.497 -1.0857  0.8306  0.7283
  664MPD2    H7 9888   2.530   3.284  17.573 -3.6150  1.5512  0.4419
  665TMC3    C1 9889   2.035   2.997   0.222 -0.5990  0.3806 -0.4246
  665TMC3    C2 9890   1.903   3.028   0.247  0.5777 -0.3164 -0.3884
  665TMC3    C3 9891   1.881   3.081   0.368  0.3987  0.5722  0.3440
  665TMC3    C4 9892   2.138   3.035   0.297  0.3347  0.4551 -0.7337
  665TMC3    C5 9893   2.112   3.098   0.414 -0.5253 -0.0246 -0.0942
  665TMC3    C6 9894   1.982   3.129   0.444 -0.2114  0.2238  0.0100
  665TMC3     C 9895   2.063   2.979   0.084  0.1239  0.1718  0.0790
  665TMC3     O 9896   1.967   2.955   0.004 -0.1768 -0.6983 -0.5846
  665TMC3     H 9897   1.828   2.979   0.186  1.2520  0.1698 -1.5926
  665TMC3    H1 9898   2.235   2.997   0.268 -0.2227 -0.7853 -0.9646
  665TMC3    H2 9899   1.965   3.182   0.537  0.1075 -0.4449  0.4479
  665TMC3    C7 9900   2.230   3.145   0.478 -0.2329  0.0685 -0.6635
  665TMC3    C8 9901   1.751   3.133   0.389  0.5549  0.1815 -0.6361
  665TMC3    O1 9902   2.334   3.106   0.425  0.4292 -0.0376  0.3209
  665TMC3    O2 9903   1.737   3.156   0.506  0.2642 -0.2545  0.0627
  666TMC3    C1 9904   1.788   4.187   9.552  0.1832  0.8074  0.2547
  666TMC3    C2 9905   1.834   4.073   9.615 -0.5689  0.3305 -0.2239
  666TMC3    C3 9906   1.849   4.086   9.750 -0.2495  0.0942 -0.7545
  666TMC3    C4 9907   1.761   4.310   9.616  0.4351 -0.1662  0.0025
  666TMC3    C5 9908   1.799   4.318   9.751 -0.3081  0.5178 -0.0406
  666TMC3    C6 9909   1.835   4.202   9.819  0.8385  0.3346 -0.5551
  666TMC3     C 9910   1.750   4.167   9.411 -0.0790 -0.6300  0.1409
  666TMC3     O 9911   1.776   4.254   9.333  0.5239 -0.1908 -0.3196
  666TMC3     H 9912   1.862   3.982   9.562 -0.1022  0.0641  0.4870
  666TMC3    H1 9913   1.727   4.394   9.555  0.0953 -0.9656 -0.9267
  666TMC3    H2 9914   1.883   4.213   9.916  0.6733  2.2325 -0.6950
  666TMC3    C7 9915   1.707   4.390   9.836 -0.2108  0.2702  0.2430
  666TMC3    C8 9916   1.868   3.960   9.823 -0.3681 -0.4681 -0.2042
  666TMC3    O1 9917   1.681   4.342   9.945  0.0361 -0.0853  0.0816
  666TMC3    O2 9918   1.879   3.856   9.755  0.0854  0.4453 -0.3915
  667MPD2     C 9919   3.004   3.073  14.492  0.3714 -0.3888 -0.0213
  667MPD2    C1 9920   3.016   3.058  14.632  0.5396 -0.3685 -0.8396
  667MPD2    C2 9921   2.964   2.942  14.691  0.3622 -0.0147  0.2208
  667MPD2    C3 9922   2.891   2.852  14.610  0.0748 -0.5622 -0.3158
  667MPD2    C4 9923   2.881   2.872  14.473  0.2563  0.0889 -0.8953
  667MPD2    C5 9924   2.935   2.986  14.418 -0.1378  0.0741 -0.6301
  667MPD2     H 9925   2.961   2.929  14.799 -1.6819 -2.5717 -0.1586
  667MPD2    H1 9926   2.826   2.804  14.409 -0.0650  0.7097 -1.2744
  667MPD2    H2 9927   3.039   3.166  14.450  0.7296 -0.6532 -0.3141
  667MPD2    H3 9928   2.911   3.006  14.314  0.0180 -2.2106 -1.1106
  667MPD2     N 9929   2.804   2.748  14.661 -0.2025  0.2074 -0.7329
  667MPD2    H5 9930   2.745   2.691  14.600 -0.3136  0.1795 -0.6009
  667MPD2    N1 9931   3.068   3.157  14.718  0.1796  0.3785  0.3986
  667MPD2    H7 9932   3.048   3.133  14.814  1.1226  0.7259  0.6784
  668TMC3    C1 9933   3.166   3.346  14.806 -0.4266  0.3422 -0.0940
  668TMC3    C2 9934   3.202   3.475  14.786  0.1019 -0.1641  0.1934
  668TMC3    C3 9935   3.211   3.555  14.895  0.2340 -0.9756 -0.2217
  668TMC3    C4 9936   3.140   3.295  14.932 -0.0223  0.0980  0.4030
  668TMC3    C5 9937   3.145   3.380  15.034  0.2576 -0.2087 -0.8128
  668TMC3    C6 9938   3.181   3.510  15.020 -0.4791 -0.1321 -0.8321
  668TMC3     C 9939   3.128   3.276  14.683  0.2612 -0.1051 -0.2110
  668TMC3     O 9940   3.149   3.336  14.575  0.0770  0.6904  0.2725
  668TMC3     H 9941   3.227   3.511  14.687  0.6107 -1.2243 -0.0700
  668TMC3    H1 9942   3.140   3.188  14.944  1.4113  0.0611  0.0953
  668TMC3    H2 9943   3.204   3.569  15.107  0.4651 -2.1053  0.2619
  668TMC3    C7 9944   3.113   3.342  15.172  0.3627  0.7322 -0.1647
  668TMC3    C8 9945   3.260   3.690  14.894  0.9902 -0.0917 -0.0697
  668TMC3    O1 9946   3.171   3.410  15.254  0.4997 -0.6460 -0.5517
  668TMC3    O2 9947   3.269   3.758  14.993 -0.1411  0.2514 -0.3622
  669TMC3    C1 9948   1.066   2.892  14.955  0.5061  0.3171 -0.4058
  669TMC3    C2 9949   0.949   2.921  14.891 -0.1341 -0.2618 -0.0012
  669TMC3    C3 9950   0.962   3.032  14.814  0.1772 -0.3888  0.1904
  669TMC3    C4 9951   1.184   2.955  14.939 -0.7373 -0.0567  0.4155
  669TMC3    C5 9952   1.193   3.058  14.856 -0.3087 -0.3528 -0.1146
  669TMC3    C6 9953   1.082   3.089  14.780 -0.3487  0.0557 -0.4494
  669TMC3     C 9954   1.058   2.789  15.060 -0.6746 -0.2829 -0.4193
  669TMC3     O 9955   0.947   2.784  15.112 -0.8516  0.3437 -0.4258
  669TMC3     H 9956   0.851   2.881  14.908 -0.3593 -0.8933 -2.7550
  669TMC3    H1 9957   1.266   2.927  15.004 -0.2358 -1.1736 -0.6959
  669TMC3    H2 9958   1.087   3.178  14.717  0.4868 -0.2812 -0.8519
  669TMC3    C7 9959   1.322   3.116  14.817 -0.5750  0.1027 -0.5358
  669TMC3    C8 9960   0.856   3.043  14.715  0.1679 -0.0531 -0.8540
  669TMC3    O1 9961   1.409   3.108  14.908 -0.3041 -0.0184 -0.5578
  669TMC3    O2 9962   0.802   2.941  14.676  0.7527  0.3056  0.1573
  670MPD2     C 9963   3.906   0.989  14.180  0.2015  0.6474 -0.2773
  670MPD2    C1 9964   3.949   0.888  14.097 -0.5220 -0.4291  0.0960
  670MPD2    C2 9965   3.964   0.756  14.148  0.1022  0.1118 -0.6224
  670MPD2    C3 9966   3.919   0.721  14.277 -0.2058 -0.1402 -0.0394
  670MPD2    C4 9967   3.858   0.822  14.352  0.7314 -0.0935  0.1341
  670MPD2    C5 9968   3.857   0.953  14.305 -0.0860  0.4277 -0.0197
  670MPD2     H 9969   4.003   0.673  14.090 -0.5859 -0.7637  0.1580
  670MPD2    H1 9970   3.805   0.803  14.444  3.1008  0.4443  1.5944
  670MPD2    H2 9971   3.903   1.094  14.154  0.5218  0.6947 -0.1337
  670MPD2    H3 9972   3.828   1.028  14.378  0.0966 -1.6404  2.1765
  670MPD2     N 9973   3.930   0.591  14.330 -0.1215 -0.4509 -0.1248
  670MPD2    H5 9974   3.974   0.526  14.266 -1.9299 -0.8262 -0.9971
  670MPD2    N1 9975   3.989   0.930  13.970 -0.7137 -0.2040 -0.1166
  670MPD2    H7 9976   3.986   1.030  13.958 -1.3790 -0.2076  0.0589
  671TMC3    C1 9977   3.967   0.431  14.493 -0.2733  0.3630  0.2292
  671TMC3    C2 9978   4.084   0.419  14.558 -0.0250  0.0363 -0.4789
  671TMC3    C3 9979   4.164   0.312  14.536 -0.2319 -0.7000  0.6142
  671TMC3    C4 9980   3.920   0.333  14.413 -0.1457  0.6767 -0.0979
  671TMC3    C5 9981   3.991   0.221  14.402  0.2765 -0.1498 -0.7995
  671TMC3    C6 9982   4.123   0.206  14.452  0.0410 -0.2921 -0.0988
  671TMC3     C 9983   3.925   0.564  14.469 -0.2328 -0.2836  0.1676
  671TMC3     O 9984   3.927   0.639  14.563 -0.1364  1.0576  0.5324
  671TMC3     H 9985   4.128   0.507  14.603  1.6668 -0.7411 -0.6407
  671TMC3    H1 9986   3.822   0.344  14.369  0.3734  1.9783 -0.9438
  671TMC3    H2 9987   4.185   0.120  14.435 -1.9720 -1.8286  0.3556
  671TMC3    C7 9988   3.967   0.149  14.282 -0.7309  0.2338  0.5128
  671TMC3    C8 9989   4.305   0.328  14.585 -0.2200  0.6038  1.0025
  671TMC3    O1 9990   4.059   0.102  14.215  0.3867  0.2069 -0.0671
  671TMC3    O2 9991   4.323   0.395  14.687 -0.4335 -0.6672 -0.6756
  672MPD2     C 9992   4.501   1.732   1.028 -0.8119  0.2058 -0.0004
  672MPD2    C1 9993   4.618   1.707   0.961  0.0002  0.2400  0.1683
  672MPD2    C2 9994   4.725   1.803   0.958 -0.4918 -0.1797  0.8945
  672MPD2    C3 9995   4.706   1.929   1.021 -0.4379  0.1790  0.3196
  672MPD2    C4 9996   4.584   1.948   1.079  0.2901  0.8783 -0.6526
  672MPD2    C5 9997   4.489   1.849   1.093 -0.4900  0.2385 -0.2536
  672MPD2     H 9998   0.077   1.780   0.900 -0.3020  3.1300 -0.1449
  672MPD2    H1 9999   4.554   2.039   1.130  5.3252  0.5905  2.8498
  672MPD2    H210000   4.416   1.664   1.027  0.9747 -2.0496  2.1683
  672MPD2    H310001   4.399   1.873   1.148 -2.9133 -1.3315 -3.5442
  672MPD2     N10002   0.057   2.036   1.028  0.2045 -0.2924 -0.2735
  672MPD2    H510003   0.045   2.116   1.088 -1.4431 -0.6845 -0.0840
  672MPD2    N110004   4.637   1.585   0.887  0.4775  0.1362 -0.0877
  672MPD2    H710005   4.723   1.576   0.834  2.0567  0.3682  2.4327
  673TMC3    C110006   4.600   1.380   0.787 -1.1176 -1.0621  0.6561
  673TMC3    C210007   4.735   1.351   0.787 -0.6775 -0.5514 -0.0297
  673TMC3    C310008   0.041   1.293   0.671  0.8687  0.4982 -0.0404
  673TMC3    C410009   4.513   1.344   0.691  0.0859 -0.0668  0.0405
  673TMC3    C510010   4.566   1.296   0.578  0.1902  0.4836  0.8626
  673TMC3    C610011   4.693   1.256   0.572  0.5785  0.8036  0.3545
  673TMC3     C10012   4.549   1.476   0.875 -0.8341 -0.0462 -0.7851
  673TMC3     O10013   4.438   1.454   0.923 -0.3927  0.0023  0.0787
  673TMC3     H10014   0.067   1.380   0.867 -0.6926 -1.4068  0.2962
  673TMC3    H110015   4.409   1.374   0.696 -0.6539 -2.6456 -0.0566
  673TMC3    H210016   4.732   1.220   0.478 -0.4800 -2.1978  1.0799
  673TMC3    C710017   4.490   1.285   0.463 -1.0375  0.1998 -1.0058
  673TMC3    C810018   0.176   1.254   0.649 -0.1593  0.4315 -0.0374
  673TMC3    O110019   4.525   1.196   0.383 -0.2138  0.0294 -0.5333
  673TMC3    O210020   0.202   1.187   0.556  0.2474 -0.0673  0.0891
  674MPD2     C10021   4.039   1.052  16.848  0.2806  0.3310 -0.8948
  674MPD2    C110022   4.085   0.960  16.935  0.1039  0.5182  0.6783
  674MPD2    C210023   4.060   0.991  17.068  0.3528 -1.0323 -0.1746
  674MPD2    C310024   4.009   1.115  17.106 -0.0414 -0.0045 -0.0775
  674MPD2    C410025   3.974   1.207  17.011  0.6954  0.0445 -0.2401
  674MPD2    C510026   3.991   1.176  16.883 -0.4144  0.4262 -0.5587
  674MPD2     H10027   4.075   0.919  17.148  0.3614 -1.1636 -0.2956
  674MPD2    H110028   3.941   1.308  17.033  1.7976  0.8072 -2.0200
  674MPD2    H210029   4.052   1.019  16.746 -1.2638 -2.6365 -0.1667
  674MPD2    H310030   3.962   1.242  16.803  1.6332  0.5296 -1.2153
  674MPD2     N10031   3.995   1.140  17.246 -0.0303 -0.1125 -0.3008
  674MPD2    H510032   4.000   1.059  17.307 -2.7220 -1.0246 -1.3162
  674MPD2    N110033   4.161   0.854  16.885 -0.5717 -0.0293 -0.1114
  674MPD2    H710034   4.154   0.839  16.785 -0.4559  0.3218 -0.1732
  675TMC3    C110035   4.244   0.747  17.094 -0.2064  0.4313  0.3344
  675TMC3    C210036   4.236   0.625  17.159  0.3415  0.0001 -0.2439
  675TMC3    C310037   4.264   0.619  17.294  0.5398  0.1649 -0.2317
  675TMC3    C410038   4.299   0.856  17.147  0.4738 -0.7319 -0.5895
  675TMC3    C510039   4.323   0.850  17.283 -0.8822 -0.4439  0.1968
  675TMC3    C610040   4.305   0.733  17.354 -0.5704  0.3493  0.1937
  675TMC3     C10041   4.211   0.741  16.949 -0.8336  0.7815  0.0596
  675TMC3     O10042   4.229   0.630  16.889 -0.1495 -0.3605 -0.7496
  675TMC3     H10043   4.194   0.534  17.116 -1.9683  1.6108 -1.3701
  675TMC3    H110044   4.319   0.946  17.090  1.2158 -1.4755 -1.5124
  675TMC3    H210045   4.346   0.727  17.454  2.5339  1.3875 -1.0200
  675TMC3    C710046   4.406   0.957  17.345  0.4971  0.3112 -0.6399
  675TMC3    C810047   4.282   0.495  17.366 -0.3092 -0.3849  0.2629
  675TMC3    O110048   4.426   1.053  17.270 -0.1908 -0.2118 -0.2467
  675TMC3    O210049   4.281   0.394  17.296  0.2247  0.5134 -0.0186
  676MPD2     C10050   2.086   4.133  11.108 -0.0920 -0.7446 -0.3845
  676MPD2    C110051   2.059   4.036  11.210  0.6141 -0.4248 -0.0959
  676MPD2    C210052   2.162   3.952  11.243 -0.4199  0.4043 -0.4239
  676MPD2    C310053   2.283   3.956  11.179 -0.5965 -0.1991 -0.4095
  676MPD2    C410054   2.310   4.050  11.081  0.8161  0.0644  0.1043
  676MPD2    C510055   2.211   4.142  11.056  0.5977 -0.6280 -0.5245
  676MPD2     H10056   2.139   3.877  11.318  0.3353 -0.1889 -0.7831
  676MPD2    H110057   2.410   4.060  11.041  0.1057  3.3374 -0.8710
  676MPD2    H210058   2.015   4.209  11.075 -0.4821 -0.3067  1.4652
  676MPD2    H310059   2.229   4.234  11.002 -0.7284  0.2863  0.5766
  676MPD2     N10060   2.381   3.857  11.209 -0.2220 -0.2407  0.6050
  676MPD2    H510061   2.457   3.842  11.143 -1.2114  3.0134 -1.2536
  676MPD2    N110062   1.943   4.028  11.281  0.7442 -0.1011  0.0451
  676MPD2    H710063   1.953   3.968  11.362  1.1419  0.1984  0.2170
  677TMC3    C110064   1.736   4.105  11.369 -0.6237 -0.2002  0.3044
  677TMC3    C210065   1.746   3.999  11.454  0.1210 -0.4340  0.5608
  677TMC3    C310066   1.696   4.018  11.587 -0.0726  0.2300 -0.2430
  677TMC3    C410067   1.698   4.226  11.416 -0.6150  0.1719  0.3868
  677TMC3    C510068   1.668   4.239  11.552 -0.4101  0.1628  0.4253
  677TMC3    C610069   1.657   4.138  11.635  0.8196  0.3385 -0.5086
  677TMC3     C10070   1.827   4.105  11.261 -0.2870 -0.2258 -0.7858
  677TMC3     O10071   1.802   4.182  11.168  0.0767 -0.5225 -0.1487
  677TMC3     H10072   1.796   3.907  11.426  1.1154 -0.9731  4.0611
  677TMC3    H110073   1.709   4.310  11.349 -2.2189 -0.3551 -0.5357
  677TMC3    H210074   1.613   4.152  11.733  1.0931 -2.0559 -0.0528
  677TMC3    C710075   1.638   4.374  11.601 -0.2072 -0.6828 -0.5538
  677TMC3    C810076   1.700   3.904  11.678 -0.7484  0.0774  0.8057
  677TMC3    O110077   1.540   4.375  11.679  0.1046  0.0624  0.2731
  677TMC3    O210078   1.771   3.807  11.651  0.0776  0.0894 -0.0293
  678MPD2     C10079   3.430   3.660   1.631 -0.8654  0.5446  0.5616
  678MPD2    C110080   3.371   3.558   1.555  0.4405  0.1175  0.2651
  678MPD2    C210081   3.244   3.574   1.519  0.2866 -0.0691  0.2820
  678MPD2    C310082   3.188   3.703   1.529 -0.2570  0.1293 -0.0009
  678MPD2    C410083   3.252   3.805   1.593 -1.2075 -0.3846  0.6045
  678MPD2    C510084   3.366   3.778   1.657 -0.7961  0.3089  0.2514
  678MPD2     H10085   3.194   3.491   1.472  1.9811 -0.4187 -0.8706
  678MPD2    H110086   3.212   3.903   1.615  0.2079  0.3159  0.0413
  678MPD2    H210087   3.533   3.656   1.665  0.0058 -0.6761 -2.2104
  678MPD2    H310088   3.414   3.846   1.727  2.0516 -1.0039 -0.3857
  678MPD2     N10089   3.071   3.713   1.453  0.4522 -0.2615 -0.8956
  678MPD2    H510090   3.030   3.625   1.426  1.1806 -0.6262 -0.8274
  678MPD2    N110091   3.445   3.451   1.492  1.0727  0.0879  0.4385
  678MPD2    H710092   3.395   3.392   1.426  0.7609  1.1828 -0.3037
  679TMC3    C110093   3.774   3.317   1.225  0.6289  0.2500 -0.1476
  679TMC3    C210094   3.748   3.356   1.354  0.4448  0.2552 -1.1264
  679TMC3    C310095   3.627   3.327   1.413  0.0023 -0.1471  0.4223
  679TMC3    C410096   3.685   3.241   1.154 -0.7595  0.7462 -0.1167
  679TMC3    C510097   3.564   3.210   1.219  0.2938  0.7597 -0.6552
  679TMC3    C610098   3.531   3.259   1.345 -0.4091 -0.2542  0.5497
  679TMC3     C10099   3.898   3.377   1.158  0.4584 -1.0454 -0.9747
  679TMC3     O10100   3.961   3.306   1.091  0.7210  0.2234 -0.0847
  679TMC3     H10101   3.812   3.425   1.408 -1.7885  0.6023  1.1141
  679TMC3    H110102   3.703   3.214   1.050 -0.6897 -1.1856  0.3971
  679TMC3    H210103   3.437   3.229   1.389 -0.8597  1.3208  0.6455
  679TMC3    C710104   3.446   3.179   1.138  0.7961  0.0652 -0.1399
  679TMC3    C810105   3.581   3.419   1.514  0.1002 -0.2592  0.0780
  679TMC3    O110106   3.362   3.096   1.170 -0.2105  0.3384  0.2187
  679TMC3    O210107   3.669   3.489   1.566 -0.1014 -0.2957 -0.2974
  680MPD2     C10108   3.628   2.862  13.996 -0.5198  0.2989 -0.7857
  680MPD2    C110109   3.711   2.785  14.074  0.0406  0.3131  0.5026
  680MPD2    C210110   3.769   2.839  14.183 -0.4675  0.2502 -0.3602
  680MPD2    C310111   3.752   2.972  14.220  0.2564  0.0933 -1.1001
  680MPD2    C410112   3.667   3.049  14.138 -0.2068  0.3011 -0.1658
  680MPD2    C510113   3.607   2.993  14.028 -0.3816  0.5906 -0.3976
  680MPD2     H10114   3.839   2.778  14.238 -3.1222 -3.0571 -0.6764
  680MPD2    H110115   3.665   3.156  14.151  1.0695  0.0498  1.9369
  680MPD2    H210116   3.569   2.825  13.912 -3.0799 -0.4356  1.3402
  680MPD2    H310117   3.543   3.052  13.964 -1.8960 -0.5248  0.0794
  680MPD2     N10118   3.834   3.037  14.318 -0.4986 -1.0695  0.0682
  680MPD2    H510119   3.812   3.136  14.323 -0.6597 -1.0841 -0.3139
  680MPD2    N110120   3.734   2.646  14.057 -0.0230 -0.7265  0.7321
  680MPD2    H710121   3.795   2.599  14.122  1.9894 -0.2717 -0.7955
  681TMC3    C110122   3.716   2.427  13.952 -0.4881 -1.1848 -0.4428
  681TMC3    C210123   3.692   2.360  14.065  0.2051 -0.3065  0.3279
  681TMC3    C310124   3.686   2.223  14.070  0.0711  0.3002  0.1768
  681TMC3    C410125   3.744   2.366  13.836  0.2985 -0.1971 -0.3479
  681TMC3    C510126   3.732   2.229  13.840  0.4385 -0.7370 -0.5567
  681TMC3    C610127   3.706   2.156  13.951  0.6960  0.3127  0.2758
  681TMC3     C10128   3.700   2.576  13.943 -0.3697 -0.5422 -0.2590
  681TMC3     O10129   3.680   2.627  13.833  0.6931  0.1936  0.4078
  681TMC3     H10130   3.651   2.414  14.150  3.1236 -0.3477  1.7717
  681TMC3    H110131   3.760   2.416  13.741  0.7482  1.0921  0.4127
  681TMC3    H210132   3.724   2.049  13.948  1.1728  0.4459 -1.2621
  681TMC3    C710133   3.750   2.146  13.724  0.2327 -0.5492 -0.6570
  681TMC3    C810134   3.703   2.143  14.190 -0.3365 -0.2709  0.3459
  681TMC3    O110135   3.678   2.048  13.702 -0.2550  0.7861  0.6703
  681TMC3    O210136   3.715   2.021  14.184 -0.2967 -0.2543 -0.1090
  682MPD2     C10137   0.960   4.515  10.886  0.1670 -0.6182  0.0221
  682MPD2    C110138   0.948   4.413  10.800  0.5642  0.3427 -0.2404
  682MPD2    C210139   0.923   4.286  10.853  0.6113  0.1077  0.0616
  682MPD2    C310140   0.907   4.271  10.989 -0.3437  0.0198  0.0924
  682MPD2    C410141   0.937   4.373  11.073  0.4449 -0.0881  0.4288
  682MPD2    C510142   0.953   4.497  11.023  0.8889 -0.1292  0.1373
  682MPD2     H10143   0.890   4.207  10.786  0.9120  0.1831 -0.1798
  682MPD2    H110144   0.933   4.366  11.181  0.1958  1.0543  0.4932
  682MPD2    H210145   0.992   4.611  10.846 -0.8165  0.4718  1.8959
  682MPD2    H310146   0.978   4.587  11.079 -0.2277  0.8212 -0.8760
  682MPD2     N10147   0.903   4.140  11.051  0.5093  0.7700 -0.3488
  682MPD2    H510148   0.934   4.142  11.148  0.6488 -0.0274 -0.3825
  682MPD2    N110149   0.967   4.427  10.661  0.2607  0.0331  0.4157
  682MPD2    H710150   0.973   4.338  10.613  1.5472  1.4784 -2.0995
  683TMC3    C110151   0.974   3.852  11.297 -0.2968  0.3790  0.4227
  683TMC3    C210152   1.041   3.745  11.247  0.4867 -0.0766  0.4273
  683TMC3    C310153   1.012   3.710  11.112  0.2013  0.2677  0.2471
  683TMC3    C410154   0.904   3.946  11.216  0.3998  0.2538  0.3030
  683TMC3    C510155   0.897   3.908  11.081  0.1097  0.2545  0.0789
  683TMC3    C610156   0.950   3.793  11.026 -0.7573 -0.1072 -0.2943
  683TMC3     C10157   0.987   3.886  11.440 -0.1015 -0.8173 -0.1722
  683TMC3     O10158   0.963   4.002  11.469  0.3756 -0.2683  0.1958
  683TMC3     H10159   1.103   3.683  11.311  2.1710  2.0208  0.8268
  683TMC3    H110160   0.857   4.035  11.257  0.0225  0.4344 -0.5386
  683TMC3    H210161   0.917   3.766  10.927 -0.4336  0.2429 -0.4978
  683TMC3    C710162   0.885   4.021  10.990 -0.1840  0.9250 -0.3514
  683TMC3    C810163   1.090   3.614  11.045 -0.5364  0.0651  0.1377
  683TMC3    O110164   0.858   3.996  10.873 -0.4905  0.4369  0.2745
  683TMC3    O210165   1.089   3.622  10.925 -0.2200 -0.3533 -0.3082
  684MPD2     C10166   4.133   3.527  16.536 -0.4771 -0.1677 -0.0366
  684MPD2    C110167   4.158   3.524  16.405 -0.7449 -0.1159  0.0109
  684MPD2    C210168   4.205   3.639  16.337  0.7191 -0.3542  0.1272
  684MPD2    C310169   4.240   3.749  16.417 -0.4244 -0.3749  0.2036
  684MPD2    C410170   4.227   3.745  16.550  0.6254  0.6069  0.0422
  684MPD2    C510171   4.173   3.632  16.609  0.7771  0.2086 -0.0683
  684MPD2     H10172   4.219   3.635  16.230 -1.2245 -1.0598 -0.0911
  684MPD2    H110173   4.261   3.815  16.625 -1.0702  0.5538  0.8455
  684MPD2    H210174   4.100   3.440  16.591  1.1305 -0.6120  0.2227
  684MPD2    H310175   4.175   3.616  16.716 -0.6610 -0.8898 -0.2091
  684MPD2     N10176   4.296   3.867  16.372 -0.1606 -0.6809 -0.1112
  684MPD2    H510177   4.336   3.930  16.440 -0.5400 -1.0787  0.4756
  684MPD2    N110178   4.140   3.402  16.330 -0.1336  0.0596  0.3980
  684MPD2    H710179   4.144   3.407  16.229  2.1419 -0.0275  0.4797
  685TMC3    C110180   4.097   3.186  16.265 -0.3294 -0.3150  0.0935
  685TMC3    C210181   4.012   3.220  16.166 -0.6786  0.6853 -0.1906
  685TMC3    C310182   4.032   3.160  16.041  0.4322  0.2189 -0.2105
  685TMC3    C410183   4.198   3.096  16.251 -0.1799  0.0866  0.4350
  685TMC3    C510184   4.217   3.037  16.127  0.4372  1.0499 -0.4290
  685TMC3    C610185   4.134   3.075  16.018 -0.3363  0.4373  0.1280
  685TMC3     C10186   4.128   3.274  16.378 -0.4306  0.3245  0.6330
  685TMC3     O10187   4.144   3.223  16.485 -0.0342 -0.2459 -0.0603
  685TMC3     H10188   3.922   3.274  16.193 -1.3967  0.3931 -1.9546
  685TMC3    H110189   4.265   3.081  16.335  0.1490  1.1136  0.3504
  685TMC3    H210190   4.156   3.038  15.919  0.2722  2.0125 -0.3265
  685TMC3    C710191   4.356   3.028  16.092 -0.0477  0.8388  0.0007
  685TMC3    C810192   3.965   3.218  15.917 -0.2943 -1.0605  0.0315
  685TMC3    O110193   4.421   2.971  16.176 -0.8309  0.1907  0.0753
  685TMC3    O210194   3.998   3.166  15.810 -0.7182 -0.1239  0.5955
  686MPD2     C10195   1.139   3.491  15.940 -0.2290  0.4858  0.2587
  686MPD2    C110196   1.049   3.391  15.935 -0.2948 -0.5833  0.0146
  686MPD2    C210197   0.978   3.364  15.816  0.4561  0.2701  0.2785
  686MPD2    C310198   1.018   3.437  15.704 -0.0203 -0.1683 -0.7741
  686MPD2    C410199   1.121   3.528  15.709  0.2010  0.4763  0.1368
  686MPD2    C510200   1.187   3.556  15.826  0.2879 -0.8924 -0.1620
  686MPD2     H10201   0.897   3.294  15.804  0.5036  0.1249  0.8039
  686MPD2    H110202   1.138   3.580  15.616 -1.7893 -0.3398 -0.6965
  686MPD2    H210203   1.183   3.513  16.037 -2.2500  0.1753  1.2404
  686MPD2    H310204   1.268   3.628  15.836 -0.7588  0.2971 -0.2505
  686MPD2     N10205   0.954   3.396  15.587  0.0878 -0.5248 -0.7501
  686MPD2    H510206   0.874   3.334  15.592 -0.4527  0.1288 -1.2829
  686MPD2    N110207   1.023   3.322  16.055  0.1791  0.5350 -0.0168
  686MPD2    H710208   1.069   3.361  16.136 -1.4696 -0.1546  1.2498
  687TMC3    C110209   0.915   3.319  15.399  0.0717 -0.4527 -0.2857
  687TMC3    C210210   0.782   3.313  15.446  0.0820  0.5225  0.0987
  687TMC3    C310211   0.725   3.193  15.478  0.3999 -0.3155 -0.3976
  687TMC3    C410212   0.993   3.209  15.399  0.0882  0.2182  0.8048
  687TMC3    C510213   0.932   3.095  15.448 -0.2223  0.3873 -0.3615
  687TMC3    C610214   0.800   3.081  15.482  0.3419  0.2171  0.7803
  687TMC3     C10215   0.983   3.424  15.463 -0.1118 -0.0968  0.1121
  687TMC3     O10216   1.081   3.470  15.405 -0.4552  0.4076 -0.5990
  687TMC3     H10217   0.723   3.397  15.411  0.4918  0.6947 -0.1767
  687TMC3    H110218   1.100   3.219  15.386 -0.0583  0.1487 -0.5414
  687TMC3    H210219   0.754   2.988  15.512  0.0157  0.6427  1.5823
  687TMC3    C710220   1.009   3.001  15.528  0.5307  0.0171 -0.4328
  687TMC3    C810221   0.659   3.202  15.606 -0.1221  0.0802 -0.0887
  687TMC3    O110222   0.954   2.900  15.569  0.3591  0.0868  0.2152
  687TMC3    O210223   0.717   3.130  15.686  0.2053  0.3113 -0.1246
  688MPD2     C10224   0.011   2.692  17.456  0.4243  0.6536  0.3448
  688MPD2    C110225   4.712   2.556  17.444  0.1249  0.2506  0.7650
  688MPD2    C210226   0.054   2.480  17.358  0.5239 -0.5293 -0.3282
  688MPD2    C310227   0.172   2.528  17.297  0.1375 -0.8120 -0.1533
  688MPD2    C410228   0.195   2.664  17.311 -0.3748 -0.3906  0.2546
  688MPD2    C510229   0.111   2.746  17.383 -0.0760  0.5247 -0.0520
  688MPD2     H10230   0.032   2.375  17.350 -2.0447 -0.0070 -0.1665
  688MPD2    H110231   0.273   2.710  17.251 -1.4388 -0.6149 -1.2950
  688MPD2    H210232   4.685   2.752  17.521  0.0222  1.0292 -0.3801
  688MPD2    H310233   0.130   2.853  17.388  2.4432  0.0247  1.3628
  688MPD2     N10234   0.257   2.447  17.216 -0.4564  0.3558 -0.4667
  688MPD2    H510235   0.338   2.501  17.188 -0.4433  0.5788 -0.0105
  688MPD2    N110236   4.610   2.494  17.520 -0.2150 -0.3644 -0.7721
  688MPD2    H710237   4.604   2.393  17.513  2.5351 -0.6129  0.5175
  689TMC3    C110238   4.454   2.462  17.687 -0.4284 -0.8940 -0.3754
  689TMC3    C210239   4.404   2.514   0.059 -0.1106 -0.4615 -0.3195
  689TMC3    C310240   4.339   2.439   0.153  0.0784  0.1743 -0.1984
  689TMC3    C410241   4.439   2.324  17.666  0.2258  0.0346  0.0088
  689TMC3    C510242   4.353   2.255   0.008 -0.1803 -0.5591  0.1511
  689TMC3    C610243   4.310   2.305   0.125 -0.1122  0.9077  0.3977
  689TMC3     C10244   4.530   2.548  17.608  0.7491  0.0500 -0.3881
  689TMC3     O10245   4.520   2.664  17.636 -0.1456  0.5265 -0.7167
  689TMC3     H10246   4.419   2.619   0.081  0.9162 -1.0954  1.9235
  689TMC3    H110247   4.486   2.269  17.585  1.9191 -1.2708  1.8876
  689TMC3    H210248   4.262   2.244   0.200 -1.3297  0.6194 -0.6258
  689TMC3    C710249   4.371   2.104   0.010  0.0432 -0.5141 -0.1929
  689TMC3    C810250   4.276   2.507   0.265  0.4697 -0.2263  0.0603
  689TMC3    O110251   4.378   2.055   0.125  0.2249 -0.3926 -0.2381
  689TMC3    O210252   4.308   2.626   0.279 -0.0018  0.7972  0.0322
  690MPD2     C10253   2.220   4.075  15.542  0.4705  0.3185  0.3065
  690MPD2    C110254   2.154   3.961  15.501 -0.3212  0.3231  0.6968
  690MPD2    C210255   2.183   3.909  15.373  0.0675 -0.0278  0.2268
  690MPD2    C310256   2.282   3.970  15.295 -0.5105  0.0127 -0.4828
  690MPD2    C410257   2.353   4.080  15.345 -0.3704  0.2459 -0.1389
  690MPD2    C510258   2.320   4.129  15.467 -0.2442 -0.2515 -0.4490
  690MPD2     H10259   2.144   3.825  15.318 -0.9449 -0.2454  1.2896
  690MPD2    H110260   2.444   4.113  15.295  2.4055 -1.0487  3.9974
  690MPD2    H210261   2.193   4.113  15.640 -1.3974  0.6492 -0.3399
  690MPD2    H310262   2.387   4.205  15.506 -0.2517 -0.1147 -0.7033
  690MPD2     N10263   2.303   3.919  15.161 -0.2824  0.1950 -0.2427
  690MPD2    H510264   2.250   3.837  15.132  0.4689 -0.9374  1.5981
  690MPD2    N110265   2.051   3.894  15.582  0.2534  0.6696 -0.7924
  690MPD2    H710266   2.006   3.817  15.534  1.3737 -1.0058  0.8319
  691TMC3    C110267   1.909   3.825  15.765 -0.4549  0.1199  0.1086
  691TMC3    C210268   1.832   3.873  15.869  0.2589 -0.1209  0.1507
  691TMC3    C310269   1.804   3.781  15.973  0.1943  0.0509 -0.4084
  691TMC3    C410270   1.956   3.696  15.766 -0.4242 -0.1884 -0.2125
  691TMC3    C510271   1.927   3.615  15.868  0.4596 -0.0431 -0.7349
  691TMC3    C610272   1.848   3.652  15.972  0.4151  0.2719  0.6391
  691TMC3     C10273   2.011   3.925  15.709  0.3529  0.2342  1.0717
  691TMC3     O10274   2.022   4.019  15.787  0.0663 -0.0131  0.2676
  691TMC3     H10275   1.813   3.978  15.885 -0.8359 -0.5202  1.4383
  691TMC3    H110276   2.024   3.655  15.692 -1.5370 -1.2318 -0.6480
  691TMC3    H210277   1.811   3.577  16.041  0.6734  0.9013  1.4586
  691TMC3    C710278   1.974   3.479  15.861 -0.3380  0.3331 -0.0694
  691TMC3    C810279   1.679   3.793  16.041 -0.2013 -0.3705  0.2400
  691TMC3    O110280   2.009   3.435  15.752  0.1848 -0.1901 -0.5683
  691TMC3    O210281   1.664   3.713  16.130  0.1943 -0.1101  0.2571
  692TMC3    C110282   3.923   0.424  15.958  0.3970 -0.2940  0.2603
  692TMC3    C210283   4.059   0.444  15.990 -0.5681 -1.4795 -1.3378
  692TMC3    C310284   4.153   0.353  15.953  0.2885 -0.3230 -0.2808
  692TMC3    C410285   3.885   0.297  15.921 -0.7410 -0.2601  0.4639
  692TMC3    C510286   3.988   0.204  15.897  0.9021  0.5182  0.2904
  692TMC3    C610287   4.121   0.227  15.919  0.2615 -0.0798  0.1446
  692TMC3     C10288   3.816   0.502  16.014  0.8378 -0.3076  0.1259
  692TMC3     O10289   3.701   0.463  16.005  0.2039  0.0005  0.2102
  692TMC3     H10290   4.095   0.547  15.991 -2.0547 -0.9583 -2.0750
  692TMC3    H110291   3.781   0.284  15.895 -0.5305  0.3003 -0.6658
  692TMC3    H210292   4.196   0.155  15.888  0.4977 -1.0155  2.8617
  692TMC3    C710293   3.942   0.086  15.841  0.5016 -0.1289  0.3373
  692TMC3    C810294   4.268   0.344  16.036 -0.2005 -0.6687 -0.1232
  692TMC3    O110295   3.831   0.073  15.794  0.2315  0.3560  0.6930
  692TMC3    O210296   4.343   0.247  16.040 -0.0849  0.5267  0.0607
  693MPD2     C10297   3.521   3.442  10.993  1.3366  0.1910  0.0978
  693MPD2    C110298   3.480   3.328  11.058  0.3471 -0.5558  0.3667
  693MPD2    C210299   3.573   3.264  11.142 -0.8900  0.0655 -0.3974
  693MPD2    C310300   3.697   3.318  11.167  0.1287  1.0531  0.4893
  693MPD2    C410301   3.730   3.440  11.119 -0.8659 -0.7941  0.2717
  693MPD2    C510302   3.638   3.509  11.034 -0.1845  0.5045  0.6385
  693MPD2     H10303   3.552   3.172  11.194  0.1655  0.8856  1.4620
  693MPD2    H110304   3.827   3.482  11.143 -0.7477 -0.6273 -0.4964
  693MPD2    H210305   3.450   3.492  10.928 -0.1759  1.0156  2.3810
  693MPD2    H310306   3.665   3.605  10.993 -0.0096  0.5239  0.8026
  693MPD2     N10307   3.797   3.255  11.240  0.5552 -0.6701 -0.6380
  693MPD2    H510308   3.879   3.312  11.259  0.3470 -0.4838 -0.3096
  693MPD2    N110309   3.350   3.274  11.037 -0.3076  0.2921 -0.2102
  693MPD2    H710310   3.337   3.195  11.099 -2.5428  0.2450 -0.7378
  694TMC3    C110311   3.127   3.263  10.994 -0.5535  0.1864 -0.4099
  694TMC3    C210312   3.046   3.214  10.895 -0.5374 -0.2786  0.2340
  694TMC3    C310313   2.965   3.108  10.926  0.1920  0.1851  0.2057
  694TMC3    C410314   3.115   3.220  11.120 -0.0547 -0.3207  0.0682
  694TMC3    C510315   3.043   3.107  11.143  0.0532 -0.4295 -0.4527
  694TMC3    C610316   2.962   3.049  11.049 -1.0321  0.6598  0.3998
  694TMC3     C10317   3.254   3.322  10.949 -0.1179  0.4123  0.0464
  694TMC3     O10318   3.256   3.399  10.851  0.1020 -0.0394  0.3836
  694TMC3     H10319   3.065   3.246  10.793  3.9330  2.3556  1.8717
  694TMC3    H110320   3.167   3.273  11.199 -0.4067  0.7283 -0.4019
  694TMC3    H210321   2.899   2.962  11.065  0.9844 -0.9241 -0.2740
  694TMC3    C710322   3.022   3.085  11.282 -0.2507  0.8174  0.1224
  694TMC3    C810323   2.907   3.036  10.821 -0.0177  0.5216  0.2131
  694TMC3    O110324   3.046   3.178  11.359  0.4968 -0.5143  0.0632
  694TMC3    O210325   2.861   2.923  10.838  0.3513 -0.2559 -0.1673
  695MPD2     C10326   0.046   0.188  13.476 -0.0117  0.5790  0.0455
  695MPD2    C110327   4.709   0.149  13.591  0.0961 -0.3988  0.5095
  695MPD2    C210328   4.577   0.172  13.592  0.2253 -0.2545  0.6379
  695MPD2    C310329   4.516   0.226  13.483 -0.2674  0.2376 -0.4712
  695MPD2    C410330   4.578   0.253  13.364 -0.3323 -0.3444 -0.2739
  695MPD2    C510331   4.715   0.233  13.361 -0.0926 -0.1453  0.5642
  695MPD2     H10332   4.508   0.152  13.673  2.7022  0.7910  2.9894
  695MPD2    H110333   4.534   0.296  13.274 -1.2619 -1.7215 -0.4791
  695MPD2    H210334   0.154   0.196  13.480  0.1611 -0.9123 -2.2733
  695MPD2    H310335   0.033   0.260  13.271  0.3045 -1.6146  0.3621
  695MPD2     N10336   4.382   0.251  13.505  0.3841 -0.0850  0.1968
  695MPD2    H510337   4.341   0.230  13.596 -2.6546 -1.0402 -1.3890
  695MPD2    N110338   0.022   0.086  13.709  0.1226 -0.1970 -0.3720
  695MPD2    H710339   4.689   0.062  13.779 -1.3679  1.8573 -1.1241
  696TMC3    C110340   4.169   0.345  13.466  0.3937 -0.0371 -0.1697
  696TMC3    C210341   4.117   0.260  13.562 -0.6937 -0.2778  0.0954
  696TMC3    C310342   3.999   0.304  13.616  0.4569  0.5000  0.0023
  696TMC3    C410343   4.097   0.447  13.419 -0.3527 -0.1295  0.5807
  696TMC3    C510344   3.990   0.487  13.482  0.0120 -0.3053 -0.2797
  696TMC3    C610345   3.926   0.408  13.568  0.0247 -0.8211 -0.1943
  696TMC3     C10346   4.301   0.314  13.410  0.3101  0.0731 -0.6117
  696TMC3     O10347   4.325   0.349  13.294 -0.5622  0.1047  0.0808
  696TMC3     H10348   4.158   0.162  13.585  0.5510  0.7306  2.1241
  696TMC3    H110349   4.154   0.508  13.350 -1.3968  0.0151 -0.1548
  696TMC3    H210350   3.836   0.440  13.619 -1.4243 -0.9248 -2.6883
  696TMC3    C710351   3.938   0.615  13.442  0.0653  0.4770 -0.2449
  696TMC3    C810352   3.964   0.239  13.743 -0.4315 -0.1434  0.0525
  696TMC3    O110353   3.997   0.675  13.353  0.4251  0.6499  0.0213
  696TMC3    O210354   4.056   0.186  13.802  0.0441 -0.1816 -0.5770
  697MPD2     C10355   3.473   2.031  15.866  0.0257  0.5546  0.2297
  697MPD2    C110356   3.499   1.963  15.752  1.0887  0.3876  0.1458
  697MPD2    C210357   3.534   2.032  15.638  0.1361 -0.0444  0.0480
  697MPD2    C310358   3.552   2.166  15.634  0.4398 -0.2544 -0.1647
  697MPD2    C410359   3.531   2.234  15.754 -0.3761 -0.3075  0.4732
  697MPD2    C510360   3.486   2.168  15.859  0.0008  0.0808 -0.0344
  697MPD2     H10361   3.558   1.973  15.550  0.7694  1.3674 -0.7185
  697MPD2    H110362   3.521   2.342  15.762 -0.2560 -0.4254  2.2167
  697MPD2    H210363   3.458   1.984  15.962  0.6832  2.1360  1.0965
  697MPD2    H310364   3.461   2.220  15.950 -0.0078 -0.1693  0.1052
  697MPD2     N10365   3.565   2.231  15.513 -0.2367 -0.2664 -0.7089
  697MPD2    H510366   3.592   2.177  15.432 -0.8675 -0.5195 -0.7530
  697MPD2    N110367   3.506   1.822  15.740 -0.0871 -0.4757 -0.7497
  697MPD2    H710368   3.528   1.777  15.652  1.5240  2.0804 -1.6751
  698TMC3    C110369   3.574   2.398  15.347 -0.4643 -0.4588 -0.5992
  698TMC3    C210370   3.622   2.525  15.319  0.3390  0.4396  0.9045
  698TMC3    C310371   3.620   2.575  15.189  0.0302 -0.4166  0.3681
  698TMC3    C410372   3.519   2.320  15.245 -0.0130  0.2387 -0.1152
  698TMC3    C510373   3.515   2.368  15.116 -0.8392 -0.4246 -0.0762
  698TMC3    C610374   3.560   2.497  15.087 -0.3478  0.1829 -0.6425
  698TMC3     C10375   3.570   2.367  15.489 -0.0987  0.1897  0.3768
  698TMC3     O10376   3.594   2.456  15.572 -0.5009  0.6045  0.6501
  698TMC3     H10377   3.647   2.595  15.399  1.6006  1.2719 -0.2270
  698TMC3    H110378   3.472   2.225  15.267 -0.5151  0.6238  0.4678
  698TMC3    H210379   3.550   2.530  14.984 -0.1742 -1.9801 -1.3523
  698TMC3    C710380   3.467   2.287  15.012 -0.5690 -0.0447 -0.1913
  698TMC3    C810381   3.650   2.721  15.167  0.0551 -0.4773 -0.1158
  698TMC3    O110382   3.435   2.344  14.906  0.2260  0.3610  0.0609
  698TMC3    O210383   3.571   2.769  15.089 -0.0232  0.0571  0.3167
  699TMC3    C110384   3.799   0.569  12.932  0.8669  0.5276 -0.9024
  699TMC3    C210385   3.823   0.448  12.994  0.2755  0.1989 -0.4695
  699TMC3    C310386   3.801   0.450  13.129  0.7407 -0.1537  0.2527
  699TMC3    C410387   3.761   0.691  12.990  0.5915  0.3279 -0.9575
  699TMC3    C510388   3.721   0.680  13.122  0.4521  0.1637  0.5565
  699TMC3    C610389   3.740   0.558  13.191  0.5764  0.2746 -0.0206
  699TMC3     C10390   3.743   0.565  12.796  0.6486 -0.3645  0.9291
  699TMC3     O10391   3.658   0.645  12.763 -0.2115 -0.1822 -0.1487
  699TMC3     H10392   3.850   0.353  12.948 -0.1944 -0.0993 -0.1397
  699TMC3    H110393   3.738   0.777  12.928  2.7947  0.1463 -2.0352
  699TMC3    H210394   3.705   0.540  13.293  0.1760 -0.4135 -0.2788
  699TMC3    C710395   3.585   0.729  13.143 -0.0841  0.1190 -0.3208
  699TMC3    C810396   3.794   0.327  13.190  0.0991 -0.6152 -0.1710
  699TMC3    O110397   3.538   0.692  13.246  0.0460  0.5341 -0.4889
  699TMC3    O210398   3.704   0.307  13.272 -0.9727 -0.0343  0.2638
  700TMC3    C110399   2.424   2.643  17.262  0.1101 -0.0829  0.0021
  700TMC3    C210400   2.538   2.564  17.224  0.4324 -0.5399 -0.1345
  700TMC3    C310401   2.537   2.437  17.277 -0.4447 -0.0994 -0.3654
  700TMC3    C410402   2.324   2.594  17.341 -1.0058  0.1974 -0.3902
  700TMC3    C510403   2.349   2.470  17.398  0.0682 -0.1563  0.3385
  700TMC3    C610404   2.444   2.384  17.359 -0.4119 -0.4837 -0.3098
  700TMC3     C10405   2.403   2.757  17.178 -0.2089 -0.5699 -0.8725
  700TMC3     O10406   2.289   2.792  17.152  0.2203 -0.5491  0.6500
  700TMC3     H10407   2.619   2.589  17.156  0.3780  1.6223  0.6156
  700TMC3    H110408   2.242   2.655  17.375 -0.5583  2.3083 -3.1317
  700TMC3    H210409   2.451   2.283  17.397 -0.2155 -0.6065 -0.6707
  700TMC3    C710410   2.243   2.412  17.466  0.5571  0.1078  0.0980
  700TMC3    C810411   2.628   2.349  17.202  0.5251 -0.0150  0.4486
  700TMC3    O110412   2.187   2.320  17.407  0.3125  0.8267  0.1728
  700TMC3    O210413   2.726   2.397  17.142  0.1974  0.0403  0.0701
  701TMC3    C110414   2.894   1.019  15.713  0.1657 -0.0647  0.3884
  701TMC3    C210415   2.942   0.976  15.592  0.6305 -0.1503  0.5646
  701TMC3    C310416   3.048   1.044  15.537  0.0163  0.2077 -0.8863
  701TMC3    C410417   2.955   1.120  15.776 -0.6280 -0.3171 -0.4724
  701TMC3    C510418   3.067   1.186  15.723  0.3465 -0.1831  0.2557
  701TMC3    C610419   3.111   1.147  15.601  0.6242 -0.0891  0.5629
  701TMC3     C10420   2.752   1.019  15.741 -0.2779 -0.4882 -0.3103
  701TMC3     O10421   2.705   1.117  15.800  0.9512 -0.1764 -0.1377
  701TMC3     H10422   2.886   0.898  15.541  0.3271 -0.0751  0.7831
  701TMC3    H110423   2.928   1.151  15.877  1.4126  0.9798 -0.3113
  701TMC3    H210424   3.202   1.183  15.555 -1.6237  1.6414 -2.5163
  701TMC3    C710425   3.092   1.324  15.758  0.0147 -0.6412  0.0859
  701TMC3    C810426   3.103   1.014  15.403  0.5536 -0.0055  0.4363
  701TMC3    O110427   3.151   1.395  15.677  0.8955 -0.4623  0.5516
  701TMC3    O210428   3.221   1.041  15.380 -0.0103  0.0557 -0.2742
  702MPD2     C10429   2.505   3.521  10.607 -0.0846  0.1669 -0.3382
  702MPD2    C110430   2.501   3.612  10.716  0.2906 -0.1615  0.3230
  702MPD2    C210431   2.459   3.739  10.687  0.0963  0.2242 -0.0317
  702MPD2    C310432   2.430   3.779  10.561 -0.2347 -0.0572  0.2320
  702MPD2    C410433   2.440   3.692  10.451  0.3645  0.1519 -0.0196
  702MPD2    C510434   2.476   3.565  10.481  0.2358  0.4058 -0.2914
  702MPD2     H10435   2.441   3.801  10.774  5.3640  0.4439  0.9013
  702MPD2    H110436   2.401   3.713  10.352  0.4598  0.3552 -0.0140
  702MPD2    H210437   2.537   3.419  10.620 -0.2665  0.1633  0.1116
  702MPD2    H310438   2.465   3.492  10.402 -0.7743 -0.7278  0.8974
  702MPD2     N10439   2.411   3.917  10.544 -0.2226 -0.2086 -0.0260
  702MPD2    H510440   2.420   3.970  10.630 -0.6986  0.7116 -0.5362
  702MPD2    N110441   2.519   3.568  10.846  0.3659  0.2904 -0.2706
  702MPD2    H710442   2.531   3.468  10.859  0.1468  0.2435 -0.4232
  703TMC3    C110443   2.386   4.128  10.454  0.2897 -0.9545 -0.2557
  703TMC3    C210444   2.321   4.156  10.569  0.1499 -0.2207  0.1484
  703TMC3    C310445   2.336   4.276  10.626 -0.1577  0.2783  0.0305
  703TMC3    C410446   2.475   4.221  10.410  0.6349 -0.0957 -0.5911
  703TMC3    C510447   2.490   4.347  10.468  0.0765  0.4486  0.0444
  703TMC3    C610448   2.426   4.372  10.586  0.1304  0.1826 -0.3475
  703TMC3     C10449   2.408   3.990  10.425  0.6463  0.4442 -0.0905
  703TMC3     O10450   2.423   3.957  10.308 -0.0574  0.5315 -0.1248
  703TMC3     H10451   2.248   4.085  10.609  0.1255 -0.0090  0.4836
  703TMC3    H110452   2.540   4.185  10.330  0.7412  0.2880 -0.6785
  703TMC3    H210453   2.421   4.468  10.635 -0.6192  0.2454 -0.5528
  703TMC3    C710454   2.591   4.435  10.426  0.6873  0.4494 -0.5918
  703TMC3    C810455   2.255   4.312  10.743  0.1727 -0.2107  0.7976
  703TMC3    O110456   2.635   4.513  10.511 -0.2628 -0.4442  0.3555
  703TMC3    O210457   2.295   4.401  10.818 -0.0223  0.5869 -0.8313
  704TMC3    C110458   4.552   1.807  12.540  0.0214 -0.4403 -0.2973
  704TMC3    C210459   4.692   1.814  12.521  0.5332 -0.5512  1.0167
  704TMC3    C310460   0.025   1.700  12.541 -0.0945 -0.3251 -0.7235
  704TMC3    C410461   4.480   1.685  12.560  0.1596 -0.1401  0.2943
  704TMC3    C510462   4.560   1.569  12.571  0.3023  0.1826 -0.5561
  704TMC3    C610463   4.698   1.578  12.567 -0.1383  0.3971  0.1926
  704TMC3     C10464   4.478   1.916  12.480  0.4754 -0.2434  0.5503
  704TMC3     O10465   4.362   1.940  12.514 -0.5538 -0.7741  0.2626
  704TMC3     H10466   0.010   1.908  12.511 -1.3426  0.4407  0.2430
  704TMC3    H110467   4.372   1.679  12.570 -0.0438  0.1545 -1.7717
  704TMC3    H210468   0.024   1.491  12.583 -0.9815  0.0885  1.6627
  704TMC3    C710469   4.496   1.447  12.603  0.2422 -0.3430  0.1328
  704TMC3    C810470   0.169   1.702  12.504 -0.4780 -0.0316 -0.0172
  704TMC3    O110471   4.388   1.444  12.652 -0.4315  0.2056  0.5518
  704TMC3    O210472   0.203   1.781  12.417 -0.4528  0.4145 -0.2432
  705MPD2     C10473   4.407   4.520  16.267  0.2131 -0.6385  0.1577
  705MPD2    C110474   4.448   4.637  16.324 -0.1395  0.1408 -0.0635
  705MPD2    C210475   4.373   4.688  16.428 -0.3056  0.0560 -0.3238
  705MPD2    C310476   4.257   4.627  16.468  0.1028 -0.1482 -0.8210
  705MPD2    C410477   4.226   4.503  16.416  0.5222  0.3769 -0.0343
  705MPD2    C510478   4.301   4.446  16.311  0.0014 -0.0354  0.3842
  705MPD2     H10479   4.395   0.051  16.465 -0.4542 -0.9358  2.3797
  705MPD2    H110480   4.126   4.463  16.433 -0.0244  1.0539 -1.6637
  705MPD2    H210481   4.457   4.483  16.177  0.0128  0.0849 -0.2503
  705MPD2    H310482   4.271   4.357  16.257 -1.3810  0.8856 -0.3794
  705MPD2     N10483   4.161   4.694  16.550 -0.1528 -0.2955  0.5743
  705MPD2    H510484   4.078   4.635  16.553 -0.3827 -0.0218 -0.4278
  705MPD2    N110485   4.556   4.709  16.266  0.5787  0.2593  0.3880
  705MPD2    H710486   4.613   0.033  16.325  1.3549  0.5717 -0.6803
  706TMC3    C110487   0.183   0.037  15.986  0.1870 -0.7813  1.1094
  706TMC3    C210488   0.182   0.177  16.010  0.0134  0.1080  0.7401
  706TMC3    C310489   0.086   0.226  16.092  0.5256 -0.0396 -0.1967
  706TMC3    C410490   0.086   4.698  16.039  1.2677  0.1465 -0.3700
  706TMC3    C510491   4.732   0.018  16.118 -0.7455 -0.1394  0.1194
  706TMC3    C610492   4.735   0.141  16.159 -0.7097 -0.9210 -0.2119
  706TMC3     C10493   0.269   4.723  15.888 -0.6996  0.2645  0.4210
  706TMC3     O10494   0.364   0.065  15.875 -0.5717  0.7459 -0.1597
  706TMC3     H10495   0.248   0.244  15.955  1.4151 -2.0289 -0.1640
  706TMC3    H110496   0.085   4.591  16.017 -0.3280  0.0595  0.1345
  706TMC3    H210497   4.647   0.175  16.212  0.1834  0.8915  0.1051
  706TMC3    C710498   4.622   4.676  16.148  0.1457 -1.0644 -0.1157
  706TMC3    C810499   0.028   0.357  16.066  0.8236  0.4901  0.0271
  706TMC3    O110500   4.574   4.612  16.052 -0.1925  0.0891 -0.4150
  706TMC3    O210501   0.000   0.385  15.949 -0.0542  0.3011 -0.1817
  707TMC3    C110502   0.928   4.428   0.561  0.2064  0.4258 -0.1450
  707TMC3    C210503   0.897   4.303   0.511  0.1850  0.3919 -0.0876
  707TMC3    C310504   0.884   4.293   0.373  0.8682 -0.0715  0.4633
  707TMC3    C410505   0.959   4.530   0.474  0.4423 -0.5156 -0.2737
  707TMC3    C510506   0.939   4.513   0.343 -0.5884  0.2634  0.2224
  707TMC3    C610507   0.913   4.393   0.287 -0.2559 -0.0045 -0.0526
  707TMC3     C10508   0.950   4.428   0.704  0.4464 -0.2246 -0.1948
  707TMC3     O10509   0.969   4.320   0.756 -0.8826 -0.2552  0.3861
  707TMC3     H10510   0.873   4.223   0.580 -0.6104 -0.7252 -1.6357
  707TMC3    H110511   0.981   4.630   0.509 -2.3725 -0.8900  2.5318
  707TMC3    H210512   0.909   4.377   0.180  1.8738 -1.6162  0.1168
  707TMC3    C710513   0.915   4.640   0.265 -0.1587 -0.4176  0.4822
  707TMC3    C810514   0.844   4.171   0.314  0.3647  0.0507 -0.4795
  707TMC3    O110515   0.963   0.012   0.299 -0.2184  0.4043  0.2195
  707TMC3    O210516   0.808   4.173   0.197  0.3981  0.5765  0.5071
  708MPD2     C10517   2.604   2.747  14.108 -0.6410  0.4437  0.2706
  708MPD2    C110518   2.536   2.861  14.079 -0.3240 -0.1201  0.6988
  708MPD2    C210519   2.401   2.870  14.120 -0.1282  0.4788  0.2134
  708MPD2    C310520   2.342   2.756  14.179 -0.5629 -0.1109 -0.1764
  708MPD2    C410521   2.409   2.639  14.195 -0.1060 -1.1338  0.0327
  708MPD2    C510522   2.545   2.641  14.160 -0.1496 -0.7529 -0.6502
  708MPD2     H10523   2.348   2.964  14.114  1.2722  1.2810  0.5387
  708MPD2    H110524   2.366   2.552  14.242 -0.5994  0.4726  2.5549
  708MPD2    H210525   2.712   2.742  14.102 -0.9125 -2.7443 -1.9348
  708MPD2    H310526   2.602   2.550  14.178 -0.8798 -0.4426  3.2159
  708MPD2     N10527   2.206   2.777  14.217  0.1039  0.5083 -0.9268
  708MPD2    H510528   2.175   2.872  14.200 -1.1954  0.1753 -0.4146
  708MPD2    N110529   2.607   2.964  14.017  0.3456 -0.4458 -0.2459
  708MPD2    H710530   2.708   2.956  14.003  0.3621 -3.6448  1.5298
  709TMC3    C110531   2.645   3.197  13.946  0.2774 -0.4265 -0.6669
  709TMC3    C210532   2.703   3.141  13.833 -0.4520  0.5901 -0.0989
  709TMC3    C310533   2.672   3.200  13.711 -0.3663 -0.2780 -0.8341
  709TMC3    C410534   2.576   3.318  13.942 -0.5271  0.9276 -0.0320
  709TMC3    C510535   2.535   3.367  13.819  0.0757  0.1067  0.4450
  709TMC3    C610536   2.585   3.312  13.703  0.1111 -0.0776  0.7929
  709TMC3     C10537   2.572   3.094  14.026 -0.2461  1.1519 -0.5004
  709TMC3     O10538   2.469   3.141  14.071 -0.9149 -0.7077 -0.0400
  709TMC3     H10539   2.762   3.051  13.840  1.0470  1.5605 -0.2316
  709TMC3    H110540   2.552   3.364  14.037 -0.4177 -2.2336  1.5453
  709TMC3    H210541   2.551   3.344  13.606 -0.1820  0.0408  0.9363
  709TMC3    C710542   2.394   3.411  13.815 -0.4879 -0.3056 -0.7150
  709TMC3    C810543   2.743   3.157  13.588 -1.2196  1.1342  0.0922
  709TMC3    O110544   2.352   3.451  13.704  1.0554 -0.2572 -0.3713
  709TMC3    O210545   2.861   3.136  13.605  0.2064  0.6939  0.1943
  710TMC3    C110546   3.293   3.916   0.661  0.6409 -0.8221 -0.5240
  710TMC3    C210547   3.414   3.974   0.663  0.0296  0.5624  0.3674
  710TMC3    C310548   3.517   3.897   0.613  0.4918 -0.1656  0.0886
  710TMC3    C410549   3.277   3.786   0.623  0.4505  0.2438  0.2675
  710TMC3    C510550   3.379   3.717   0.568 -0.2187  0.4047  0.2041
  710TMC3    C610551   3.503   3.775   0.557 -0.1106 -0.1791 -0.5760
  710TMC3     C10552   3.174   4.001   0.656 -0.0296 -0.5199 -0.8962
  710TMC3     O10553   3.096   3.976   0.565 -1.3734 -0.2239  0.4562
  710TMC3     H10554   3.422   4.081   0.675  0.8181  0.3868  1.3259
  710TMC3    H110555   3.176   3.745   0.614  1.3306 -1.7977 -0.2976
  710TMC3    H210556   3.587   3.720   0.518  0.3574 -0.5492  0.9406
  710TMC3    C710557   3.394   3.578   0.602 -0.2373 -0.3435 -0.0632
  710TMC3    C810558   3.647   3.963   0.618 -0.1186  0.4801 -1.2123
  710TMC3    O110559   3.506   3.531   0.610 -0.3518 -0.0111  0.0762
  710TMC3    O210560   3.733   3.910   0.551  0.1923  0.1972 -0.3853
  711TMC3    C110561   3.251   0.512  15.136  0.0869 -0.2486  0.0441
  711TMC3    C210562   3.272   0.634  15.200 -0.4612  0.0724  0.1734
  711TMC3    C310563   3.398   0.675  15.213 -0.1904 -0.2852  0.1111
  711TMC3    C410564   3.361   0.438  15.101  0.3310 -0.1633  0.2200
  711TMC3    C510565   3.487   0.486  15.103 -0.3196  1.1390  0.3790
  711TMC3    C610566   3.507   0.609  15.157  0.2657 -0.2394  0.5046
  711TMC3     C10567   3.118   0.458  15.102  1.3840 -0.1600  0.6538
  711TMC3     O10568   3.123   0.352  15.040  0.8503 -0.2661  0.0036
  711TMC3     H10569   3.191   0.687  15.249 -1.0325  0.4809 -1.2289
  711TMC3    H110570   3.343   0.335  15.072 -2.0504 -0.3245  2.1978
  711TMC3    H210571   3.598   0.667  15.148  0.8114 -1.1855 -0.0390
  711TMC3    C710572   3.594   0.406  15.128  0.9383 -0.8216 -0.3435
  711TMC3    C810573   3.425   0.730  15.342  0.1158 -0.7338  0.1181
  711TMC3    O110574   3.687   0.446  15.193 -0.0422 -0.1437  0.2387
  711TMC3    O210575   3.326   0.752  15.418  0.2216 -0.0341  0.0560
  712MPD2     C10576   4.689   1.556  13.635 -0.0883  0.1981 -0.8825
  712MPD2    C110577   4.629   1.678  13.616 -0.2270 -0.8797  0.1368
  712MPD2    C210578   4.705   1.788  13.604  0.5091  0.5864 -0.1967
  712MPD2    C310579   0.101   1.794  13.649 -0.0391  0.5480 -0.3609
  712MPD2    C410580   0.159   1.672  13.677  0.3946 -0.6018  0.4973
  712MPD2    C510581   0.082   1.556  13.669 -0.0963  0.1042 -0.0532
  712MPD2     H10582   4.647   1.875  13.573  1.6873  0.8723 -1.6004
  712MPD2    H110583   0.263   1.656  13.702  0.8521 -0.0663 -1.0942
  712MPD2    H210584   4.648   1.456  13.640  1.4758 -0.5534 -3.0137
  712MPD2    H310585   0.136   1.466  13.697  1.4559  0.9347 -0.3467
  712MPD2     N10586   0.170   1.922  13.660  0.3050 -0.1023  0.4196
  712MPD2    H510587   0.268   1.912  13.684 -0.0214 -2.3734  0.7765
  712MPD2    N110588   4.491   1.690  13.577  0.2367  0.1785 -0.1107
  712MPD2    H710589   4.457   1.785  13.584  1.4745  0.7585 -1.8272
  713TMC3    C110590   0.209   2.151  13.653  0.0480 -0.1333 -0.0374
  713TMC3    C210591   0.341   2.127  13.678 -0.6391 -0.1281  0.0571
  713TMC3    C310592   0.425   2.234  13.703 -0.1450 -0.3893  1.0700
  713TMC3    C410593   0.161   2.277  13.652 -0.3426  0.2018 -0.3605
  713TMC3    C510594   0.247   2.383  13.679 -0.8485  1.4998 -1.1824
  713TMC3    C610595   0.378   2.361  13.695 -0.0907  0.7088 -0.7204
  713TMC3     C10596   0.114   2.043  13.644 -0.0889  0.6431  0.1338
  713TMC3     O10597   4.730   2.070  13.626  0.1972 -0.6891 -0.6110
  713TMC3     H10598   0.382   2.028  13.695 -1.8303 -0.7440 -0.6607
  713TMC3    H110599   0.054   2.277  13.635 -0.4102  0.0953  0.0540
  713TMC3    H210600   0.437   2.451  13.706  1.4474 -0.6391  1.9221
  713TMC3    C710601   0.189   2.513  13.695 -0.3907 -0.3464  0.1501
  713TMC3    C810602   0.568   2.211  13.731 -0.5567 -0.6195 -0.1082
  713TMC3    O110603   0.270   2.601  13.729  0.0915  0.6420 -0.5312
  713TMC3    O210604   0.603   2.094  13.733  0.4730 -0.4641  0.2160
  714MPD2     C10605   2.313   0.310   1.066 -0.4129  0.3791 -0.2075
  714MPD2    C110606   2.252   0.294   1.187 -0.3937 -0.2517 -0.2228
  714MPD2    C210607   2.147   0.384   1.219  0.8214 -0.4305 -0.3345
  714MPD2    C310608   2.109   0.487   1.131 -0.5171  0.0563  0.2630
  714MPD2    C410609   2.187   0.506   1.019  0.4456 -1.0280 -0.0071
  714MPD2    C510610   2.279   0.412   0.987  0.1245  0.0077  0.6118
  714MPD2     H10611   2.100   0.386   1.317 -0.6555 -0.3736 -1.0447
  714MPD2    H110612   2.179   0.591   0.953 -2.2175 -1.5077 -0.2916
  714MPD2    H210613   2.393   0.246   1.030  0.6424  0.6386  1.6511
  714MPD2    H310614   2.339   0.414   0.896 -1.7604 -0.9428 -0.6556
  714MPD2     N10615   2.005   0.575   1.175  0.2545  0.1545  0.0918
  714MPD2    H510616   1.961   0.554   1.264 -1.4867 -0.0682 -0.8189
  714MPD2    N110617   2.306   0.192   1.274 -0.0113 -0.1612  0.0829
  714MPD2    H710618   2.389   0.144   1.239  1.1004 -0.9580  3.8302
  715TMC3    C110619   2.319   0.043   1.459  0.0508  0.3312  0.1052
  715TMC3    C210620   2.397   4.696   1.380 -0.3739  0.1483  0.2397
  715TMC3    C310621   2.473   4.600   1.437 -0.0792  0.4816 -0.0218
  715TMC3    C410622   2.299   0.010   1.595  0.7847  0.1660 -0.4078
  715TMC3    C510623   2.392   4.650   1.653  0.2719 -0.2913  0.6948
  715TMC3    C610624   2.474   4.582   1.571  0.1687  0.4718  0.1980
  715TMC3     C10625   2.258   0.159   1.395  0.9322 -0.2298  0.1305
  715TMC3     O10626   2.162   0.206   1.455  0.4758  0.7553  0.3869
  715TMC3     H10627   2.393   4.705   1.272 -0.7259 -0.5201  0.1959
  715TMC3    H110628   2.232   0.067   1.658 -1.2292 -0.1038 -2.2834
  715TMC3    H210629   2.523   4.492   1.607 -3.1490 -1.3253  0.2389
  715TMC3    C710630   2.424   4.648   1.790  0.3626  0.2857  0.0796
  715TMC3    C810631   2.561   4.521   1.355  0.3133 -0.2686  0.1482
  715TMC3    O110632   2.526   4.594   1.814  0.2597 -0.2457 -0.4258
  715TMC3    O210633   2.536   4.515   1.235  0.3927 -0.1077  0.7206
  716MPD2     C10634   2.713   3.648  10.209  0.6108 -0.1727 -0.2161
  716MPD2    C110635   2.641   3.577  10.117  0.3586 -0.4417  0.2637
  716MPD2    C210636   2.686   3.448  10.084  0.1438 -1.0629  0.2662
  716MPD2    C310637   2.799   3.395  10.146 -0.9999  0.0057  0.4556
  716MPD2    C410638   2.860   3.462  10.248  0.2404 -0.3994 -0.4848
  716MPD2    C510639   2.816   3.591  10.278 -0.2811 -0.1020  0.3276
  716MPD2     H10640   2.634   3.380  10.017  0.9680 -1.9642  0.5505
  716MPD2    H110641   2.941   3.421  10.307  0.4203  0.8124  0.1146
  716MPD2    H210642   2.689   3.749  10.242  1.4474 -0.0061 -0.1087
  716MPD2    H310643   2.861   3.649  10.358  2.2954  0.5357 -1.5896
  716MPD2     N10644   2.853   3.274  10.101 -0.2452  0.0422  0.4777
  716MPD2    H510645   2.802   3.234  10.024  1.7549  1.7249 -1.7217
  716MPD2    N110646   2.519   3.635  10.074  0.3964  0.4141 -0.3101
  716MPD2    H710647   2.516   3.734  10.097  0.3662 -0.0811  1.8540
  717TMC3    C110648   2.912   3.055  10.127  0.2445  0.4785 -0.2111
  717TMC3    C210649   2.875   3.044   9.994  0.2916 -0.0935  0.2186
  717TMC3    C310650   2.810   2.932   9.947  0.6173 -0.2454 -0.2541
  717TMC3    C410651   2.887   2.947  10.211 -0.2029  0.9439 -0.1560
  717TMC3    C510652   2.824   2.836  10.163 -0.3538  0.6334  0.1655
  717TMC3    C610653   2.786   2.828  10.030 -0.2596  0.3326 -0.1229
  717TMC3     C10654   2.921   3.183  10.183 -0.0651 -0.5761  0.3979
  717TMC3     O10655   2.983   3.209  10.286 -0.1885  0.1182 -0.3574
  717TMC3     H10656   2.899   3.121   9.921  0.1725  0.2871  0.5833
  717TMC3    H110657   2.929   2.960  10.310 -2.2330  1.0317  0.6876
  717TMC3    H210658   2.748   2.734   9.991  1.5012  0.7058 -2.7650
  717TMC3    C710659   2.800   2.720  10.248  0.5990 -0.1819  0.4034
  717TMC3    C810660   2.810   2.915   9.803  0.1314 -0.1056  0.1827
  717TMC3    O110661   2.730   2.628  10.203  0.4885  0.1738  0.2580
  717TMC3    O210662   2.836   3.014   9.737  0.1788  0.7422  0.1499
  718MPD2     C10663   1.614   2.330  12.766  0.2158 -0.1298  0.7090
  718MPD2    C110664   1.508   2.298  12.689 -0.0516  0.5267 -0.5598
  718MPD2    C210665   1.442   2.182  12.727  0.3394 -0.6518 -0.1192
  718MPD2    C310666   1.472   2.108  12.842 -1.0428 -0.3260  0.3440
  718MPD2    C410667   1.576   2.152  12.925 -0.0743  0.4129  0.1732
  718MPD2    C510668   1.647   2.258  12.873  0.0120 -0.0922 -0.0534
  718MPD2     H10669   1.369   2.138  12.660 -0.9273 -1.9953  2.1228
  718MPD2    H110670   1.600   2.116  13.024 -0.8936 -1.2374 -0.2322
  718MPD2    H210671   1.669   2.422  12.751  0.6909 -0.8009 -1.6892
  718MPD2    H310672   1.727   2.311  12.924 -0.1019 -0.5961  0.6574
  718MPD2     N10673   1.406   1.984  12.866  0.2044 -1.1624  0.1083
  718MPD2    H510674   1.342   1.963  12.789  0.8996 -1.2438 -0.4493
  718MPD2    N110675   1.485   2.359  12.565  0.5181  0.1942  0.7525
  718MPD2    H710676   1.560   2.419  12.533 -0.5684  1.4992  0.6303
  719TMC3    C110677   1.413   2.357  12.341 -0.1071  0.3306 -0.1759
  719TMC3    C210678   1.359   2.242  12.281  0.0770  0.7055 -0.0135
  719TMC3    C310679   1.433   2.139  12.214  0.6225 -0.6853  0.0601
  719TMC3    C410680   1.545   2.379  12.319 -0.8617 -0.2480  0.0480
  719TMC3    C510681   1.621   2.282  12.254 -0.0667  0.1252  0.0792
  719TMC3    C610682   1.563   2.169  12.196 -0.1710  0.7610 -0.6932
  719TMC3     C10683   1.376   2.344  12.481 -0.6940 -0.7665 -0.4651
  719TMC3     O10684   1.265   2.303  12.517 -0.0514  0.5724  0.5665
  719TMC3     H10685   1.259   2.218  12.316 -0.1070  1.2771 -0.1350
  719TMC3    H110686   1.601   2.466  12.352 -2.1933  0.5493  0.2133
  719TMC3    H210687   1.622   2.080  12.174 -0.4555 -0.0677  1.8615
  719TMC3    C710688   1.769   2.304  12.256 -0.0189  1.0565  0.0653
  719TMC3    C810689   1.396   2.004  12.254 -0.1125  0.3343 -0.0367
  719TMC3    O110690   1.799   2.418  12.220  0.5568  0.1696  0.2412
  719TMC3    O210691   1.493   1.946  12.297 -0.5157 -0.1174 -0.1969
  720MPD2     C10692   0.117   4.053  14.432 -0.2182 -0.5962 -0.4997
  720MPD2    C110693   0.182   3.977  14.346  0.0282 -0.2255 -0.0270
  720MPD2    C210694   0.300   3.918  14.388  0.1375 -0.5605  0.1303
  720MPD2    C310695   0.351   3.939  14.516  0.1479  0.2810 -0.0362
  720MPD2    C410696   0.281   4.030  14.602  0.0287  0.2730  0.0484
  720MPD2    C510697   0.160   4.083  14.558  0.4417 -0.0065 -0.3145
  720MPD2     H10698   0.354   3.846  14.328 -0.3280  0.0144 -1.0056
  720MPD2    H110699   0.320   4.073  14.694 -0.5546 -1.1769  0.9824
  720MPD2    H210700   0.033   4.111  14.396 -0.1970 -0.6690 -0.6662
  720MPD2    H310701   0.112   4.158  14.621  0.8510  1.5620 -1.8564
  720MPD2     N10702   0.475   3.887  14.557 -0.1871  0.1525 -0.5368
  720MPD2    H510703   0.521   3.820  14.496 -1.0917 -2.8937  2.1462
  720MPD2    N110704   0.118   3.951  14.223 -0.3989  0.2799 -0.5256
  720MPD2    H710705   0.028   3.995  14.204 -1.1974 -1.1460  0.0112
  721TMC3    C110706   0.664   3.850  14.685  0.0106 -0.3941 -0.0019
  721TMC3    C210707   0.730   3.861  14.805 -0.5957  0.3198  0.4480
  721TMC3    C310708   0.840   3.791  14.827 -0.3108 -0.3285  0.2857
  721TMC3    C410709   0.718   3.778  14.578  0.5879 -0.1846 -0.0444
  721TMC3    C510710   0.842   3.719  14.601 -0.1340  0.9258 -1.0979
  721TMC3    C610711   0.899   3.723  14.722  0.5754  0.2505 -0.3014
  721TMC3     C10712   0.545   3.926  14.666 -0.5981 -0.1883  0.1456
  721TMC3     O10713   0.522   4.004  14.754 -0.1076  0.0117  0.0489
  721TMC3     H10714   0.677   3.914  14.884  0.4169  1.1013  0.6166
  721TMC3    H110715   0.683   3.788  14.476 -1.3337 -0.6143  0.5705
  721TMC3    H210716   0.997   3.681  14.741  1.6488  1.8944 -2.2437
  721TMC3    C710717   0.940   3.690  14.496 -0.9125  0.1570  1.1504
  721TMC3    C810718   0.934   3.847  14.917  0.0556  0.5401  0.0075
  721TMC3    O110719   0.941   3.763  14.395 -0.4941  0.3401 -0.8315
  721TMC3    O210720   1.049   3.867  14.876  0.3319  0.3942 -0.1761
  722MPD2     C10721   3.796   2.508  13.207 -0.0256  0.6862  0.7503
  722MPD2    C110722   3.763   2.642  13.216 -1.2063  0.1986  0.5709
  722MPD2    C210723   3.670   2.699  13.127 -0.5309  0.4102  0.2946
  722MPD2    C310724   3.603   2.615  13.036  0.1064 -0.4944  0.4229
  722MPD2    C410725   3.640   2.484  13.023 -0.1106  1.0346  0.2707
  722MPD2    C510726   3.741   2.438  13.105  0.0528  0.2338 -0.2742
  722MPD2     H10727   3.638   2.802  13.124  0.7308  0.7687 -1.4425
  722MPD2    H110728   3.605   2.414  12.949  1.9524 -1.6070  1.8100
  722MPD2    H210729   3.854   2.449  13.277  1.6744  0.3652 -0.9498
  722MPD2    H310730   3.758   2.331  13.097  0.6263  0.1353  2.0469
  722MPD2     N10731   3.514   2.668  12.950  0.0453  0.0998 -0.4067
  722MPD2    H510732   3.467   2.753  12.980  1.7318  0.5295  0.9709
  722MPD2    N110733   3.817   2.717  13.317  0.2962 -0.0385 -0.3736
  722MPD2    H710734   3.771   2.804  13.343 -2.3191 -1.6237  0.3571
  723TMC3    C110735   3.392   2.687  12.741 -0.5091  1.4348  0.8805
  723TMC3    C210736   3.292   2.611  12.695 -0.0146  0.6013 -0.1530
  723TMC3    C310737   3.177   2.668  12.644 -0.0172  0.2292 -0.0159
  723TMC3    C410738   3.371   2.817  12.772  0.0903 -0.0605  0.1937
  723TMC3    C510739   3.255   2.869  12.739  0.7915 -0.0096 -0.0595
  723TMC3    C610740   3.154   2.798  12.670 -0.6788  0.1338  0.1519
  723TMC3     C10741   3.485   2.614  12.824  0.2057 -0.1556 -0.6761
  723TMC3     O10742   3.523   2.513  12.766 -0.4590 -0.3021  0.4960
  723TMC3     H10743   3.295   2.503  12.706 -1.0708  0.7953  1.9159
  723TMC3    H110744   3.454   2.884  12.796  0.4566 -0.5743  0.3678
  723TMC3    H210745   3.051   2.832  12.662 -0.1613  1.8043  0.5809
  723TMC3    C710746   3.223   3.004  12.775 -0.1297  0.1031  0.1538
  723TMC3    C810747   3.056   2.578  12.633  0.9600 -0.1993 -0.3308
  723TMC3    O110748   3.163   3.074  12.691  0.1256  0.1262 -0.3381
  723TMC3    O210749   2.946   2.626  12.623  0.2276  0.3182 -0.7000
  724TMC3    C110750   4.000   0.981  10.806  0.6983  0.0263 -0.4805
  724TMC3    C210751   3.915   1.005  10.703 -0.3861  0.2162 -0.4277
  724TMC3    C310752   3.967   1.083  10.599 -0.1157  0.7072 -0.2739
  724TMC3    C410753   4.116   1.053  10.820  0.0566 -0.0288  0.4857
  724TMC3    C510754   4.163   1.132  10.714 -0.0142 -0.5121  0.3098
  724TMC3    C610755   4.089   1.149  10.602  0.6307 -0.1648  0.4204
  724TMC3     C10756   3.927   0.936  10.923 -0.3578  0.0241  0.4813
  724TMC3     O10757   3.835   0.854  10.906 -0.6348  0.1693  0.6793
  724TMC3     H10758   3.822   0.951  10.699  0.5018 -1.2983 -0.5352
  724TMC3    H110759   4.170   1.042  10.913  1.9470  0.6970 -0.5473
  724TMC3    H210760   4.121   1.208  10.517  1.5397  0.9226  1.5158
  724TMC3    C710761   4.273   1.218  10.730 -0.2967 -0.0497 -0.6326
  724TMC3    C810762   3.863   1.148  10.515  0.2182  0.8132  0.4892
  724TMC3    O110763   4.315   1.264  10.623 -0.1806  0.5167  0.0941
  724TMC3    O210764   3.768   1.077  10.479  0.0456  0.6580  0.4530
  725TMC3    C110765   0.816   3.819  13.326 -0.3796 -0.6442  0.4594
  725TMC3    C210766   0.722   3.903  13.292 -0.7319 -0.7461  0.4840
  725TMC3    C310767   0.626   3.858  13.207 -0.4138  0.1743 -0.3462
  725TMC3    C410768   0.812   3.681  13.294  0.0763  0.3652 -1.3412
  725TMC3    C510769   0.712   3.641  13.205 -0.0446 -0.0343  0.5978
  725TMC3    C610770   0.618   3.728  13.165 -0.1852  0.8358 -0.7299
  725TMC3     C10771   0.929   3.864  13.410 -0.8020 -0.7835  0.3372
  725TMC3     O10772   0.993   3.778  13.464  0.6090  0.4878 -0.4867
  725TMC3     H10773   0.719   4.008  13.318  1.2725  0.0154 -2.2824
  725TMC3    H110774   0.884   3.610  13.333 -1.8298 -0.0865  1.3525
  725TMC3    H210775   0.556   3.707  13.078 -0.0691 -1.5437 -0.2200
  725TMC3    C710776   0.707   3.514  13.139 -0.6030  0.4834  1.0285
  725TMC3    C810777   0.587   3.965  13.121  0.0540  0.0475  0.7639
  725TMC3    O110778   0.643   3.497  13.039  0.0454 -0.5795  0.0921
  725TMC3    O210779   0.640   4.075  13.124  0.1792  0.1667  0.3608
  726MPD2     C10780   3.174   1.373  10.709  0.1652  0.2155 -1.0075
  726MPD2    C110781   3.071   1.441  10.640 -0.5299  1.2432  0.4089
  726MPD2    C210782   2.946   1.384  10.624 -0.3041  0.0134  0.4540
  726MPD2    C310783   2.916   1.273  10.699  0.5318  0.1679 -0.5623
  726MPD2    C410784   3.011   1.212  10.781  0.7989  0.2517 -0.6170
  726MPD2    C510785   3.141   1.262  10.783  0.4075  0.5819 -0.0196
  726MPD2     H10786   2.878   1.443  10.564 -0.0354 -1.1833 -1.0285
  726MPD2    H110787   2.989   1.121  10.835  1.0246 -0.9599 -2.5726
  726MPD2    H210788   3.278   1.404  10.700  0.1729  0.6760  0.7323
  726MPD2    H310789   3.215   1.202  10.834  0.0031 -1.5348 -1.9393
  726MPD2     N10790   2.793   1.200  10.694 -0.0758  0.3407 -0.3539
  726MPD2    H510791   2.769   1.128  10.762  0.5288  1.7394  1.3669
  726MPD2    N110792   3.102   1.561  10.563  0.1494  0.4246 -0.0135
  726MPD2    H710793   3.039   1.597  10.492  1.6872  1.2096 -0.9910
  727TMC3    C110794   3.235   1.731  10.459 -0.3436  0.2528 -0.4926
  727TMC3    C210795   3.347   1.815  10.473 -0.5788  0.4534  0.1660
  727TMC3    C310796   3.367   1.909  10.376 -0.4627 -0.5480  0.0872
  727TMC3    C410797   3.132   1.756  10.370 -0.2483 -0.5290 -0.0191
  727TMC3    C510798   3.160   1.859  10.279 -0.2826  0.1600 -0.2488
  727TMC3    C610799   3.269   1.941  10.288 -0.7626 -0.7107  0.0046
  727TMC3     C10800   3.217   1.634  10.567 -0.1757  0.9971 -0.2031
  727TMC3     O10801   3.304   1.627  10.657  0.1518  0.0063  0.2900
  727TMC3     H10802   3.409   1.797  10.559  1.8573 -0.7531 -1.8461
  727TMC3    H110803   3.043   1.694  10.368  1.0145 -2.4768  3.0582
  727TMC3    H210804   3.297   2.007  10.207  1.5171 -0.0504  1.3316
  727TMC3    C710805   3.049   1.917  10.200  0.0271 -0.4484  0.4699
  727TMC3    C810806   3.485   1.990  10.396  0.2292 -0.2421 -0.1707
  727TMC3    O110807   3.059   2.034  10.171 -0.0682  0.7326 -0.7239
  727TMC3    O210808   3.568   1.942  10.474  0.3894  0.1737  0.0081
  728TMC3    C110809   2.353   3.927  14.936 -0.1978  0.5196  0.4236
  728TMC3    C210810   2.469   3.901  14.871 -0.6880 -0.3272 -0.2136
  728TMC3    C310811   2.459   3.904  14.737 -0.0731 -0.1211 -0.5341
  728TMC3    C410812   2.234   3.958  14.882 -0.5581 -0.4157 -0.0562
  728TMC3    C510813   2.231   3.971  14.749 -0.2637 -0.5942 -0.0651
  728TMC3    C610814   2.342   3.941  14.674  0.8216 -0.5271 -0.2928
  728TMC3     C10815   2.380   3.982  15.066  0.1642  0.6311 -0.0629
  728TMC3     O10816   2.462   4.070  15.076 -0.0805  0.0230  0.4976
  728TMC3     H10817   2.560   3.894  14.930  0.0960 -1.1161 -1.5350
  728TMC3    H110818   2.144   3.983  14.937 -0.0466  0.5206  0.3577
  728TMC3    H210819   2.341   3.959  14.567  3.1494 -0.8706 -0.3770
  728TMC3    C710820   2.143   4.081  14.708  1.1135  0.5758 -0.0837
  728TMC3    C810821   2.588   3.907  14.659 -0.7477  0.9555 -0.1989
  728TMC3    O110822   2.026   4.077  14.751 -0.2989  0.3072  0.1274
  728TMC3    O210823   2.694   3.920  14.716 -0.4619  0.1329  0.2097
  729MPD2     C10824   0.235   0.956  17.399 -0.0156  0.7263 -1.0805
  729MPD2    C110825   0.343   0.983  17.479  0.9823 -0.1916  0.1397
  729MPD2    C210826   0.329   1.040  17.609 -0.0092  0.0126 -0.8275
  729MPD2    C310827   0.198   1.054  17.661 -0.9888  0.6102 -0.4726
  729MPD2    C410828   0.094   1.030  17.582 -0.3178  0.3292  0.0966
  729MPD2    C510829   0.110   0.982  17.452 -0.0423 -0.1715 -0.4156
  729MPD2     H10830   0.414   1.065  17.671 -0.9074  0.4789  0.1965
  729MPD2    H110831   4.730   1.035  17.625 -0.3774 -0.6301  0.0742
  729MPD2    H210832   0.243   0.913  17.300  0.4694  1.4211 -1.3406
  729MPD2    H310833   0.020   0.962  17.395 -0.1463  0.2986 -0.4208
  729MPD2     N10834   0.169   1.102   0.044  0.7157 -0.3699 -0.3618
  729MPD2    H510835   0.070   1.108   0.068  0.4857  3.0967 -2.1322
  729MPD2    N110836   0.474   0.962  17.420 -0.1077 -0.2265  0.1819
  729MPD2    H710837   0.481   0.937  17.322 -0.7601 -1.3217  0.4188
  730TMC3    C110838   0.204   1.245   0.234 -0.5477 -0.6537 -0.8284
  730TMC3    C210839   0.298   1.311   0.301 -0.1786  0.0537 -0.2587
  730TMC3    C310840   0.281   1.442   0.329  0.4358 -0.2280 -0.3141
  730TMC3    C410841   0.082   1.307   0.209  0.3323 -0.4138  0.8314
  730TMC3    C510842   0.070   1.441   0.236  0.0242 -0.2735  0.3412
  730TMC3    C610843   0.163   1.506   0.314  0.0702 -0.0871  0.2215
  730TMC3     C10844   0.261   1.156   0.135  0.2961 -0.3986  0.2675
  730TMC3     O10845   0.381   1.129   0.133 -0.1219 -0.3425  0.2500
  730TMC3     H10846   0.389   1.253   0.317 -0.7245 -0.6412  0.3260
  730TMC3    H110847   0.010   1.251   0.151  0.2827  1.5477 -0.9920
  730TMC3    H210848   0.157   1.612   0.337  2.4891 -0.0921  0.7930
  730TMC3    C710849   0.024   1.504   0.110 -0.1722 -0.7434  0.2140
  730TMC3    C810850   0.398   1.521   0.296 -0.2387  0.0548 -0.8119
  730TMC3    O110851   0.042   1.446   0.006 -0.4307 -0.0033  0.2446
  730TMC3    O210852   0.482   1.461   0.233  0.0741  0.2006 -0.0710
  731MPD2     C10853   0.186   3.870  12.451 -0.5048 -0.5501  0.4154
  731MPD2    C110854   0.158   3.735  12.416  0.3707  0.2250 -0.9011
  731MPD2    C210855   0.087   3.657  12.510  0.0430 -0.0316  0.0376
  731MPD2    C310856   0.058   3.705  12.635 -0.5319  0.0394  0.6658
  731MPD2    C410857   0.085   3.835  12.670  0.0769 -0.0541 -0.5073
  731MPD2    C510858   0.156   3.914  12.577 -0.1872 -0.3600 -0.3467
  731MPD2     H10859   0.077   3.551  12.491 -4.7164  0.3147  0.8038
  731MPD2    H110860   0.070   3.872  12.771 -1.4996  0.1622 -0.8296
  731MPD2    H210861   0.237   3.930  12.376 -0.9828  1.1486  1.4557
  731MPD2    H310862   0.193   4.010  12.610 -0.9598 -0.6562  1.4108
  731MPD2     N10863   0.018   3.610  12.730 -0.7200  0.5322 -0.6769
  731MPD2    H510864   4.727   3.517  12.700 -0.4598  0.5555 -0.9731
  731MPD2    N110865   0.211   3.680  12.299  0.0204  0.4528  0.4039
  731MPD2    H710866   0.271   3.738  12.242  2.5311  0.5226  3.1217
  732TMC3    C110867   0.203   3.541  12.105  0.2154 -0.1391  0.1939
  732TMC3    C210868   0.083   3.490  12.051 -0.2713  0.1396 -0.1952
  732TMC3    C310869   0.086   3.469  11.917 -0.0114 -0.7082 -0.2153
  732TMC3    C410870   0.318   3.559  12.042 -0.2571 -0.3143 -0.5539
  732TMC3    C510871   0.312   3.516  11.912 -0.0504 -0.7615 -0.1724
  732TMC3    C610872   0.198   3.487  11.839  0.1861 -0.1799 -0.0062
  732TMC3     C10873   0.183   3.553  12.248 -0.0175 -0.0394 -0.1978
  732TMC3     O10874   0.109   3.468  12.296 -0.1291  0.8043 -0.2759
  732TMC3     H10875   4.730   3.481  12.113 -1.4985 -0.3189 -2.0103
  732TMC3    H110876   0.401   3.603  12.096 -1.0254  0.9583 -0.4018
  732TMC3    H210877   0.201   3.454  11.736  1.8079 -0.7704  0.2298
  732TMC3    C710878   0.437   3.511  11.843 -0.7807  0.4358  0.0733
  732TMC3    C810879   4.704   3.415  11.855  0.1831 -0.4304  0.4482
  732TMC3    O110880   0.446   3.513  11.719  0.3647  0.3350  0.3909
  732TMC3    O210881   4.699   3.424  11.732 -0.0450  0.0157  0.0943
  733TMC3    C110882   1.242   1.600  13.044 -0.1978 -0.3141  0.1990
  733TMC3    C210883   1.326   1.706  13.062 -0.3341 -0.2073 -0.1030
  733TMC3    C310884   1.377   1.764  12.951  0.4623 -0.3173 -0.2344
  733TMC3    C410885   1.225   1.552  12.921 -1.1151  0.3096 -0.1456
  733TMC3    C510886   1.282   1.610  12.806  0.8757 -0.9454 -0.4818
  733TMC3    C610887   1.363   1.720  12.822 -0.0181  0.5080  0.1074
  733TMC3     C10888   1.130   1.598  13.137 -0.2236 -0.3012  0.6908
  733TMC3     O10889   1.108   1.696  13.208 -0.0378  0.0140 -0.2582
  733TMC3     H10890   1.328   1.769  13.151 -0.4186  1.4038 -1.2338
  733TMC3    H110891   1.164   1.464  12.901  0.3512 -0.6603 -0.4140
  733TMC3    H210892   1.429   1.756  12.744  0.8012  0.1249  0.6200
  733TMC3    C710893   1.239   1.569  12.675 -0.4166 -0.7137  0.2204
  733TMC3    C810894   1.420   1.900  12.972  0.0728 -0.2291 -0.0023
  733TMC3    O110895   1.148   1.486  12.670  0.1673  0.2285  0.0576
  733TMC3    O210896   1.485   1.917  13.075  0.5062  0.1548 -0.9503
  734MPD2     C10897   2.850   4.164  12.654  0.0994 -0.2625  0.3451
  734MPD2    C110898   2.850   4.091  12.542  0.3663  0.2562  1.0693
  734MPD2    C210899   2.897   4.150  12.422 -0.2486 -0.8732 -0.2563
  734MPD2    C310900   2.967   4.269  12.424 -0.3294 -0.2825  0.1628
  734MPD2    C410901   2.968   4.344  12.541 -0.6935 -0.5139  0.1747
  734MPD2    C510902   2.909   4.293  12.655 -0.1711 -0.3706 -0.4084
  734MPD2     H10903   2.896   4.096  12.328 -0.8005  0.6214 -1.0962
  734MPD2    H110904   3.018   4.441  12.535 -1.6493 -0.0656 -0.4550
  734MPD2    H210905   2.799   4.128  12.743  0.1652 -1.2396 -0.0157
  734MPD2    H310906   2.911   4.355  12.744 -1.4216 -1.8733  0.6742
  734MPD2     N10907   3.018   4.312  12.296  0.4912 -1.1755 -0.2404
  734MPD2    H510908   3.020   4.241  12.223  1.2898 -0.5468 -0.8338
  734MPD2    N110909   2.809   3.957  12.548 -0.0562 -0.2154  0.2528
  734MPD2    H710910   2.793   3.908  12.635 -1.8134  2.1053  1.2559
  735TMC3    C110911   2.738   3.747  12.454 -0.3911  0.7979  0.5853
  735TMC3    C210912   2.656   3.705  12.355  0.3338 -0.3350  0.6202
  735TMC3    C310913   2.692   3.595  12.285 -0.5446 -0.0277  0.6546
  735TMC3    C410914   2.837   3.666  12.498 -0.0429  0.0246  0.5894
  735TMC3    C510915   2.867   3.551  12.429  0.4068 -1.0682 -0.6895
  735TMC3    C610916   2.788   3.503  12.334  0.2489 -1.1712  0.2092
  735TMC3     C10917   2.787   3.882  12.440 -0.3566  0.3649  0.0026
  735TMC3     O10918   2.800   3.910  12.321 -0.5218  0.9370  0.2373
  735TMC3     H10919   2.590   3.781  12.315  0.7595 -0.2736  0.0385
  735TMC3    H110920   2.910   3.709  12.566  1.0000 -0.9956  0.1190
  735TMC3    H210921   2.819   3.417  12.275  0.1017 -3.0610  2.9167
  735TMC3    C710922   3.010   3.540  12.400 -0.3520  0.1800 -0.5196
  735TMC3    C810923   2.699   3.615  12.142  0.1779  0.6115  0.5116
  735TMC3    O110924   3.071   3.645  12.412 -0.0943 -0.3713 -0.0795
  735TMC3    O210925   2.711   3.519  12.070  0.0412  0.0006  0.3980
  736MPD2     C10926   3.183   3.275  12.212  0.5960  0.1758 -0.4147
  736MPD2    C110927   3.169   3.399  12.277  0.3261 -0.0833 -0.5396
  736MPD2    C210928   3.275   3.492  12.269  0.0065 -0.0543 -0.5905
  736MPD2    C310929   3.392   3.455  12.212 -0.2091 -0.2916  0.5918
  736MPD2    C410930   3.415   3.331  12.163  0.2504  0.2651 -0.8170
  736MPD2    C510931   3.306   3.241  12.154  0.0987 -0.2953 -0.2015
  736MPD2     H10932   3.266   3.594  12.303 -1.0169 -0.3898  0.1340
  736MPD2    H110933   3.512   3.304  12.121 -0.5095 -2.5151 -0.7762
  736MPD2    H210934   3.106   3.199  12.222  0.5394  0.3705  0.6242
  736MPD2    H310935   3.322   3.143  12.111  0.6270 -0.1045 -0.4330
  736MPD2     N10936   3.495   3.546  12.179 -0.1408 -0.1703  0.4986
  736MPD2    H510937   3.579   3.522  12.127  1.1623  1.5397  1.7687
  736MPD2    N110938   3.045   3.425  12.337  0.0830 -0.0471 -0.2796
  736MPD2    H710939   2.970   3.357  12.331  1.1664 -0.7876 -5.4461
  737TMC3    C110940   3.611   3.744  12.162  0.2237 -0.2389 -0.0351
  737TMC3    C210941   3.616   3.875  12.112  0.3060  0.2200  0.2653
  737TMC3    C310942   3.733   3.936  12.083  0.3799 -0.1862 -0.1967
  737TMC3    C410943   3.735   3.687  12.195  0.4537  0.5646 -0.5025
  737TMC3    C510944   3.853   3.746  12.152 -0.8926 -0.0667  0.1168
  737TMC3    C610945   3.852   3.874  12.105  0.6187  0.1873 -0.2861
  737TMC3     C10946   3.484   3.682  12.203  0.8323  1.1798  0.7971
  737TMC3     O10947   3.396   3.748  12.254 -0.9384  0.2203  0.0440
  737TMC3     H10948   3.520   3.922  12.093  0.0556 -0.2785  0.2648
  737TMC3    H110949   3.740   3.583  12.226 -0.7584  0.0262 -2.1203
  737TMC3    H210950   3.940   3.927  12.070  1.6642  0.8045  3.2910
  737TMC3    C710951   3.956   3.649  12.110 -0.5222 -0.1339  0.0303
  737TMC3    C810952   3.745   4.080  12.061  0.7646 -0.0090 -0.4435
  737TMC3    O110953   3.920   3.538  12.066 -0.0544  0.4683  0.2235
  737TMC3    O210954   3.838   4.136  12.118  0.7319  0.1544  0.7799
  738MPD2     C10955   3.757   3.003  15.160  0.4089 -0.3953  0.3392
  738MPD2    C110956   3.800   2.909  15.247 -0.3738 -0.2131  0.2180
  738MPD2    C210957   3.906   2.940  15.336 -0.1735  0.4529 -0.4096
  738MPD2    C310958   3.956   3.070  15.331 -0.5937  0.0094  0.0898
  738MPD2    C410959   3.904   3.163  15.242 -0.2236  0.2726 -0.3245
  738MPD2    C510960   3.803   3.127  15.153  0.8340  0.2754 -0.7464
  738MPD2     H10961   3.942   2.872  15.412  1.9125  0.3917 -1.4581
  738MPD2    H110962   3.954   3.260  15.242 -0.5539  0.4384 -0.9612
  738MPD2    H210963   3.684   2.984  15.083  1.1367  2.2158 -0.9728
  738MPD2    H310964   3.760   3.197  15.081  0.3419  2.1441  1.3594
  738MPD2     N10965   4.081   3.099  15.391  0.4884  0.4178 -0.1752
  738MPD2    H510966   4.133   3.178  15.355 -0.1209  0.6618 -0.5231
  738MPD2    N110967   3.746   2.775  15.247 -0.9103 -0.2783  0.0164
  738MPD2    H710968   3.785   2.699  15.301 -2.1654 -0.5890  0.4912
  739TMC3    C110969   4.289   3.026  15.456 -0.1184 -0.5784 -0.2812
  739TMC3    C210970   4.320   3.034  15.325 -0.4489  0.0825 -0.5621
  739TMC3    C310971   4.449   3.067  15.299 -0.3127  0.3124 -0.5854
  739TMC3    C410972   4.374   3.049  15.561  0.3363 -0.3307 -0.7558
  739TMC3    C510973   4.502   3.081  15.531  0.5715 -0.2511  0.6367
  739TMC3    C610974   4.532   3.092  15.398 -0.1620  0.3166  0.2091
  739TMC3     C10975   4.145   3.013  15.474  0.6501  0.2259  0.5240
  739TMC3     O10976   4.108   2.939  15.563 -0.0406 -0.0126 -0.1900
  739TMC3     H10977   4.250   3.009  15.245 -1.4533 -1.0661  0.6733
  739TMC3    H110978   4.327   3.052  15.658  1.7428 -0.3737 -0.0771
  739TMC3    H210979   4.634   3.111  15.367 -0.3965 -0.1223 -0.8496
  739TMC3    C710980   4.607   3.022  15.616 -0.0072  0.4870 -0.1616
  739TMC3    C810981   4.473   3.093  15.156 -0.1756  0.0269 -1.0159
  739TMC3    O110982   4.718   3.029  15.568 -0.0418 -0.0237  0.6320
  739TMC3    O210983   4.400   3.027  15.084  0.2078  0.1106 -0.0194
  740TMC3    C110984   4.482   4.568  14.453  0.3196  0.2906  0.0889
  740TMC3    C210985   4.483   4.595  14.582 -0.2642 -0.8631  0.1177
  740TMC3    C310986   4.608   4.617  14.630  0.3052 -0.4965  0.4550
  740TMC3    C410987   4.592   4.535  14.370 -0.0632  0.1009  0.7498
  740TMC3    C510988   4.714   4.549  14.435  0.1623  0.2111 -0.3450
  740TMC3    C610989   4.728   4.595  14.565 -0.4522  0.0328 -0.7312
  740TMC3     C10990   4.351   4.564  14.388  0.1082 -0.1686  0.4113
  740TMC3     O10991   4.358   4.610  14.274 -0.0990  0.1071  0.9798
  740TMC3     H10992   4.398   4.634  14.636 -0.5833 -0.5594 -0.6026
  740TMC3    H110993   4.573   4.507  14.267 -0.8058 -0.7370  1.1153
  740TMC3    H210994   0.089   4.606  14.611 -0.5526 -1.7049 -0.1083
  740TMC3    C710995   0.099   4.500  14.368  0.0723 -0.2881  0.6073
  740TMC3    C810996   4.613   4.674  14.767  0.5129 -0.7632  0.2143
  740TMC3    O110997   0.200   4.525  14.426 -0.2520  0.5471  0.6315
  740TMC3    O210998   4.519   0.012  14.800  0.9302 -0.1762  0.1208
  741TMC3    C110999   4.145   3.574  14.788 -0.0079  0.3544 -0.4538
  741TMC3    C211000   4.045   3.498  14.735  0.7560 -1.1882 -0.3491
  741TMC3    C311001   4.009   3.382  14.813  0.0031  0.1132 -0.0349
  741TMC3    C411002   4.200   3.554  14.908 -0.2720 -0.0822 -0.4656
  741TMC3    C511003   4.163   3.438  14.981 -0.4699  0.1940 -0.3194
  741TMC3    C611004   4.079   3.351  14.929  0.3128  0.2652  0.4543
  741TMC3     C11005   4.148   3.714  14.745  0.3544  0.2962 -0.4285
  741TMC3     O11006   4.158   3.792  14.835 -0.3364  0.1576 -0.0160
  741TMC3     H11007   4.000   3.523  14.640 -0.7468 -4.6404 -0.5350
  741TMC3    H111008   4.267   3.632  14.944  0.8568 -1.6381  0.8246
  741TMC3    H211009   4.040   3.271  14.991 -0.4719  1.5660  1.6497
  741TMC3    C711010   4.230   3.415  15.109 -0.5019  0.0074 -0.2859
  741TMC3    C811011   3.913   3.292  14.753  0.4348  0.7825 -0.4680
  741TMC3    O111012   4.183   3.328  15.181 -0.1048  0.0810  0.1425
  741TMC3    O211013   3.863   3.321  14.649 -0.4271 -0.2879 -0.6794
  742TMC3    C111014   4.115   1.988  15.256  0.4171  0.1016  0.3555
  742TMC3    C211015   4.038   1.926  15.164 -0.7825 -0.6074  0.1987
  742TMC3    C311016   4.091   1.869  15.054 -0.1499  0.1967  0.0051
  742TMC3    C411017   4.251   1.972  15.245 -0.0714 -0.6119 -0.4871
  742TMC3    C511018   4.303   1.917  15.131 -0.1480 -0.1972  0.3166
  742TMC3    C611019   4.226   1.861  15.027  0.1009 -1.0035 -0.1648
  742TMC3     C11020   4.049   2.060  15.364  0.2300  0.0694  0.2024
  742TMC3     O11021   3.937   2.019  15.398 -0.2717  0.1590 -0.2184
  742TMC3     H11022   3.930   1.932  15.163 -0.7403  0.0312 -1.0398
  742TMC3    H111023   4.318   2.023  15.313 -1.5735  0.8072 -0.0684
  742TMC3    H211024   4.265   1.818  14.935  0.7792  0.6333 -0.6316
  742TMC3    C711025   4.440   1.887  15.126  0.5032  0.5816 -0.0613
  742TMC3    C811026   4.002   1.816  14.955  0.7341 -0.2097  0.0777
  742TMC3    O111027   4.479   1.806  15.043 -0.0599  0.2023  0.2401
  742TMC3    O211028   3.901   1.759  14.994  0.0028 -0.0885  0.1338
  743MPD2     C11029   1.089   3.636   1.359 -0.6154 -0.6997 -0.1109
  743MPD2    C111030   1.139   3.524   1.283 -0.1984  0.3965  0.2252
  743MPD2    C211031   1.240   3.444   1.339  0.2545  0.3709  0.1053
  743MPD2    C311032   1.307   3.478   1.459 -0.2136  0.0210  0.5053
  743MPD2    C411033   1.257   3.594   1.530  0.6027 -0.0570 -0.3389
  743MPD2    C511034   1.149   3.665   1.480 -0.3120 -0.0046 -0.9108
  743MPD2     H11035   1.288   3.366   1.281  2.2730  0.6015  1.4767
  743MPD2    H111036   1.297   3.625   1.626  0.3691 -0.0008 -0.2586
  743MPD2    H211037   1.028   3.714   1.315 -0.7226 -0.8880 -0.2985
  743MPD2    H311038   1.117   3.749   1.540  0.7080 -0.3048  0.0541
  743MPD2     N11039   1.421   3.397   1.493 -0.3190 -0.0073 -0.4325
  743MPD2    H511040   1.455   3.328   1.427 -0.2816 -2.6271  2.2860
  743MPD2    N111041   1.099   3.517   1.148 -0.2549  0.6194  0.1973
  743MPD2    H711042   1.033   3.583   1.111 -1.3214 -0.1749  0.6921
  744TMC3    C111043   1.133   3.449   0.925 -0.5295 -0.0978  0.6571
  744TMC3    C211044   1.071   3.554   0.872 -0.6930  0.2699 -0.0403
  744TMC3    C311045   1.074   3.573   0.735  0.4622 -0.1526 -0.5588
  744TMC3    C411046   1.207   3.361   0.850 -0.1704  0.1858  0.4910
  744TMC3    C511047   1.200   3.376   0.716 -0.9749  0.2826  0.5615
  744TMC3    C611048   1.131   3.474   0.659  0.3588 -0.0791 -0.0986
  744TMC3     C11049   1.145   3.418   1.068 -0.0131  0.0612  0.3916
  744TMC3     O11050   1.201   3.312   1.095 -0.4313  0.0518 -0.7340
  744TMC3     H11051   1.013   3.619   0.937 -0.0309  0.2062  0.6182
  744TMC3    H111052   1.261   3.273   0.882 -0.7587 -0.0417  0.8481
  744TMC3    H211053   1.157   3.491   0.555 -1.4465  1.3187 -0.3299
  744TMC3    C711054   1.281   3.293   0.629 -0.5983  0.1883 -0.1361
  744TMC3    C811055   0.982   3.670   0.682  0.3602  0.3510  0.0328
  744TMC3    O111056   1.366   3.225   0.682  0.4246 -0.1463 -0.1820
  744TMC3    O211057   0.954   3.770   0.749 -0.5300 -0.1797  0.0991
  745TMC3    C111058   4.278   1.630  13.504  1.2460  0.0654  0.2772
  745TMC3    C211059   4.198   1.685  13.604  1.0090 -0.3644  0.2866
  745TMC3    C311060   4.139   1.801  13.577  0.6701 -0.1053  0.6862
  745TMC3    C411061   4.305   1.698  13.388 -0.5253 -0.5430 -0.4806
  745TMC3    C511062   4.245   1.818  13.369 -0.0122  0.3614 -0.3435
  745TMC3    C611063   4.158   1.874  13.452  0.6120  0.7914  0.5251
  745TMC3     C11064   4.406   1.581  13.554 -0.2146  0.3893 -0.5374
  745TMC3     O11065   4.403   1.462  13.578 -0.0729  0.2242 -0.5527
  745TMC3     H11066   4.213   1.657  13.707 -1.1986 -1.6027  0.2843
  745TMC3    H111067   4.378   1.654  13.321 -0.4544 -0.1504 -0.6636
  745TMC3    H211068   4.101   1.963  13.429  0.0378  0.6902  1.5282
  745TMC3    C711069   4.300   1.913  13.280  0.0560  0.0731 -0.2452
  745TMC3    C811070   4.068   1.873  13.682  0.6603  0.0258 -0.1598
  745TMC3    O111071   4.254   2.023  13.285  0.6315 -0.2665 -0.0694
  745TMC3    O211072   4.006   1.795  13.753  0.0601 -0.4549  0.2470
  746TMC3    C111073   2.451   3.647  11.284  0.3800 -0.1346  0.4526
  746TMC3    C211074   2.537   3.668  11.175  0.0079  0.2728 -0.3892
  746TMC3    C311075   2.526   3.566  11.078  0.2544 -0.1731  0.2680
  746TMC3    C411076   2.360   3.545  11.294 -0.3730 -0.1899  0.4116
  746TMC3    C511077   2.345   3.460  11.187 -0.1907 -0.1963  0.0439
  746TMC3    C611078   2.434   3.462  11.085 -0.4230  0.3543 -0.4974
  746TMC3     C11079   2.379   3.765  11.315 -0.5266 -0.3697 -0.2451
  746TMC3     O11080   2.299   3.752  11.411 -0.4716  0.1217 -1.1180
  746TMC3     H11081   2.614   3.744  11.181  1.0878 -0.7713 -0.9899
  746TMC3    H111082   2.305   3.535  11.387 -0.5982 -1.7182  0.1104
  746TMC3    H211083   2.420   3.400  10.998  0.0920  2.6434 -2.2135
  746TMC3    C711084   2.212   3.451  11.145  0.0648 -0.4729 -0.6241
  746TMC3    C811085   2.528   3.639  10.958  0.1601 -0.0420 -0.1041
  746TMC3    O111086   2.196   3.414  11.030  0.3379 -0.5989  0.5211
  746TMC3    O211087   2.552   3.755  10.976 -0.1312 -0.2338  0.0866
  747TMC3    C111088   4.253   4.226  11.349  0.6079 -0.4361  0.3071
  747TMC3    C211089   4.255   4.090  11.376 -0.1814  0.2807 -0.4453
  747TMC3    C311090   4.295   4.060  11.502  0.2292 -0.5356  0.1326
  747TMC3    C411091   4.277   4.331  11.440 -0.2164 -0.7218  0.4416
  747TMC3    C511092   4.331   4.292  11.563 -0.0856 -0.4348  0.5471
  747TMC3    C611093   4.334   4.159  11.593  0.0157  0.6533  0.0810
  747TMC3     C11094   4.200   4.268  11.217  0.2105  0.1998  0.1811
  747TMC3     O11095   4.135   4.370  11.216  0.2216 -0.2025 -0.1884
  747TMC3     H11096   4.226   4.009  11.310 -2.2251  0.0239  0.7657
  747TMC3    H111097   4.231   4.429  11.430  0.9762 -0.4435 -2.1627
  747TMC3    H211098   4.387   4.136  11.685  2.2661  1.1675 -1.1125
  747TMC3    C711099   4.319   4.384  11.674 -0.2650 -0.5533 -1.2715
  747TMC3    C811100   4.272   3.922  11.547  0.3903 -0.2641  0.8179
  747TMC3    O111101   4.312   4.336  11.787 -0.0111 -0.4348  0.4965
  747TMC3    O211102   4.226   3.848  11.462  0.1319  0.2114  0.2465
  748MPD2     C11103   1.085   0.184   1.808 -0.5210 -0.0240 -0.6584
  748MPD2    C111104   1.054   0.127   1.688 -0.0228 -0.2734 -0.3737
  748MPD2    C211105   1.159   0.102   1.607 -1.5101  0.0529 -0.0095
  748MPD2    C311106   1.289   0.121   1.649 -0.1868  0.0940  0.1045
  748MPD2    C411107   1.319   0.177   1.773 -0.5325  0.4501 -0.2268
  748MPD2    C511108   1.211   0.211   1.853  0.4007  0.0163 -0.3079
  748MPD2     H11109   1.142   0.072   1.505  0.3770  0.4939 -0.4526
  748MPD2    H111110   1.421   0.203   1.800 -0.4714  0.4151 -0.4239
  748MPD2    H211111   1.007   0.205   1.880  2.2705  2.1608  1.6571
  748MPD2    H311112   1.221   0.265   1.946 -0.9160 -2.2369  1.1346
  748MPD2     N11113   1.387   0.098   1.554 -0.5138 -0.7518 -0.8277
  748MPD2    H511114   1.358   0.056   1.466  0.7937 -0.3231 -1.4530
  748MPD2    N111115   0.916   0.120   1.653 -0.4592  0.3601 -0.0941
  748MPD2    H711116   0.867   0.190   1.708  0.5348 -1.8130  3.5742
  749TMC3    C111117   1.578   0.083   1.432 -0.3754  0.8733 -0.1838
  749TMC3    C211118   1.541   4.689   1.396  0.2779  0.1063  0.1821
  749TMC3    C311119   1.614   4.633   1.297 -0.7555 -0.1195 -0.7258
  749TMC3    C411120   1.665   0.159   1.363  0.0353  0.1894  1.3618
  749TMC3    C511121   1.729   0.096   1.255  0.3343 -0.1398 -0.2564
  749TMC3    C611122   1.700   4.701   1.220 -0.7181 -0.0555  0.2237
  749TMC3     C11123   1.517   0.143   1.550 -0.2840 -0.1382  0.0623
  749TMC3     O11124   1.569   0.233   1.615 -0.8647  0.1365 -0.1136
  749TMC3     H11125   1.464   4.632   1.447 -1.7445 -0.1484 -3.1942
  749TMC3    H111126   1.679   0.264   1.386 -0.3189  0.3635  0.7732
  749TMC3    H211127   1.745   4.647   1.138  1.0108  1.5647  0.0973
  749TMC3    C711128   1.787   0.186   1.161 -0.4363  0.3516  0.4083
  749TMC3    C811129   1.576   4.496   1.249  0.2333 -0.3091 -0.1693
  749TMC3    O111130   1.751   0.300   1.163  0.5512 -0.7343 -0.1813
  749TMC3    O211131   1.457   4.466   1.256 -0.2650 -0.0603  0.1985
  750MPD2     C11132   1.819   0.879  11.351  0.0786  0.0879 -0.5073
  750MPD2    C111133   1.778   0.776  11.433 -0.1078 -0.3506 -0.0469
  750MPD2    C211134   1.787   0.648  11.397  0.2878 -0.1966 -0.0779
  750MPD2    C311135   1.838   0.610  11.273 -0.3675  0.1307  0.0512
  750MPD2    C411136   1.877   0.711  11.192 -0.1236  0.4782  0.3894
  750MPD2    C511137   1.866   0.840  11.230 -0.4695 -0.4505 -0.0615
  750MPD2     H11138   1.750   0.579  11.472 -0.8962  0.0222 -0.4550
  750MPD2    H111139   1.903   0.679  11.092 -0.9321 -0.0944  0.3579
  750MPD2    H211140   1.811   0.982  11.382  0.4233 -0.0648  0.0909
  750MPD2    H311141   1.904   0.909  11.155 -0.8417 -0.8265 -0.5990
  750MPD2     N11142   1.849   0.477  11.224 -0.4935  0.0209 -0.3444
  750MPD2    H511143   1.898   0.477  11.134 -1.8345 -1.3758 -1.0640
  750MPD2    N111144   1.715   0.820  11.554  0.1914  0.6477  0.3771
  750MPD2    H711145   1.697   0.919  11.561 -0.9249  0.3122  2.4770
  751TMC3    C111146   1.798   0.254  11.182  0.6298  0.8996  0.7711
  751TMC3    C211147   1.687   0.173  11.172  0.8459 -0.0756  0.2884
  751TMC3    C311148   1.682   0.088  11.069  0.1999 -0.2450  0.4673
  751TMC3    C411149   1.896   0.247  11.087 -0.2595 -0.0311 -0.4691
  751TMC3    C511150   1.892   0.150  10.991  0.1283 -0.6793  0.2889
  751TMC3    C611151   1.781   0.079  10.973 -0.0208  0.2965 -0.0421
  751TMC3     C11152   1.793   0.371  11.266  0.2549 -0.5488  0.8339
  751TMC3     O11153   1.712   0.362  11.355  0.2992  0.2767  0.2973
  751TMC3     H11154   1.617   0.170  11.255  0.9004 -1.6072  0.2806
  751TMC3    H111155   1.988   0.303  11.104 -0.1751 -0.6827  1.2935
  751TMC3    H211156   1.761   0.013  10.890 -0.1983 -2.7060  2.3952
  751TMC3    C711157   2.006   0.125  10.909  0.0717  0.1013  0.7736
  751TMC3    C811158   1.580   4.718  11.054  0.7673  0.6863  0.0232
  751TMC3    O111159   2.105   0.181  10.930  0.3815  0.2332 -0.4890
  751TMC3    O211160   1.547   4.700  10.940 -0.1793  0.3061 -0.7413
  752TMC3    C111161   1.128   1.380   0.437 -0.6838 -0.3814 -0.3182
  752TMC3    C211162   1.204   1.390   0.549  0.3751 -0.0809 -0.0228
  752TMC3    C311163   1.147   1.425   0.667  0.6644 -0.1344  0.2985
  752TMC3    C411164   1.002   1.434   0.436 -0.0984  0.6055  0.9555
  752TMC3    C511165   0.953   1.471   0.556  0.4491  1.0074 -0.2004
  752TMC3    C611166   1.017   1.468   0.674  0.0659 -0.1260  0.0373
  752TMC3     C11167   1.206   1.393   0.315 -0.4461  0.5337 -0.1976
  752TMC3     O11168   1.314   1.447   0.313  0.0186  0.3222 -0.1443
  752TMC3     H11169   1.308   1.361   0.540  1.3207  3.0046  0.9545
  752TMC3    H111170   0.935   1.449   0.351  0.5460 -0.1154  0.3289
  752TMC3    H211171   0.974   1.502   0.767  0.3264 -2.2293  0.9176
  752TMC3    C711172   0.809   1.507   0.554  0.1399  0.4706  0.1393
  752TMC3    C811173   1.239   1.437   0.776  0.0290  0.1477 -0.5220
  752TMC3    O111174   0.741   1.461   0.464  0.2941 -0.0154  0.4967
  752TMC3    O211175   1.345   1.377   0.774  0.0700 -0.4652  0.1388
  753TMC3    C111176   2.780   1.707  13.392 -0.6086  0.2292 -0.3683
  753TMC3    C211177   2.833   1.636  13.499  0.2622  0.2849 -0.5585
  753TMC3    C311178   2.781   1.513  13.513 -0.2604 -0.6913 -0.6180
  753TMC3    C411179   2.698   1.655  13.300  0.8283 -0.7627  0.2317
  753TMC3    C511180   2.647   1.527  13.312 -0.3937 -0.5071 -0.0573
  753TMC3    C611181   2.689   1.459  13.421  0.0450  0.6395 -0.1725
  753TMC3     C11182   2.824   1.851  13.371  0.2651  0.8215  0.1520
  753TMC3     O11183   2.796   1.907  13.266 -0.0723  0.4291 -0.0759
  753TMC3     H11184   2.898   1.682  13.573  0.8603 -2.4855  0.6406
  753TMC3    H111185   2.652   1.714  13.222  0.7557 -2.1279 -0.7539
  753TMC3    H211186   2.647   1.359  13.429  1.5472 -0.2076 -2.8135
  753TMC3    C711187   2.578   1.470  13.202 -0.0007 -0.5893  0.4223
  753TMC3    C811188   2.820   1.432  13.629 -0.6406  0.2299 -0.0091
  753TMC3    O111189   2.584   1.525  13.094 -0.1810 -0.4710  0.0908
  753TMC3    O211190   2.744   1.339  13.647 -0.1514 -0.5308  0.3068
  754MPD2     C11191   1.794   0.377  13.178  0.8294  0.5693 -0.0884
  754MPD2    C111192   1.786   0.249  13.226  0.0785  0.0432 -0.5203
  754MPD2    C211193   1.664   0.183  13.239  0.1264  0.0398 -0.6346
  754MPD2    C311194   1.546   0.255  13.227  0.2681  0.5098  0.9290
  754MPD2    C411195   1.555   0.388  13.187  0.3780  0.1185  0.1659
  754MPD2    C511196   1.675   0.441  13.161  0.2902  0.3704 -0.6666
  754MPD2     H11197   1.660   0.077  13.262 -2.1794  0.6412  1.7014
  754MPD2    H111198   1.467   0.451  13.180 -0.1355 -0.6056  0.1456
  754MPD2    H211199   1.886   0.434  13.169  1.1802 -0.0093 -0.1357
  754MPD2    H311200   1.672   0.548  13.140  0.0694  0.5537  0.2718
  754MPD2     N11201   1.421   0.201  13.275 -0.0135 -0.4159  0.2898
  754MPD2    H511202   1.335   0.248  13.248 -0.3052 -1.4973 -0.6798
  754MPD2    N111203   1.904   0.189  13.280  0.2711 -0.4065  0.2786
  754MPD2    H711204   1.986   0.242  13.308 -0.7028  1.1030  0.2225
  755MPD2     C11205   0.801   0.701  13.623  0.8590  0.1145  0.7081
  755MPD2    C111206   0.734   0.586  13.620 -0.7456 -0.8875 -0.2740
  755MPD2    C211207   0.789   0.472  13.572  0.3701 -0.7040 -0.1116
  755MPD2    C311208   0.919   0.466  13.535 -0.3497 -0.4142  0.0894
  755MPD2    C411209   0.991   0.583  13.546 -0.3000  0.1225 -0.3243
  755MPD2    C511210   0.937   0.698  13.589 -0.4100  0.0661 -0.3186
  755MPD2     H11211   0.723   0.387  13.557 -0.8553  0.1702  0.3482
  755MPD2    H111212   1.097   0.579  13.521 -0.5217 -4.2680 -0.5720
  755MPD2    H211213   0.768   0.794  13.668 -2.2335 -1.0610  0.8664
  755MPD2    H311214   0.993   0.790  13.595 -0.8667  0.1750  1.9853
  755MPD2     N11215   0.995   0.347  13.521  0.1072 -0.4994  0.1392
  755MPD2    H511216   1.096   0.347  13.527  0.1405  1.5314 -0.4964
  755MPD2    N111217   0.593   0.580  13.660 -0.0966 -0.6172  0.7791
  755MPD2    H711218   0.547   0.490  13.660  1.3269 -1.3393 -0.5108
  756MPD2     C11219   2.221   1.904   9.703 -0.1250  0.1123  0.4860
  756MPD2    C111220   2.101   1.835   9.694 -0.5552  0.8334  0.2973
  756MPD2    C211221   2.003   1.869   9.600 -0.9630 -0.0750  0.2719
  756MPD2    C311222   2.026   1.976   9.507  0.3546 -0.5870 -0.4312
  756MPD2    C411223   2.152   2.041   9.521 -0.1723  0.1460  0.3161
  756MPD2    C511224   2.247   2.003   9.612  0.4654  0.0632  0.7796
  756MPD2     H11225   1.914   1.808   9.592 -0.5287 -0.8960  1.7203
  756MPD2    H111226   2.192   2.098   9.438 -0.1312 -1.3365 -0.7000
  756MPD2    H211227   2.299   1.890   9.776 -0.8043 -2.2157  0.7900
  756MPD2    H311228   2.350   2.039   9.607  0.4494  0.2941  2.1042
  756MPD2     N11229   1.920   2.005   9.420  0.6541 -0.4790  0.7543
  756MPD2    H511230   1.838   1.945   9.425  0.6987 -0.6361 -0.3195
  756MPD2    N111231   2.074   1.729   9.777  0.4459 -0.0950  0.9406
  756MPD2    H711232   1.983   1.692   9.750  0.9160 -2.2470  2.3062
  757MPD2     C11233   1.168   1.673   9.532  0.2392 -0.1063  0.4262
  757MPD2    C111234   1.301   1.639   9.538 -0.2139 -0.6838 -1.1195
  757MPD2    C211235   1.395   1.718   9.472  0.8221 -0.1029 -0.4826
  757MPD2    C311236   1.351   1.836   9.414 -0.0117 -0.2274 -0.2344
  757MPD2    C411237   1.220   1.862   9.408  0.5020 -0.1759 -0.6428
  757MPD2    C511238   1.125   1.782   9.457 -0.2780  0.2894 -0.0970
  757MPD2     H11239   1.502   1.702   9.477  0.7894 -0.6351 -1.7026
  757MPD2    H111240   1.181   1.948   9.355 -0.1954  0.5274  1.0260
  757MPD2    H211241   1.092   1.616   9.584 -0.3539  0.7190  0.4547
  757MPD2    H311242   1.023   1.814   9.443 -0.6592 -1.0002 -0.3088
  757MPD2     N11243   1.450   1.916   9.356 -0.2506 -0.1625  0.5408
  757MPD2    H511244   1.547   1.886   9.355 -0.5719 -1.1643 -0.4309
  757MPD2    N111245   1.333   1.520   9.593 -0.7765  0.2605 -0.1907
  757MPD2    H711246   1.252   1.468   9.626 -0.0981 -0.0732  0.9520
  758MPD2     C11247   1.521   0.016  16.054  0.6236 -0.1684  0.3804
  758MPD2    C111248   1.615   4.714  16.144  0.4451 -0.5077  0.0772
  758MPD2    C211249   1.654   0.072  16.234 -0.6127 -0.3800  0.2031
  758MPD2    C311250   1.610   0.205  16.235  0.2595 -0.5133  0.4848
  758MPD2    C411251   1.513   0.241  16.149  0.0252 -0.1787  0.7158
  758MPD2    C511252   1.469   0.147  16.061 -0.2003  1.4086  0.5072
  758MPD2     H11253   1.738   0.039  16.294  1.4748  2.0548 -1.3211
  758MPD2    H111254   1.461   0.333  16.170 -1.4785 -0.7975 -0.2936
  758MPD2    H211255   1.482   4.681  15.982  2.2867 -1.1890  0.4723
  758MPD2    H311256   1.401   0.176  15.981 -0.5358 -2.8203 -0.7169
  758MPD2     N11257   1.645   0.294  16.345  0.3670  0.0698 -0.2393
  758MPD2    H511258   1.595   0.382  16.346  1.1319  0.5038  0.1871
  758MPD2    N111259   1.683   4.584  16.123 -0.4304 -0.2975  0.1355
  758MPD2    H711260   1.664   4.533  16.038  1.5943 -0.9559  0.0805
  759MPD2     C11261   1.265   2.030   8.854  0.2352 -0.4540  0.0913
  759MPD2    C111262   1.260   2.163   8.804 -0.1309  0.7094 -0.1687
  759MPD2    C211263   1.375   2.204   8.747 -0.2439 -0.0069 -0.5883
  759MPD2    C311264   1.498   2.137   8.740  0.4122 -0.2408  0.1501
  759MPD2    C411265   1.489   2.006   8.784  0.4217 -0.1067  0.8143
  759MPD2    C511266   1.378   1.953   8.835 -0.0570 -0.4584  0.6450
  759MPD2     H11267   1.373   2.306   8.709 -0.7138  0.1841 -0.0737
  759MPD2    H111268   1.572   1.938   8.768  1.9688  1.4911  1.9358
  759MPD2    H211269   1.181   1.974   8.891 -1.7356  2.5578  0.1570
  759MPD2    H311270   1.386   1.851   8.873 -2.2665 -1.0741 -0.5970
  759MPD2     N11271   1.618   2.201   8.686 -0.0226 -0.4645  0.6646
  759MPD2    H511272   1.601   2.291   8.643  1.1847 -1.0088 -0.9561
  759MPD2    N111273   1.149   2.250   8.809 -0.2353 -0.1362  0.5201
  759MPD2    H711274   1.159   2.339   8.761 -2.1469 -0.2131 -0.0202
  760MPD2     C11275   0.329   4.677  11.704 -0.1762  0.4973  0.3103
  760MPD2    C111276   0.363   0.013  11.813  0.1635 -0.5082 -0.2184
  760MPD2    C211277   0.380   4.686  11.937  0.1690 -0.1769 -0.0372
  760MPD2    C311278   0.368   4.555  11.949  0.1211  0.4382 -0.4411
  760MPD2    C411279   0.327   4.482  11.839 -0.0600  0.1781 -0.7303
  760MPD2    C511280   0.308   4.542  11.718 -0.3568 -0.5541 -0.4002
  760MPD2     H11281   0.408   0.019  12.016  1.6764  1.1328 -1.6896
  760MPD2    H111282   0.324   4.374  11.842 -0.2992  0.1640 -1.5934
  760MPD2    H211283   0.315   4.715  11.603 -0.4054 -0.8875 -0.1780
  760MPD2    H311284   0.279   4.474  11.639 -1.6999 -1.8201  1.1603
  760MPD2     N11285   0.401   4.488  12.069 -0.6591  0.2882 -0.2303
  760MPD2    H511286   0.422   4.389  12.061 -1.4444  0.2844 -2.2821
  760MPD2    N111287   0.377   0.159  11.809  0.2904  0.4891 -0.1489
  760MPD2    H711288   0.389   0.206  11.898  3.1850 -0.9526  0.1843
  761MPD2     C11289   1.292   4.327  11.225  0.2680 -0.6535 -0.1026
  761MPD2    C111290   1.323   4.365  11.096 -0.2625  1.0802  0.3861
  761MPD2    C211291   1.405   4.477  11.076  0.5195  0.0602 -0.9259
  761MPD2    C311292   1.456   4.547  11.185  0.0708 -0.1467  0.0435
  761MPD2    C411293   1.417   4.508  11.312  0.1550  0.4870  0.7823
  761MPD2    C511294   1.335   4.400  11.332  0.0103 -0.1835  0.0487
  761MPD2     H11295   1.437   4.509  10.978 -1.2232  0.1196 -1.4622
  761MPD2    H111296   1.463   4.562  11.394  1.4818  0.6102 -0.0395
  761MPD2    H211297   1.224   4.249  11.257  0.4791 -0.2070  1.4479
  761MPD2    H311298   1.298   4.362  11.427 -2.3699  1.3173 -0.2692
  761MPD2     N11299   1.539   4.659  11.173  0.0074  0.5089  0.2164
  761MPD2    H511300   1.565   4.705  11.260 -1.8950 -0.3820  1.2594
  761MPD2    N111301   1.280   4.281  10.990 -0.3207 -0.4315 -0.6873
  761MPD2    H711302   1.222   4.202  11.015 -0.7701  0.0472 -0.1775
  762MPD2     C11303   1.778   4.383  10.937  0.4409 -0.8613  0.5554
  762MPD2    C111304   1.772   4.271  10.860  0.3600  0.8940  0.5071
  762MPD2    C211305   1.889   4.239  10.791  0.0043  0.4036 -0.2966
  762MPD2    C311306   2.013   4.300  10.814  0.5981 -0.6150  0.0449
  762MPD2    C411307   2.010   4.401  10.900 -0.0552 -0.1006  0.3052
  762MPD2    C511308   1.893   4.446  10.951  0.4861 -0.2065 -0.4305
  762MPD2     H11309   1.877   4.153  10.727 -1.5381  1.1198 -0.9717
  762MPD2    H111310   2.091   4.471  10.913  1.1056 -1.4684  0.4207
  762MPD2    H211311   1.693   4.420  10.993  1.0623  0.7312  0.4454
  762MPD2    H311312   1.897   4.534  11.014 -1.9156 -2.3106  2.6854
  762MPD2     N11313   2.126   4.261  10.737  0.0869  0.0417  0.4706
  762MPD2    H511314   2.117   4.180  10.676 -0.9459  1.0854 -0.7762
  762MPD2    N111315   1.647   4.206  10.846  0.1308 -0.7725  0.3307
  762MPD2    H711316   1.557   4.248  10.869  0.0406 -0.1214 -1.1834
  763MPD2     C11317   3.977   4.692  16.201  0.3437  0.6423 -0.5430
  763MPD2    C111318   3.853   0.010  16.189 -0.0351 -0.1911 -0.7333
  763MPD2    C211319   3.838   0.140  16.243  0.2981  0.9109 -1.0060
  763MPD2    C311320   3.938   0.216  16.294 -0.4664  0.2525  0.0292
  763MPD2    C411321   4.060   0.160  16.301  0.8926  0.3049 -0.3325
  763MPD2    C511322   4.076   0.032  16.255 -0.2261  0.1083  0.1555
  763MPD2     H11323   3.737   0.180  16.237  0.1966  0.1401 -4.3250
  763MPD2    H111324   4.146   0.214  16.340  0.9316 -0.1196  0.1828
  763MPD2    H211325   4.015   4.597  16.165 -0.6149  0.0255  0.0839
  763MPD2    H311326   4.176   4.727  16.246  0.6361  2.5198 -0.9587
  763MPD2     N11327   3.920   0.343  16.355  0.3164 -0.5175  0.1985
  763MPD2    H511328   4.004   0.389  16.390 -0.2407  1.7424 -1.4569
  763MPD2    N111329   3.753   4.685  16.114  0.0650 -0.2664 -0.1797
  763MPD2    H711330   3.668   4.735  16.089  0.0793 -0.3907 -0.4672
  764MPD2     C11331   1.716   1.841  17.599  0.0388 -0.3087 -0.0196
  764MPD2    C111332   1.582   1.804  17.621 -0.2219  0.1341 -0.4825
  764MPD2    C211333   1.546   1.766   0.007 -0.1732 -0.3496  0.0389
  764MPD2    C311334   1.639   1.765   0.110 -0.4445 -0.0435 -0.4752
  764MPD2    C411335   1.770   1.792   0.086 -0.2214  0.7146 -0.5272
  764MPD2    C511336   1.803   1.824  17.696 -0.7204  0.0918 -0.2399
  764MPD2     H11337   1.443   1.754   0.037 -0.3987 -1.7067 -1.2640
  764MPD2    H111338   1.851   1.783   0.157 -0.4230  0.6499 -0.3061
  764MPD2    H211339   1.758   1.869  17.503  1.0398 -1.9464 -0.0664
  764MPD2    H311340   1.906   1.843  17.668 -0.2685 -1.7677  0.1382
  764MPD2     N11341   1.591   1.721   0.233  0.2677 -0.6168 -0.1269
  764MPD2    H511342   1.490   1.711   0.242  0.3451 -0.0095  1.3931
  764MPD2    N111343   1.479   1.805  17.516 -0.0407  0.2225 -0.7274
  764MPD2    H711344   1.390   1.763  17.541  0.8740 -1.1621  0.2057
  765MPD2     C11345   1.186   3.930  16.050  0.9975 -0.1714 -0.5775
  765MPD2    C111346   1.256   4.024  15.977  0.3819 -0.0121 -0.2446
  765MPD2    C211347   1.393   3.998  15.953 -0.2027  0.1100 -0.0958
  765MPD2    C311348   1.460   3.889  16.012  0.0476  0.0880 -0.6388
  765MPD2    C411349   1.388   3.798  16.078  0.1772  0.1621  1.4445
  765MPD2    C511350   1.250   3.814  16.092  0.4034  0.0820  0.1931
  765MPD2     H11351   1.452   4.078  15.909 -2.5892  1.0575 -1.5888
  765MPD2    H111352   1.426   3.710  16.130  3.2374  0.8214  0.3251
  765MPD2    H211353   1.080   3.941  16.070  1.1192  0.9236 -0.5493
  765MPD2    H311354   1.194   3.738  16.146 -1.3388  1.0967 -0.1793
  765MPD2     N11355   1.596   3.887  15.992  0.2234  0.2966 -0.1141
  765MPD2    H511356   1.629   3.955  15.924  1.0178 -0.7589 -0.7826
  765MPD2    N111357   1.196   4.143  15.921 -0.2828 -0.3891 -0.7926
  765MPD2    H711358   1.104   4.164  15.959  0.7225 -0.9035  1.9269
  766MPD2     C11359   0.789   4.365  15.366  0.0170 -0.4468 -0.5907
  766MPD2    C111360   0.921   4.377  15.396 -0.5354 -0.0649  0.1815
  766MPD2    C211361   1.016   4.332  15.305  0.1869 -0.3634 -1.0365
  766MPD2    C311362   0.972   4.265  15.190 -0.0040 -0.2618  0.8560
  766MPD2    C411363   0.842   4.256  15.164  0.5646 -0.7255 -0.5800
  766MPD2    C511364   0.747   4.307  15.248 -0.4894  0.6390 -0.6712
  766MPD2     H11365   1.121   4.352  15.325 -0.2605 -0.0109  0.9361
  766MPD2    H111366   0.799   4.206  15.077 -0.6009  1.3581 -1.1935
  766MPD2    H211367   0.717   4.407  15.435  0.3172 -0.0878 -0.4949
  766MPD2    H311368   0.642   4.298  15.225 -0.6644  1.1004 -0.0453
  766MPD2     N11369   1.061   4.216  15.091  0.2410 -0.2865  0.5994
  766MPD2    H511370   1.023   4.195  14.999  1.9593 -1.1199  0.0720
  766MPD2    N111371   0.966   4.429  15.515  0.0579  0.1983 -0.5887
  766MPD2    H711372   1.060   4.464  15.523  0.3035 -1.4124  3.7408
  767MPD2     C11373   0.594   4.506  15.035 -0.4393  0.0100  0.8252
  767MPD2    C111374   0.723   4.511  14.995 -0.1548  0.1842  0.4144
  767MPD2    C211375   0.769   4.435  14.894 -0.5182 -0.6080 -0.3678
  767MPD2    C311376   0.683   4.350  14.825 -0.5921  0.7166 -0.4622
  767MPD2    C411377   0.550   4.345  14.860 -0.4088 -0.1914  0.2051
  767MPD2    C511378   0.506   4.426  14.960  0.0501 -0.6494 -0.6819
  767MPD2     H11379   0.869   4.451  14.856 -0.0709 -0.1015  1.0041
  767MPD2    H111380   0.483   4.273  14.815 -2.6748  1.7857  0.4242
  767MPD2    H211381   0.559   4.581  15.105 -0.9128 -0.0561  0.6618
  767MPD2    H311382   0.400   4.435  14.980  0.6424 -0.9709  2.6411
  767MPD2     N11383   0.734   4.256  14.735 -0.2773 -0.3087  0.5794
  767MPD2    H511384   0.669   4.213  14.670  1.5346 -1.0591 -0.7197
  767MPD2    N111385   0.806   4.605  15.063  0.1265 -0.3628 -1.2078
  767MPD2    H711386   0.778   4.645  15.152  1.4895  0.7033 -1.2398
  768MPD2     C11387   2.064   3.362  10.509 -0.4010  0.1244  0.4124
  768MPD2    C111388   1.984   3.278  10.582  0.0939 -0.2615  0.5202
  768MPD2    C211389   2.043   3.182  10.661 -0.3506 -0.4788  0.4645
  768MPD2    C311390   2.179   3.168  10.672  0.7331 -0.8432 -0.2152
  768MPD2    C411391   2.258   3.260  10.600 -0.3934 -0.3046  0.1624
  768MPD2    C511392   2.202   3.351  10.519  0.0474  0.6428 -0.0474
  768MPD2     H11393   1.980   3.119  10.723 -0.4050 -0.1519  0.7375
  768MPD2    H111394   2.362   3.274  10.627 -0.3997  0.0312  0.0063
  768MPD2    H211395   2.020   3.424  10.432  0.2160 -0.4741 -0.4236
  768MPD2    H311396   2.267   3.420  10.467 -0.0482  1.7311  1.2672
  768MPD2     N11397   2.229   3.075  10.762  0.0378  0.3620 -0.0025
  768MPD2    H511398   2.323   3.104  10.785  0.3834 -0.5784 -0.2608
  768MPD2    N111399   1.847   3.316  10.601  0.2195  0.3794  0.0413
  768MPD2    H711400   1.798   3.277  10.681  1.0404 -0.1872  0.2570
  769MPD2     C11401   3.005   0.883  14.908  0.1889  0.3017  0.3815
  769MPD2    C111402   2.886   0.887  14.979  0.3158 -0.3519 -0.0663
  769MPD2    C211403   2.893   0.908  15.114 -0.5499 -0.3261 -0.0215
  769MPD2    C311404   3.014   0.931  15.183 -0.4272 -0.6205  0.5564
  769MPD2    C411405   3.138   0.928  15.113  0.0592  0.2168  0.4668
  769MPD2    C511406   3.128   0.901  14.979 -0.1579 -0.1326 -0.4877
  769MPD2     H11407   2.797   0.922  15.162  0.1286 -1.2811  1.6105
  769MPD2    H111408   3.236   0.928  15.159  0.2686  3.0324 -0.0294
  769MPD2    H211409   2.998   0.872  14.801  2.2009 -0.2605  0.3136
  769MPD2    H311410   3.216   0.906  14.916  0.4335  2.2892  0.5361
  769MPD2     N11411   3.004   0.954  15.324  0.0312 -0.0706  0.4434
  769MPD2    H511412   2.913   0.938  15.365 -0.5656 -1.5398 -1.4358
  769MPD2    N111413   2.774   0.867  14.899  0.2504  0.1072  0.5004
  769MPD2    H711414   2.787   0.855  14.799 -0.4408  1.2786  0.2689
  770MPD2     C11415   2.030   0.495  15.334 -0.0071 -0.1695  0.2903
  770MPD2    C111416   2.123   0.419  15.269 -0.0150 -0.2492  0.1945
  770MPD2    C211417   2.186   0.470  15.156  0.5056  0.1155  0.3426
  770MPD2    C311418   2.165   0.599  15.118  0.2334 -1.0359  0.1070
  770MPD2    C411419   2.079   0.674  15.196 -0.3084 -0.5002  0.2603
  770MPD2    C511420   2.011   0.626  15.303 -0.0581 -0.4972  0.5089
  770MPD2     H11421   2.252   0.406  15.098  1.0820  0.3702  0.7176
  770MPD2    H111422   2.060   0.780  15.182 -0.5885 -0.2894  2.2578
  770MPD2    H211423   1.996   0.463  15.432 -2.1076  0.7085 -0.1539
  770MPD2    H311424   1.945   0.690  15.360 -2.1232 -0.8132 -1.5154
  770MPD2     N11425   2.238   0.652  15.006  0.7412  0.0950 -0.1952
  770MPD2    H511426   2.293   0.588  14.951 -0.3402  1.4634 -2.8548
  770MPD2    N111427   2.126   0.279  15.308 -0.0866 -0.9352 -0.0864
  770MPD2    H711428   2.060   0.263  15.383  1.4380 -0.9394  1.2368
  771MPD2     C11429   3.607   3.862  13.888  0.4946  0.6479 -0.6503
  771MPD2    C111430   3.507   3.890  13.794  0.4212 -0.0676  0.5930
  771MPD2    C211431   3.402   3.799  13.779 -0.3842  0.0060 -0.1536
  771MPD2    C311432   3.405   3.674  13.850 -0.0710 -0.2201 -0.3751
  771MPD2    C411433   3.499   3.665  13.957  0.3613 -0.2117 -0.5345
  771MPD2    C511434   3.594   3.761  13.976 -0.1723  0.4655  0.3444
  771MPD2     H11435   3.341   3.797  13.689 -2.7751  1.3588  1.4182
  771MPD2    H111436   3.493   3.580  14.024 -0.8413  0.0765 -0.2796
  771MPD2    H211437   3.694   3.926  13.904  1.4057 -0.3619 -1.5884
  771MPD2    H311438   3.664   3.751  14.059  2.6979 -1.2852 -2.3166
  771MPD2     N11439   3.311   3.576  13.821  0.6969  0.0276 -0.4408
  771MPD2    H511440   3.237   3.595  13.755 -0.1463  1.1144  0.8187
  771MPD2    N111441   3.507   4.011  13.718 -0.5740  0.3635 -0.1128
  771MPD2    H711442   3.418   4.040  13.679 -0.2039  0.9433 -0.5398
  772MPD2     C11443   3.058   4.495  13.435 -0.1113 -0.1960 -0.0800
  772MPD2    C111444   3.104   4.380  13.493  0.4863  0.8246  0.7011
  772MPD2    C211445   3.013   4.279  13.524  0.9275 -0.2186  0.3839
  772MPD2    C311446   2.877   4.288  13.483 -0.0612 -0.5371 -0.0707
  772MPD2    C411447   2.838   4.407  13.431 -0.1959  0.1024  0.3065
  772MPD2    C511448   2.931   4.509  13.412  0.0715 -0.5024  0.2537
  772MPD2     H11449   3.050   4.180  13.550  1.8976 -0.0163 -0.2288
  772MPD2    H111450   2.735   4.427  13.405  0.5727  1.0657 -1.9985
  772MPD2    H211451   3.120   4.584  13.427 -0.8044  0.3499  0.5321
  772MPD2    H311452   2.894   4.601  13.368 -0.7572 -0.5433  0.8666
  772MPD2     N11453   2.783   4.179  13.497 -0.2298  0.3044  0.1608
  772MPD2    H511454   2.687   4.191  13.465  1.0865  1.4908 -3.2871
  772MPD2    N111455   3.242   4.352  13.520 -0.0107 -0.1047 -0.2515
  772MPD2    H711456   3.262   4.256  13.547 -0.2061 -0.4672 -1.3919
  773MPD2     C11457   2.480   0.338   0.244  0.2857  0.0471  0.2297
  773MPD2    C111458   2.461   0.240   0.156  0.1928 -0.0032 -0.1181
  773MPD2    C211459   2.502   0.111   0.195  0.2382  0.6448  0.6281
  773MPD2    C311460   2.572   0.087   0.313  0.7739  0.1027 -0.2187
  773MPD2    C411461   2.599   0.193   0.396  0.0993 -0.4667  0.2994
  773MPD2    C511462   2.552   0.320   0.362  0.5735  0.1024  0.7077
  773MPD2     H11463   2.477   0.025   0.134 -0.7554  0.2583  1.5808
  773MPD2    H111464   2.655   0.191   0.488 -0.7524 -1.3771  0.7975
  773MPD2    H211465   2.467   0.442   0.215 -1.2292 -0.0740  0.4583
  773MPD2    H311466   2.580   0.400   0.430 -3.0266  2.1368 -0.1805
  773MPD2     N11467   2.618   4.689   0.342  0.2914 -0.2367 -0.6131
  773MPD2    H511468   2.597   4.612   0.280  3.8802 -0.3625 -1.6320
  773MPD2    N111469   2.385   0.258   0.033 -0.6662 -0.2030  0.0253
  773MPD2    H711470   2.359   0.178  17.717 -2.8656 -0.6970  1.7351
  774MPD2     C11471   1.604   4.036  13.617 -0.0117 -0.5805 -0.5695
  774MPD2    C111472   1.648   4.089  13.736 -0.0771 -0.2802 -0.1264
  774MPD2    C211473   1.734   4.201  13.734  0.1386 -0.1354  0.1051
  774MPD2    C311474   1.785   4.248  13.621  0.4864  0.0304 -0.2494
  774MPD2    C411475   1.739   4.186  13.500  0.1050  0.0977  0.0639
  774MPD2    C511476   1.643   4.091  13.500  0.2605 -0.4454  0.4718
  774MPD2     H11477   1.768   4.244  13.828  2.2845  2.3673 -1.8237
  774MPD2    H111478   1.776   4.231  13.409  2.6231  0.4149  1.2304
  774MPD2    H211479   1.551   3.941  13.610 -1.8288  0.4511 -0.8041
  774MPD2    H311480   1.614   4.044  13.407 -0.6109 -0.2807  0.6617
  774MPD2     N11481   1.871   4.363  13.620 -0.9501  0.1268 -0.3214
  774MPD2    H511482   1.874   4.413  13.708 -1.5978 -0.3626 -0.0196
  774MPD2    N111483   1.627   4.029  13.856  0.1492 -0.0771  0.1074
  774MPD2    H711484   1.679   4.066  13.935 -2.5979  0.4191  1.6832
  775MPD2     C11485   3.150   0.817  15.989  0.4691 -0.3882 -0.0659
  775MPD2    C111486   3.122   0.939  16.047  0.1281  0.6541 -0.3593
  775MPD2    C211487   3.209   1.044  16.028  0.4383 -0.6095  0.3310
  775MPD2    C311488   3.322   1.034  15.947 -0.8485  0.4695  0.1363
  775MPD2    C411489   3.350   0.922  15.880 -0.0025  0.4861 -0.1041
  775MPD2    C511490   3.259   0.815  15.903 -0.2757  0.3161 -0.0931
  775MPD2     H11491   3.186   1.139  16.076  0.5380 -0.6079  0.3782
  775MPD2    H111492   3.426   0.903  15.805 -0.3132 -1.7439  0.1643
  775MPD2    H211493   3.097   0.723  16.000  1.8927 -0.8734  2.5818
  775MPD2    H311494   3.278   0.718  15.858  0.0369 -0.2084  1.1487
  775MPD2     N11495   3.395   1.149  15.909  0.1483 -0.6274  0.0695
  775MPD2    H511496   3.459   1.137  15.831  1.2012 -0.1716  0.8507
  775MPD2    N111497   3.014   0.942  16.135  0.2904 -0.4029  0.5607
  775MPD2    H711498   2.968   0.852  16.148 -2.5675  0.8432 -1.1207
  776MPD2     C11499   0.976   1.184  11.705 -0.6256  0.3421 -0.2554
  776MPD2    C111500   1.113   1.193  11.713 -0.0982  0.1645  0.2043
  776MPD2    C211501   1.173   1.313  11.672  0.3128  0.9038 -0.5949
  776MPD2    C311502   1.103   1.423  11.634 -0.0604  0.5370  0.4129
  776MPD2    C411503   0.967   1.411  11.630  0.2125  0.4109 -0.0256
  776MPD2    C511504   0.906   1.292  11.657  0.1119 -0.3865 -0.2883
  776MPD2     H11505   1.282   1.319  11.670  0.3900 -0.7649 -1.0911
  776MPD2    H111506   0.905   1.494  11.596  0.9459  1.0735  0.2735
  776MPD2    H211507   0.924   1.091  11.729  1.6605 -0.3493  2.0437
  776MPD2    H311508   0.800   1.287  11.636 -0.1397  0.2396  0.7975
  776MPD2     N11509   1.151   1.548  11.588  0.1981  0.7433 -0.1455
  776MPD2    H511510   1.074   1.610  11.565 -0.0923  0.0462 -1.0280
  776MPD2    N111511   1.186   1.079  11.745  0.2838 -0.2313 -0.3083
  776MPD2    H711512   1.130   0.997  11.768  1.0767 -0.5537  0.4794
  777MPD2     C11513   2.496   3.430   0.789  0.6378 -0.2220 -0.3344
  777MPD2    C111514   2.369   3.472   0.819 -0.6801 -0.4062 -0.0715
  777MPD2    C211515   2.270   3.405   0.753 -0.1125  0.8846  0.0794
  777MPD2    C311516   2.303   3.303   0.655  0.8634  0.3574 -0.2560
  777MPD2    C411517   2.435   3.260   0.650  0.3857  0.0928  0.2482
  777MPD2    C511518   2.531   3.329   0.712 -0.2266 -0.3176  0.7046
  777MPD2     H11519   2.164   3.419   0.771  0.0129 -0.6730  1.9425
  777MPD2    H111520   2.473   3.174   0.596  2.7378  1.0293  0.4405
  777MPD2    H211521   2.578   3.470   0.847 -1.2066  2.5829  0.3750
  777MPD2    H311522   2.629   3.283   0.705  0.2547  0.5882  1.5246
  777MPD2     N11523   2.206   3.241   0.574 -0.4580 -0.5195  0.6479
  777MPD2    H511524   2.113   3.279   0.591 -0.7973 -1.4106  0.8008
  777MPD2    N111525   2.347   3.564   0.924 -0.2278  0.2130 -0.5627
  777MPD2    H711526   2.426   3.578   0.985 -0.5429 -2.9915  0.5536
  778MPD2     C11527   3.378   3.956  14.826  0.0332 -0.4090  0.7042
  778MPD2    C111528   3.359   3.850  14.736 -0.1745 -0.0207  0.2180
  778MPD2    C211529   3.394   3.874  14.603 -0.0688  0.0741 -0.5956
  778MPD2    C311530   3.443   3.999  14.556  0.2339 -0.0987  0.3854
  778MPD2    C411531   3.463   4.094  14.656 -0.7773 -0.7100 -0.0807
  778MPD2    C511532   3.430   4.074  14.785 -0.1969 -0.1307 -0.1197
  778MPD2     H11533   3.382   3.807  14.519 -3.0260 -0.9673  0.6758
  778MPD2    H111534   3.485   4.198  14.635 -2.2376 -0.1831  0.9601
  778MPD2    H211535   3.336   3.960  14.926 -3.1355  1.4774 -0.6994
  778MPD2    H311536   3.438   4.162  14.847  0.7111 -0.6882  0.5487
  778MPD2     N11537   3.475   4.022  14.422  0.1314 -0.6918  0.0407
  778MPD2    H511538   3.443   3.953  14.355  0.0757 -0.9765  0.3619
  778MPD2    N111539   3.306   3.726  14.770  0.6467  0.1911 -0.1304
  778MPD2    H711540   3.290   3.663  14.691  0.4616 -0.0682  0.1149
  779MPD2     C11541   3.367   2.349  13.823  0.8237  0.8609 -0.0317
  779MPD2    C111542   3.360   2.340  13.959 -0.7241  0.0372  0.4275
  779MPD2    C211543   3.361   2.459  14.027 -0.2850  0.1089 -0.9466
  779MPD2    C311544   3.345   2.578  13.959  0.0104  0.2583  0.7237
  779MPD2    C411545   3.356   2.584  13.823 -0.2840 -0.0687 -0.3555
  779MPD2    C511546   3.377   2.472  13.754  0.0002 -0.1363 -0.0126
  779MPD2     H11547   3.337   2.459  14.133  3.4720  1.4803 -0.1152
  779MPD2    H111548   3.365   2.679  13.770 -1.1952  0.7367  0.9362
  779MPD2    H211549   3.366   2.261  13.761 -0.8739  1.0102 -0.2243
  779MPD2    H311550   3.379   2.465  13.646 -3.6675  1.1193 -0.1472
  779MPD2     N11551   3.324   2.699  14.029 -0.1971  0.6911  0.1032
  779MPD2    H511552   3.307   2.787  13.981  2.1887  0.3657 -1.3673
  779MPD2    N111553   3.353   2.212  14.024 -0.2653  0.6454  0.1166
  779MPD2    H711554   3.371   2.131  13.965 -1.0279 -1.0024  2.1780
  780MPD2     C11555   3.004   2.499   1.085  0.1279  0.3964 -0.0617
  780MPD2    C111556   2.882   2.566   1.060 -0.8318  0.0415  0.3263
  780MPD2    C211557   2.827   2.563   0.932  0.3763  0.1693 -0.5222
  780MPD2    C311558   2.896   2.508   0.829  0.1644  0.7083 -0.0996
  780MPD2    C411559   3.024   2.457   0.853 -1.1577 -1.1903  0.4072
  780MPD2    C511560   3.078   2.457   0.974 -0.1669  0.1817  0.0392
  780MPD2     H11561   2.735   2.611   0.904 -0.3743 -1.5089 -0.9045
  780MPD2    H111562   3.084   2.410   0.776 -1.9195  0.5310 -1.2381
  780MPD2    H211563   3.053   2.495   1.181 -1.7378 -1.8976  0.8139
  780MPD2    H311564   3.171   2.404   0.992 -1.2684 -1.7594  0.0436
  780MPD2     N11565   2.838   2.514   0.696 -0.0883  0.0018 -0.0779
  780MPD2    H511566   2.749   2.562   0.698  0.2863  0.6031  3.0092
  780MPD2    N111567   2.815   2.632   1.170 -0.4894  0.8250 -0.0751
  780MPD2    H711568   2.842   2.618   1.267  0.1779  1.2117 -0.2024
  781MPD2     C11569   3.796   4.493  12.686 -0.5302  0.0172  0.0009
  781MPD2    C111570   3.922   4.445  12.713 -0.3335 -0.1948  0.4956
  781MPD2    C211571   4.028   4.521  12.674  0.4085  0.8323 -0.0423
  781MPD2    C311572   4.022   4.639  12.606  0.3080  0.2010  0.5819
  781MPD2    C411573   3.899   4.687  12.585 -0.3290  0.1531 -0.0688
  781MPD2    C511574   3.787   4.616  12.620 -0.6517 -0.0250  0.6406
  781MPD2     H11575   4.122   4.477  12.705  0.3914  1.2990  0.6863
  781MPD2    H111576   3.882   0.042  12.528  0.0869  1.0571  1.2529
  781MPD2    H211577   3.708   4.443  12.725  0.9737 -0.4766  2.7408
  781MPD2    H311578   3.691   4.660  12.597 -1.7760 -2.2644  0.9996
  781MPD2     N11579   4.139   4.704  12.561 -0.3402 -0.1699 -0.1628
  781MPD2    H511580   4.127   0.049  12.500 -0.9790 -0.1981 -0.0683
  781MPD2    N111581   3.954   4.313  12.774  0.6735 -0.2171 -0.0663
  781MPD2    H711582   4.050   4.286  12.791  0.8690 -0.3599 -1.4192
  782MPD2     C11583   2.490   0.582  10.128 -0.0816 -0.7665 -0.1233
  782MPD2    C111584   2.543   0.580  10.253 -0.2823  1.1369 -0.4568
  782MPD2    C211585   2.502   0.674  10.346 -0.7143  0.0737  0.0156
  782MPD2    C311586   2.428   0.775  10.303  0.5061 -0.2859 -0.8245
  782MPD2    C411587   2.383   0.787  10.172  0.4802  0.1119 -0.2364
  782MPD2    C511588   2.414   0.687  10.083 -0.1422  0.3811 -0.5414
  782MPD2     H11589   2.525   0.669  10.452  1.0016 -1.4007 -0.4198
  782MPD2    H111590   2.328   0.874  10.138 -1.6071 -0.7649  0.8892
  782MPD2    H211591   2.512   0.503  10.057  1.1476  1.1745 -1.8939
  782MPD2    H311592   2.371   0.682   9.984 -0.5827 -1.7074 -0.2439
  782MPD2     N11593   2.406   0.875  10.404  0.1128 -0.2229  0.0502
  782MPD2    H511594   2.425   0.846  10.499 -0.3051  1.5591  0.6720
  782MPD2    N111595   2.612   0.467  10.294 -0.1558  0.3313 -0.3012
  782MPD2    H711596   2.612   0.398  10.220 -1.6278  0.1359 -0.1154
  783MPD2     C11597   2.015   4.619  10.618  0.4522 -1.0206  0.1519
  783MPD2    C111598   2.065   4.710  10.709  0.3914 -0.3076 -0.0550
  783MPD2    C211599   2.194   0.020  10.697  0.0398  0.1973 -0.3904
  783MPD2    C311600   2.278   4.719  10.592  0.2325  0.3774  0.2849
  783MPD2    C411601   2.222   4.636  10.494  0.2614  0.6158 -0.2736
  783MPD2    C511602   2.097   4.585  10.513  0.6067  0.7205 -0.2219
  783MPD2     H11603   2.231   0.099  10.761 -0.5183 -1.5859  2.1208
  783MPD2    H111604   2.291   4.594  10.420 -0.9294 -0.8553 -0.5502
  783MPD2    H211605   1.913   4.583  10.629 -0.0486  0.3797  0.1104
  783MPD2    H311606   2.054   4.516  10.442  1.4508  0.5239 -0.5366
  783MPD2     N11607   2.404   0.046  10.587 -0.2172 -0.5690  0.1145
  783MPD2    H511608   2.434   0.101  10.666 -0.5258  0.9424 -0.8245
  783MPD2    N111609   1.984   0.021  10.815  0.7599 -0.0171 -0.2040
  783MPD2    H711610   1.903   4.697  10.827  2.4777 -2.0381  1.2380
  784MPD2     C11611   0.673   1.203   0.771 -0.3657 -0.3158  0.4236
  784MPD2    C111612   0.615   1.289   0.859 -0.3834 -1.0146 -0.2732
  784MPD2    C211613   0.484   1.320   0.851 -0.1960  0.4884  0.3831
  784MPD2    C311614   0.407   1.262   0.748 -0.5005 -0.4599  0.3323
  784MPD2    C411615   0.464   1.170   0.664 -1.0861  0.0347 -0.5330
  784MPD2    C511616   0.598   1.145   0.676  0.5014  0.1979 -0.1818
  784MPD2     H11617   0.442   1.390   0.923  1.2961  0.3449  1.3862
  784MPD2    H111618   0.407   1.106   0.598  2.7575 -1.3904 -2.4890
  784MPD2    H211619   0.780   1.187   0.773 -0.2625  0.3272 -0.1301
  784MPD2    H311620   0.638   1.070   0.610 -0.1751 -0.5862  0.3044
  784MPD2     N11621   0.267   1.288   0.749 -0.0921  0.0582  0.5038
  784MPD2    H511622   0.237   1.361   0.814 -0.4662  1.3172 -1.0983
  784MPD2    N111623   0.690   1.346   0.969 -0.4693  0.0281  0.3051
  784MPD2    H711624   0.634   1.412   1.021  1.4676  0.6584  1.5669
  785MPD2     C11625   1.194   3.672   9.929  0.1745  0.2865  0.0883
  785MPD2    C111626   1.075   3.727   9.874  0.4203 -0.4922  0.2103
  785MPD2    C211627   1.059   3.738   9.734  0.3950 -0.3950  0.7259
  785MPD2    C311628   1.164   3.710   9.647  0.3374 -0.3302  0.1342
  785MPD2    C411629   1.282   3.662   9.709  0.3891  0.4310 -0.1317
  785MPD2    C511630   1.299   3.638   9.841 -0.3908 -0.0398 -0.2080
  785MPD2     H11631   0.965   3.761   9.686 -0.1815  1.6526  2.8382
  785MPD2    H111632   1.369   3.637   9.649 -0.1544 -1.4333 -0.1333
  785MPD2    H211633   1.207   3.637  10.031  2.4134 -0.9982 -0.6285
  785MPD2    H311634   1.385   3.583   9.877 -0.7202  0.2349  0.9912
  785MPD2     N11635   1.139   3.730   9.507 -0.2212 -0.1096 -1.0216
  785MPD2    H511636   1.046   3.763   9.482 -0.2345  1.1864  0.7687
  785MPD2    N111637   0.973   3.765   9.970 -0.5325  0.0670  0.3105
  785MPD2    H711638   0.999   3.748  10.067 -1.8223 -1.1875  0.4379
  786MPD2     C11639   3.871   1.735  14.463  0.5113 -0.2813 -0.2966
  786MPD2    C111640   3.824   1.684  14.582 -0.2187  0.5969  0.5763
  786MPD2    C211641   3.882   1.709  14.703 -0.1805  0.0581  0.3586
  786MPD2    C311642   3.991   1.794  14.709 -0.1683 -0.4544  0.5669
  786MPD2    C411643   4.038   1.851  14.596 -0.2286 -0.5799  0.0914
  786MPD2    C511644   3.974   1.822  14.476 -0.1696  0.2071 -0.8492
  786MPD2     H11645   3.839   1.660  14.790  1.8844 -2.1773  0.1298
  786MPD2    H111646   4.129   1.909  14.601  0.1203 -1.1773  0.6829
  786MPD2    H211647   3.832   1.712  14.365  0.4462  0.9076 -0.5501
  786MPD2    H311648   4.010   1.854  14.379  0.5310 -1.2772 -1.0804
  786MPD2     N11649   4.054   1.824  14.828  0.2614 -0.1938 -0.5142
  786MPD2    H511650   4.135   1.882  14.807  0.9163 -1.5196 -1.6322
  786MPD2    N111651   3.723   1.592  14.569 -0.6508  0.1568 -0.0333
  786MPD2    H711652   3.712   1.539  14.655  0.5302  0.0827  0.0768
  787MPD2     C11653   3.410   1.143  15.024 -0.4343 -0.3804 -0.8033
  787MPD2    C111654   3.507   1.164  14.929  0.0416 -0.1984 -0.1582
  787MPD2    C211655   3.635   1.116  14.936  0.0902 -0.1199 -0.4218
  787MPD2    C311656   3.674   1.038  15.042  0.1916 -0.5187 -0.5970
  787MPD2    C411657   3.581   1.016  15.142 -0.0302 -0.3194 -0.1730
  787MPD2    C511658   3.444   1.068  15.132 -0.3363 -0.0826 -0.0558
  787MPD2     H11659   3.706   1.132  14.855 -2.2358 -0.7889 -2.5890
  787MPD2    H111660   3.610   0.971  15.236  0.0030 -0.4043 -0.2243
  787MPD2    H211661   3.312   1.190  15.020  0.0484  0.7862  0.9113
  787MPD2    H311662   3.377   1.046  15.214 -2.2569  1.3998 -1.2368
  787MPD2     N11663   3.801   0.981  15.040 -0.0038  0.5140 -0.6728
  787MPD2    H511664   3.864   1.007  14.965  0.1549  0.9136 -0.3980
  787MPD2    N111665   3.483   1.247  14.808 -0.0324  0.3553  1.1456
  787MPD2    H711666   3.561   1.252  14.743 -1.1654  1.9988 -0.1009
  788MPD2     C11667   1.293   1.013   1.221  0.1855  0.1677  0.1578
  788MPD2    C111668   1.302   0.907   1.135  0.2287 -0.5493  0.0154
  788MPD2    C211669   1.330   0.932   1.004 -0.1377 -0.3516 -0.7299
  788MPD2    C311670   1.354   1.062   0.954 -0.1243  0.0652 -0.0556
  788MPD2    C411671   1.344   1.168   1.042 -0.3155 -0.2145  0.3262
  788MPD2    C511672   1.311   1.141   1.175  0.6604 -0.1550  0.2348
  788MPD2     H11673   1.337   0.852   0.931 -2.1801  0.6094 -1.9892
  788MPD2    H111674   1.358   1.269   1.008 -1.3262  0.5392  2.1589
  788MPD2    H211675   1.269   0.988   1.324  1.6057 -1.7908  0.0216
  788MPD2    H311676   1.323   1.220   1.248 -1.7592  3.1664 -2.9841
  788MPD2     N11677   1.382   1.086   0.817  0.0098 -0.1777  0.1332
  788MPD2    H511678   1.411   1.178   0.786  0.9097 -0.8038 -0.8815
  788MPD2    N111679   1.278   0.778   1.188  0.2358 -0.0936 -0.0813
  788MPD2    H711680   1.232   0.778   1.279  0.8059 -1.0936  0.2077
  789MPD2     C11681   1.431   0.177  16.722 -0.2722  0.0459 -0.2176
  789MPD2    C111682   1.373   0.216  16.600 -0.1539  0.3507 -0.2283
  789MPD2    C211683   1.317   0.339  16.576 -0.4939 -0.4864 -1.2126
  789MPD2    C311684   1.312   0.421  16.685  0.2978  0.1217  0.4120
  789MPD2    C411685   1.369   0.385  16.807  0.5321  0.3320 -0.3230
  789MPD2    C511686   1.425   0.264  16.827 -0.4051  0.1989 -0.7319
  789MPD2     H11687   1.272   0.375  16.485 -1.3491 -0.0491 -0.6150
  789MPD2    H111688   1.373   0.454  16.890  1.1902 -2.1061  1.6772
  789MPD2    H211689   1.485   0.086  16.744  0.1058  0.1624 -0.6662
  789MPD2    H311690   1.475   0.234  16.918  0.0719 -0.8231 -1.3233
  789MPD2     N11691   1.242   0.545  16.688 -0.2409 -0.5020  0.0434
  789MPD2    H511692   1.247   0.595  16.776 -0.0958 -1.1605  0.4116
  789MPD2    N111693   1.358   0.125  16.495 -0.1354  0.1148 -0.2059
  789MPD2    H711694   1.304   0.176  16.426 -2.2787 -0.0345  1.3819
  790MPD2     C11695   2.576   1.867  13.630 -0.0111 -0.7749 -0.7343
  790MPD2    C111696   2.518   1.738  13.649  0.5033 -0.0413  1.0826
  790MPD2    C211697   2.438   1.688  13.556 -0.1645 -0.4202 -0.4043
  790MPD2    C311698   2.402   1.767  13.449 -0.1885  0.2006 -0.0362
  790MPD2    C411699   2.458   1.893  13.423  0.1856  0.6504  0.3169
  790MPD2    C511700   2.546   1.944  13.514  0.4459  0.4484 -0.2038
  790MPD2     H11701   2.394   1.590  13.569 -0.9839 -0.1198 -0.9321
  790MPD2    H111702   2.445   1.949  13.331  1.6143 -0.7460 -0.7285
  790MPD2    H211703   2.648   1.904  13.701  0.0419 -0.2057 -1.0889
  790MPD2    H311704   2.601   2.036  13.504  1.4816 -0.3022 -1.4532
  790MPD2     N11705   2.319   1.697  13.354  0.2986 -0.6311  0.8594
  790MPD2    H511706   2.276   1.606  13.371  0.0409 -0.8192 -0.7269
  790MPD2    N111707   2.545   1.674  13.770 -0.2655  0.4613 -0.3156
  790MPD2    H711708   2.588   1.731  13.842 -1.9934 -0.2637  1.2776
  791MPD2     C11709   1.624   1.550  13.332  0.6244 -0.0015 -0.1140
  791MPD2    C111710   1.696   1.501  13.228  0.2961 -0.2056 -0.0854
  791MPD2    C211711   1.640   1.399  13.153  0.2939  0.0859 -0.6636
  791MPD2    C311712   1.504   1.368  13.155  0.4614  0.3020 -0.6045
  791MPD2    C411713   1.428   1.423  13.260 -0.4061 -0.0244  0.0276
  791MPD2    C511714   1.491   1.512  13.351  0.7800 -0.4593  0.2814
  791MPD2     H11715   1.692   1.368  13.063 -1.2513 -1.6008 -0.9796
  791MPD2    H111716   1.325   1.389  13.269 -0.6478  0.3075 -1.4405
  791MPD2    H211717   1.665   1.630  13.393  1.8315 -1.9135  1.6105
  791MPD2    H311718   1.431   1.560  13.428 -0.8759 -1.6978 -0.2250
  791MPD2     N11719   1.476   1.267  13.061 -0.1186  0.2093 -0.3885
  791MPD2    H511720   1.555   1.230  13.009  0.1766  0.3735 -0.0567
  791MPD2    N111721   1.822   1.553  13.208  0.1552 -0.0592  0.2931
  791MPD2    H711722   1.857   1.610  13.285  0.3701  0.1827  0.0117
  792MPD2     C11723   2.429   1.584  11.224  0.1153  0.1439 -0.0758
  792MPD2    C111724   2.384   1.642  11.108 -0.6057 -0.1947  0.7592
  792MPD2    C211725   2.261   1.601  11.063 -0.0047  0.4841  0.7617
  792MPD2    C311726   2.192   1.498  11.131 -0.2237 -0.0879  0.0547
  792MPD2    C411727   2.254   1.430  11.233  0.5677 -0.2795 -0.2138
  792MPD2    C511728   2.367   1.478  11.284  0.2744 -0.3897  0.5869
  792MPD2     H11729   2.220   1.644  10.973 -1.3888 -0.1092  1.0960
  792MPD2    H111730   2.215   1.338  11.276 -0.7537  1.0887  1.5473
  792MPD2    H211731   2.525   1.614  11.265 -1.4872  2.9281  1.6249
  792MPD2    H311732   2.423   1.428  11.362 -0.9195 -0.4142  1.4194
  792MPD2     N11733   2.076   1.438  11.074 -0.4626  0.0234 -0.1085
  792MPD2    H511734   2.046   1.347  11.109 -0.1536 -0.0006  0.0954
  792MPD2    N111735   2.466   1.750  11.058  0.0035 -0.7534  0.3985
  792MPD2    H711736   2.550   1.776  11.110  0.9847 -1.1927 -0.9437
  793MPD2     C11737   1.501   1.596  10.278 -0.9159 -1.0736  0.3055
  793MPD2    C111738   1.635   1.584  10.315 -0.0690  0.6720  0.3551
  793MPD2    C211739   1.668   1.555  10.442  0.0845  0.1126  0.5302
  793MPD2    C311740   1.575   1.537  10.543  0.1296  0.9732  0.1232
  793MPD2    C411741   1.440   1.538  10.506  0.5126  0.2193  0.2155
  793MPD2    C511742   1.407   1.563  10.371 -1.0080 -0.4898  0.6347
  793MPD2     H11743   1.772   1.542  10.470  0.0614  0.0952  0.6068
  793MPD2    H111744   1.362   1.510  10.575 -1.5000 -2.2213 -3.0326
  793MPD2    H211745   1.472   1.629  10.179  2.0752 -1.9818 -0.8856
  793MPD2    H311746   1.303   1.556  10.344 -0.3044 -2.3860 -1.5615
  793MPD2     N11747   1.628   1.494  10.663  0.1420  0.4478  0.3002
  793MPD2    H511748   1.729   1.492  10.673  0.4348  0.2564 -2.7705
  793MPD2    N111749   1.749   1.571  10.220 -0.5356  0.2072  0.2334
  793MPD2    H711750   1.838   1.546  10.262 -1.6766 -1.5021  1.6403
  794MPD2     C11751   2.198   0.938  17.306  0.0467 -0.1601  0.3283
  794MPD2    C111752   2.125   0.835  17.259 -0.5072 -0.0053 -0.0163
  794MPD2    C211753   2.059   0.846  17.139 -0.0290 -0.3234 -0.8823
  794MPD2    C311754   2.063   0.965  17.071 -0.7517  0.6950 -0.2261
  794MPD2    C411755   2.122   1.071  17.126  0.0391 -0.8537 -0.0026
  794MPD2    C511756   2.191   1.061  17.240  0.0592  0.2937 -0.5905
  794MPD2     H11757   2.007   0.758  17.101  0.5510 -0.8319 -0.4987
  794MPD2    H111758   2.112   1.167  17.076  0.6444 -0.8458 -0.1071
  794MPD2    H211759   2.252   0.932  17.400 -0.8352  2.1724  0.9731
  794MPD2    H311760   2.238   1.151  17.278  0.4490 -0.0830 -0.1855
  794MPD2     N11761   2.000   0.981  16.947  1.1226  0.4988  0.1470
  794MPD2    H511762   1.982   1.079  16.925  2.1862  0.5847 -0.3743
  794MPD2    N111763   2.121   0.709  17.320 -0.6554  0.0833 -0.5783
  794MPD2    H711764   2.057   0.643  17.278  0.5885 -0.6055 -1.3726
  795MPD2     C11765   4.550   2.832  13.769  0.2380  0.1278 -0.6068
  795MPD2    C111766   4.487   2.719  13.717 -0.9975  0.9376 -0.3670
  795MPD2    C211767   4.575   2.615  13.688 -0.0766 -0.1124  0.6965
  795MPD2    C311768   4.712   2.627  13.721 -0.3783 -0.4534  0.2331
  795MPD2    C411769   0.025   2.732  13.794 -0.4954  0.3294 -0.2007
  795MPD2    C511770   4.678   2.839  13.804  0.1382  0.3405 -0.8806
  795MPD2     H11771   4.534   2.533  13.632  2.0517 -0.0300 -0.9424
  795MPD2    H111772   0.124   2.738  13.837 -0.1242  1.7905 -1.2525
  795MPD2    H211773   4.498   2.926  13.782 -3.2924 -1.8557 -0.4748
  795MPD2    H311774   4.721   2.928  13.849  3.4573  0.5168 -4.4734
  795MPD2     N11775   0.058   2.525  13.671  0.4918  0.1720 -0.1898
  795MPD2    H511776   0.009   2.446  13.630  1.6279 -0.4539 -0.3533
  795MPD2    N111777   4.345   2.706  13.695  0.1393 -0.0753 -0.3178
  795MPD2    H711778   4.321   2.622  13.644  2.0696 -0.8611  0.0672
  796MPD2     C11779   4.002   4.325  15.788 -0.0208 -0.0264  0.2939
  796MPD2    C111780   4.094   4.371  15.877 -0.2119 -0.1620  0.2730
  796MPD2    C211781   4.095   4.501  15.906 -0.6288 -0.4718 -0.6604
  796MPD2    C311782   4.005   4.589  15.843  0.0073 -0.2440  0.3078
  796MPD2    C411783   3.906   4.538  15.757  0.2891  0.0507  0.3303
  796MPD2    C511784   3.907   4.404  15.730  0.5922  0.2670 -0.6191
  796MPD2     H11785   4.167   4.541  15.976  0.6174 -0.3719 -1.9967
  796MPD2    H111786   3.830   4.599  15.710 -0.7891  0.2790  2.3927
  796MPD2    H211787   3.995   4.220  15.761  1.0575 -0.5753  2.1302
  796MPD2    H311788   3.835   4.348  15.671 -0.7062 -1.3231  2.4826
  796MPD2     N11789   4.028   4.723  15.874 -0.1728  0.5684  0.4608
  796MPD2    H511790   4.108   0.010  15.932  0.7630  0.6148 -0.8373
  796MPD2    N111791   4.190   4.269  15.921  0.0539  0.1145 -0.0417
  796MPD2    H711792   4.170   4.172  15.900  4.1976 -1.0615  1.5252
  797MPD2     C11793   0.211   4.221  17.328 -0.1206  0.2636  0.1254
  797MPD2    C111794   0.165   4.352  17.362  0.6368  0.2417  0.3647
  797MPD2    C211795   0.091   4.434  17.270  0.1940  0.1633 -0.3040
  797MPD2    C311796   0.067   4.383  17.145 -0.3189 -0.1360 -0.3684
  797MPD2    C411797   0.116   4.253  17.108  0.4586 -0.0449 -0.7197
  797MPD2    C511798   0.179   4.174  17.202 -0.0489  0.9329 -0.8558
  797MPD2     H11799   0.077   4.540  17.291 -0.5000 -0.2320  1.2024
  797MPD2    H111800   0.098   4.215  17.008  0.4320  0.8981 -1.0735
  797MPD2    H211801   0.262   4.153  17.396  1.5835  2.2823  0.9030
  797MPD2    H311802   0.206   4.074  17.170 -0.7728  0.5299 -0.2137
  797MPD2     N11803   0.003   4.466  17.048 -0.4070  0.2188 -0.1013
  797MPD2    H511804   0.031   4.454  16.951  0.9507  0.0040  0.3215
  797MPD2    N111805   0.221   4.426  17.466  0.0662  0.0056 -0.6079
  797MPD2    H711806   0.184   4.521  17.473 -1.5033 -0.5922 -0.8464
  798MPD2     C11807   0.026   0.334  17.406 -0.3957 -0.0927  0.7943
  798MPD2    C111808   0.111   0.274  17.316 -0.5178 -0.1648 -0.5794
  798MPD2    C211809   0.228   0.223  17.356  0.0469 -0.4589  0.4315
  798MPD2    C311810   0.262   0.222  17.493 -0.0852  0.2043  0.1600
  798MPD2    C411811   0.187   0.302  17.573  0.2477  0.2550 -0.2741
  798MPD2    C511812   0.060   0.340  17.539 -0.1168 -0.0375  0.1908
  798MPD2     H11813   0.291   0.160  17.295  2.3339  0.0826  2.2443
  798MPD2    H111814   0.210   0.297  17.679 -0.5931  1.1209 -0.0474
  798MPD2    H211815   4.664   0.374  17.379  0.3846  1.2415 -0.0788
  798MPD2    H311816   0.003   0.392  17.615 -1.0842  0.1701 -0.6846
  798MPD2     N11817   0.363   0.133  17.526 -0.1271  0.0726 -0.5754
  798MPD2    H511818   0.397   0.080  17.447 -0.2473 -0.1607 -0.4725
  798MPD2    N111819   0.060   0.250  17.181 -0.2419 -0.4975  0.3785
  798MPD2    H711820   4.703   0.276  17.150 -0.1127  0.9221  1.1803
  799MPD2     C11821   3.542   0.681  14.796 -0.1725 -0.3783  0.2284
  799MPD2    C111822   3.567   0.614  14.678  0.2550 -0.3257 -0.0780
  799MPD2    C211823   3.535   0.684  14.564 -0.0310 -0.8850  0.0805
  799MPD2    C311824   3.488   0.815  14.559  0.5903  0.5428 -0.2034
  799MPD2    C411825   3.466   0.881  14.677  0.0250 -0.5629  0.2810
  799MPD2    C511826   3.484   0.805  14.789  0.4012 -0.1857 -0.4524
  799MPD2     H11827   3.546   0.621  14.476 -1.9964 -2.0931  0.7015
  799MPD2    H111828   3.417   0.977  14.671 -2.1941 -1.7177 -0.0598
  799MPD2    H211829   3.549   0.636  14.894  4.7315  2.2520  1.0674
  799MPD2    H311830   3.468   0.856  14.883 -0.3794  1.6907 -1.6157
  799MPD2     N11831   3.484   0.901  14.452 -0.2846 -0.3136 -0.1384
  799MPD2    H511832   3.469   0.999  14.476 -0.3565 -0.0749 -1.1860
  799MPD2    N111833   3.629   0.484  14.664 -0.0983  0.0590  0.1131
  799MPD2    H711834   3.624   0.429  14.578  1.7227  0.9824 -0.5914
  800MPD2     C11835   4.151   2.215  14.049 -0.1086  0.2171  0.2588
  800MPD2    C111836   4.241   2.236  13.943  0.5584  0.4836  0.9127
  800MPD2    C211837   4.232   2.159  13.825 -0.3059 -0.6104 -0.8706
  800MPD2    C311838   4.131   2.067  13.814 -0.1121 -0.1092 -0.5417
  800MPD2    C411839   4.041   2.052  13.915 -0.2665  0.2696 -0.6699
  800MPD2    C511840   4.051   2.125  14.031  0.0174 -0.3360 -0.0424
  800MPD2     H11841   4.302   2.157  13.743  0.3936  1.8246 -0.3428
  800MPD2    H111842   3.968   1.972  13.910 -0.8802  0.6821  1.5505
  800MPD2    H211843   4.166   2.258  14.148 -1.4251 -2.2382  1.5303
  800MPD2    H311844   3.993   2.085  14.113 -1.0429  0.7293 -0.2757
  800MPD2     N11845   4.132   1.991  13.701 -0.0539 -0.5479 -0.6463
  800MPD2    H511846   4.189   2.010  13.619  0.6614  1.9179  0.4271
  800MPD2    N111847   4.346   2.333  13.969 -0.1171 -0.4573  0.0604
  800MPD2    H711848   4.356   2.372  14.062  2.3579 -0.2337 -0.3095
  801MPD2     C11849   4.611   2.918  14.341 -0.3650  0.2527  0.1170
  801MPD2    C111850   4.528   2.810  14.316  0.2485  0.3828 -0.0209
  801MPD2    C211851   4.424   2.781  14.398 -0.0138  0.5870  0.2162
  801MPD2    C311852   4.404   2.844  14.522 -0.2843 -0.0273 -0.4800
  801MPD2    C411853   4.506   2.934  14.556  0.6918 -0.4255 -0.3972
  801MPD2    C511854   4.601   2.968  14.469  0.9304  0.2085  0.6549
  801MPD2     H11855   4.355   2.700  14.375 -0.4911  1.2907 -0.8597
  801MPD2    H111856   4.520   2.997  14.643  1.3208  1.4456 -1.8634
  801MPD2    H211857   4.699   2.954  14.290  1.2196 -0.9575  2.0098
  801MPD2    H311858   4.674   3.042  14.499 -0.2246  0.8713  1.8318
  801MPD2     N11859   4.309   2.812  14.618  0.0234 -0.0649 -0.3426
  801MPD2    H511860   4.306   2.866  14.705 -2.4269  2.6783 -2.1235
  801MPD2    N111861   4.544   2.722  14.210 -0.1073  0.2770 -0.4018
  801MPD2    H711862   4.491   2.635  14.206  1.6060 -0.7682 -0.2779
  802MPD2     C11863   3.383   3.115  17.402  0.2743  0.7014  0.1273
  802MPD2    C111864   3.482   3.088  17.493  0.5742  0.5493  0.5220
  802MPD2    C211865   3.540   2.965  17.501  0.3812  0.4178 -0.6362
  802MPD2    C311866   3.504   2.860  17.413 -0.5449  0.5892 -1.0000
  802MPD2    C411867   3.404   2.890  17.315  0.3057 -0.4320  0.2572
  802MPD2    C511868   3.344   3.016  17.314 -0.3710 -0.1942 -0.0242
  802MPD2     H11869   3.622   2.952  17.571  0.5044 -1.6394 -1.1644
  802MPD2    H111870   3.355   2.822  17.247 -2.5708  0.0688  1.8155
  802MPD2    H211871   3.327   3.208  17.409 -1.3130 -0.3489  1.1792
  802MPD2    H311872   3.257   3.043  17.255  0.6325 -1.1570 -1.9166
  802MPD2     N11873   3.563   2.727  17.439 -0.8559  0.1815 -0.2272
  802MPD2    H511874   3.631   2.726  17.515 -1.9444 -2.5132  0.7071
  802MPD2    N111875   3.511   3.175  17.600  0.0169  0.3978  0.2128
  802MPD2    H711876   3.567   3.137  17.675  1.1307  1.9563  0.1593
  803MPD2     C11877   0.417   1.095  11.831  0.1866 -0.6644 -0.1277
  803MPD2    C111878   0.469   1.140  11.953 -0.6554 -0.5184  0.2027
  803MPD2    C211879   0.459   1.062  12.066  0.1745 -0.3013  0.5770
  803MPD2    C311880   0.378   0.948  12.060  0.5671 -0.3610 -0.0791
  803MPD2    C411881   0.320   0.914  11.944 -0.1809  0.0881  0.2046
  803MPD2    C511882   0.348   0.976  11.830  0.0631  0.9120 -0.2500
  803MPD2     H11883   0.490   1.089  12.167 -1.6919  3.8524  0.0365
  803MPD2    H111884   0.256   0.826  11.937  2.0782 -1.4723 -0.9800
  803MPD2    H211885   0.443   1.151  11.742  1.8714 -2.8071 -1.0029
  803MPD2    H311886   0.308   0.944  11.734 -0.2632 -0.2947  0.2965
  803MPD2     N11887   0.357   0.863  12.168  0.0748 -0.0632  0.8044
  803MPD2    H511888   0.291   0.788  12.148  0.1076 -0.1176  0.8984
  803MPD2    N111889   0.547   1.261  11.970  0.0692  0.2694 -0.9204
  803MPD2    H711890   0.554   1.298  12.064 -2.1834 -1.8187  0.0597
  804MPD2     C11891   0.020   2.763  17.064  0.4547 -0.7208 -0.1209
  804MPD2    C111892   4.627   2.802  17.076 -0.1539 -0.5106 -0.5336
  804MPD2    C211893   4.606   2.939  17.074 -0.0503 -1.0579  0.3722
  804MPD2    C311894   4.706   3.028  17.046 -0.5205  0.0945  0.2518
  804MPD2    C411895   0.093   2.981  17.021 -1.1054  0.2125  0.5452
  804MPD2    C511896   0.120   2.849  17.033  0.2265 -0.1427  0.0260
  804MPD2     H11897   4.507   2.979  17.093  0.9387  1.6211 -0.1100
  804MPD2    H111898   0.176   3.047  16.998 -2.2840  2.3607  2.5254
  804MPD2    H211899   0.047   2.660  17.082 -1.9629 -1.2203  0.6691
  804MPD2    H311900   0.224   2.823  17.014  0.2119 -0.1467 -0.0512
  804MPD2     N11901   4.680   3.169  17.057  0.2026  0.3197  0.1590
  804MPD2    H511902   4.586   3.196  17.084  0.0800  0.0576 -0.0035
  804MPD2    N111903   4.524   2.706  17.093 -0.2920  0.2752 -0.4910
  804MPD2    H711904   4.435   2.745  17.122 -1.0700 -0.9259 -1.2624
  805MPD2     C11905   3.552   0.698  15.603 -0.5922 -0.5427 -0.2805
  805MPD2    C111906   3.616   0.756  15.497  0.1368 -0.4952 -0.6214
  805MPD2    C211907   3.740   0.809  15.520 -0.9508 -0.1896 -0.3633
  805MPD2    C311908   3.807   0.790  15.635  0.0418 -0.5181 -0.5198
  805MPD2    C411909   3.736   0.740  15.739 -0.6687 -0.1309  0.7135
  805MPD2    C511910   3.610   0.690  15.724 -0.1059  0.2225  0.6428
  805MPD2     H11911   3.794   0.862  15.443 -1.6501  0.3036 -0.5167
  805MPD2    H111912   3.788   0.723  15.833 -0.0342  1.7405  0.7118
  805MPD2    H211913   3.456   0.647  15.594  0.8093 -2.6691 -3.4608
  805MPD2    H311914   3.569   0.639  15.810  0.6185 -2.2789 -0.5122
  805MPD2     N11915   3.944   0.835  15.651  0.1703  0.8449  0.0628
  805MPD2    H511916   3.985   0.897  15.582  0.7825 -0.4671 -0.7437
  805MPD2    N111917   3.558   0.760  15.367  0.3935  0.5297  0.1576
  805MPD2    H711918   3.614   0.783  15.287 -2.0199 -1.5415 -2.1220
  806MPD2     C11919   4.321   0.167   0.026  0.4072  0.1333  0.0791
  806MPD2    C111920   4.314   0.295   0.080 -0.0428  0.3700 -0.6384
  806MPD2    C211921   4.297   0.403  17.730 -0.0057 -0.7444 -0.5983
  806MPD2    C311922   4.296   0.381  17.595  0.0835 -0.3505  0.5735
  806MPD2    C411923   4.318   0.254  17.544 -0.1517 -0.1042  0.3784
  806MPD2    C511924   4.324   0.145  17.633 -0.7358 -0.4276 -0.5802
  806MPD2     H11925   4.269   0.502   0.022 -0.1440  0.3833 -3.9882
  806MPD2    H111926   4.327   0.223  17.441  1.7362 -1.5502  0.9904
  806MPD2    H211927   4.322   0.079   0.089  0.5816  2.9424  3.9533
  806MPD2    H311928   4.342   0.044  17.599  0.1100 -0.3999 -0.2173
  806MPD2     N11929   4.275   0.489  17.506  0.3031  0.0054  0.2224
  806MPD2    H511930   4.261   0.579  17.551  1.4135 -0.1498  0.8967
  806MPD2    N111931   4.291   0.306   0.219  0.3666 -0.2164  0.5789
  806MPD2    H711932   4.293   0.216   0.264  2.9550 -1.5474 -2.2041
  807MPD2     C11933   3.828   4.701   0.736  0.4931  0.1788  0.6193
  807MPD2    C111934   3.936   0.018   0.802 -0.4058 -0.0831 -0.1285
  807MPD2    C211935   3.950   4.721   0.934 -0.2102  0.1023 -0.2975
  807MPD2    C311936   3.860   4.636   0.996 -0.7037 -0.1697  0.0685
  807MPD2    C411937   3.756   4.576   0.926  0.1091  0.2879  0.5268
  807MPD2    C511938   3.742   4.615   0.795 -0.4806 -0.5618 -0.4714
  807MPD2     H11939   4.033   0.024   0.991 -1.2058 -0.2660  1.4064
  807MPD2    H111940   3.681   4.514   0.974  0.1905  0.1831  0.5199
  807MPD2    H211941   3.809   4.709   0.630 -0.6273  0.0655  0.8043
  807MPD2    H311942   3.664   4.561   0.742  0.2820  0.0415 -2.2241
  807MPD2     N11943   3.896   4.592   1.129  0.8269 -0.1907  0.3685
  807MPD2    H511944   3.979   4.641   1.161 -0.0168  1.4372  0.0779
  807MPD2    N111945   4.028   0.107   0.747 -0.2313 -0.2727  0.6877
  807MPD2    H711946   4.098   0.149   0.807 -1.4954  1.2564  1.1169
  808MPD2     C11947   4.566   2.267  10.352 -1.0156  0.4440 -0.0924
  808MPD2    C111948   4.578   2.208  10.226 -0.1198 -0.5969  0.1079
  808MPD2    C211949   4.682   2.246  10.146 -0.8053  0.4083  0.2818
  808MPD2    C311950   0.031   2.346  10.183  0.6240 -0.3170  0.6104
  808MPD2    C411951   0.011   2.409  10.304 -0.2296  0.7083 -0.5445
  808MPD2    C511952   4.649   2.366  10.388  0.3442  0.4739  0.3719
  808MPD2     H11953   4.689   2.208  10.045  2.3774 -1.7888  1.3572
  808MPD2    H111954   0.074   2.494  10.327 -0.4272  1.3263 -2.2622
  808MPD2    H211955   4.488   2.245  10.424 -0.1834 -0.1955  0.6174
  808MPD2    H311956   4.627   2.418  10.480 -1.9153 -0.6776  0.4921
  808MPD2     N11957   0.137   2.395  10.096  0.6296 -0.0204  0.0023
  808MPD2    H511958   0.195   2.473  10.125  1.0899 -0.5390  0.4806
  808MPD2    N111959   4.482   2.113  10.179 -0.5242 -0.1144 -0.2097
  808MPD2    H711960   4.488   2.090  10.081 -0.2585 -2.8809  0.4504
  809MPD2     C11961   0.225   3.239  10.083 -0.1855  0.6395 -0.5035
  809MPD2    C111962   0.291   3.211   9.963  0.5359 -0.6389  0.1790
  809MPD2    C211963   0.317   3.077   9.922 -0.3489  0.2011 -0.5427
  809MPD2    C311964   0.269   2.971  10.002 -0.5875  0.3474 -0.4770
  809MPD2    C411965   0.198   3.000  10.122  0.0391 -0.1962  0.7486
  809MPD2    C511966   0.192   3.130  10.162 -0.2570  0.1016  0.1560
  809MPD2     H11967   0.363   3.062   9.825  2.7563  1.4847  0.7121
  809MPD2    H111968   0.151   2.920  10.178  1.4418  0.4234  2.7697
  809MPD2    H211969   0.192   3.340  10.102  0.4449  0.8675 -0.6401
  809MPD2    H311970   0.153   3.152  10.261  0.5638  0.5717  0.3745
  809MPD2     N11971   0.279   2.838   9.969  0.3020 -0.4198 -0.0457
  809MPD2    H511972   0.251   2.769  10.038  0.7366  0.0541  0.6010
  809MPD2    N111973   0.351   3.310   9.890 -0.4841 -0.1483 -0.6601
  809MPD2    H711974   0.407   3.267   9.818 -0.0041 -0.4820 -0.0877
  810MPD2     C11975   4.119   1.549  11.083  0.3747  0.1837 -0.2455
  810MPD2    C111976   4.033   1.610  11.005 -0.1375 -0.1496  0.1373
  810MPD2    C211977   4.023   1.745  10.995  0.1490 -0.0904 -0.4406
  810MPD2    C311978   4.119   1.825  11.059 -0.1844  0.0873  0.0209
  810MPD2    C411979   4.208   1.765  11.142  0.2783 -1.3115  0.0413
  810MPD2    C511980   4.204   1.623  11.148  0.4181  0.0003 -0.9913
  810MPD2     H11981   3.957   1.790  10.921  1.4460  2.9945  0.2795
  810MPD2    H111982   4.286   1.819  11.196 -0.1909 -1.7588  1.1537
  810MPD2    H211983   4.129   1.442  11.101  2.9454  0.2931 -1.1020
  810MPD2    H311984   4.275   1.566  11.207 -0.0191 -0.2765 -0.7344
  810MPD2     N11985   4.133   1.960  11.027 -0.0920 -0.7498  0.4143
  810MPD2    H511986   4.219   2.001  11.062 -0.0230  0.5033 -1.1909
  810MPD2    N111987   3.937   1.538  10.935 -0.0513 -0.2483  0.2330
  810MPD2    H711988   3.859   1.584  10.888  0.3711 -0.9132 -1.1211
  811MPD2     C11989   3.417   1.470  10.271 -0.0289  0.1240 -0.3790
  811MPD2    C111990   3.521   1.521  10.342  0.0855 -0.2457  0.6351
  811MPD2    C211991   3.581   1.637  10.296  0.4030  0.6168 -0.5362
  811MPD2    C311992   3.519   1.709  10.190 -0.8545  0.5439  0.0436
  811MPD2    C411993   3.407   1.657  10.125  0.0971  0.2537 -0.6288
  811MPD2    C511994   3.360   1.535  10.166 -0.5622  0.0063 -0.3613
  811MPD2     H11995   3.673   1.667  10.346 -0.0183 -0.8380  1.1142
  811MPD2    H111996   3.356   1.711  10.046  1.9252  0.6281 -1.5497
  811MPD2    H211997   3.383   1.372  10.302 -0.8406  0.6274  0.3027
  811MPD2    H311998   3.274   1.486  10.121 -0.8928 -2.3346  2.8268
  811MPD2     N11999   3.584   1.831  10.158  0.4360  1.0544 -0.6922
  811MPD2    H512000   3.669   1.849  10.211 -0.4541  0.2528  1.0016
  811MPD2    N112001   3.550   1.455  10.457 -0.5472 -0.5529  0.0263
  811MPD2    H712002   3.503   1.367  10.473  0.3940 -1.2280 -0.9414
  812MPD2     C12003   1.932   1.267  12.471  0.1120  0.4212 -0.3104
  812MPD2    C112004   2.054   1.254  12.405  0.1018 -0.7544 -0.3195
  812MPD2    C212005   2.147   1.177  12.471 -0.1809  0.1535  0.4242
  812MPD2    C312006   2.118   1.107  12.592 -0.1406 -0.1695 -0.7770
  812MPD2    C412007   1.986   1.117  12.646 -0.5007 -1.0824 -0.3260
  812MPD2    C512008   1.896   1.201  12.585  0.0356  0.0345  0.7241
  812MPD2     H12009   2.249   1.160  12.439 -0.8450  0.0442 -1.6302
  812MPD2    H112010   1.951   1.061  12.732 -1.4241  0.8555  0.5620
  812MPD2    H212011   1.860   1.332  12.424 -0.7240 -1.7510 -2.0545
  812MPD2    H312012   1.801   1.208  12.635 -0.2994 -1.5442  0.3108
  812MPD2     N12013   2.224   1.034  12.649 -0.2417  1.1089  0.1237
  812MPD2    H512014   2.312   1.025  12.600 -0.8498 -1.2908 -0.5734
  812MPD2    N112015   2.072   1.317  12.284  0.0833 -0.3811  0.4704
  812MPD2    H712016   1.995   1.375  12.252 -0.4642 -1.0203  0.6265
  813MPD2     C12017   2.040   2.631  12.960 -0.2751 -0.0969 -0.7304
  813MPD2    C112018   1.983   2.757  12.959  0.2792  0.4322 -0.0765
  813MPD2    C212019   1.873   2.788  13.037  0.7691 -0.1773  0.2838
  813MPD2    C312020   1.811   2.688  13.111 -0.2528  0.0052 -0.6192
  813MPD2    C412021   1.856   2.558  13.104  0.1112 -0.7541  0.4014
  813MPD2    C512022   1.973   2.532  13.030  0.1660  0.2381 -0.2516
  813MPD2     H12023   1.845   2.892  13.044 -0.4954 -0.5575  0.9270
  813MPD2    H112024   1.805   2.474  13.150  2.8043 -1.7594  1.5373
  813MPD2    H212025   2.131   2.607  12.905 -0.3945  1.3690 -1.5716
  813MPD2    H312026   2.006   2.430  13.018 -2.0207 -0.6048  0.8122
  813MPD2     N12027   1.697   2.727  13.177 -0.2493  0.2513  0.0490
  813MPD2    H512028   1.678   2.826  13.182 -2.4697 -0.2015  0.4288
  813MPD2    N112029   2.040   2.861  12.882  0.2333 -0.3539 -0.0634
  813MPD2    H712030   1.992   2.949  12.895 -0.1967 -0.3575 -1.7024
  814MPD2     C12031   2.322   3.845  12.589 -0.5828  0.1067  0.4303
  814MPD2    C112032   2.355   3.887  12.465 -0.4579 -0.1704  0.1386
  814MPD2    C212033   2.419   4.013  12.452 -0.2280  0.0834 -0.1379
  814MPD2    C312034   2.437   4.097  12.564  0.1954  0.5007 -0.8854
  814MPD2    C412035   2.410   4.044  12.685 -0.2048 -0.3986 -0.8410
  814MPD2    C512036   2.353   3.925  12.695 -0.1930  0.0387 -0.7403
  814MPD2     H12037   2.431   4.053  12.351  1.6882 -0.6812 -0.2315
  814MPD2    H112038   2.446   4.106  12.767  0.7950 -0.5928 -1.1394
  814MPD2    H212039   2.280   3.746  12.602  0.8733 -0.3105  1.8309
  814MPD2    H312040   2.315   3.900  12.793 -0.1044  0.1780 -0.6708
  814MPD2     N12041   2.485   4.225  12.551 -0.4068 -0.0815 -0.1455
  814MPD2    H512042   2.495   4.280  12.636 -2.2206  1.9716 -1.2372
  814MPD2    N112043   2.318   3.824  12.340 -0.0626  0.2581 -0.7147
  814MPD2    H712044   2.334   3.884  12.259  1.5106 -0.0572 -0.6409
  815MPD2     C12045   3.054   2.952  11.817 -0.0254  0.0034 -0.0076
  815MPD2    C112046   3.106   2.835  11.773 -0.0695  0.7589 -0.7360
  815MPD2    C212047   3.050   2.718  11.822  0.1409 -0.3784 -0.3321
  815MPD2    C312048   2.942   2.719  11.910  0.1697 -0.5990 -0.0276
  815MPD2    C412049   2.893   2.843  11.951 -0.1139  0.0044 -0.2128
  815MPD2    C512050   2.956   2.961  11.911 -0.8339 -0.4186  0.5326
  815MPD2     H12051   3.089   2.618  11.802  1.6932 -0.0955  1.2443
  815MPD2    H112052   2.804   2.841  12.013  0.4082 -1.6443  0.4825
  815MPD2    H212053   3.093   3.047  11.783 -2.2058  0.6169 -0.8006
  815MPD2    H312054   2.922   3.054  11.955 -1.2515 -0.4288  0.2245
  815MPD2     N12055   2.886   2.593  11.940 -0.9855  0.8449  0.3868
  815MPD2    H512056   2.929   2.511  11.897 -1.5348  0.0938  1.2641
  815MPD2    N112057   3.199   2.839  11.669 -0.3202  0.1886 -0.5217
  815MPD2    H712058   3.213   2.935  11.641  1.3308  0.0345 -0.1936
  816MPD2     C12059   2.542   2.006  17.096 -0.0266 -0.4781 -0.3393
  816MPD2    C112060   2.617   2.119  17.105  0.1377  0.5382  0.1885
  816MPD2    C212061   2.738   2.123  17.039 -0.4050  0.2477 -0.0514
  816MPD2    C312062   2.783   2.014  16.964 -0.4508 -0.0267 -0.2839
  816MPD2    C412063   2.696   1.906  16.947 -0.4086 -0.1245 -0.1686
  816MPD2    C512064   2.577   1.906  17.016  0.4718 -0.1953 -0.2322
  816MPD2     H12065   2.797   2.214  17.037  0.0014 -0.0002  0.6169
  816MPD2    H112066   2.718   1.817  16.889 -0.6356 -0.0935 -0.3004
  816MPD2    H212067   2.442   1.996  17.137  0.4991 -1.9482  0.5704
  816MPD2    H312068   2.512   1.821  16.997 -0.0738 -0.1025  1.1652
  816MPD2     N12069   2.914   2.011  16.913 -0.4620  0.0270 -0.1831
  816MPD2    H512070   2.970   2.092  16.938  0.3896 -0.6105 -0.0467
  816MPD2    N112071   2.572   2.226  17.182  0.7169  0.1182 -0.2871
  816MPD2    H712072   2.477   2.208  17.214  0.3707  1.9567 -0.2607
  817MPD2     C12073   2.442   4.240  10.057 -0.2206 -0.1415 -1.0120
  817MPD2    C112074   2.489   4.236   9.923  0.4006  0.1226  0.1999
  817MPD2    C212075   2.477   4.344   9.842 -0.3548 -0.4818 -0.0795
  817MPD2    C312076   2.422   4.464   9.891 -0.3160  0.0108 -0.0371
  817MPD2    C412077   2.382   4.463  10.020 -0.3029  1.0988 -0.3946
  817MPD2    C512078   2.387   4.353  10.103  0.0749  0.1146  0.1755
  817MPD2     H12079   2.519   4.328   9.743 -1.2403  0.9865 -0.7034
  817MPD2    H112080   2.342   4.549  10.073  0.3642  1.8958 -1.2027
  817MPD2    H212081   2.458   4.153  10.120 -2.6287  0.0006 -0.2036
  817MPD2    H312082   2.352   4.355  10.206  4.5616 -1.9975  1.7601
  817MPD2     N12083   2.424   4.583   9.812  0.5153  0.2614 -0.2367
  817MPD2    H512084   2.449   4.583   9.714 -0.7291 -1.1796 -0.5653
  817MPD2    N112085   2.552   4.116   9.866 -0.7187 -0.4034 -0.7539
  817MPD2    H712086   2.576   4.123   9.768  0.7157  2.6764 -0.1879
  818MPD2     C12087   1.466   0.061   9.992  0.1502  0.1587 -0.0701
  818MPD2    C112088   1.433   4.663  10.023 -0.0224 -0.3192 -0.9089
  818MPD2    C212089   1.499   4.569   9.949 -0.0681 -0.1761 -0.4184
  818MPD2    C312090   1.575   4.603   9.837 -0.0770  0.2988  0.1719
  818MPD2    C412091   1.575   4.735   9.793 -0.2274  0.5660  0.2886
  818MPD2    C512092   1.521   0.096   9.871 -1.0007 -0.3337  0.6141
  818MPD2     H12093   1.481   4.467   9.979  2.0746 -0.3454  0.2925
  818MPD2    H112094   1.629   0.036   9.706 -2.1845 -0.6814 -1.4603
  818MPD2    H212095   1.439   0.139  10.062 -0.2315 -1.8218  2.0004
  818MPD2    H312096   1.529   0.201   9.845 -0.1136 -1.2101 -2.6937
  818MPD2     N12097   1.665   4.514   9.781  0.4295 -0.1125  0.4245
  818MPD2    H512098   1.724   4.547   9.706  0.9425 -3.5943 -0.7194
  818MPD2    N112099   1.356   4.614  10.130 -0.1144  0.3271  0.2459
  818MPD2    H712100   1.334   4.515  10.121  0.9550  0.1296 -0.2167
  819MPD2     C12101   4.365   0.656  15.541  0.7985  0.2927 -0.8651
  819MPD2    C112102   4.402   0.541  15.604  0.2663  0.0629  0.1107
  819MPD2    C212103   4.522   0.532  15.672  0.0803 -0.0115  0.1758
  819MPD2    C312104   4.604   0.646  15.680 -0.0961  0.0306 -0.0008
  819MPD2    C412105   4.570   0.765  15.614 -0.2679 -0.6827 -0.1437
  819MPD2    C512106   4.450   0.770  15.546 -0.3467  0.6227  0.0048
  819MPD2     H12107   4.549   0.449  15.735  0.7492 -1.0543 -1.4898
  819MPD2    H112108   4.637   0.850  15.620 -0.8912 -0.1335 -0.9848
  819MPD2    H212109   4.276   0.667  15.480  0.5446  2.7551 -0.0407
  819MPD2    H312110   4.420   0.862  15.498  1.2206  1.6780  1.0478
  819MPD2     N12111   4.732   0.625  15.743  0.2272 -0.1584 -0.0838
  819MPD2    H512112   0.008   0.533  15.785 -0.1844 -0.7346 -1.2110
  819MPD2    N112113   4.320   0.425  15.594 -0.1375  0.3489 -0.4858
  819MPD2    H712114   4.229   0.433  15.550 -1.1585 -0.4175  1.4934
  820MPD2     C12115   3.652   0.066  14.997  0.8209  0.9143  0.1030
  820MPD2    C112116   3.667   0.174  15.082 -0.1642 -0.7380  0.0876
  820MPD2    C212117   3.760   0.167  15.178  0.5858  0.2192 -0.4400
  820MPD2    C312118   3.835   0.050  15.204  0.0544 -0.5064  0.5731
  820MPD2    C412119   3.827   4.686  15.110 -0.4022  0.0126  0.1026
  820MPD2    C512120   3.737   4.695  15.012 -0.1549  0.3995 -0.0437
  820MPD2     H12121   3.770   0.251  15.247  0.7430  0.5162 -0.8246
  820MPD2    H112122   3.891   4.600  15.118 -2.1620 -1.2777  0.3795
  820MPD2    H212123   3.585   0.062  14.912  1.0242  0.3609 -0.0338
  820MPD2    H312124   3.721   4.599  14.964 -0.1160 -0.7408  2.2195
  820MPD2     N12125   3.929   0.049  15.311  0.1797 -1.0408  0.6146
  820MPD2    H512126   3.995   4.708  15.318  1.6764  0.3404  1.4924
  820MPD2    N112127   3.581   0.283  15.067  0.4213 -0.3411  0.1841
  820MPD2    H712128   3.500   0.269  15.008  0.6047  0.5226 -0.2748
  821MPD2     C12129   4.495   2.110  13.172 -1.0317  0.8108 -0.2450
  821MPD2    C112130   4.534   1.986  13.212 -0.3499  0.0117 -0.2677
  821MPD2    C212131   4.665   1.954  13.226  0.6319  0.3861 -0.4382
  821MPD2    C312132   0.025   2.049  13.185 -0.0216  0.4750 -0.7474
  821MPD2    C412133   4.723   2.176  13.141  0.3045 -0.5782 -0.4384
  821MPD2    C512134   4.586   2.206  13.135  0.2785 -0.1385  0.3375
  821MPD2     H12135   4.703   1.858  13.256 -0.5858 -0.4158 -1.4351
  821MPD2    H112136   0.061   2.247  13.106 -0.9260  0.4699 -0.8992
  821MPD2    H212137   4.395   2.135  13.139 -0.5458  2.7376 -0.2358
  821MPD2    H312138   4.557   2.301  13.091 -1.7746 -0.3811  1.1474
  821MPD2     N12139   0.164   2.021  13.193  0.1630  0.2356  0.3319
  821MPD2    H512140   0.221   2.097  13.158  2.8309 -1.8935  0.0150
  821MPD2    N112141   4.436   1.888  13.264  0.1242  0.1489  0.8771
  821MPD2    H712142   4.461   1.794  13.295 -0.3184 -0.9265 -2.0476
  822MPD2     C12143   0.652   1.656  15.934  0.2040 -0.3743  0.1323
  822MPD2    C112144   0.585   1.633  16.050  0.1229 -0.0246  0.3295
  822MPD2    C212145   0.475   1.704  16.079 -0.1013 -0.1891 -0.3405
  822MPD2    C312146   0.446   1.822  16.000  0.2676 -0.3421 -0.9298
  822MPD2    C412147   0.507   1.833  15.873 -0.4387 -0.3594 -0.0683
  822MPD2    C512148   0.619   1.750  15.837  0.2031  0.5886  0.5682
  822MPD2     H12149   0.416   1.695  16.169  0.4618  1.3669  0.1932
  822MPD2    H112150   0.485   1.918  15.810 -1.5352 -0.5603  0.0511
  822MPD2    H212151   0.743   1.599  15.916 -0.2303 -0.9652 -0.1974
  822MPD2    H312152   0.677   1.766  15.747 -0.3441 -1.9166 -0.2177
  822MPD2     N12153   0.356   1.915  16.048  0.7131 -0.2108 -0.0748
  822MPD2    H512154   0.308   1.890  16.134 -0.2570  0.8500 -0.3033
  822MPD2    N112155   0.631   1.550  16.151  0.2562 -0.3952  0.6683
  822MPD2    H712156   0.575   1.547  16.236 -0.5024  3.1081  0.2877
  823MPD2     C12157   0.054   2.405  16.585  0.8272 -0.0986 -0.1866
  823MPD2    C112158   0.037   2.275  16.541  0.1941 -0.3339  0.1484
  823MPD2    C212159   0.024   2.172  16.634 -0.0774  0.7046  0.0345
  823MPD2    C312160   0.014   2.201  16.772 -0.2853 -0.0031 -0.0785
  823MPD2    C412161   0.012   2.334  16.809  0.3960  0.3895 -0.2463
  823MPD2    C512162   0.036   2.433  16.716 -0.3382 -0.4839  0.1105
  823MPD2     H12163   0.031   2.067  16.607  0.8553  1.3470 -2.2710
  823MPD2    H112164   0.019   2.355  16.915  1.4465 -1.5826  0.1006
  823MPD2    H212165   0.093   2.485  16.522  1.3028 -0.5405 -0.4558
  823MPD2    H312166   0.056   2.536  16.746 -1.0916 -0.6318  1.1008
  823MPD2     N12167   0.026   2.103  16.870 -0.3146 -0.1323  1.0366
  823MPD2    H512168   0.013   2.138  16.964  1.8570  0.2500  1.1832
  823MPD2    N112169   0.036   2.252  16.401  0.7886 -0.4946  0.5571
  823MPD2    H712170   0.055   2.333  16.343 -0.5463 -0.0904  0.6833
  824MPD2     C12171   1.199   0.994  16.442  0.2712  0.1123  0.8682
  824MPD2    C112172   1.134   1.039  16.333 -0.0534  0.5081 -0.4820
  824MPD2    C212173   1.185   1.001  16.212  0.0432 -0.7479  0.0427
  824MPD2    C312174   1.292   0.922  16.186 -0.2923  0.3344  0.2347
  824MPD2    C412175   1.357   0.871  16.302  0.0284 -0.2558 -0.2488
  824MPD2    C512176   1.305   0.906  16.426  0.2060 -0.2467 -0.0677
  824MPD2     H12177   1.135   1.037  16.123 -0.3227  0.5079  0.7640
  824MPD2    H112178   1.446   0.809  16.298  0.5533  0.6777 -3.3128
  824MPD2    H212179   1.171   1.020  16.543 -2.3614  0.5678  0.0078
  824MPD2    H312180   1.356   0.861  16.510  0.8405  0.1512 -0.2346
  824MPD2     N12181   1.346   0.890  16.060 -0.1417  0.0307  0.1126
  824MPD2    H512182   1.320   0.949  15.983  0.1782 -0.3673 -0.2992
  824MPD2    N112183   1.023   1.129  16.333 -0.1493  0.3192  0.2515
  824MPD2    H712184   1.002   1.179  16.248 -0.4335  1.0641  0.7565
  825MPD2     C12185   1.801   1.018  15.338 -0.6546 -0.2120 -0.0004
  825MPD2    C112186   1.687   1.054  15.406 -0.2902  0.1666  0.1555
  825MPD2    C212187   1.607   1.156  15.347 -0.0679 -0.0598 -0.4083
  825MPD2    C312188   1.634   1.212  15.221  0.4228 -0.0075 -0.1444
  825MPD2    C412189   1.739   1.162  15.151 -0.4592  0.5175 -0.0741
  825MPD2    C512190   1.822   1.067  15.210 -0.5716 -0.9940  0.3150
  825MPD2     H12191   1.510   1.171  15.391  0.8845  1.6033  1.1102
  825MPD2    H112192   1.764   1.193  15.050 -0.0106 -0.0625 -0.1430
  825MPD2    H212193   1.871   0.942  15.373 -0.1867  1.1167  1.9632
  825MPD2    H312194   1.896   1.027  15.143 -1.1609  0.3048 -1.1132
  825MPD2     N12195   1.542   1.293  15.143  0.4484 -0.0331 -0.4106
  825MPD2    H512196   1.559   1.323  15.048 -1.0050 -0.7469 -0.8921
  825MPD2    N112197   1.655   0.978  15.524  0.6430  0.1710  0.0441
  825MPD2    H712198   1.719   0.909  15.563  1.1058  0.3596 -0.3867
  826MPD2     C12199   1.373   0.996  13.745 -0.3131  0.2824 -0.6437
  826MPD2    C112200   1.470   1.092  13.733  0.3415  0.2875  0.3321
  826MPD2    C212201   1.439   1.220  13.698  0.0712 -0.1588 -0.4049
  826MPD2    C312202   1.299   1.248  13.679 -0.1043  0.0445  0.6461
  826MPD2    C412203   1.197   1.147  13.692 -0.2295 -0.7143  0.2604
  826MPD2    C512204   1.240   1.022  13.729  0.0276  0.2663 -0.3265
  826MPD2     H12205   1.514   1.297  13.687 -0.0641 -0.5933 -4.4958
  826MPD2    H112206   1.092   1.166  13.679 -0.4359 -1.3727  0.9269
  826MPD2    H212207   1.400   0.897  13.779 -2.1271  0.3371  0.9216
  826MPD2    H312208   1.167   0.943  13.745  1.9272 -1.2598  0.8363
  826MPD2     N12209   1.262   1.376  13.637 -0.3163  0.3765 -0.3220
  826MPD2    H512210   1.171   1.400  13.599 -0.5118 -0.4765 -0.4064
  826MPD2    N112211   1.604   1.051  13.759 -0.6171  0.1163 -0.1735
  826MPD2    H712212   1.613   0.968  13.816 -1.4049 -0.8873 -1.4992
  827MPD2     C12213   2.173   2.797   9.995  0.0340 -0.7819  0.2185
  827MPD2    C112214   2.096   2.727  10.086  0.3235 -0.1293 -0.2191
  827MPD2    C212215   1.973   2.679  10.050 -0.3698 -0.1440 -0.6393
  827MPD2    C312216   1.918   2.710   9.930  0.7296 -0.8595 -0.5898
  827MPD2    C412217   1.996   2.772   9.843  0.1804 -0.7094 -0.5200
  827MPD2    C512218   2.126   2.807   9.866 -0.5013 -0.1513  0.4765
  827MPD2     H12219   1.909   2.629  10.123  1.2149 -0.1163  0.7799
  827MPD2    H112220   1.965   2.787   9.740  1.7755  0.8508 -0.7735
  827MPD2    H212221   2.268   2.819  10.042 -1.0581 -0.2418  2.1399
  827MPD2    H312222   2.183   2.861   9.791 -0.9459 -0.5207 -0.1334
  827MPD2     N12223   1.783   2.680   9.906 -0.1280 -0.1088  0.7530
  827MPD2    H512224   1.727   2.657   9.988  0.2653 -1.7986  0.5574
  827MPD2    N112225   2.156   2.703  10.204  0.1948 -0.4949  0.7135
  827MPD2    H712226   2.245   2.745  10.229 -0.7547  1.7372  0.3588
  828MPD2     C12227   0.208   1.794  12.906 -0.4029 -0.4971  0.1529
  828MPD2    C112228   0.227   1.901  12.824 -0.6569  0.0321 -0.4895
  828MPD2    C212229   0.350   1.921  12.773  0.2063  0.6184 -0.2012
  828MPD2    C312230   0.458   1.841  12.805 -0.0514  0.3306  0.0927
  828MPD2    C412231   0.442   1.737  12.895  0.3323 -0.2537  0.5985
  828MPD2    C512232   0.306   1.708  12.935 -0.1141 -0.2073 -0.5807
  828MPD2     H12233   0.355   2.007  12.707  2.1936 -0.4458 -1.4353
  828MPD2    H112234   0.529   1.682  12.927 -0.4617 -1.7099  0.2652
  828MPD2    H212235   0.107   1.758  12.923 -1.0260  0.1234 -2.3248
  828MPD2    H312236   0.283   1.628  13.006  0.1548  1.0209  0.8898
  828MPD2     N12237   0.587   1.860  12.749  0.2139 -0.0626 -1.0110
  828MPD2    H512238   0.649   1.781  12.765 -0.2664 -0.6002 -1.7658
  828MPD2    N112239   0.137   2.001  12.794 -0.5596  0.0271  0.5967
  828MPD2    H712240   0.178   2.081  12.746 -1.4398 -0.6139 -1.2537
  829MPD2     C12241   0.374   2.490  12.197 -0.3813  0.1213  0.7234
  829MPD2    C112242   0.261   2.563  12.232  0.0487 -0.5473  0.1757
  829MPD2    C212243   0.177   2.516  12.331 -0.3614 -0.4204 -0.4101
  829MPD2    C312244   0.213   2.407  12.405 -0.0550  0.0459 -0.3834
  829MPD2    C412245   0.335   2.348  12.381  0.2707 -0.2578 -0.0777
  829MPD2    C512246   0.408   2.383  12.272 -0.0458  0.1212  0.0733
  829MPD2     H12247   0.085   2.564  12.360  0.0039 -0.4865  0.8378
  829MPD2    H112248   0.372   2.265  12.441 -1.9703 -0.6101  0.8152
  829MPD2    H212249   0.435   2.516  12.111 -0.0711  0.6215  1.0974
  829MPD2    H312250   0.491   2.318  12.246  1.0918  2.3904 -2.0136
  829MPD2     N12251   0.133   2.344  12.506  0.0345  0.1707  0.3170
  829MPD2    H512252   0.172   2.256  12.539 -0.2797  1.0578  3.0715
  829MPD2    N112253   0.219   2.678  12.161  0.2987  0.6625 -0.7763
  829MPD2    H712254   0.126   2.714  12.177  0.5899  0.8456  0.5127
  830MPD2     C12255   0.738   0.230  15.817  0.4541  0.0247  0.8287
  830MPD2    C112256   0.658   0.304  15.732  0.2191  0.2535 -0.8574
  830MPD2    C212257   0.706   0.323  15.606  0.7302 -0.3530  0.1929
  830MPD2    C312258   0.829   0.281  15.567  0.0171 -0.6527  0.5556
  830MPD2    C412259   0.903   0.200  15.648  0.1985 -0.6706  0.0859
  830MPD2    C512260   0.853   0.172  15.777 -0.3152 -0.2951  0.4573
  830MPD2     H12261   0.655   0.392  15.540  1.2659  1.7689  1.9891
  830MPD2    H112262   0.990   0.142  15.619  0.9779 -0.2521  1.6017
  830MPD2    H212263   0.710   0.233  15.921 -1.3014 -1.0249  0.3812
  830MPD2    H312264   0.911   0.113  15.847 -1.0362 -1.3310  0.1751
  830MPD2     N12265   0.889   0.317  15.442 -0.7561 -0.5844  1.4546
  830MPD2    H512266   0.990   0.314  15.431 -1.1983  1.0509 -3.0505
  830MPD2    N112267   0.563   0.380  15.800 -0.4143 -0.1346 -0.0504
  830MPD2    H712268   0.575   0.387  15.900 -1.2682 -0.2266  0.0601
  831MPD2     C12269   0.537   2.198  16.435  0.2688  0.2591 -0.2523
  831MPD2    C112270   0.545   2.080  16.363 -0.8394 -0.0361 -0.0544
  831MPD2    C212271   0.454   1.976  16.381  0.0853  0.0878  0.4473
  831MPD2    C312272   0.351   1.996  16.465  0.2766  0.5809 -0.0472
  831MPD2    C412273   0.349   2.110  16.546  0.6013  0.8345  0.1905
  831MPD2    C512274   0.438   2.210  16.533 -0.1503 -0.1247  0.2644
  831MPD2     H12275   0.462   1.888  16.318 -1.5651  1.7511 -2.0459
  831MPD2    H112276   0.266   2.127  16.614  0.9489  2.1812  0.2635
  831MPD2    H212277   0.608   2.279  16.428  0.2348  0.3239  0.1274
  831MPD2    H312278   0.422   2.300  16.592 -1.2581 -1.7849  2.5029
  831MPD2     N12279   0.245   1.901  16.484 -0.0431  0.3649 -0.0953
  831MPD2    H512280   0.186   1.917  16.565  1.5812  1.3691  0.8961
  831MPD2    N112281   0.640   2.069  16.262  0.2606  0.3724  0.0350
  831MPD2    H712282   0.691   2.153  16.236  0.7063 -0.6629 -2.4219
  832MPD2     C12283   3.779   2.886  17.113  0.0526  0.7541  0.4359
  832MPD2    C112284   3.744   3.008  17.160 -0.0448  0.3337  0.3217
  832MPD2    C212285   3.632   3.065  17.106  0.1693  0.4957  0.4494
  832MPD2    C312286   3.548   3.002  17.017  0.2247 -0.2485  0.5925
  832MPD2    C412287   3.575   2.874  16.983 -0.4783  0.7175  0.0623
  832MPD2    C512288   3.697   2.819  17.025  0.9744 -0.6167  0.1449
  832MPD2     H12289   3.601   3.163  17.143 -0.2900  1.1288 -1.6198
  832MPD2    H112290   3.515   2.818  16.912  0.6909  0.3451 -0.6347
  832MPD2    H212291   3.864   2.829  17.150 -0.6114  0.1247  0.9796
  832MPD2    H312292   3.721   2.725  16.977 -0.1715 -1.5808  1.4479
  832MPD2     N12293   3.437   3.063  16.950 -0.5160 -0.1365 -0.3963
  832MPD2    H512294   3.380   3.010  16.884 -0.9651 -2.4079  1.8460
  832MPD2    N112295   3.819   3.060  17.262  0.3415 -0.7734  0.5906
  832MPD2    H712296   3.892   3.005  17.304 -0.2200 -1.8447  0.1576
  833MPD2     C12297   0.817   4.225  12.886 -0.5942 -0.9218  0.6841
  833MPD2    C112298   0.817   4.331  12.800 -0.4011  0.1311 -0.0436
  833MPD2    C212299   0.895   4.317  12.680 -0.9642 -0.7040  0.1590
  833MPD2    C312300   0.963   4.201  12.644  0.7091 -0.5088 -0.1335
  833MPD2    C412301   0.950   4.094  12.731 -0.1469  0.0261 -0.5192
  833MPD2    C512302   0.881   4.110  12.848 -0.4921 -0.3459 -0.1122
  833MPD2     H12303   0.905   4.403  12.615 -1.4648  0.8683  2.1734
  833MPD2    H112304   0.979   3.992  12.711  0.1885 -0.0297  0.2340
  833MPD2    H212305   0.751   4.211  12.971  0.3435 -1.0311  1.3980
  833MPD2    H312306   0.869   4.022  12.911  0.8216 -1.8587 -1.9709
  833MPD2     N12307   1.049   4.194  12.533 -0.2039 -0.1615  0.1928
  833MPD2    H512308   1.086   4.102  12.513  0.5613  0.3404 -0.6840
  833MPD2    N112309   0.755   4.449  12.840  1.1730 -0.2746  0.0128
  833MPD2    H712310   0.713   4.449  12.932  1.2022  0.2739  0.0260
  834MPD2     C12311   1.115   3.657  11.706  0.1786  0.3515  0.0581
  834MPD2    C112312   1.062   3.772  11.655 -1.1619 -0.2790  1.1247
  834MPD2    C212313   1.050   3.888  11.736 -0.2749  0.0111  0.5193
  834MPD2    C312314   1.077   3.874  11.868  0.2456 -0.3454 -0.1119
  834MPD2    C412315   1.131   3.755  11.922  0.7224 -0.5051 -0.1925
  834MPD2    C512316   1.151   3.650  11.838  0.5155 -0.0322 -0.0898
  834MPD2     H12317   1.013   3.983  11.700  1.4421  0.5266  0.0935
  834MPD2    H112318   1.161   3.748  12.026 -0.7965  1.7238  0.3906
  834MPD2    H212319   1.136   3.575  11.638 -0.4700 -0.7350  1.1556
  834MPD2    H312320   1.170   3.552  11.880 -0.5574 -0.3135 -0.2717
  834MPD2     N12321   1.068   3.994  11.946  0.2009 -0.0774 -0.0919
  834MPD2    H512322   1.028   4.076  11.901  1.1463  1.3301  1.6274
  834MPD2    N112323   1.023   3.777  11.519  0.1076 -0.3450  0.2103
  834MPD2    H712324   1.031   3.693  11.463  0.1054  0.7893 -1.4797
  835MPD2     C12325   1.424   2.724  10.947 -0.5310  0.0929  0.5282
  835MPD2    C112326   1.356   2.799  11.038 -0.4719  0.6943  0.1517
  835MPD2    C212327   1.368   2.774  11.173  0.6510  0.6562 -0.2443
  835MPD2    C312328   1.467   2.690  11.226  0.7533  0.7373  0.4106
  835MPD2    C412329   1.547   2.626  11.130  0.7376  0.4038  0.1583
  835MPD2    C512330   1.532   2.644  10.995  0.0835 -0.9041 -0.1278
  835MPD2     H12331   1.313   2.846  11.233 -0.4540  1.5220 -2.2912
  835MPD2    H112332   1.625   2.559  11.164 -0.0887 -1.1646 -1.0445
  835MPD2    H212333   1.391   2.720  10.844  1.0196 -1.2750  0.0941
  835MPD2    H312334   1.589   2.587  10.924  0.0649  0.6880 -1.4193
  835MPD2     N12335   1.489   2.665  11.365  0.4073  0.2081 -0.0579
  835MPD2    H512336   1.561   2.602  11.397  1.7570  2.0961  0.5973
  835MPD2    N112337   1.254   2.887  10.999  0.0793 -0.1529 -0.7322
  835MPD2    H712338   1.201   2.934  11.071 -1.3755 -1.6596 -0.8388
  836MPD2     C12339   0.837   2.684  11.690  0.1939 -0.5457  0.8492
  836MPD2    C112340   0.923   2.644  11.790 -0.0510  0.5372 -0.2674
  836MPD2    C212341   0.881   2.630  11.922  0.1812  0.0803  0.0670
  836MPD2    C312342   0.750   2.656  11.951 -0.0351  0.8823 -0.2503
  836MPD2    C412343   0.670   2.713  11.858 -0.7357 -0.4697 -0.1233
  836MPD2    C512344   0.718   2.725  11.735  0.7279 -0.1864 -0.0891
  836MPD2     H12345   0.953   2.592  11.993 -1.2376 -1.9847  0.3665
  836MPD2    H112346   0.568   2.749  11.870 -2.0033 -4.4440  0.8171
  836MPD2    H212347   0.851   2.701  11.584  1.7315 -0.9161  1.0043
  836MPD2    H312348   0.654   2.766  11.658 -0.1757  0.0197  0.7691
  836MPD2     N12349   0.699   2.631  12.076  0.1166 -0.2113  0.3855
  836MPD2    H512350   0.605   2.661  12.100  0.2846 -0.3263  1.2169
  836MPD2    N112351   1.056   2.612  11.748  0.3010  0.4557  0.7097
  836MPD2    H712352   1.078   2.629  11.650  0.1395  1.0142  0.7757
  837MPD2     C12353   4.154   2.379  10.268  0.1210  0.0389 -0.1391
  837MPD2    C112354   4.030   2.428  10.245  0.2405  0.1215 -0.3337
  837MPD2    C212355   3.987   2.554  10.274 -0.2364  0.9826 -0.7781
  837MPD2    C312356   4.086   2.639  10.322  0.0637 -0.3727  0.5376
  837MPD2    C412357   4.213   2.591  10.356  0.8006 -0.1324 -0.6317
  837MPD2    C512358   4.248   2.461  10.321 -0.6273 -0.1086 -0.2286
  837MPD2     H12359   3.894   2.599  10.241 -0.3842  0.8601 -0.5314
  837MPD2    H112360   4.283   2.637  10.425 -1.2804  0.5852  0.9781
  837MPD2    H212361   4.191   2.282  10.234 -2.1455 -1.0822  0.5954
  837MPD2    H312362   4.352   2.430  10.323 -0.7999 -0.8056 -1.7608
  837MPD2     N12363   4.034   2.768  10.337  0.1443 -0.0385 -0.1808
  837MPD2    H512364   3.937   2.784  10.309 -0.6238 -2.5296  0.9978
  837MPD2    N112365   3.932   2.342  10.172 -0.1695  0.8580 -0.7463
  837MPD2    H712366   3.845   2.387  10.145 -1.4485 -1.0084  0.2169
  838MPD2     C12367   2.378   0.554  11.963 -0.0965  0.2682  0.5987
  838MPD2    C112368   2.306   0.445  11.922  0.6469  0.4490 -0.8471
  838MPD2    C212369   2.261   0.358  12.020 -0.6054 -0.4292 -0.0534
  838MPD2    C312370   2.270   0.388  12.151 -0.4580 -0.2268 -0.0237
  838MPD2    C412371   2.349   0.497  12.190 -0.1948  0.1754  0.6490
  838MPD2    C512372   2.399   0.576  12.093 -0.6443 -0.7025 -0.2046
  838MPD2     H12373   2.221   0.264  11.983  0.6892 -0.9280 -0.1922
  838MPD2    H112374   2.361   0.533  12.291  0.7076 -2.4757  1.4963
  838MPD2    H212375   2.416   0.627  11.893  1.2576  0.8914  1.9711
  838MPD2    H312376   2.447   0.667  12.127  0.5839 -1.4284  0.0057
  838MPD2     N12377   2.214   0.293  12.246 -0.3738  0.7401  0.3387
  838MPD2    H512378   2.162   0.212  12.214  0.4717  1.0422 -1.8168
  838MPD2    N112379   2.273   0.409  11.790  0.4103 -0.1267 -0.1939
  838MPD2    H712380   2.256   0.310  11.772  0.2414  0.1160 -1.4114
  839MPD2     C12381   1.601   4.665  11.635 -0.5694 -0.2001 -0.5606
  839MPD2    C112382   1.705   4.608  11.572 -0.1992 -0.1565  0.3803
  839MPD2    C212383   1.812   4.684  11.525  0.2346 -0.5049  0.1043
  839MPD2    C312384   1.826   0.081  11.562 -0.6335 -0.3225  0.3573
  839MPD2    C412385   1.723   0.143  11.634  0.3407  0.5812 -0.1819
  839MPD2    C512386   1.612   0.065  11.664 -0.1084  0.2182  0.0313
  839MPD2     H12387   1.888   4.629  11.470 -0.8774 -0.5613 -1.3488
  839MPD2    H112388   1.740   0.247  11.656  1.0183  0.3972  0.1635
  839MPD2    H212389   1.512   4.615  11.672 -0.2621 -0.7668 -0.6016
  839MPD2    H312390   1.533   0.120  11.716 -0.9335 -0.6944 -0.2547
  839MPD2     N12391   1.945   0.156  11.537  0.4191  0.0050 -0.0977
  839MPD2    H512392   1.943   0.250  11.575 -3.6299 -0.1697  0.1443
  839MPD2    N112393   1.721   4.468  11.551  0.2311 -0.3771  0.6594
  839MPD2    H712394   1.809   4.443  11.506 -1.0019 -0.8526 -1.4778
  840MPD2     C12395   2.586   3.086  10.424  0.1212  0.4793 -0.2054
  840MPD2    C112396   2.588   2.986  10.514 -0.4857 -0.0769 -0.3257
  840MPD2    C212397   2.690   2.991  10.615 -0.2474  0.1866 -0.2816
  840MPD2    C312398   2.772   3.104  10.623 -0.0745 -0.1187  0.2699
  840MPD2    C412399   2.748   3.207  10.540  1.2625 -0.7321  0.5507
  840MPD2    C512400   2.663   3.194  10.429 -0.2735  1.3862  0.3226
  840MPD2     H12401   2.694   2.915  10.692 -1.4866 -0.5866 -0.9761
  840MPD2    H112402   2.815   3.292  10.542  2.2341 -1.4805 -0.3081
  840MPD2    H212403   2.510   3.078  10.347 -0.3253 -0.1973  0.3064
  840MPD2    H312404   2.637   3.281  10.370 -0.3584 -0.1595 -1.9175
  840MPD2     N12405   2.865   3.128  10.724 -0.4344 -0.2720 -0.0686
  840MPD2    H512406   2.904   3.220  10.706  2.4570 -1.2725  0.9691
  840MPD2    N112407   2.484   2.884  10.507 -0.0356 -0.6793  0.0350
  840MPD2    H712408   2.422   2.875  10.427  1.7517  0.4456 -1.4733
  841MPD2     C12409   1.863   2.694  14.952 -0.2624  0.1176  0.2297
  841MPD2    C112410   1.896   2.574  14.887 -0.5433 -0.4205 -0.7630
  841MPD2    C212411   2.021   2.557  14.844 -0.6020  0.0007  0.1864
  841MPD2    C312412   2.115   2.657  14.850  0.2463 -0.1652 -0.2332
  841MPD2    C412413   2.076   2.783  14.891 -0.2804  0.6067 -0.0531
  841MPD2    C512414   1.951   2.797  14.947 -0.0342 -0.1428  0.0770
  841MPD2     H12415   2.051   2.459  14.809 -1.2585 -0.3817  0.6937
  841MPD2    H112416   2.144   2.868  14.897 -0.5324  0.7598  0.5656
  841MPD2    H212417   1.765   2.717  14.993 -0.6776 -0.6918 -0.3081
  841MPD2    H312418   1.912   2.895  14.973  1.0918  0.4943 -0.6308
  841MPD2     N12419   2.249   2.614  14.830  0.6399  0.4553  0.5206
  841MPD2    H512420   2.251   2.513  14.833 -0.6862  0.4213  0.4219
  841MPD2    N112421   1.804   2.468  14.878  0.1345 -0.3965 -0.5428
  841MPD2    H712422   1.829   2.390  14.818  1.7926 -1.1353  1.1234
  842MPD2     C12423   2.927   3.840  16.729 -0.0773 -0.4273  0.1941
  842MPD2    C112424   2.869   3.708  16.735  0.1340 -0.1320 -0.1418
  842MPD2    C212425   2.872   3.642  16.853 -0.3613  0.6733 -0.5498
  842MPD2    C312426   2.920   3.703  16.965 -0.5768  1.0152 -0.1954
  842MPD2    C412427   2.970   3.830  16.959 -0.6797 -0.1456  0.6043
  842MPD2    C512428   2.976   3.893  16.839  0.4575  0.2583  0.2101
  842MPD2     H12429   2.847   3.536  16.850  0.1761  0.5841 -1.8386
  842MPD2    H112430   3.026   3.881  17.037 -1.9777 -1.4067  2.3521
  842MPD2    H212431   2.926   3.893  16.635 -1.7135 -1.6815 -0.5031
  842MPD2    H312432   3.018   3.993  16.840  1.4817 -0.1685 -1.5588
  842MPD2     N12433   2.913   3.637  17.093  0.0604  0.2486  0.6367
  842MPD2    H512434   2.942   3.690  17.176  0.4926 -1.2815  1.4645
  842MPD2    N112435   2.815   3.658  16.616  0.2220 -0.0684 -0.3269
  842MPD2    H712436   2.834   3.713  16.533 -0.1816 -0.0290 -0.3945
  843MPD2     C12437   4.673   0.046   0.114  0.1457  0.0224  0.2704
  843MPD2    C112438   0.030   4.681   0.144  0.1726 -0.0634  1.1828
  843MPD2    C212439   0.140   4.726   0.212 -0.1142  0.4268 -0.5654
  843MPD2    C312440   0.165   0.122   0.242  0.1582  0.1279 -0.0246
  843MPD2    C412441   0.079   0.222   0.200 -0.2250  0.6706  0.4314
  843MPD2    C512442   4.697   0.174   0.144  0.1615 -0.4225 -0.1552
  843MPD2     H12443   0.219   4.658   0.239  0.0114  0.0508 -1.8926
  843MPD2    H112444   0.093   0.329   0.213 -2.4995  1.2665 -1.9545
  843MPD2    H212445   4.586   0.025   0.054 -0.4354  3.1795  0.0086
  843MPD2    H312446   4.628   0.252   0.114 -1.1706 -1.4557  0.2646
  843MPD2     N12447   0.287   0.164   0.308 -0.7972  0.0344  0.1426
  843MPD2    H512448   0.317   0.255   0.274 -0.0955 -0.8669 -1.6180
  843MPD2    N112449   0.012   4.549   0.099  0.2888  0.5251  0.2885
  843MPD2    H712450   4.667   4.531   0.040 -1.0971  0.0850  2.3260
  844MPD2     C12451   3.331   3.158  16.425  0.5828  0.0741  0.0758
  844MPD2    C112452   3.400   3.034  16.419  0.0670 -0.0509  0.2070
  844MPD2    C212453   3.519   3.024  16.504 -0.0974 -0.1176  0.1557
  844MPD2    C312454   3.565   3.128  16.579 -0.0483  0.7013 -0.2025
  844MPD2    C412455   3.480   3.237  16.592 -0.3087 -0.3201 -0.3708
  844MPD2    C512456   3.363   3.253  16.515  0.3977  0.3103 -0.3032
  844MPD2     H12457   3.575   2.932  16.514  1.2991  0.9674  2.5723
  844MPD2    H112458   3.490   3.323  16.656 -1.9732  1.1054 -2.0371
  844MPD2    H212459   3.256   3.174  16.349 -1.0509 -0.2154  1.6243
  844MPD2    H312460   3.299   3.341  16.510 -0.9371 -0.6560 -0.1605
  844MPD2     N12461   3.673   3.105  16.666  0.4015 -0.3629 -0.4332
  844MPD2    H512462   3.722   3.016  16.663  1.4387  0.1155  2.3762
  844MPD2    N112463   3.347   2.919  16.349  0.7811 -0.0473 -0.0832
  844MPD2    H712464   3.411   2.841  16.336 -0.8137 -1.5307  1.0028
  845MPD2     C12465   4.041   3.736  17.378 -0.2430 -0.1900  0.0687
  845MPD2    C112466   3.913   3.668  17.377  0.1617  0.6553  0.4547
  845MPD2    C212467   3.890   3.554  17.310  0.8338  0.5701  0.3912
  845MPD2    C312468   3.996   3.498  17.240 -0.0291  0.3603  0.3140
  845MPD2    C412469   4.124   3.547  17.262  0.2444  1.0699 -0.8287
  845MPD2    C512470   4.149   3.663  17.332 -0.4607  0.0667  0.1488
  845MPD2     H12471   3.798   3.498  17.312  1.6008 -0.7283 -0.5101
  845MPD2    H112472   4.210   3.487  17.232 -0.2010 -0.4641  0.9537
  845MPD2    H212473   4.068   3.834  17.416 -2.6415  0.1787  0.8559
  845MPD2    H312474   4.250   3.700  17.344 -0.2618  1.1898 -4.8881
  845MPD2     N12475   3.979   3.393  17.146 -0.0543 -0.5291  0.0777
  845MPD2    H512476   3.883   3.380  17.113 -0.7040  0.7559  1.4572
  845MPD2    N112477   3.814   3.735  17.456 -0.0150  0.1759 -0.3735
  845MPD2    H712478   3.837   3.825  17.496 -0.6808 -0.3414  1.1964
  846MPD2     C12479   0.325   4.146  14.091 -0.3074  0.8757 -0.6530
  846MPD2    C112480   0.226   4.203  14.015  1.1379 -0.0450 -0.6392
  846MPD2    C212481   0.144   4.294  14.072 -0.4800 -0.5884  0.3532
  846MPD2    C312482   0.165   4.335  14.204  0.0678 -0.0620  0.3101
  846MPD2    C412483   0.280   4.299  14.268  0.6678 -0.6392 -0.0606
  846MPD2    C512484   0.362   4.207  14.208  0.3674 -0.6623 -0.8448
  846MPD2     H12485   0.061   4.335  14.016  0.1572 -0.8644 -0.7948
  846MPD2    H112486   0.316   4.336  14.363 -1.7853  0.7047  0.3678
  846MPD2    H212487   0.395   4.081  14.041  0.0993  2.4509 -2.1149
  846MPD2    H312488   0.440   4.167  14.271 -0.5449 -0.3249  0.4821
  846MPD2     N12489   0.076   4.425  14.257  0.2085  0.5741  0.2917
  846MPD2    H512490   4.719   4.433  14.216  0.6452 -0.2600 -0.8634
  846MPD2    N112491   0.221   4.159  13.884  0.0157 -0.0734  0.2342
  846MPD2    H712492   0.293   4.099  13.844 -0.3821 -0.1464 -0.3629
  847MPD2     C12493   0.596   0.157  14.216 -0.5125 -0.2156  0.7142
  847MPD2    C112494   0.609   0.289  14.244 -0.2176  0.3282  0.7803
  847MPD2    C212495   0.729   0.344  14.272  0.0826  0.2677  0.0183
  847MPD2    C312496   0.843   0.263  14.262  0.4885  0.3953 -0.3038
  847MPD2    C412497   0.831   0.130  14.219  0.1986  0.1441 -0.1381
  847MPD2    C512498   0.704   0.080  14.197  0.3376 -0.0906 -0.8995
  847MPD2     H12499   0.741   0.445  14.308  2.9301  0.8363 -2.5521
  847MPD2    H112500   0.916   0.063  14.210 -1.2952 -1.7107 -0.6103
  847MPD2    H212501   0.502   0.105  14.203  0.5168 -2.1003  0.8979
  847MPD2    H312502   0.698   4.713  14.165 -1.0044 -0.4031  0.3497
  847MPD2     N12503   0.962   0.324  14.300  0.0427  0.0800  0.1926
  847MPD2    H512504   0.957   0.425  14.307  2.9785  0.4872 -3.4461
  847MPD2    N112505   0.498   0.377  14.240  0.4554 -0.1041 -0.2878
  847MPD2    H712506   0.520   0.476  14.247  0.6470 -0.2110  0.5898
  848MPD2     C12507   3.146   3.609  16.440 -0.0610  0.1645 -0.0701
  848MPD2    C112508   3.194   3.643  16.569 -0.8281  0.8427  0.1043
  848MPD2    C212509   3.245   3.769  16.591 -0.0311 -0.9114  0.7176
  848MPD2    C312510   3.249   3.866  16.492 -1.1887  0.4925 -0.2753
  848MPD2    C412511   3.211   3.824  16.366 -0.7091  0.7134 -0.4728
  848MPD2    C512512   3.163   3.698  16.339  0.4329  0.0604  0.0832
  848MPD2     H12513   3.261   3.802  16.693 -0.0586 -1.1380  0.7933
  848MPD2    H112514   3.219   3.884  16.276  1.2097 -0.6845 -1.2333
  848MPD2    H212515   3.103   3.513  16.415  1.5021 -1.1859  2.5322
  848MPD2    H312516   3.145   3.663  16.238 -1.5925  0.5580  0.2725
  848MPD2     N12517   3.281   3.999  16.510  0.6191 -0.1480 -0.3208
  848MPD2    H512518   3.262   4.055  16.427  0.7407  0.2679 -0.0715
  848MPD2    N112519   3.192   3.548  16.674 -0.5035  0.3552  0.5558
  848MPD2    H712520   3.251   3.575  16.752  1.1919  2.1399 -1.3381
  849MPD2     C12521   2.107   3.430  13.886 -0.3754  0.0765  0.5654
  849MPD2    C112522   2.197   3.350  13.955 -0.1683  0.1628  0.4257
  849MPD2    C212523   2.151   3.280  14.068  0.0659 -0.4414  0.2444
  849MPD2    C312524   2.012   3.281  14.102 -0.3253 -0.9210 -0.4382
  849MPD2    C412525   1.924   3.342  14.022 -0.0189  0.2566 -0.4053
  849MPD2    C512526   1.971   3.417  13.913  0.0391 -0.4179  0.2474
  849MPD2     H12527   2.227   3.237  14.133 -0.6948 -2.3777 -0.1468
  849MPD2    H112528   1.816   3.336  14.032  0.2231 -0.4024  1.7464
  849MPD2    H212529   2.134   3.501  13.809 -2.2607  1.0652  0.8023
  849MPD2    H312530   1.912   3.484  13.851  0.7670 -1.6221 -1.7215
  849MPD2     N12531   1.955   3.191  14.197 -0.1601  0.2070  0.0757
  849MPD2    H512532   1.854   3.179  14.189  0.2924 -2.7989 -1.2624
  849MPD2    N112533   2.337   3.351  13.926 -0.2295 -1.2363 -0.4836
  849MPD2    H712534   2.385   3.293  13.993  0.9537 -0.3934 -0.6057
  850MPD2     C12535   0.546   1.317  14.518 -0.2601 -0.7127  0.1339
  850MPD2    C112536   0.502   1.372  14.635 -0.0595  0.3741  0.7037
  850MPD2    C212537   0.608   1.409  14.726 -0.1360 -0.0464  0.1692
  850MPD2    C312538   0.738   1.370  14.703  0.4030  0.6926 -0.4789
  850MPD2    C412539   0.769   1.310  14.581 -0.1208 -0.0941  0.7410
  850MPD2    C512540   0.675   1.286  14.488 -0.1617 -0.1721 -0.1013
  850MPD2     H12541   0.589   1.467  14.816 -0.2537  0.4337 -0.1684
  850MPD2    H112542   0.870   1.280  14.558 -0.3005  1.3716 -1.9772
  850MPD2    H212543   0.471   1.304  14.440  1.6270 -0.1335 -1.7752
  850MPD2    H312544   0.715   1.234  14.403  1.0470 -1.7327  1.4206
  850MPD2     N12545   0.843   1.361  14.800 -0.0438  0.4570 -0.2540
  850MPD2    H512546   0.930   1.314  14.776  0.4800  1.5137 -0.4019
  850MPD2    N112547   0.369   1.411  14.647 -0.0830 -0.5638  0.2638
  850MPD2    H712548   0.319   1.413  14.559 -1.1300 -3.6831  0.8074
  851MPD2     C12549   0.770   1.220  15.376 -0.4922  0.0580 -0.4646
  851MPD2    C112550   0.716   1.164  15.263 -0.1258 -0.3699 -0.3902
  851MPD2    C212551   0.767   1.039  15.218  0.5533  0.3540 -0.2494
  851MPD2    C312552   0.868   0.980  15.278 -0.3047  0.4328  0.0824
  851MPD2    C412553   0.917   1.031  15.394 -0.0620  0.6228 -0.1072
  851MPD2    C512554   0.866   1.149  15.448 -0.0029  0.3558  0.0199
  851MPD2     H12555   0.710   1.003  15.133  1.0818  0.4868 -0.6550
  851MPD2    H112556   0.994   0.980  15.450  0.4008 -0.5777 -1.8666
  851MPD2    H212557   0.732   1.309  15.425  1.8088  1.3012 -0.9295
  851MPD2    H312558   0.909   1.185  15.540  1.2348 -0.3463 -0.2718
  851MPD2     N12559   0.917   0.854  15.224  0.6647  0.0373 -0.7526
  851MPD2    H512560   0.871   0.822  15.140 -2.8850  0.6965  0.9277
  851MPD2    N112561   0.606   1.233  15.211 -0.1496 -0.1588  0.2874
  851MPD2    H712562   0.571   1.313  15.262 -0.7848  0.8177 -1.6778
  852MPD2     C12563   1.437   4.421   9.320 -0.0333 -0.4442 -0.4452
  852MPD2    C112564   1.311   4.389   9.377 -0.2357  0.3415  0.2521
  852MPD2    C212565   1.262   4.474   9.468 -0.0964 -0.2367 -0.1599
  852MPD2    C312566   1.321   4.595   9.502 -0.3962  0.0638 -0.6887
  852MPD2    C412567   1.446   4.633   9.453  0.2931  0.1641 -0.9209
  852MPD2    C512568   1.505   4.535   9.370  0.0384 -0.2390  0.9921
  852MPD2     H12569   1.177   4.446   9.530  0.7063  0.0721  1.0717
  852MPD2    H112570   1.499   4.722   9.487  1.6520 -0.8676 -0.3177
  852MPD2    H212571   1.489   4.355   9.252 -0.6646  0.0058 -1.3596
  852MPD2    H312572   1.605   4.543   9.327  0.4784  2.3591  2.5064
  852MPD2     N12573   1.245   4.677   9.584  0.1348  0.1087  0.9157
  852MPD2    H512574   1.152   4.640   9.601 -1.0268  1.8179 -1.7946
  852MPD2    N112575   1.245   4.269   9.347  0.4946 -0.7813 -0.3413
  852MPD2    H712576   1.161   4.250   9.400 -0.3579 -1.2233 -1.8256
  853MPD2     C12577   1.648   3.270  12.463  0.0688 -0.7463 -0.0521
  853MPD2    C112578   1.539   3.333  12.404 -0.7439 -0.1538 -0.0921
  853MPD2    C212579   1.552   3.351  12.269 -1.1262  0.3117  0.5583
  853MPD2    C312580   1.660   3.300  12.195  0.5448 -0.5004  0.1022
  853MPD2    C412581   1.756   3.230  12.255  0.8626 -0.4154  0.5248
  853MPD2    C512582   1.755   3.219  12.393  0.7030 -0.4323  0.6278
  853MPD2     H12583   1.475   3.415  12.227 -0.1435  1.3460  0.3424
  853MPD2    H112584   1.837   3.186  12.198  1.0935  0.1438  0.4261
  853MPD2    H212585   1.643   3.248  12.569  0.7863 -2.7487 -0.4280
  853MPD2    H312586   1.835   3.173  12.449  3.0585  1.6176 -1.0449
  853MPD2     N12587   1.671   3.304  12.054 -0.4891  0.1070  0.0363
  853MPD2    H512588   1.747   3.253  12.011 -0.0385  0.6745  0.1510
  853MPD2    N112589   1.442   3.386  12.485 -1.2322 -0.3013 -0.1264
  853MPD2    H712590   1.456   3.371  12.584  1.0981 -1.7359 -0.6625
  854MPD2     C12591   3.736   4.129  13.198 -0.4613  0.3466  0.0610
  854MPD2    C112592   3.679   4.015  13.149  0.3903 -0.1308 -0.9974
  854MPD2    C212593   3.726   3.893  13.196 -0.1234 -0.4725  0.1190
  854MPD2    C312594   3.830   3.890  13.280 -0.5594 -0.5266  0.3798
  854MPD2    C412595   3.878   4.002  13.337 -0.2703 -0.6835  0.2058
  854MPD2    C512596   3.839   4.122  13.289  0.0499 -0.3136  0.2118
  854MPD2     H12597   3.679   3.798  13.173 -3.1532  1.0870 -0.1783
  854MPD2    H112598   3.957   4.001  13.411 -1.3553  2.9794  1.4593
  854MPD2    H212599   3.712   4.231  13.167 -2.0046 -0.9648 -3.0187
  854MPD2    H312600   3.888   4.212  13.324 -1.7374  0.4793  0.6682
  854MPD2     N12601   3.897   3.768  13.320 -0.0418  0.2168  0.4449
  854MPD2    H512602   3.978   3.777  13.380  0.3696  2.0942 -0.4034
  854MPD2    N112603   3.571   4.038  13.063 -0.4328 -0.5909  0.0044
  854MPD2    H712604   3.555   4.137  13.050 -0.3867 -0.2913  2.1653
  855MPD2     C12605   3.982   3.659  14.152 -0.2423  0.4223  0.5855
  855MPD2    C112606   4.047   3.546  14.100 -0.3251 -0.8479  0.5914
  855MPD2    C212607   4.043   3.530  13.964 -0.7282  0.5818  0.5208
  855MPD2    C312608   3.999   3.630  13.877  0.1052  0.2271  1.0295
  855MPD2    C412609   3.931   3.737  13.926  0.1986 -0.4348 -0.0084
  855MPD2    C512610   3.925   3.752  14.062 -0.0688  0.2113 -0.0144
  855MPD2     H12611   4.084   3.436  13.928  2.0610  1.6564  0.8782
  855MPD2    H112612   3.912   3.826  13.866  0.5908 -0.2114  0.2006
  855MPD2    H212613   3.969   3.687  14.256 -1.4028 -0.4698  0.6686
  855MPD2    H312614   3.880   3.844  14.098  0.1330  0.3822 -0.2019
  855MPD2     N12615   4.006   3.612  13.733  0.2469  0.0126 -0.4528
  855MPD2    H512616   3.960   3.682  13.675 -1.5986 -0.7257  0.1066
  855MPD2    N112617   4.094   3.432  14.179 -0.1653 -0.1268  0.2151
  855MPD2    H712618   4.130   3.345  14.141 -1.6181 -0.4052 -0.4898
  856MPD2     C12619   1.700   4.148  14.365  0.1365  0.1836  0.5070
  856MPD2    C112620   1.721   4.225  14.253  0.2483  0.0676 -0.4734
  856MPD2    C212621   1.626   4.232  14.154  1.0311 -0.0198 -0.4282
  856MPD2    C312622   1.513   4.147  14.171 -0.6404 -0.1695  1.0920
  856MPD2    C412623   1.508   4.057  14.275  0.6637 -0.4740 -0.1330
  856MPD2    C512624   1.602   4.051  14.368  0.2592 -0.7753 -0.5670
  856MPD2     H12625   1.646   4.315  14.087  1.4302 -0.8856 -1.3781
  856MPD2    H112626   1.429   3.983  14.279  1.4735 -1.3146  0.4581
  856MPD2    H212627   1.771   4.146  14.447  1.3722 -0.9367 -0.5856
  856MPD2    H312628   1.583   3.982  14.449 -0.1951 -0.0327 -0.0403
  856MPD2     N12629   1.400   4.143  14.087  0.0695 -0.2622 -0.5484
  856MPD2    H512630   1.339   4.064  14.102 -0.2205  0.0247 -0.2248
  856MPD2    N112631   1.846   4.293  14.233 -0.3755  0.4038 -0.8811
  856MPD2    H712632   1.851   4.366  14.163  0.2610  0.3020 -0.9384
  857MPD2     C12633   2.842   2.125  12.693 -0.2371 -0.4267 -0.6800
  857MPD2    C112634   2.959   2.100  12.619  0.1695 -0.1822  0.1733
  857MPD2    C212635   3.037   2.214  12.591 -0.4777  0.1926 -0.0705
  857MPD2    C312636   2.992   2.339  12.638 -0.0629 -0.3298 -0.0587
  857MPD2    C412637   2.873   2.354  12.703 -1.4104  0.1971  0.0309
  857MPD2    C512638   2.797   2.246  12.733 -0.2308 -0.4793  0.3949
  857MPD2     H12639   3.127   2.210  12.531  0.0298 -0.6862  0.7391
  857MPD2    H112640   2.820   2.444  12.731 -2.7929 -0.2646 -1.0916
  857MPD2    H212641   2.777   2.044  12.724 -0.3978 -1.5543 -3.9982
  857MPD2    H312642   2.702   2.255  12.784  0.7531 -0.5223  2.2299
  857MPD2     N12643   3.086   2.447  12.622  0.0694 -0.5410 -0.0513
  857MPD2    H512644   3.181   2.418  12.598 -0.7708 -3.5884  0.2787
  857MPD2    N112645   2.980   1.968  12.574  0.0753  0.3708 -0.4271
  857MPD2    H712646   2.915   1.896  12.601 -0.3847  1.1444  0.5300
  858MPD2     C12647   3.403   0.763  16.708 -1.0603 -0.5239 -0.3205
  858MPD2    C112648   3.511   0.839  16.672  0.0782  0.1653  0.6459
  858MPD2    C212649   3.540   0.951  16.752  0.8494  0.3708  0.8920
  858MPD2    C312650   3.473   0.977  16.872  0.3055 -0.3004  0.6165
  858MPD2    C412651   3.371   0.898  16.905  0.1868  0.0718  0.8413
  858MPD2    C512652   3.330   0.801  16.814 -0.1997  0.4131  0.2643
  858MPD2     H12653   3.623   1.016  16.728  0.9913  0.4319  1.5531
  858MPD2    H112654   3.311   0.910  16.995 -0.6199  0.6657  0.2257
  858MPD2    H212655   3.373   0.671  16.659  0.1028  0.9154 -3.6642
  858MPD2    H312656   3.244   0.743  16.844  0.9583 -0.8681  1.0998
  858MPD2     N12657   3.511   1.077  16.961 -0.2347 -0.4077  0.0980
  858MPD2    H512658   3.476   1.064  17.055 -1.4757  2.2758  0.0147
  858MPD2    N112659   3.605   0.785  16.580 -0.7925 -0.1146 -0.0112
  858MPD2    H712660   3.593   0.691  16.544  0.0179 -0.5290  0.8155
  859MPD2     C12661   2.233   2.733  16.182  0.4616  0.1769  0.0837
  859MPD2    C112662   2.332   2.785  16.105 -0.3727 -0.3390 -0.7427
  859MPD2    C212663   2.440   2.701  16.062  0.1836 -1.1551 -0.6386
  859MPD2    C312664   2.431   2.568  16.094  0.3300 -0.2958  0.2650
  859MPD2    C412665   2.330   2.517  16.172  0.0157  0.0977 -0.4824
  859MPD2    C512666   2.232   2.598  16.217 -0.6462  0.1061  0.6559
  859MPD2     H12667   2.518   2.745  16.002  1.8731  1.1579  3.2299
  859MPD2    H112668   2.330   2.412  16.199  0.8353 -0.3984 -2.3867
  859MPD2    H212669   2.163   2.802  16.227  0.4783 -0.5185  1.1695
  859MPD2    H312670   2.156   2.564  16.286 -0.7486  0.1409  0.5604
  859MPD2     N12671   2.519   2.475  16.046 -0.5126 -0.0784 -0.4400
  859MPD2    H512672   2.525   2.389  16.099  2.0134  0.1425 -0.3738
  859MPD2    N112673   2.324   2.926  16.070  0.2902  0.2143 -0.1596
  859MPD2    H712674   2.240   2.981  16.089 -0.8622 -1.4791 -0.3722
  860MPD2     C12675   4.443   3.299  11.790  0.3430  0.0044  0.4965
  860MPD2    C112676   4.497   3.296  11.919 -0.1702  0.5208  0.8235
  860MPD2    C212677   4.424   3.248  12.022  0.2149  0.4704 -0.4809
  860MPD2    C312678   4.295   3.199  11.999 -0.4164  0.6737 -0.3562
  860MPD2    C412679   4.252   3.189  11.875 -0.5244  0.3200  0.1316
  860MPD2    C512680   4.320   3.241  11.765  0.5773 -0.5126 -0.3050
  860MPD2     H12681   4.467   3.251  12.121  1.4983  2.6585 -1.1051
  860MPD2    H112682   4.165   3.135  11.840 -0.1093 -0.1684 -0.1504
  860MPD2    H212683   4.504   3.321  11.702 -1.1797  0.0874 -0.5399
  860MPD2    H312684   4.282   3.220  11.666  0.2418  2.2850 -0.7607
  860MPD2     N12685   4.222   3.160  12.113  0.9731 -0.3403 -0.1573
  860MPD2    H512686   4.264   3.175  12.204 -0.3998  0.9250  0.2769
  860MPD2    N112687   4.623   3.352  11.944 -0.5133  0.1535 -0.6449
  860MPD2    H712688   4.662   3.361  12.037 -0.9393 -0.4656 -0.4096
  861MPD2     C12689   3.585   1.837  11.275  0.1013 -1.1845 -0.2246
  861MPD2    C112690   3.677   1.908  11.199 -0.5136 -0.5833  0.3035
  861MPD2    C212691   3.626   1.967  11.084  0.6988  0.2932 -0.4754
  861MPD2    C312692   3.495   1.935  11.044  0.1156  0.1555  0.4555
  861MPD2    C412693   3.406   1.870  11.124  0.2172  0.0965  0.3446
  861MPD2    C512694   3.459   1.818  11.243 -0.8126  0.7045  0.3926
  861MPD2     H12695   3.688   2.031  11.023  1.4255  1.6039  1.6454
  861MPD2    H112696   3.301   1.862  11.098  0.4933 -0.2950 -0.6141
  861MPD2    H212697   3.613   1.799  11.372  0.7990 -0.0595  0.0113
  861MPD2    H312698   3.396   1.753  11.302  0.7133 -0.6977  0.4629
  861MPD2     N12699   3.450   1.972  10.914 -0.1736 -0.6864 -0.2194
  861MPD2    H512700   3.355   1.957  10.882 -0.0046 -0.7559 -0.6831
  861MPD2    N112701   3.812   1.922  11.234  0.2055  0.6889  0.2369
  861MPD2    H712702   3.873   1.977  11.175 -1.1505  1.7061 -0.2214
  862MPD2     C12703   2.860   1.893  10.495  0.2983  0.3692  0.0778
  862MPD2    C112704   2.917   1.881  10.619 -0.6951 -0.1506  0.0048
  862MPD2    C212705   2.857   1.783  10.701 -0.2868 -0.1019  0.5394
  862MPD2    C312706   2.750   1.709  10.659  0.3981 -0.1994 -0.0393
  862MPD2    C412707   2.691   1.740  10.541  0.4631 -0.0933  0.5271
  862MPD2    C512708   2.748   1.831  10.459  0.0305  0.1514  0.0345
  862MPD2     H12709   2.916   1.759  10.789  0.3432 -2.1606 -0.4621
  862MPD2    H112710   2.614   1.673  10.503  1.1667  0.1023 -1.2555
  862MPD2    H212711   2.895   1.963  10.419  0.4870 -0.2370 -0.3912
  862MPD2    H312712   2.712   1.839  10.358  0.2849 -1.0038 -0.1492
  862MPD2     N12713   2.692   1.597  10.726  0.0465 -0.1725  0.3924
  862MPD2    H512714   2.610   1.550  10.688 -0.1049 -0.0492  0.5619
  862MPD2    N112715   3.037   1.947  10.655 -0.2888  0.2342 -0.1643
  862MPD2    H712716   3.073   1.921  10.746 -0.5778  1.3063  0.2615
  863MPD2     C12717   2.227   0.600  16.987  0.8187  0.0532  0.4008
  863MPD2    C112718   2.155   0.483  16.953  0.0745 -0.8699 -0.5045
  863MPD2    C212719   2.206   0.365  17.010 -0.7395  0.2331 -0.8191
  863MPD2    C312720   2.317   0.358  17.102 -0.0846 -0.4951  0.0695
  863MPD2    C412721   2.385   0.473  17.122 -0.3070 -0.8323  0.0494
  863MPD2    C512722   2.341   0.596  17.071  0.8454  0.2711 -0.1911
  863MPD2     H12723   2.159   0.268  16.998  1.2618 -0.9745  1.1893
  863MPD2    H112724   2.469   0.466  17.191  0.2858 -0.7173 -0.6674
  863MPD2    H212725   2.200   0.695  16.942 -0.1714 -0.8848 -0.9950
  863MPD2    H312726   2.398   0.686  17.093 -1.3291  1.5388  0.1897
  863MPD2     N12727   2.364   0.234  17.160 -0.4132  0.6058 -0.6228
  863MPD2    H512728   2.450   0.246  17.213  0.5010 -1.4655 -1.6507
  863MPD2    N112729   2.032   0.503  16.880  0.3947  0.2599 -0.2942
  863MPD2    H712730   2.008   0.596  16.846 -1.6933  0.2228  1.0844
  864MPD2     C12731   2.423   1.270  17.480 -0.7018 -0.3142 -0.1035
  864MPD2    C112732   2.477   1.189  17.382 -0.0628 -0.1922 -0.0615
  864MPD2    C212733   2.480   1.226  17.251 -0.1023 -0.7392  0.7221
  864MPD2    C312734   2.440   1.352  17.214  0.4546 -0.0650 -0.3724
  864MPD2    C412735   2.378   1.430  17.308  0.8614  0.8912 -0.3175
  864MPD2    C512736   2.366   1.392  17.435 -0.8017 -0.6982  0.0258
  864MPD2     H12737   2.532   1.166  17.178 -2.2951  0.6851 -2.0030
  864MPD2    H112738   2.342   1.527  17.278 -0.4275  0.9817  1.5376
  864MPD2    H212739   2.424   1.240  17.584  1.3865  0.3934  0.0723
  864MPD2    H312740   2.331   1.460  17.511  3.6529  2.4246 -0.7138
  864MPD2     N12741   2.454   1.414  17.082  0.1790 -0.3885 -0.5045
  864MPD2    H512742   2.405   1.499  17.057  0.9458  0.4027  0.7308
  864MPD2    N112743   2.518   1.055  17.414 -0.9206  0.0153  0.2044
  864MPD2    H712744   2.567   1.006  17.340  0.3269  0.0869  0.9715
  865MPD2     C12745   2.447   1.453  16.205 -0.5475  0.3044 -0.1182
  865MPD2    C112746   2.473   1.391  16.329 -0.1355 -0.1565 -0.0687
  865MPD2    C212747   2.398   1.434  16.438  0.2937  0.0915  0.7804
  865MPD2    C312748   2.331   1.558  16.426 -0.3823  0.0828 -0.3333
  865MPD2    C412749   2.306   1.608  16.294  0.1301 -0.3207 -0.2038
  865MPD2    C512750   2.356   1.548  16.185 -0.2583 -0.3817 -0.5003
  865MPD2     H12751   2.399   1.384  16.534 -1.8126 -0.1079  0.6975
  865MPD2    H112752   2.239   1.693  16.288  0.1433 -0.3730 -1.1240
  865MPD2    H212753   2.498   1.420  16.115  0.7016  0.7268  0.4351
  865MPD2    H312754   2.343   1.586  16.084 -2.8935 -1.7892 -0.6972
  865MPD2     N12755   2.280   1.632  16.534 -0.1261 -0.4040  0.6842
  865MPD2    H512756   2.210   1.699  16.505  0.3492 -0.5019 -0.6915
  865MPD2    N112757   2.573   1.286  16.342  0.2211  0.3916 -0.1502
  865MPD2    H712758   2.609   1.245  16.256 -2.8576 -0.4255 -1.0395
  866MPD2     C12759   4.517   2.502  11.103 -0.6340  0.4643 -0.4310
  866MPD2    C112760   4.449   2.384  11.136  0.1642  1.2020 -0.4589
  866MPD2    C212761   4.309   2.376  11.119 -0.2955  0.0800  0.2954
  866MPD2    C312762   4.241   2.487  11.070  0.6539  0.0140 -0.2950
  866MPD2    C412763   4.317   2.595  11.029  0.4930  0.0797 -0.5578
  866MPD2    C512764   4.450   2.602  11.043 -0.1212 -0.0298 -0.1120
  866MPD2     H12765   4.252   2.286  11.139 -0.6623  0.2707  0.1107
  866MPD2    H112766   4.267   2.687  11.001 -1.6230 -0.7411  0.5707
  866MPD2    H212767   4.625   2.503  11.113 -0.8077 -0.9111  1.6003
  866MPD2    H312768   4.500   2.696  11.022  1.3313 -0.9876 -0.9847
  866MPD2     N12769   4.101   2.490  11.054 -0.2859  0.1593 -0.2435
  866MPD2    H512770   4.062   2.580  11.029  2.5463  1.8043  1.2350
  866MPD2    N112771   4.529   2.278  11.194 -0.8543  0.5658 -0.3534
  866MPD2    H712772   4.618   2.302  11.236 -0.6559 -1.9924  0.7245
  867MPD2     C12773   1.359   1.369  16.561  0.4947 -0.1823 -0.4297
  867MPD2    C112774   1.459   1.371  16.652 -0.3925 -0.9201  0.1434
  867MPD2    C212775   1.460   1.470  16.750 -0.0411 -0.2694 -0.9069
  867MPD2    C312776   1.342   1.545  16.775  0.1589 -0.0133  0.1971
  867MPD2    C412777   1.235   1.529  16.689  0.1403 -0.3385  0.1316
  867MPD2    C512778   1.246   1.437  16.591  0.8687 -0.6775  0.5962
  867MPD2     H12779   1.546   1.475  16.817  1.0672 -1.2401 -2.2648
  867MPD2    H112780   1.136   1.569  16.706  0.0152 -0.4550 -0.3102
  867MPD2    H212781   1.362   1.290  16.487 -0.0355  0.1092 -0.7626
  867MPD2    H312782   1.156   1.406  16.538  1.5898 -1.2469 -0.2969
  867MPD2     N12783   1.321   1.630  16.880  0.4147 -0.2685 -0.2122
  867MPD2    H512784   1.225   1.659  16.893  0.9372 -0.2006  3.5489
  867MPD2    N112785   1.560   1.274  16.628 -0.0242  0.4451  0.5257
  867MPD2    H712786   1.546   1.218  16.545  2.1799  1.3259 -0.4397
  868MPD2     C12787   3.353   0.843  12.893  0.0158  0.6057  1.1060
  868MPD2    C112788   3.385   0.798  13.017 -0.2446  1.1205  0.3565
  868MPD2    C212789   3.295   0.803  13.120  0.0368 -0.0599  0.3543
  868MPD2    C312790   3.160   0.829  13.087  0.3474 -0.5444  0.1075
  868MPD2    C412791   3.123   0.878  12.961  0.5588  0.0993  0.5081
  868MPD2    C512792   3.223   0.880  12.869 -0.5096 -0.3649 -0.2695
  868MPD2     H12793   3.325   0.776  13.220  1.0093 -0.9022 -0.1663
  868MPD2    H112794   3.029   0.917  12.924  1.2124  0.4556 -0.7933
  868MPD2    H212795   3.427   0.833  12.815  0.3425 -0.0558  1.4964
  868MPD2    H312796   3.198   0.924  12.773  0.3925  1.0680  0.1514
  868MPD2     N12797   3.065   0.805  13.194  0.1360  0.1944 -0.1188
  868MPD2    H512798   3.103   0.778  13.284  0.8106  1.5508  0.0026
  868MPD2    N112799   3.520   0.760  13.025  0.6560  0.2792 -0.1817
  868MPD2    H712800   3.581   0.761  12.944  0.3197  0.6861 -0.4307
  869MPD2     C12801   3.785   3.147   0.733 -0.2121  0.7634 -0.0748
  869MPD2    C112802   3.847   3.089   0.617  0.2350 -0.0876  0.2546
  869MPD2    C212803   3.975   3.115   0.585 -0.5249 -0.4913  0.3206
  869MPD2    C312804   4.047   3.197   0.673 -0.2800 -0.9226 -0.2587
  869MPD2    C412805   3.982   3.265   0.771  0.5577 -0.3413 -0.1262
  869MPD2    C512806   3.855   3.240   0.807 -0.3006 -0.1236 -0.3544
  869MPD2     H12807   4.023   3.052   0.512 -0.3481 -0.2901  0.2618
  869MPD2    H112808   4.039   3.333   0.832  0.9558  0.6995 -1.6547
  869MPD2    H212809   3.678   3.134   0.745 -0.2496  1.5040  0.3407
  869MPD2    H312810   3.800   3.304   0.875 -0.7563  0.1642 -0.9891
  869MPD2     N12811   4.185   3.222   0.659  0.1486  0.6549 -0.4542
  869MPD2    H512812   4.216   3.286   0.732 -1.5548  0.0073  0.8553
  869MPD2    N112813   3.770   3.003   0.540 -0.0077 -0.2176 -0.0718
  869MPD2    H712814   3.672   3.001   0.565  0.1799  1.0255  0.7154
  870MPD2     C12815   3.647   2.548   1.481 -0.1281 -0.7929  0.7202
  870MPD2    C112816   3.670   2.535   1.343 -0.6024  0.1377  0.5557
  870MPD2    C212817   3.565   2.483   1.267 -0.6335 -0.0179 -0.6941
  870MPD2    C312818   3.458   2.427   1.324  0.0968 -0.3859  0.5487
  870MPD2    C412819   3.444   2.420   1.459  0.0146  0.2430 -0.1063
  870MPD2    C512820   3.541   2.483   1.537 -0.2813  0.5537 -0.0044
  870MPD2     H12821   3.579   2.458   1.162 -1.0560  1.2983 -1.0607
  870MPD2    H112822   3.361   2.369   1.507  1.1087 -1.7088 -0.2651
  870MPD2    H212823   3.714   2.594   1.552  0.2554  0.1787 -0.2679
  870MPD2    H312824   3.533   2.462   1.643  0.0469  3.6582  0.6451
  870MPD2     N12825   3.372   2.359   1.230 -0.2491  0.1760  0.4593
  870MPD2    H512826   3.403   2.369   1.134 -0.4193  0.8065  0.4665
  870MPD2    N112827   3.795   2.583   1.290  0.8104 -0.3554  0.5319
  870MPD2    H712828   3.868   2.600   1.358  0.1112  3.4832  0.3456
  871MPD2     C12829   0.395   1.393  16.769 -0.2948  0.2221  0.4411
  871MPD2    C112830   0.387   1.426  16.907 -0.5079 -0.2471 -0.1862
  871MPD2    C212831   0.462   1.363  17.004 -0.0054  0.4919 -0.3277
  871MPD2    C312832   0.534   1.254  16.957  0.4407  0.0487  0.3009
  871MPD2    C412833   0.533   1.213  16.822  0.3290 -0.0159  0.3310
  871MPD2    C512834   0.468   1.293  16.729 -0.5232  0.0001  0.4786
  871MPD2     H12835   0.467   1.394  17.107 -0.1657  0.1143 -0.2066
  871MPD2    H112836   0.587   1.125  16.790 -0.7906 -1.7911  3.3032
  871MPD2    H212837   0.343   1.456  16.698  1.4436 -1.4445 -2.3101
  871MPD2    H312838   0.465   1.277  16.622 -0.0246 -1.6086  0.7139
  871MPD2     N12839   0.623   1.204  17.054  0.0119 -0.0037 -0.8682
  871MPD2    H512840   0.600   1.236  17.148  1.4807 -0.6702 -0.2836
  871MPD2    N112841   0.305   1.534  16.942 -0.1504  0.1216  0.6196
  871MPD2    H712842   0.268   1.589  16.865  0.1534 -1.4968 -0.6703
  872MPD2     C12843   1.287   3.368  14.291 -0.3790  0.3804  0.4505
  872MPD2    C112844   1.284   3.502  14.279  0.1653 -0.6331  0.5585
  872MPD2    C212845   1.177   3.574  14.341  0.0474  0.1325 -0.6938
  872MPD2    C312846   1.098   3.504  14.438 -0.6028 -0.5250 -0.0360
  872MPD2    C412847   1.120   3.369  14.461 -0.4481  0.1581 -0.0463
  872MPD2    C512848   1.201   3.302  14.379 -0.0490 -0.0312 -0.2813
  872MPD2     H12849   1.147   3.676  14.323  0.6838  0.6857  1.3912
  872MPD2    H112850   1.081   3.318  14.549 -1.7614  1.0247 -0.1218
  872MPD2    H212851   1.364   3.306  14.247 -0.2601  1.3779 -0.7474
  872MPD2    H312852   1.205   3.194  14.377 -0.2849 -0.0526  0.6209
  872MPD2     N12853   0.996   3.567  14.513 -0.0922 -0.2481  0.5153
  872MPD2    H512854   0.970   3.512  14.595 -3.4202 -0.0581 -0.3820
  872MPD2    N112855   1.378   3.580  14.202 -0.3498  0.5254 -0.0581
  872MPD2    H712856   1.355   3.678  14.189  0.2186  0.8762  1.5708
  873MPD2     C12857   2.952   3.306   1.094 -0.7449  0.1076  0.7701
  873MPD2    C112858   2.824   3.361   1.098 -0.1216  0.4872  0.1198
  873MPD2    C212859   2.712   3.279   1.068  0.2301 -0.6670  0.7107
  873MPD2    C312860   2.736   3.146   1.039  0.5346 -0.6649  0.7329
  873MPD2    C412861   2.862   3.098   1.033  0.0586 -0.1533 -0.4559
  873MPD2    C512862   2.968   3.176   1.056  0.0494 -0.8643  0.0933
  873MPD2     H12863   2.613   3.322   1.075  0.2577 -0.6946  1.3038
  873MPD2    H112864   2.880   2.995   1.006 -0.2700 -0.2885 -0.1553
  873MPD2    H212865   3.042   3.367   1.101  0.7236 -2.1349  1.6322
  873MPD2    H312866   3.069   3.138   1.044  0.9868  1.2075  1.2210
  873MPD2     N12867   2.631   3.052   1.011 -0.8887  0.0587 -0.1445
  873MPD2    H512868   2.648   2.952   1.010 -0.7994  0.0309  2.5073
  873MPD2    N112869   2.815   3.494   1.129 -0.1635  0.2916  0.4823
  873MPD2    H712870   2.903   3.536   1.157 -0.4869  1.3972 -0.1555
  874MPD2     C12871   2.575   4.148  16.610 -0.7145  0.1830 -0.2998
  874MPD2    C112872   2.660   4.080  16.525  0.8445  0.3634 -0.0671
  874MPD2    C212873   2.790   4.125  16.509  1.3225  0.9063  0.6103
  874MPD2    C312874   2.829   4.240  16.576  0.3830  0.5328  0.5715
  874MPD2    C412875   2.743   4.309  16.664 -0.4050 -0.4248  1.0070
  874MPD2    C512876   2.618   4.262  16.672  0.2836  0.9843 -0.5269
  874MPD2     H12877   2.858   4.075  16.442 -0.8364 -1.0792 -0.0918
  874MPD2    H112878   2.770   4.397  16.721 -0.6653  0.0614  0.3733
  874MPD2    H212879   2.471   4.117  16.616 -1.4778  2.2462 -2.7113
  874MPD2    H312880   2.547   4.321  16.728  0.8214  1.8480 -0.7681
  874MPD2     N12881   2.964   4.273  16.552  0.5090  0.0971  0.1771
  874MPD2    H512882   3.014   4.217  16.484  0.2958 -0.6663  0.6543
  874MPD2    N112883   2.610   3.959  16.467  0.1088 -0.7622 -0.2583
  874MPD2    H712884   2.519   3.928  16.501 -0.8037  1.6921 -0.4527
  875MPD2     C12885   3.501   1.854  14.742  0.4469  0.9205 -0.5560
  875MPD2    C112886   3.433   1.970  14.707  0.2615 -0.1016 -0.0366
  875MPD2    C212887   3.442   2.080  14.797 -0.0339  0.2028  0.0692
  875MPD2    C312888   3.496   2.062  14.928 -0.0751 -0.3770 -0.0691
  875MPD2    C412889   3.565   1.947  14.952 -0.3223 -0.0494 -0.4922
  875MPD2    C512890   3.582   1.855  14.853  0.6842 -0.3488 -0.0042
  875MPD2     H12891   3.391   2.173  14.774 -0.9050 -0.6035 -1.2655
  875MPD2    H112892   3.632   1.934  15.036 -1.0358  0.4813  0.1584
  875MPD2    H212893   3.506   1.764  14.683 -1.8265  1.0686 -0.9763
  875MPD2    H312894   3.624   1.758  14.877  0.2362 -0.1580  1.5504
  875MPD2     N12895   3.489   2.152  15.033  0.0036 -0.3194 -0.2839
  875MPD2    H512896   3.528   2.124  15.123 -0.7395  0.5140  0.2910
  875MPD2    N112897   3.361   1.981  14.587  0.0832  0.2364 -0.0355
  875MPD2    H712898   3.327   2.073  14.562  0.5204  0.5471  0.5199
  876MPD2     C12899   2.412   3.452  16.139 -0.1529  0.0571 -0.2254
  876MPD2    C112900   2.552   3.448  16.138  0.0665 -0.7579 -0.1877
  876MPD2    C212901   2.616   3.339  16.199  0.4765 -0.0122 -0.2536
  876MPD2    C312902   2.536   3.240  16.256 -0.5339  0.8088 -0.4708
  876MPD2    C412903   2.393   3.245  16.250 -0.3639  0.0225  1.1610
  876MPD2    C512904   2.333   3.356  16.202  0.7873 -0.5945  0.4491
  876MPD2     H12905   2.724   3.331  16.208  0.2612 -2.0169  0.5607
  876MPD2    H112906   2.328   3.165  16.283  3.0160 -2.2512  2.3979
  876MPD2    H212907   2.364   3.535  16.089  0.1656  0.5108  0.2231
  876MPD2    H312908   2.226   3.372  16.192  1.2521  0.8629 -2.2232
  876MPD2     N12909   2.601   3.128  16.310  0.0448 -0.6209  0.2076
  876MPD2    H512910   2.700   3.113  16.293 -0.5273 -2.0830 -1.8884
  876MPD2    N112911   2.612   3.559  16.078  0.3274  0.0175 -0.0194
  876MPD2    H712912   2.562   3.621  16.015 -1.0940 -2.3287 -1.2202
  877MPD2     C12913   2.313   3.616  15.619 -0.2805  0.0270 -0.9483
  877MPD2    C112914   2.422   3.678  15.568 -0.5283 -0.1770  0.1478
  877MPD2    C212915   2.452   3.665  15.431  0.4319 -0.4378 -0.5274
  877MPD2    C312916   2.362   3.607  15.346 -0.3869 -0.3931 -0.4331
  877MPD2    C412917   2.246   3.566  15.397 -0.5046  0.1523  0.1791
  877MPD2    C512918   2.230   3.557  15.527  0.5436  0.1997  0.6941
  877MPD2     H12919   2.548   3.698  15.393  0.7270  2.0449  2.3389
  877MPD2    H112920   2.167   3.531  15.332 -0.2838 -1.0574  0.5484
  877MPD2    H212921   2.285   3.611  15.723 -1.8786 -1.1428 -1.4396
  877MPD2    H312922   2.138   3.508  15.557 -0.1081  0.6811 -0.5311
  877MPD2     N12923   2.398   3.585  15.214 -0.0412 -0.1447  0.4072
  877MPD2    H512924   2.332   3.532  15.159 -2.0002  1.7674  0.9181
  877MPD2    N112925   2.509   3.748  15.644  0.4831  0.3326 -0.1734
  877MPD2    H712926   2.581   3.803  15.598  2.2757 -2.4847 -0.7463
  878MPD2     C12927   2.795   3.041  13.084 -0.0967 -0.3930  0.7853
  878MPD2    C112928   2.675   3.099  13.105  0.3286  0.3076  0.3955
  878MPD2    C212929   2.625   3.126  13.229 -0.1309  0.2875  0.7162
  878MPD2    C312930   2.703   3.111  13.342 -0.1696  0.3548  0.7430
  878MPD2    C412931   2.832   3.055  13.324 -0.5777 -1.1517 -0.1326
  878MPD2    C512932   2.879   3.030  13.196 -0.4083 -0.8426  0.3637
  878MPD2     H12933   2.533   3.178  13.249 -0.9624 -0.3007 -1.5611
  878MPD2    H112934   2.917   3.068  13.390 -0.9482  0.3135  0.0376
  878MPD2    H212935   2.821   3.014  12.983  1.7310  0.4982  1.0142
  878MPD2    H312936   2.981   2.994  13.194 -0.0845  0.1902 -1.8844
  878MPD2     N12937   2.665   3.162  13.474 -0.6439 -0.4602 -0.6866
  878MPD2    H512938   2.567   3.183  13.486 -0.3432 -0.4892  1.9172
  878MPD2    N112939   2.595   3.121  12.984  0.0357  0.3571 -0.1019
  878MPD2    H712940   2.636   3.089  12.897 -0.2185 -1.0135  0.2854
  879MPD2     C12941   2.627   4.645  16.854 -0.5302  0.1360  0.3011
  879MPD2    C112942   2.660   4.535  16.936  0.1990  0.5982  0.2839
  879MPD2    C212943   2.553   4.466  16.991 -1.0777 -0.5245 -0.0199
  879MPD2    C312944   2.425   4.495  16.968 -0.0154 -0.0488 -0.6645
  879MPD2    C412945   2.395   4.602  16.891  0.2772 -0.4648  0.5720
  879MPD2    C512946   2.498   4.668  16.825  0.1666  0.0419  0.5620
  879MPD2     H12947   2.579   4.388  17.063 -1.0265 -0.6927 -0.2204
  879MPD2    H112948   2.293   4.628  16.865  0.5549  0.8254  0.7729
  879MPD2    H212949   2.708   4.698  16.806  0.7541 -1.7034  0.4435
  879MPD2    H312950   2.479   0.009  16.751 -0.1724 -0.7404 -0.1599
  879MPD2     N12951   2.319   4.436  17.048  0.0320  0.2414 -0.6317
  879MPD2    H512952   2.225   4.471  17.032 -0.8318 -1.4878  0.6470
  879MPD2    N112953   2.795   4.505  16.972  0.0267  0.2241 -0.1132
  879MPD2    H712954   2.865   4.566  16.929  1.2767  0.3936  2.1712
  880MPD2     C12955   4.156   1.473   0.122  0.0330 -0.1962 -0.7204
  880MPD2    C112956   4.149   1.549   0.236 -0.1095  0.8593 -0.4664
  880MPD2    C212957   4.232   1.513   0.336  0.1464 -0.2136 -0.2413
  880MPD2    C312958   4.316   1.405   0.341  0.0052  0.3236  0.5180
  880MPD2    C412959   4.311   1.323   0.232 -0.2535  0.0731  0.3425
  880MPD2    C512960   4.234   1.355   0.126 -0.6677  0.2632 -0.3385
  880MPD2     H12961   4.244   1.570   0.427  1.1216 -0.3910 -0.2621
  880MPD2    H112962   4.365   1.229   0.230 -0.8476 -0.2135 -2.4865
  880MPD2    H212963   4.101   1.501   0.033 -0.6209 -0.2157 -0.3207
  880MPD2    H312964   4.238   1.289   0.040  3.4400 -0.2438  0.2512
  880MPD2     N12965   4.397   1.384   0.451 -0.4873  0.2224  0.3227
  880MPD2    H512966   4.377   1.439   0.534 -0.2209  0.4901  0.2077
  880MPD2    N112967   4.084   1.672   0.235 -0.2757  0.2222  0.5753
  880MPD2    H712968   4.041   1.693   0.145 -1.1165  1.8766  1.3466
  881MPD2     C12969   4.091   2.595  17.615 -0.1469 -0.1516  0.0259
  881MPD2    C112970   4.133   2.474  17.575  0.6620  0.3327 -0.0683
  881MPD2    C212971   4.073   2.364  17.632 -0.0112 -0.0937  0.4031
  881MPD2    C312972   3.997   2.377   0.007  0.0942  0.0896  0.0572
  881MPD2    C412973   3.976   2.498   0.061  0.7487  0.4278  0.3514
  881MPD2    C512974   4.028   2.606  17.733 -0.0528  0.2661 -0.4466
  881MPD2     H12975   4.091   2.265  17.591  0.7312  0.1878  0.0444
  881MPD2    H112976   3.932   2.520   0.157  0.0316 -0.1542  0.1595
  881MPD2    H212977   4.127   2.684  17.565  0.4916 -1.5687 -2.0256
  881MPD2    H312978   4.015   2.708   0.027 -1.2813 -0.4359  1.1351
  881MPD2     N12979   3.955   2.265   0.083 -0.1747  0.3653  0.3477
  881MPD2    H512980   3.900   2.290   0.165  1.0343 -0.5138  1.4328
  881MPD2    N112981   4.213   2.471  17.458  0.0823 -0.6496 -0.1739
  881MPD2    H712982   4.232   2.561  17.418 -1.3855 -0.6015 -0.7786
  882MPD2     C12983   2.822   3.426  14.476 -0.1731 -0.6236 -0.0733
  882MPD2    C112984   2.779   3.492  14.590 -0.2958 -0.9269  0.6475
  882MPD2    C212985   2.646   3.515  14.594 -0.4066  0.1104 -0.0416
  882MPD2    C312986   2.554   3.459  14.508 -0.4682 -0.5460 -0.1319
  882MPD2    C412987   2.605   3.386  14.402 -0.7300  0.1853 -0.0776
  882MPD2    C512988   2.740   3.372  14.389 -0.9269  0.0179 -0.7468
  882MPD2     H12989   2.607   3.565  14.682  1.8976  1.7547  0.0300
  882MPD2    H112990   2.534   3.333  14.340  1.7937 -0.3613 -2.5030
  882MPD2    H212991   2.927   3.411  14.454 -0.0894  0.8749 -0.7054
  882MPD2    H312992   2.780   3.305  14.314  2.7375  0.3565  0.8754
  882MPD2     N12993   2.417   3.441  14.539  0.0617 -0.2760  0.5470
  882MPD2    H512994   2.368   3.371  14.484  0.6836  0.4332 -0.9057
  882MPD2    N112995   2.873   3.540  14.688  0.8490 -0.3266  0.4181
  882MPD2    H712996   2.963   3.573  14.657 -0.0229  2.5514  0.9401
  883MPD2     C12997   4.558   3.662  16.268  0.4133  0.5152 -0.4443
  883MPD2    C112998   4.610   3.754  16.181  0.0429 -1.0993 -0.7620
  883MPD2    C212999   4.715   3.828  16.226  0.1670 -0.2297 -0.1256
  883MPD2    C313000   0.029   3.819  16.353 -0.3909 -0.5630 -0.0531
  883MPD2    C413001   4.721   3.720  16.438  0.2474  0.0250 -0.0332
  883MPD2    C513002   4.629   3.631  16.389  0.9907 -1.2070 -0.6379
  883MPD2     H13003   0.025   3.905  16.166 -0.5177  0.9064  0.8088
  883MPD2    H113004   0.031   3.701  16.534  1.8654  1.0274 -0.6112
  883MPD2    H213005   4.472   3.601  16.242  0.3470  0.0923  0.7676
  883MPD2    H313006   4.580   3.556  16.450 -0.6680  0.4319  0.0101
  883MPD2     N13007   0.136   3.905  16.385  0.3087  0.2748 -0.4548
  883MPD2    H513008   0.173   3.962  16.309  2.2733 -0.6341 -0.1744
  883MPD2    N113009   4.553   3.776  16.047  0.2065  0.3473  0.1476
  883MPD2    H713010   4.605   3.840  15.986  0.2018 -3.2484 -3.6362
  884MPD2     C13011   1.689   4.472  15.474  0.0652  0.7837  0.1848
  884MPD2    C113012   1.713   4.575  15.398  0.5915 -1.4620  0.3096
  884MPD2    C213013   1.600   4.638  15.342 -0.6065 -0.4841  0.3008
  884MPD2    C313014   1.470   4.612  15.391 -0.5898 -0.3358  1.0155
  884MPD2    C413015   1.449   4.497  15.471  0.5310  0.0370  0.2012
  884MPD2    C513016   1.563   4.430  15.513 -0.1407 -0.1748 -0.1499
  884MPD2     H13017   1.618   4.720  15.274 -1.5511 -1.4019 -1.0486
  884MPD2    H113018   1.348   4.459  15.484 -0.2633  2.0219 -0.2040
  884MPD2    H213019   1.759   4.402  15.516 -0.5976 -0.2061 -0.3619
  884MPD2    H313020   1.547   4.345  15.579 -1.6797 -2.4190 -3.4683
  884MPD2     N13021   1.366   4.692  15.344  0.2693 -0.2131 -0.9960
  884MPD2    H513022   1.400   0.028  15.282 -0.3604 -1.3839 -2.6911
  884MPD2    N113023   1.842   4.615  15.359 -0.6331  0.7574  0.4922
  884MPD2    H713024   1.847   4.686  15.287  2.0347  0.4053  0.3191
  885MPD2     C13025   4.673   0.669   0.236  0.7469  0.3562 -0.4358
  885MPD2    C113026   0.056   0.720   0.205  0.1215  0.2335  0.0732
  885MPD2    C213027   0.106   0.729   0.071  0.8274 -0.1573  0.6399
  885MPD2    C313028   0.019   0.679  17.713  0.1322  0.7604  0.2043
  885MPD2    C413029   4.637   0.622   0.003 -0.6843  0.5743 -0.5204
  885MPD2    C513030   4.597   0.613   0.137  0.6171 -0.9560 -0.2352
  885MPD2     H13031   0.196   0.785   0.046 -1.4573  2.1145 -2.3838
  885MPD2    H113032   4.571   0.577  17.672 -0.7675  1.3944 -0.9525
  885MPD2    H213033   4.630   0.653   0.334  0.0693 -1.5015 -1.0391
  885MPD2    H313034   4.507   0.556   0.156  0.6640 -1.5909 -1.8931
  885MPD2     N13035   0.059   0.699  17.578  0.4158 -0.1835 -0.0603
  885MPD2    H513036   0.152   0.739  17.566  0.0612  0.7419  0.3459
  885MPD2    N113037   0.129   0.769   0.309 -0.2493  0.1666 -0.3717
  885MPD2    H713038   0.074   0.784   0.393 -2.0350 -0.4826 -1.4232
  886MPD2     C13039   1.396   2.912  15.355 -0.4559 -0.1833 -0.1601
  886MPD2    C113040   1.484   2.972  15.445  0.0238 -0.4791 -0.5196
  886MPD2    C213041   1.483   3.105  15.449 -0.5379  0.2699 -0.0430
  886MPD2    C313042   1.397   3.179  15.370  0.1880  0.2122 -0.1779
  886MPD2    C413043   1.320   3.124  15.276  0.0111 -0.5625 -0.1614
  886MPD2    C513044   1.320   2.988  15.272  0.4042  0.1638  0.2678
  886MPD2     H13045   1.548   3.154  15.521 -0.1713 -1.9659  1.1500
  886MPD2    H113046   1.259   3.187  15.211  0.2648 -1.6870 -1.4911
  886MPD2    H213047   1.399   2.806  15.335  2.6131  0.2371 -1.9564
  886MPD2    H313048   1.263   2.928  15.202  0.3296 -1.7695  2.0035
  886MPD2     N13049   1.386   3.321  15.366  0.1293 -0.5080 -0.7683
  886MPD2    H513050   1.331   3.369  15.295 -0.2247 -0.8004 -0.6944
  886MPD2    N113051   1.569   2.902  15.533  0.5231  0.0631  0.0400
  886MPD2    H713052   1.602   2.952  15.614  1.7178 -2.3370  1.0532
  887MPD2     C13053   1.988   3.021  16.087 -0.0921 -0.4293  0.2487
  887MPD2    C113054   1.941   3.055  15.964  0.0817 -0.4972  0.0224
  887MPD2    C213055   1.946   3.181  15.928  0.4292 -0.0113  0.7688
  887MPD2    C313056   1.980   3.285  16.013  0.3304 -0.5926 -0.0453
  887MPD2    C413057   2.021   3.257  16.137  0.0254  0.8068 -0.0728
  887MPD2    C513058   2.031   3.123  16.172  0.4740  0.3725 -0.1785
  887MPD2     H13059   1.904   3.206  15.832  1.4649 -1.3439 -0.0211
  887MPD2    H113060   2.044   3.333  16.211 -2.6772  2.7553 -1.2400
  887MPD2    H213061   1.982   2.922  16.132 -0.3821  0.1964  1.6057
  887MPD2    H313062   2.070   3.087  16.266  1.0541 -1.7443 -1.2300
  887MPD2     N13063   1.975   3.421  15.984  0.7661  0.4413  0.4870
  887MPD2    H513064   1.986   3.473  16.071  3.1326 -1.4160  1.3135
  887MPD2    N113065   1.894   2.955  15.876 -0.3864 -0.1271  0.4147
  887MPD2    H713066   1.852   2.997  15.794  1.5514 -2.4706 -1.7550
  888MPD2     C13067   3.536   3.377  14.718 -0.0150 -0.6186 -0.2219
  888MPD2    C113068   3.534   3.406  14.855  0.1447 -0.3008 -0.0324
  888MPD2    C213069   3.585   3.539  14.883  0.8807 -0.3124 -0.3605
  888MPD2    C313070   3.624   3.624  14.788 -0.8700  0.2210 -0.0914
  888MPD2    C413071   3.603   3.593  14.652  0.0937  0.2419  0.6383
  888MPD2    C513072   3.561   3.472  14.621 -0.7574  0.1758 -0.8783
  888MPD2     H13073   3.594   3.576  14.985 -1.3650  0.3549 -0.4227
  888MPD2    H113074   3.616   3.664  14.571  0.3446  2.4277  2.5802
  888MPD2    H213075   3.500   3.282  14.681 -0.4256 -0.5609  0.0343
  888MPD2    H313076   3.565   3.449  14.515  0.7815 -0.2952 -0.7141
  888MPD2     N13077   3.658   3.750  14.838  0.0928 -0.1494 -0.5629
  888MPD2    H513078   3.639   3.775  14.935  1.3950 -0.2010 -0.2919
  888MPD2    N113079   3.487   3.310  14.948 -0.0166  0.5739 -0.2441
  888MPD2    H713080   3.461   3.220  14.909  2.1685 -0.7462  1.3600
  889MPD2     C13081   3.097   3.218  12.933 -0.1731  0.6287  0.6227
  889MPD2    C113082   3.188   3.135  12.986 -0.2859 -0.6265  0.3412
  889MPD2    C213083   3.200   3.132  13.126  0.5932 -0.2680  1.2353
  889MPD2    C313084   3.156   3.246  13.203 -0.0488  0.0453 -0.7866
  889MPD2    C413085   3.073   3.333  13.131  0.4994  0.4280  0.5558
  889MPD2    C513086   3.035   3.316  13.003 -0.1046  0.4630 -0.0882
  889MPD2     H13087   3.251   3.047  13.168  0.7308 -1.2619 -0.9646
  889MPD2    H113088   3.028   3.419  13.179 -0.4430  1.3068 -1.8980
  889MPD2    H213089   3.058   3.210  12.832  1.3398  1.4489 -0.0295
  889MPD2    H313090   2.956   3.379  12.964 -1.8730  0.2453  3.1025
  889MPD2     N13091   3.175   3.250  13.342 -0.2859  0.3129 -0.2776
  889MPD2    H513092   3.229   3.170  13.372 -0.4380 -1.1788 -3.8888
  889MPD2    N113093   3.240   3.028  12.908 -0.4116  0.1629 -0.3779
  889MPD2    H713094   3.282   2.949  12.955  0.2408  1.0043  0.4653
  890MPD2     C13095   2.092   4.572  14.629  0.7313  0.0253 -0.0335
  890MPD2    C113096   2.222   4.543  14.600  0.2817 -0.2945  0.3835
  890MPD2    C213097   2.255   4.411  14.598  0.0523  0.0499 -0.2648
  890MPD2    C313098   2.169   4.312  14.634 -1.0327  0.2265  0.8381
  890MPD2    C413099   2.038   4.348  14.659  0.7172  0.7541  1.0213
  890MPD2    C513100   1.997   4.478  14.664 -0.1524 -0.0983  0.6920
  890MPD2     H13101   2.356   4.381  14.572  0.9982  0.6867  2.7761
  890MPD2    H113102   1.958   4.278  14.681  0.1414  0.7346 -1.0865
  890MPD2    H213103   2.058   4.674  14.643 -1.7016 -1.0553  1.8423
  890MPD2    H313104   1.892   4.492  14.687 -0.4730  1.2073 -1.6103
  890MPD2     N13105   2.214   4.182  14.648 -0.0663  0.5450 -0.1991
  890MPD2    H513106   2.313   4.163  14.639  0.1148  1.6366 -0.4763
  890MPD2    N113107   2.308   4.649  14.562 -0.4247  0.1617  0.5191
  890MPD2    H713108   2.274   0.006  14.587 -0.0235  0.1113  1.2504
  891MPD2     C13109   0.606   2.979  16.759  0.1165 -0.1783 -0.0837
  891MPD2    C113110   0.573   3.091  16.683  0.2796 -0.9182 -0.0566
  891MPD2    C213111   0.636   3.214  16.710  0.5726  0.9044 -0.0314
  891MPD2    C313112   0.721   3.220  16.819 -0.1170 -0.1463 -0.8630
  891MPD2    C413113   0.764   3.108  16.886 -0.5346 -0.7344 -0.0037
  891MPD2    C513114   0.702   2.988  16.852  0.7551  0.6232  0.2994
  891MPD2     H13115   0.602   3.304  16.660 -1.6954 -1.2435 -2.3178
  891MPD2    H113116   0.838   3.107  16.965 -0.5021  0.2273 -0.0231
  891MPD2    H213117   0.566   2.880  16.746 -2.1658  1.1886 -3.4362
  891MPD2    H313118   0.730   2.904  16.914 -0.5108  0.2238  0.3176
  891MPD2     N13119   0.775   3.350  16.841  0.0003 -0.4641  0.3312
  891MPD2    H513120   0.745   3.418  16.772  1.0135  1.6111  1.9274
  891MPD2    N113121   0.495   3.070  16.571  0.2536  0.1685 -0.6144
  891MPD2    H713122   0.457   2.977  16.554  1.1692  0.1474 -2.5794
  892MPD2     C13123   1.742   3.937  15.202  0.3235  0.2620 -0.3884
  892MPD2    C113124   1.715   3.924  15.068 -0.0824  0.7291 -0.0346
  892MPD2    C213125   1.785   3.835  14.988  0.0193 -0.5762  0.4797
  892MPD2    C313126   1.891   3.773  15.039  0.7076 -0.5367  0.1642
  892MPD2    C413127   1.927   3.798  15.164  0.7280 -0.3878  0.1099
  892MPD2    C513128   1.844   3.862  15.253 -0.2298  0.1421  0.7350
  892MPD2     H13129   1.748   3.816  14.888  1.6749 -0.4932 -0.1436
  892MPD2    H113130   2.004   3.735  15.207  0.3327 -1.7007 -1.0893
  892MPD2    H213131   1.678   3.991  15.270 -0.5519 -1.0444 -0.1805
  892MPD2    H313132   1.880   3.875  15.354 -1.2054  0.8033  0.9930
  892MPD2     N13133   1.949   3.674  14.961  0.4524  0.4239  0.1389
  892MPD2    H513134   1.906   3.652  14.872 -1.2435 -0.2627  1.1187
  892MPD2    N113135   1.611   4.004  15.024 -0.4562 -0.3805 -0.0074
  892MPD2    H713136   1.565   4.071  15.084 -0.4819 -0.7187  0.3493
  893MPD2     C13137   2.812   2.746   1.731 -0.2163  0.2666 -0.0123
  893MPD2    C113138   2.816   2.835   1.626  0.0857 -0.4381  0.1187
  893MPD2    C213139   2.699   2.899   1.591  0.3177 -0.8145  0.2172
  893MPD2    C313140   2.581   2.882   1.669 -0.3868 -0.2673  0.1780
  893MPD2    C413141   2.595   2.814   1.793 -0.1459 -0.3536 -0.5120
  893MPD2    C513142   2.710   2.751   1.818 -0.7487 -0.2853 -0.3125
  893MPD2     H13143   2.682   2.929   1.489 -0.6157  0.9015  0.8782
  893MPD2    H113144   2.506   2.812   1.855 -1.3570  1.0500 -2.1971
  893MPD2    H213145   2.900   2.690   1.759  0.5711  2.3639  1.6865
  893MPD2    H313146   2.712   2.700   1.914  1.5995 -2.2254 -1.4223
  893MPD2     N13147   2.461   2.951   1.649 -0.0381  0.0829  0.2891
  893MPD2    H513148   2.390   2.932   1.718  1.2262 -0.2232  1.4962
  893MPD2    N113149   2.937   2.841   1.559 -0.3209 -0.1521  0.5142
  893MPD2    H713150   3.020   2.797   1.597  0.1885  0.5731  0.2288
  894MPD2     C13151   1.244   0.603   1.774 -0.5606 -0.1535 -0.7948
  894MPD2    C113152   1.321   0.717   1.786  0.1246  0.5597  0.4876
  894MPD2    C213153   1.419   0.746   1.689  0.1068 -0.4597  0.1957
  894MPD2    C313154   1.454   0.656   1.588 -0.0534  0.5297  0.1840
  894MPD2    C413155   1.394   0.536   1.591 -0.0496  0.3917 -0.0001
  894MPD2    C513156   1.283   0.513   1.676  0.1258  0.0206  0.7979
  894MPD2     H13157   1.461   0.846   1.689  2.4473 -1.4452  1.2862
  894MPD2    H113158   1.425   0.460   1.521 -2.6148 -0.7104  0.0465
  894MPD2    H213159   1.150   0.580   1.823 -0.2139  0.2466  0.0463
  894MPD2    H313160   1.217   0.429   1.659  0.3278  0.0956 -0.3519
  894MPD2     N13161   1.539   0.704   1.489  0.0155 -0.8854 -0.4079
  894MPD2    H513162   1.568   0.802   1.495  0.7177 -1.3411  3.6750
  894MPD2    N113163   1.304   0.818   1.890 -0.3032 -0.6060 -0.5312
  894MPD2    H713164   1.361   0.902   1.882  0.2855 -1.0463 -1.0405
  895MPD2     C13165   0.746   3.445  14.133 -0.1269  0.1316 -0.4903
  895MPD2    C113166   0.703   3.382  14.015  0.0248  0.1841 -0.5192
  895MPD2    C213167   0.797   3.313  13.944  0.2519  0.1623 -0.4431
  895MPD2    C313168   0.924   3.282  13.996 -0.0855 -0.5848  0.2821
  895MPD2    C413169   0.957   3.334  14.118 -0.3593 -0.7921  0.3447
  895MPD2    C513170   0.871   3.421  14.180  0.6561  0.1772  0.1975
  895MPD2     H13171   0.773   3.263  13.850 -0.6816  0.9328 -0.6192
  895MPD2    H113172   1.053   3.317  14.163  0.6705 -0.5907 -1.7857
  895MPD2    H213173   0.681   3.514  14.187  1.5767  1.7231 -0.4892
  895MPD2    H313174   0.906   3.473  14.268  1.8550  0.1589 -0.2610
  895MPD2     N13175   1.007   3.181  13.927  0.1089 -0.3901 -0.3625
  895MPD2    H513176   0.974   3.146  13.838 -0.5809  2.2820 -1.1751
  895MPD2    N113177   0.585   3.401  13.948  0.3496 -0.7839 -0.2539
  895MPD2    H713178   0.587   3.361  13.855 -1.1164 -1.2094 -0.0893
  896MPD2     C13179   3.588   1.543   1.404  0.0240 -0.1614 -0.8439
  896MPD2    C113180   3.556   1.518   1.275 -0.0615 -0.1852  0.7757
  896MPD2    C213181   3.427   1.483   1.246  0.0780  0.1366  0.7787
  896MPD2    C313182   3.327   1.480   1.347 -0.1927  1.1189  0.0276
  896MPD2    C413183   3.363   1.493   1.477  0.0352  0.3476  0.3391
  896MPD2    C513184   3.498   1.518   1.503  0.4591 -0.2747  0.5242
  896MPD2     H13185   3.396   1.476   1.142  1.0105 -1.6503  0.6358
  896MPD2    H113186   3.304   1.475   1.566 -1.4783  0.2122 -0.6949
  896MPD2    H213187   3.690   1.559   1.435  0.5197 -1.3987 -1.8273
  896MPD2    H313188   3.534   1.518   1.605  1.7914 -0.6109  0.0497
  896MPD2     N13189   3.202   1.436   1.311  0.3778  0.1096 -0.7676
  896MPD2    H513190   3.182   1.422   1.213 -0.6249 -1.7300 -0.2949
  896MPD2    N113191   3.657   1.547   1.180 -0.3123  0.9666  0.3042
  896MPD2    H713192   3.746   1.588   1.207  0.0857  1.4185 -1.6365
  897MPD2     C13193   4.440   3.170  10.709 -0.1061  0.3798 -0.2433
  897MPD2    C113194   4.357   3.269  10.764 -0.3361 -0.4961 -0.1272
  897MPD2    C213195   4.310   3.260  10.893  0.0519  0.2517 -0.1869
  897MPD2    C313196   4.316   3.143  10.967 -0.0141 -0.8727  1.0046
  897MPD2    C413197   4.403   3.036  10.916  0.0291 -0.0649  0.4140
  897MPD2    C513198   4.459   3.056  10.793 -1.0351  0.4138 -0.2802
  897MPD2     H13199   4.236   3.334  10.921  0.7274  0.9145 -0.1380
  897MPD2    H113200   4.421   2.947  10.975  0.9622  1.6080  2.6371
  897MPD2    H213201   4.488   3.169  10.612  1.8722 -1.6081  0.7303
  897MPD2    H313202   4.517   2.976  10.747  0.9838  1.0679  1.1449
  897MPD2     N13203   4.228   3.126  11.076  0.1788  0.4032  0.0201
  897MPD2    H513204   4.153   3.194  11.079 -0.3739 -0.0370 -3.4890
  897MPD2    N113205   4.312   3.375  10.676  0.1040 -0.1249  0.3602
  897MPD2    H713206   4.344   3.363  10.581  2.4566  0.1374  1.0988
  898MPD2     C13207   1.082   3.882   0.060 -0.6032  0.1061 -0.3836
  898MPD2    C113208   1.180   3.916   0.151 -0.0058  0.3370 -0.4831
  898MPD2    C213209   1.212   4.050   0.170  0.4316  0.3423  0.0379
  898MPD2    C313210   1.149   4.146   0.098 -0.5078  0.0753  0.1224
  898MPD2    C413211   1.042   4.108   0.012 -0.1344 -0.1791  0.5034
  898MPD2    C513212   1.015   3.975  17.729 -0.6827 -0.8506  0.9185
  898MPD2     H13213   1.298   4.074   0.232 -1.4720  2.4899  1.8744
  898MPD2    H113214   0.994   4.168  17.678  0.2147  0.9799  1.1957
  898MPD2    H213215   1.059   3.780   0.031  1.8880 -0.6312  0.3008
  898MPD2    H313216   0.943   3.922  17.668 -0.3851 -1.7083  1.3033
  898MPD2     N13217   1.184   4.285   0.102 -0.0689 -0.6557 -0.0256
  898MPD2    H513218   1.260   4.303   0.167 -0.9367  0.4453  0.6811
  898MPD2    N113219   1.266   3.831   0.219  0.5782 -0.6721  0.1956
  898MPD2    H713220   1.336   3.883   0.271  2.3250 -1.7020 -1.1049
  899MPD2     C13221   2.490   4.164  17.601 -0.5535 -0.0301 -0.5952
  899MPD2    C113222   2.403   4.268  17.584 -0.3393 -0.3430 -0.0491
  899MPD2    C213223   2.287   4.276  17.664  0.0240  0.8556 -0.2736
  899MPD2    C313224   2.258   4.174   0.012 -0.1963  0.5596  0.6552
  899MPD2    C413225   2.351   4.075   0.031 -0.4187  0.5065 -0.4957
  899MPD2    C513226   2.471   4.071  17.699  0.2531 -0.2273  0.0146
  899MPD2     H13227   2.226   4.365  17.665 -0.5092  0.4180  3.7858
  899MPD2    H113228   2.337   4.000   0.108 -1.8429 -1.1543 -2.3853
  899MPD2    H213229   2.577   4.164  17.537  1.0801 -2.8091  1.6412
  899MPD2    H313230   2.531   3.982  17.718 -1.1610 -1.6917 -2.4355
  899MPD2     N13231   2.148   4.176   0.099 -0.8159  0.3853  0.2752
  899MPD2    H513232   2.143   4.104   0.171 -1.9988 -0.0122 -0.2016
  899MPD2    N113233   2.454   4.367  17.493  0.0928  0.4064  0.3026
  899MPD2    H713234   2.544   4.347  17.450 -0.9430 -0.1543 -1.6166
  900MPD2     C13235   1.801   0.668  12.736 -0.9220 -0.4538  0.8293
  900MPD2    C113236   1.693   0.587  12.745  0.4895  0.1670  0.0936
  900MPD2    C213237   1.568   0.633  12.703  0.7190  0.1798  0.2369
  900MPD2    C313238   1.545   0.749  12.634 -0.7041  0.2511  0.1442
  900MPD2    C413239   1.659   0.834  12.628 -0.3318  0.3815 -0.0473
  900MPD2    C513240   1.785   0.792  12.681 -0.2816 -0.5801 -0.2792
  900MPD2     H13241   1.483   0.566  12.706  0.4749  0.4781 -0.2097
  900MPD2    H113242   1.650   0.939  12.602  0.3120  0.6565  0.8037
  900MPD2    H213243   1.899   0.637  12.769 -0.8339  0.0738  1.0676
  900MPD2    H313244   1.874   0.853  12.673 -1.1166  0.6587 -0.0858
  900MPD2     N13245   1.419   0.779  12.577  0.3376  0.3903 -0.1088
  900MPD2    H513246   1.344   0.712  12.590 -0.2643  0.8404 -1.2163
  900MPD2    N113247   1.713   0.460  12.810  0.3806 -0.3842  0.5910
  900MPD2    H713248   1.803   0.445  12.856  0.2083 -0.9184  0.7639
  901MPD2     C13249   1.273   4.234  12.827 -0.3072 -0.0924 -0.9390
  901MPD2    C113250   1.387   4.246  12.750  0.0216 -0.3561 -0.4251
  901MPD2    C213251   1.490   4.333  12.788  0.9072 -0.2235  0.0764
  901MPD2    C313252   1.455   4.428  12.884  0.3154  0.3523 -0.0050
  901MPD2    C413253   1.342   4.419  12.959  0.1999 -0.2054  1.0905
  901MPD2    C513254   1.253   4.322  12.932  0.0618 -0.1514 -0.2343
  901MPD2     H13255   1.578   4.341  12.726 -0.7531 -0.9342 -2.3759
  901MPD2    H113256   1.322   4.483  13.044  1.4329  2.3665 -0.5833
  901MPD2    H213257   1.190   4.172  12.795 -1.6420  0.9135  0.5409
  901MPD2    H313258   1.165   4.319  12.994 -0.0303  0.7659 -0.3198
  901MPD2     N13259   1.537   4.539  12.898 -0.6035  0.1279 -0.0946
  901MPD2    H513260   1.627   4.533  12.852 -1.1844  0.4410 -1.2747
  901MPD2    N113261   1.412   4.153  12.642 -0.0414 -0.3900  0.4486
  901MPD2    H713262   1.357   4.068  12.641 -0.4883 -0.0949 -0.3831
  902MPD2     C13263   0.895   3.215  13.226  0.0943 -0.1020 -0.0364
  902MPD2    C113264   0.834   3.307  13.148 -0.0193  0.1467  0.2595
  902MPD2    C213265   0.832   3.278  13.010  0.3353 -0.1072 -0.0795
  902MPD2    C313266   0.901   3.175  12.955 -0.0272  0.1415 -0.2990
  902MPD2    C413267   0.943   3.073  13.042 -0.1067  0.3593  0.4610
  902MPD2    C513268   0.937   3.092  13.179 -1.0112 -0.2936  0.1867
  902MPD2     H13269   0.796   3.356  12.944  2.5572 -0.8984 -2.2151
  902MPD2    H113270   0.990   2.983  13.005  1.8431  2.0045 -1.1658
  902MPD2    H213271   0.900   3.230  13.333 -2.2828 -2.6853  0.4445
  902MPD2    H313272   0.960   3.011  13.247 -0.4545 -0.0208  0.3193
  902MPD2     N13273   0.924   3.150  12.823 -0.2838  0.0746 -0.2460
  902MPD2    H513274   0.947   3.055  12.797  1.6398  0.3487  0.4282
  902MPD2    N113275   0.793   3.425  13.206  0.5374  0.1810 -0.0998
  902MPD2    H713276   0.833   3.447  13.297 -1.0541  0.2422  0.5818
  903MPD2     C13277   0.941   3.395  11.895  0.4556  0.0416  0.0522
  903MPD2    C113278   0.879   3.397  12.024  0.5952  0.7040 -0.1494
  903MPD2    C213279   0.747   3.422  12.023  0.1634  0.4947 -0.3862
  903MPD2    C313280   0.669   3.439  11.909 -0.7169  0.7906 -0.8167
  903MPD2    C413281   0.727   3.428  11.783 -0.3670  0.8523 -0.1679
  903MPD2    C513282   0.861   3.405  11.780 -0.5464 -0.3865 -0.1748
  903MPD2     H13283   0.693   3.452  12.112  2.0043 -1.9786  1.5716
  903MPD2    H113284   0.677   3.435  11.687  2.4548  1.1613 -1.6092
  903MPD2    H213285   1.048   3.381  11.888  0.3529  0.2034 -1.8291
  903MPD2    H313286   0.903   3.380  11.683  1.5716  0.7777  0.4476
  903MPD2     N13287   0.534   3.480  11.937 -0.0797 -1.0390 -0.7157
  903MPD2    H513288   0.496   3.474  12.031 -0.3170 -1.9946 -0.8628
  903MPD2    N113289   0.951   3.361  12.142  0.9050 -0.1675 -0.6133
  903MPD2    H713290   1.039   3.316  12.120  1.3351  0.3843 -0.0404
  904MPD2     C13291   0.778   2.884  14.123 -0.2184  0.3447 -0.0732
  904MPD2    C113292   0.804   2.752  14.173 -0.7458  0.6608 -0.1513
  904MPD2    C213293   0.919   2.733  14.248  0.0312 -0.1807 -0.4233
  904MPD2    C313294   0.993   2.839  14.292  0.5987  0.2891 -0.0833
  904MPD2    C413295   0.960   2.971  14.258 -0.0744 -0.1970 -0.0241
  904MPD2    C513296   0.847   2.983  14.181 -0.5723 -0.0114  0.0100
  904MPD2     H13297   0.939   2.628  14.265  0.9603  0.2654  1.2327
  904MPD2    H113298   1.003   3.064  14.293 -1.1437  0.5660 -0.7446
  904MPD2    H213299   0.700   2.921  14.057 -0.7528 -1.7258 -0.5811
  904MPD2    H313300   0.818   3.084  14.156  1.5331 -0.0236 -2.4304
  904MPD2     N13301   1.106   2.807  14.363 -0.4604 -0.5115  0.0201
  904MPD2    H513302   1.143   2.713  14.366  0.9804 -0.0011 -1.7632
  904MPD2    N113303   0.727   2.640  14.139  0.0759  0.8509  0.2072
  904MPD2    H713304   0.773   2.551  14.154  2.0041  1.5566 -1.5330
  905MPD2     C13305   0.505   2.744  13.498  0.2706  0.0249  0.2115
  905MPD2    C113306   0.535   2.836  13.601 -0.5418 -0.6511 -0.3744
  905MPD2    C213307   0.655   2.903  13.619 -0.4370 -0.0232 -0.3966
  905MPD2    C313308   0.755   2.861  13.534 -0.0900  0.2686  0.0497
  905MPD2    C413309   0.731   2.777  13.424  0.1357 -0.2132  0.4290
  905MPD2    C513310   0.608   2.718  13.408  0.0317 -0.4913  0.3283
  905MPD2     H13311   0.668   2.967  13.705 -1.6885  1.0742 -1.0222
  905MPD2    H113312   0.809   2.752  13.354  0.1278 -0.6821  0.5888
  905MPD2    H213313   0.408   2.699  13.483  0.0177  0.4871  0.4503
  905MPD2    H313314   0.602   2.652  13.322  0.3263  0.8641 -0.7213
  905MPD2     N13315   0.894   2.897  13.549 -0.4157  0.0541  0.1981
  905MPD2    H513316   0.968   2.851  13.498 -0.2386 -0.2422  0.7269
  905MPD2    N113317   0.428   2.851  13.697  0.4428  0.1624 -0.5437
  905MPD2    H713318   0.362   2.775  13.695  0.5517  0.0695 -0.6342
  906MPD2     C13319   2.862   2.988  11.509  0.1722  0.2036  0.3441
  906MPD2    C113320   2.926   2.903  11.423  0.4496  0.1758  0.3531
  906MPD2    C213321   2.905   2.765  11.437 -0.0012  0.2027  0.6176
  906MPD2    C313322   2.824   2.718  11.537 -0.0744  0.5649 -0.1951
  906MPD2    C413323   2.772   2.806  11.623 -0.3725  0.2707  0.2114
  906MPD2    C513324   2.780   2.943  11.604 -0.0707  0.2258 -0.1057
  906MPD2     H13325   2.957   2.695  11.374  0.0840  0.8495 -0.0294
  906MPD2    H113326   2.711   2.770  11.706  0.2529  0.2203  0.6523
  906MPD2    H213327   2.867   3.096  11.510  1.3346  0.1362  2.6667
  906MPD2    H313328   2.725   3.009  11.670 -0.9937  0.5412 -1.2005
  906MPD2     N13329   2.791   2.583  11.532  1.0939 -0.7817 -0.4506
  906MPD2    H513330   2.699   2.555  11.564  1.2561  0.7607  1.3410
  906MPD2    N113331   2.988   2.954  11.303  0.5505 -0.3359  0.5101
  906MPD2    H713332   3.017   2.891  11.229  0.5841  0.8645 -0.5076
  907MPD2     C13333   1.355   2.080  15.182 -1.0609 -0.0497  0.5324
  907MPD2    C113334   1.427   1.966  15.208 -0.5383 -0.3458  0.1805
  907MPD2    C213335   1.527   1.974  15.302 -0.6242  0.4963 -0.2650
  907MPD2    C313336   1.545   2.088  15.380 -0.0904  0.7920 -0.1801
  907MPD2    C413337   1.460   2.187  15.370  0.6663 -0.7553 -0.7739
  907MPD2    C513338   1.366   2.183  15.269  0.3444  0.0590 -0.6218
  907MPD2     H13339   1.601   1.897  15.319  0.7800  1.6865 -0.9432
  907MPD2    H113340   1.475   2.273  15.434  0.6175  0.7192 -2.7537
  907MPD2    H213341   1.276   2.084  15.108  1.5492 -1.6951 -2.3555
  907MPD2    H313342   1.291   2.260  15.260 -0.3035 -0.1842  2.5467
  907MPD2     N13343   1.656   2.091  15.463 -0.4097  0.1580 -0.0657
  907MPD2    H513344   1.708   2.005  15.477  0.6759  0.8072 -0.0728
  907MPD2    N113345   1.411   1.843  15.142  0.2402  0.1646 -0.5020
  907MPD2    H713346   1.463   1.770  15.190  0.5642  1.2377  0.8207
  908MPD2     C13347   4.016   3.116   9.989 -0.0700  0.1203  0.3968
  908MPD2    C113348   4.131   3.103  10.067  0.3003  0.4417  0.8787
  908MPD2    C213349   4.160   3.205  10.158  0.4332 -0.5359 -0.7199
  908MPD2    C313350   4.078   3.319  10.175 -0.1138  0.1880  0.7805
  908MPD2    C413351   3.963   3.325  10.097  0.2313 -0.4824 -0.2953
  908MPD2    C513352   3.935   3.224  10.011  0.1316 -0.3453 -0.0967
  908MPD2     H13353   4.252   3.197  10.213 -1.2815  0.9338  2.3659
  908MPD2    H113354   3.888   3.401  10.115  0.2626 -0.4070 -0.4931
  908MPD2    H213355   3.985   3.056   9.904 -0.5549  0.0319  0.6334
  908MPD2    H313356   3.834   3.235   9.974  0.3692 -0.8642 -0.9238
  908MPD2     N13357   4.121   3.424  10.259 -0.5573  0.0700 -0.3575
  908MPD2    H513358   4.206   3.402  10.309 -1.7393 -0.2220  1.5012
  908MPD2    N113359   4.213   2.988  10.053  0.2163 -0.0649  0.1077
  908MPD2    H713360   4.190   2.929   9.974  0.1739  1.7295 -1.2167
  909MPD2     C13361   0.079   1.018  11.524  0.0050  0.3931 -0.1711
  909MPD2    C113362   0.122   1.122  11.598 -0.5272  0.5464 -0.1379
  909MPD2    C213363   0.061   1.145  11.719 -1.1307  0.2606  0.1061
  909MPD2    C313364   4.690   1.069  11.759  0.4888  0.2021 -0.3871
  909MPD2    C413365   4.653   0.957  11.687 -0.0065  0.1003 -0.8531
  909MPD2    C513366   4.715   0.935  11.571  0.1086  0.0175 -0.3990
  909MPD2     H13367   0.100   1.224  11.783  2.6837  0.5251 -2.5305
  909MPD2    H113368   4.573   0.891  11.717  2.4369 -2.2855  0.4119
  909MPD2    H213369   0.117   0.999  11.424 -2.0414  1.5276 -1.1788
  909MPD2    H313370   4.683   0.851  11.510  1.1437 -1.2706  0.8368
  909MPD2     N13371   4.629   1.109  11.881  0.7568 -0.1162  0.3494
  909MPD2    H513372   4.666   1.194  11.924  2.4293 -1.4154  1.4757
  909MPD2    N113373   0.217   1.216  11.562  0.9873  0.3020  0.4724
  909MPD2    H713374   0.239   1.291  11.627  2.2007  0.5279 -0.2049
  910MPD2     C13375   1.188   3.007  16.297  1.1542  0.3988  0.0406
  910MPD2    C113376   1.134   2.889  16.338 -0.9043 -0.3341  0.2362
  910MPD2    C213377   1.085   2.795  16.248  0.4031 -0.7040 -1.0234
  910MPD2    C313378   1.078   2.827  16.116 -0.7654  0.0640  0.1269
  910MPD2    C413379   1.142   2.939  16.076 -0.1883 -0.2883  0.3316
  910MPD2    C513380   1.195   3.026  16.164 -0.7371 -0.3803  0.0776
  910MPD2     H13381   1.046   2.706  16.297  1.2875 -1.1504 -1.1240
  910MPD2    H113382   1.147   2.965  15.971 -0.3664 -1.0710  0.1348
  910MPD2    H213383   1.230   3.081  16.364  1.0488  1.1956 -0.7801
  910MPD2    H313384   1.241   3.119  16.134 -0.5755 -0.2242  0.8026
  910MPD2     N13385   1.014   2.746  16.020 -0.0422  0.4374  0.5371
  910MPD2    H513386   1.017   2.787  15.928 -0.6545 -1.1347 -0.1831
  910MPD2    N113387   1.124   2.858  16.477  0.3585  0.1018 -0.3893
  910MPD2    H713388   1.088   2.763  16.487 -1.8704  0.9512 -0.4041
  911MPD2     C13389   3.611   2.988  16.007  0.5420 -0.0840  0.6414
  911MPD2    C113390   3.657   3.035  16.127  0.7972  0.3168  0.1325
  911MPD2    C213391   3.631   3.162  16.160 -1.6535  0.2134 -0.8172
  911MPD2    C313392   3.570   3.241  16.063 -0.2396  0.0705 -0.2990
  911MPD2    C413393   3.534   3.196  15.937  0.0032  0.0788 -0.1729
  911MPD2    C513394   3.547   3.065  15.918  0.2840 -0.7930  0.5089
  911MPD2     H13395   3.675   3.195  16.254 -0.1089  1.6086 -2.0288
  911MPD2    H113396   3.499   3.263  15.859 -1.3910  1.1476  1.3637
  911MPD2    H213397   3.637   2.884  15.987  0.0204  0.0310 -0.5977
  911MPD2    H313398   3.531   3.021  15.820 -2.7155  1.5178 -0.0272
  911MPD2     N13399   3.540   3.376  16.092  0.0489 -0.2739  0.4404
  911MPD2    H513400   3.501   3.422  16.011  0.2537  1.2732  1.2279
  911MPD2    N113401   3.756   2.951  16.193  0.7132 -0.3638 -0.0984
  911MPD2    H713402   3.771   2.857  16.157 -0.5911 -0.8326  0.5629
  912MPD2     C13403   3.301   3.411  15.629 -0.1465 -0.1414 -0.0481
  912MPD2    C113404   3.277   3.408  15.763 -0.8058  0.7260 -0.0388
  912MPD2    C213405   3.234   3.288  15.819 -0.4875 -0.2038 -0.3241
  912MPD2    C313406   3.228   3.169  15.749  0.1691  0.0081  0.0669
  912MPD2    C413407   3.270   3.170  15.621 -0.5909 -0.3496  0.3582
  912MPD2    C513408   3.297   3.289  15.563 -0.4406  0.3412  0.0673
  912MPD2     H13409   3.213   3.277  15.924 -1.2514 -3.0830 -0.7854
  912MPD2    H113410   3.268   3.078  15.564 -2.0790  0.0738 -0.2763
  912MPD2    H213411   3.312   3.510  15.586 -0.3958 -0.1358 -0.1033
  912MPD2    H313412   3.310   3.295  15.456  2.2838 -0.0750  0.3678
  912MPD2     N13413   3.218   3.054  15.837 -0.4203 -0.2724 -0.2180
  912MPD2    H513414   3.198   3.074  15.935 -1.1152  0.1987 -0.4557
  912MPD2    N113415   3.290   3.531  15.836  0.3788  0.5045 -0.9943
  912MPD2    H713416   3.323   3.616  15.792  1.2960  1.1174  0.9040
  913MPD2     C13417   3.547   4.363  11.073  0.0208 -0.1219  0.7655
  913MPD2    C113418   3.642   4.461  11.095  0.1070  0.9635  0.8068
  913MPD2    C213419   3.657   4.564  11.000  0.3086  0.1325 -0.1680
  913MPD2    C313420   3.587   4.562  10.881  0.4692  0.6340 -0.1057
  913MPD2    C413421   3.492   4.466  10.863 -0.0532  0.0405 -0.0700
  913MPD2    C513422   3.473   4.368  10.958  0.6094 -0.1550  0.3055
  913MPD2     H13423   3.726   4.647  11.013 -0.3640  0.8038 -0.8684
  913MPD2    H113424   3.427   4.480  10.778 -0.5437  2.4002  0.6769
  913MPD2    H213425   3.513   4.288  11.143 -0.1849  0.5883  1.4199
  913MPD2    H313426   3.385   4.306  10.946 -0.0343  0.6325  0.9609
  913MPD2     N13427   3.599   4.659  10.779  0.8917  0.6708 -0.2108
  913MPD2    H513428   3.525   4.644  10.711 -1.9799 -0.2055  3.1269
  913MPD2    N113429   3.719   4.438  11.208 -0.1438  0.6956  0.4171
  913MPD2    H713430   3.690   4.360  11.265 -2.1597  0.6558 -0.6652
  914MPD2     C13431   2.230   4.384  12.342  0.0322 -0.4283  0.0994
  914MPD2    C113432   2.111   4.426  12.396  0.6714 -0.3966 -0.5640
  914MPD2    C213433   1.995   4.342  12.399  0.4079 -0.0434  0.1575
  914MPD2    C313434   2.003   4.217  12.352  0.1548 -0.3141 -0.4164
  914MPD2    C413435   2.124   4.167  12.294 -0.5351 -0.3699  0.1005
  914MPD2    C513436   2.227   4.257  12.290  0.0370 -0.7086  0.4027
  914MPD2     H13437   1.901   4.367  12.446  0.7791  2.1232 -0.2706
  914MPD2    H113438   2.130   4.063  12.266  1.4883 -0.7966  2.1511
  914MPD2    H213439   2.322   4.441  12.344 -1.3988  1.8677  0.7826
  914MPD2    H313440   2.323   4.218  12.259  0.3085 -0.1657  0.5599
  914MPD2     N13441   1.889   4.136  12.368  0.4952  0.4571  0.9286
  914MPD2    H513442   1.809   4.179  12.412 -0.8612 -1.3931  0.3051
  914MPD2    N113443   2.115   4.560  12.441 -0.1175  0.2820 -0.3957
  914MPD2    H713444   2.196   4.620  12.437  1.5928 -2.0979 -1.1675
  915MPD2     C13445   0.378   4.456  15.473 -0.4237 -0.6429  0.7970
  915MPD2    C113446   0.246   4.432  15.493 -0.2529 -0.7451  0.4887
  915MPD2    C213447   0.192   4.495  15.605 -0.4126  0.1778  0.2659
  915MPD2    C313448   0.268   4.562  15.699  0.2997 -0.1456 -0.1616
  915MPD2    C413449   0.404   4.561  15.687 -0.4662  0.4361  0.6832
  915MPD2    C513450   0.453   4.504  15.575 -0.6509  0.1690  0.3587
  915MPD2     H13451   0.084   4.498  15.620 -0.3741  1.8760  0.2171
  915MPD2    H113452   0.471   4.594  15.765  0.6154 -0.2550  0.0489
  915MPD2    H213453   0.428   4.414  15.387 -0.0287  0.4875  0.4682
  915MPD2    H313454   0.561   4.507  15.560 -0.7228  1.0674  0.0270
  915MPD2     N13455   0.207   4.626  15.808  0.2596 -0.1441 -0.1139
  915MPD2    H513456   0.108   4.611  15.827  0.7604 -2.5518  0.5133
  915MPD2    N113457   0.177   4.380  15.384  0.2014  0.0966 -0.1039
  915MPD2    H713458   0.224   4.343  15.302 -0.1739  2.8634 -1.5414
  916MPD2     C13459   2.892   2.810  15.828  0.1245 -0.4717  0.1991
  916MPD2    C113460   2.897   2.722  15.933  0.6130 -0.1190  0.2462
  916MPD2    C213461   2.956   2.599  15.915 -0.1046  0.3032 -0.3283
  916MPD2    C313462   3.002   2.556  15.789 -0.4615  0.3181 -0.1431
  916MPD2    C413463   2.982   2.642  15.686  0.1711  0.5826 -0.8122
  916MPD2    C513464   2.932   2.769  15.703  0.7553 -0.2339  0.4586
  916MPD2     H13465   2.952   2.536  16.003  0.3631 -2.0752 -1.9935
  916MPD2    H113466   3.024   2.625  15.587 -0.0801  0.2897 -0.8698
  916MPD2    H213467   2.844   2.907  15.826 -0.5709 -0.7952  0.9455
  916MPD2    H313468   2.927   2.838  15.619  1.2167 -1.5957 -0.6883
  916MPD2     N13469   3.071   2.430  15.776  0.0559  0.2996  0.2621
  916MPD2    H513470   3.064   2.374  15.860  2.4392 -1.4615 -0.7063
  916MPD2    N113471   2.843   2.769  16.054  0.2145 -1.0352  0.2897
  916MPD2    H713472   2.799   2.860  16.050 -0.0105 -1.0353  2.8896
  917MPD2     C13473   2.575   0.105  11.431  0.4667  0.4909 -0.2702
  917MPD2    C113474   2.520   0.134  11.553 -0.1616  0.5888  0.2061
  917MPD2    C213475   2.558   0.249  11.617  0.2989 -0.3269 -0.0863
  917MPD2    C313476   2.641   0.340  11.564 -1.1179  0.3294 -0.1647
  917MPD2    C413477   2.688   0.306  11.438  0.4086  0.4747  0.4962
  917MPD2    C513478   2.658   0.200  11.369 -0.6524  0.4262  0.9484
  917MPD2     H13479   2.510   0.279  11.710  1.6240  2.4069 -0.2640
  917MPD2    H113480   2.750   0.376  11.383  1.2146 -2.1069 -1.8673
  917MPD2    H213481   2.558   0.012  11.378  0.6035  1.9544 -2.8776
  917MPD2    H313482   2.705   0.187  11.272 -0.5106  0.6688  0.9850
  917MPD2     N13483   2.682   0.458  11.629 -0.4876 -0.1850 -0.0940
  917MPD2    H513484   2.732   0.522  11.567 -1.4996  1.0999  0.4103
  917MPD2    N113485   2.450   0.023  11.620  0.2403 -0.5193  0.1275
  917MPD2    H713486   2.466   4.665  11.583 -2.4809 -1.4619  1.3553
  918MPD2     C13487   2.708   0.343  12.444  0.0575 -0.1410 -0.3048
  918MPD2    C113488   2.741   0.351  12.303 -1.2001  0.0847  0.4421
  918MPD2    C213489   2.668   0.266  12.217 -0.3290  0.5787  0.0795
  918MPD2    C313490   2.574   0.174  12.263  0.5572  0.1216  0.5256
  918MPD2    C413491   2.541   0.165  12.397 -0.4617 -0.3963 -0.3848
  918MPD2    C513492   2.601   0.255  12.480  0.1193  0.1993 -0.4358
  918MPD2     H13493   2.679   0.270  12.110  2.4041  1.6772  0.4121
  918MPD2    H113494   2.467   0.096  12.438 -1.3027 -0.5452 -2.1197
  918MPD2    H213495   2.761   0.405  12.515  1.7383 -0.6580 -1.0946
  918MPD2    H313496   2.582   0.256  12.587  0.7653 -1.8580 -0.3067
  918MPD2     N13497   2.517   0.085  12.167 -0.1865  0.1062 -0.3192
  918MPD2    H513498   2.556   0.098  12.074  1.8850 -2.5857  0.1678
  918MPD2    N113499   2.849   0.419  12.257 -0.2870  0.2844  0.0152
  918MPD2    H713500   2.869   0.405  12.158  3.6156  0.7169  0.7679
  919MPD2     C13501   3.731   4.367  11.967  0.1827 -0.5364  1.1019
  919MPD2    C113502   3.655   4.267  11.912  0.4100  0.3589 -0.6101
  919MPD2    C213503   3.584   4.303  11.799 -0.4552  0.5719  0.3657
  919MPD2    C313504   3.580   4.430  11.751  0.7735  0.3561 -0.0730
  919MPD2    C413505   3.654   4.531  11.806 -0.3370 -0.1603  0.3104
  919MPD2    C513506   3.733   4.497  11.910 -0.6039  0.2824 -0.4416
  919MPD2     H13507   3.529   4.223  11.750  0.5025 -1.4935  2.6828
  919MPD2    H113508   3.663   4.623  11.750  1.3343 -0.5740 -0.0887
  919MPD2    H213509   3.782   4.360  12.063  1.9725  0.5177  0.2241
  919MPD2    H313510   3.794   4.574  11.956  1.8473 -1.1559 -1.2505
  919MPD2     N13511   3.506   4.472  11.634 -0.4807 -0.5828  0.1600
  919MPD2    H513512   3.508   4.570  11.607  0.7125 -1.0945 -1.6336
  919MPD2    N113513   3.654   4.133  11.971  0.9554  0.3266 -0.7554
  919MPD2    H713514   3.589   4.069  11.927  0.1684  0.5524  0.0900
  920MPD2     C13515   3.476   0.328  10.830  0.0221  0.1789  0.2175
  920MPD2    C113516   3.361   0.255  10.816 -0.6045 -0.3975  0.3423
  920MPD2    C213517   3.340   0.146  10.902 -0.2199  0.3204  0.3317
  920MPD2    C313518   3.416   0.117  11.012 -0.1396  0.2208  0.3056
  920MPD2    C413519   3.533   0.191  11.022 -0.5726 -0.7447  0.4144
  920MPD2    C513520   3.564   0.290  10.928  0.6408 -0.3107 -0.3059
  920MPD2     H13521   3.266   0.070  10.880  0.9852 -0.7490  0.0172
  920MPD2    H113522   3.607   0.172  11.099  2.4457 -1.2119 -2.5651
  920MPD2    H213523   3.506   0.398  10.752 -0.2117 -0.0589 -0.0846
  920MPD2    H313524   3.657   0.343  10.946  0.8085  0.3147 -3.0541
  920MPD2     N13525   3.365   0.012  11.099  0.9915  0.1357 -0.0789
  920MPD2    H513526   3.281   4.702  11.065 -0.1690  1.4896  0.9690
  920MPD2    N113527   3.268   0.276  10.709 -0.3226  0.1277  0.3992
  920MPD2    H713528   3.183   0.220  10.715 -1.6483  2.1869  0.8729
  921MPD2     C13529   4.704   2.797  16.679 -0.0394  0.1669 -0.3071
  921MPD2    C113530   4.713   2.828  16.543 -0.4272 -0.3466 -0.5223
  921MPD2    C213531   4.598   2.849  16.479  0.4449  0.3868 -0.2546
  921MPD2    C313532   4.476   2.847  16.543 -0.2954  0.1059  0.9464
  921MPD2    C413533   4.470   2.803  16.676 -1.0599 -0.1248 -1.0360
  921MPD2    C513534   4.585   2.786  16.732  0.8099 -0.6203  0.2821
  921MPD2     H13535   4.591   2.896  16.382 -0.3081  2.6493  0.8932
  921MPD2    H113536   4.381   2.796  16.738 -0.0151  0.0411  0.4790
  921MPD2    H213537   0.057   2.760  16.730 -2.1933  0.1438  3.3768
  921MPD2    H313538   4.586   2.745  16.833  0.1703  1.2361  1.0404
  921MPD2     N13539   4.358   2.852  16.464 -0.1749  0.4947  0.3910
  921MPD2    H513540   4.359   2.837  16.364  1.7795 -0.1852  0.5198
  921MPD2    N113541   0.109   2.832  16.486  0.4232  0.1226  0.0817
  921MPD2    H713542   0.189   2.840  16.548  0.4735  0.4726 -0.0283
  922MPD2     C13543   0.670   1.949   0.301  0.1740  0.3350 -0.1389
  922MPD2    C113544   0.570   1.960   0.393  0.8067  0.1572 -0.1315
  922MPD2    C213545   0.483   1.858   0.409 -0.1776  0.1750 -0.2969
  922MPD2    C313546   0.489   1.739   0.336 -0.2566 -0.3842  0.1458
  922MPD2    C413547   0.591   1.730   0.240  0.2209 -0.0347 -0.1430
  922MPD2    C513548   0.677   1.838   0.216 -0.1164 -0.0111  0.0009
  922MPD2     H13549   0.410   1.855   0.489  0.3717 -1.8422  0.1444
  922MPD2    H113550   0.594   1.648   0.168  2.2227  0.1704 -0.2966
  922MPD2    H213551   0.751   2.020   0.292 -0.0653  0.5597 -0.5139
  922MPD2    H313552   0.755   1.820   0.142 -1.3974  0.8141 -1.5315
  922MPD2     N13553   0.394   1.642   0.357  0.8360 -0.4806 -0.1872
  922MPD2    H513554   0.312   1.660   0.414  0.2963  2.3792 -1.8775
  922MPD2    N113555   0.581   2.058   0.496  0.2378 -0.2842 -0.3278
  922MPD2    H713556   0.527   2.042   0.580 -0.0986 -1.3188 -0.7393
  923MPD2     C13557   2.781   2.671   9.357 -0.0131  0.5292  0.1295
  923MPD2    C113558   2.775   2.800   9.383  0.1203  0.6304  0.4850
  923MPD2    C213559   2.770   2.846   9.515 -0.5594 -1.0045 -0.8657
  923MPD2    C313560   2.785   2.755   9.614  0.6239  0.1834 -0.9907
  923MPD2    C413561   2.786   2.625   9.590  0.1172  0.1907 -0.1381
  923MPD2    C513562   2.776   2.578   9.462 -0.4859 -0.0611  0.1124
  923MPD2     H13563   2.736   2.948   9.528 -0.3438 -1.0038 -0.3131
  923MPD2    H113564   2.798   2.550   9.668  2.1741  1.3755  0.6946
  923MPD2    H213565   2.770   2.635   9.256  1.0689  0.9693 -0.1457
  923MPD2    H313566   2.775   2.470   9.448  1.2208  0.3787 -3.5718
  923MPD2     N13567   2.791   2.789   9.748  0.3561 -0.7493  0.3351
  923MPD2    H513568   2.780   2.712   9.814 -0.9948  0.4515  1.5086
  923MPD2    N113569   2.727   2.877   9.271  0.1718 -0.1005  0.9738
  923MPD2    H713570   2.722   2.832   9.180  1.2586 -0.6331  1.1771
  924MPD2     C13571   1.614   1.557  16.071  0.6600  0.3371  0.5684
  924MPD2    C113572   1.672   1.673  16.119  0.3061  0.6644 -0.3826
  924MPD2    C213573   1.747   1.760  16.039  0.2586 -0.1185 -0.0223
  924MPD2    C313574   1.762   1.733  15.907  0.0641 -0.1266 -0.4771
  924MPD2    C413575   1.690   1.627  15.852 -0.4942  0.2031 -0.5809
  924MPD2    C513576   1.629   1.535  15.938 -0.5273 -0.3487  0.5238
  924MPD2     H13577   1.794   1.842  16.090 -2.7487  0.0580  2.4388
  924MPD2    H113578   1.700   1.593  15.749  3.2512  0.5693 -0.3394
  924MPD2    H213579   1.549   1.493  16.131  0.6746 -0.5493 -0.3607
  924MPD2    H313580   1.579   1.453  15.887  2.4065 -2.0379  0.3781
  924MPD2     N13581   1.843   1.811  15.819 -0.3346 -0.3350 -0.2861
  924MPD2    H513582   1.847   1.780  15.722 -2.0678  2.8118 -1.3782
  924MPD2    N113583   1.662   1.710  16.256  0.1127  0.1047 -0.4176
  924MPD2    H713584   1.703   1.796  16.290  0.6835  0.7876 -2.8993
  925MPD2     C13585   1.078   3.892  15.173  0.0260  0.2103 -0.3068
  925MPD2    C113586   0.938   3.904  15.159  0.8160 -0.0413  0.5646
  925MPD2    C213587   0.863   3.943  15.266  0.4940 -0.3706 -0.0385
  925MPD2    C313588   0.920   3.971  15.391 -0.2191 -0.2316 -0.8784
  925MPD2    C413589   1.053   3.955  15.406 -0.3134 -0.1805  0.2902
  925MPD2    C513590   1.131   3.912  15.297 -0.2289  1.3367  0.6324
  925MPD2     H13591   0.759   3.969  15.252 -0.1979 -2.3643  1.4320
  925MPD2    H113592   1.108   3.967  15.499 -2.3210  0.1938  1.4098
  925MPD2    H213593   1.148   3.860  15.097  0.1922  0.3013 -0.1935
  925MPD2    H313594   1.238   3.903  15.306 -0.2316  4.0374  3.4576
  925MPD2     N13595   0.848   4.020  15.510 -0.1795  0.4141 -0.0232
  925MPD2    H513596   0.905   4.025  15.593 -0.0212  0.6825 -0.1487
  925MPD2    N113597   0.872   3.873  15.036  0.1135  0.0998  0.8143
  925MPD2    H713598   0.770   3.872  15.041  0.1037  0.2463  0.6759
  926MPD2     C13599   3.810   2.052  13.447 -0.7808 -0.2783  0.4452
  926MPD2    C113600   3.872   2.165  13.505  0.0272  0.5237  0.4157
  926MPD2    C213601   3.960   2.247  13.436 -0.1107 -0.0388 -0.3916
  926MPD2    C313602   3.994   2.216  13.314  0.0900 -0.3591  0.1986
  926MPD2    C413603   3.938   2.105  13.255 -0.0600 -0.3014 -0.1344
  926MPD2    C513604   3.842   2.030  13.317  0.5973 -0.2524 -0.0147
  926MPD2     H13605   3.984   2.342  13.482 -0.5944 -0.3350  0.4745
  926MPD2    H113606   3.947   2.079  13.150 -1.1876  0.8151 -0.5082
  926MPD2    H213607   3.736   1.994  13.501 -0.6892 -0.6607  0.1592
  926MPD2    H313608   3.793   1.944  13.272  0.1304  0.6966 -1.3431
  926MPD2     N13609   4.080   2.306  13.253  0.5152 -0.6406  1.0613
  926MPD2    H513610   4.108   2.372  13.325  1.8975  1.6060 -1.5546
  926MPD2    N113611   3.839   2.205  13.637 -0.2180 -0.2857 -0.4257
  926MPD2    H713612   3.904   2.273  13.676 -1.7394  1.4077 -0.8397
  927MPD2     C13613   3.774   4.224   0.855  0.4414  0.3317 -0.1318
  927MPD2    C113614   3.778   4.132   0.747  0.2915  0.6105  0.0537
  927MPD2    C213615   3.888   4.118   0.674  0.3944  0.5385 -0.3056
  927MPD2    C313616   4.000   4.190   0.708 -0.3805 -0.0061  0.3415
  927MPD2    C413617   4.003   4.264   0.824 -0.1292  0.5279 -0.3743
  927MPD2    C513618   3.888   4.285   0.899 -0.2629  0.4531  0.2530
  927MPD2     H13619   3.892   4.064   0.580  1.5403  0.4343 -0.1950
  927MPD2    H113620   4.095   4.309   0.860  0.2015 -0.1088 -0.4329
  927MPD2    H213621   3.683   4.233   0.914  0.6741 -2.9237  0.7127
  927MPD2    H313622   3.880   4.336   0.994 -0.0547  0.6800  0.1497
  927MPD2     N13623   4.117   4.164   0.639  0.1110  0.2326  0.0958
  927MPD2    H513624   4.105   4.092   0.568  3.6946 -0.8360  0.5896
  927MPD2    N113625   3.657   4.060   0.721 -0.1226  0.4550  0.2090
  927MPD2    H713626   3.583   4.078   0.788  0.0893 -1.8608  1.0815
  928MPD2     C13627   1.264   3.234   0.266 -0.4994 -1.3896  0.3081
  928MPD2    C113628   1.329   3.241   0.390  0.2164  0.6699  0.0524
  928MPD2    C213629   1.459   3.204   0.403  0.5597  0.6184 -0.3652
  928MPD2    C313630   1.524   3.165   0.285  0.1391  0.4518 -0.1494
  928MPD2    C413631   1.458   3.162   0.165 -0.6127 -0.0660  0.3447
  928MPD2    C513632   1.328   3.201   0.157 -0.1957 -0.2393  0.2970
  928MPD2     H13633   1.503   3.199   0.502  0.6638  1.2680 -0.3825
  928MPD2    H113634   1.509   3.140   0.071 -0.5125  0.2817  0.3206
  928MPD2    H213635   1.166   3.278   0.259  0.8793  2.0132  2.2172
  928MPD2    H313636   1.284   3.208   0.058 -0.7061 -2.7486  0.3492
  928MPD2     N13637   1.657   3.127   0.286 -0.1966 -0.2924  0.4087
  928MPD2    H513638   1.688   3.108   0.191 -1.7448 -0.6847 -0.0225
  928MPD2    N113639   1.249   3.291   0.495 -0.3932 -0.6604  0.1992
  928MPD2    H713640   1.152   3.320   0.486  0.1759  1.2028  0.1028
  929MPD2     C13641   1.838   3.717  10.269 -0.2269  0.0224  0.0103
  929MPD2    C113642   1.886   3.673  10.154  0.7455 -0.9044  0.5672
  929MPD2    C213643   1.878   3.748  10.041 -0.9763 -0.4334 -0.3430
  929MPD2    C313644   1.847   3.882  10.050 -0.5739  1.4399  0.2734
  929MPD2    C413645   1.785   3.920  10.172  0.5976  0.7445  0.3143
  929MPD2    C513646   1.777   3.835  10.275 -0.0913  0.1900  0.8445
  929MPD2     H13647   1.913   3.705   9.948  1.4051 -1.7322  1.1344
  929MPD2    H113648   1.741   4.018  10.188 -2.8235 -0.6073 -0.6123
  929MPD2    H213649   1.838   3.665  10.364  0.2897  2.1358  1.1730
  929MPD2    H313650   1.736   3.860  10.373 -1.3543 -0.1601  0.3986
  929MPD2     N13651   1.849   3.981   9.954 -1.0013 -0.3109  0.1590
  929MPD2    H513652   1.816   4.072   9.983 -0.9824 -0.6270  1.2027
  929MPD2    N113653   1.923   3.536  10.156  0.1332  0.0902  0.6696
  929MPD2    H713654   1.897   3.487  10.241 -0.6232  0.7000  0.7946
  930MPD2     C13655   3.632   0.133  14.130 -0.7568 -0.1323  0.0162
  930MPD2    C113656   3.770   0.140  14.131 -0.3819 -0.7749 -0.2458
  930MPD2    C213657   3.836   0.173  14.011 -0.7681  0.3007 -0.3589
  930MPD2    C313658   3.767   0.201  13.888 -0.0432  0.6162 -0.2058
  930MPD2    C413659   3.628   0.193  13.894  0.1587  0.0967 -0.5518
  930MPD2    C513660   3.561   0.158  14.013  0.4199 -0.4421 -0.0372
  930MPD2     H13661   3.944   0.179  14.011 -0.5912 -3.0889  0.6664
  930MPD2    H113662   3.562   0.199  13.808  0.7696  1.1175 -0.9490
  930MPD2    H213663   3.579   0.114  14.223 -0.6074  4.2473  1.0271
  930MPD2    H313664   3.453   0.148  14.004  0.5040 -1.6957  0.4225
  930MPD2     N13665   3.829   0.244  13.768  0.0678  0.6129  0.6381
  930MPD2    H513666   3.772   0.280  13.692  0.9461 -0.8533 -0.7162
  930MPD2    N113667   3.837   0.123  14.256 -0.1809  0.0873  0.1617
  930MPD2    H713668   3.772   0.142  14.331  0.8781  1.7081  0.6912
  931MPD2     C13669   3.186   3.292   0.691  0.0927 -0.1847  0.2154
  931MPD2    C113670   3.284   3.387   0.705 -0.3946  0.6185 -0.1428
  931MPD2    C213671   3.376   3.369   0.812  0.0559 -0.5469 -0.9391
  931MPD2    C313672   3.371   3.262   0.905  0.2263  0.4508  0.3280
  931MPD2    C413673   3.271   3.166   0.883 -0.5514 -0.0533  0.3309
  931MPD2    C513674   3.179   3.191   0.788  0.2011 -0.3420  0.1587
  931MPD2     H13675   3.431   3.461   0.828 -0.4709 -0.0668 -1.8687
  931MPD2    H113676   3.269   3.073   0.937  0.9826 -0.1036  0.2909
  931MPD2    H213677   3.097   3.301   0.629  0.2116 -1.8025 -0.1992
  931MPD2    H313678   3.099   3.119   0.778  1.1484 -1.5963  1.6433
  931MPD2     N13679   3.453   3.259   1.026  0.6474  0.1072  0.2057
  931MPD2    H513680   3.534   3.319   1.032  0.5742  0.2747 -0.4852
  931MPD2    N113681   3.273   3.513   0.632  0.0973 -0.6115 -0.7561
  931MPD2    H713682   3.189   3.551   0.590 -0.0343 -1.2912 -1.1148
  932MPD2     C13683   1.277   3.405  10.957 -0.3257  0.3188  0.1204
  932MPD2    C113684   1.228   3.417  11.083  0.6386 -0.1369 -0.2691
  932MPD2    C213685   1.281   3.334  11.183  0.3359 -0.5789 -0.1839
  932MPD2    C313686   1.364   3.228  11.155 -0.0946 -0.3894 -0.0558
  932MPD2    C413687   1.397   3.212  11.021 -0.1498  0.5164  0.4715
  932MPD2    C513688   1.355   3.296  10.924 -0.1726 -0.2649  0.0745
  932MPD2     H13689   1.255   3.352  11.287 -0.8751 -0.1356 -0.5649
  932MPD2    H113690   1.472   3.138  10.998  1.0596  1.1476  2.3731
  932MPD2    H213691   1.242   3.456  10.869  0.7969 -1.6133 -1.4624
  932MPD2    H313692   1.389   3.289  10.821 -1.8824  1.5198 -0.6096
  932MPD2     N13693   1.413   3.142  11.252  0.1555 -0.0706  0.1276
  932MPD2    H513694   1.485   3.078  11.219 -1.0950 -0.5585 -1.6530
  932MPD2    N113695   1.144   3.518  11.127 -0.3963 -0.5921  0.2726
  932MPD2    H713696   1.118   3.502  11.224 -0.6593  3.7550  0.9298
  933MPD2     C13697   0.867   3.662   0.336 -0.2727  0.1282 -0.4702
  933MPD2    C113698   0.902   3.716   0.460  0.1991 -0.0495 -0.3616
  933MPD2    C213699   0.893   3.851   0.477 -0.0324 -0.7752 -0.1135
  933MPD2    C313700   0.846   3.929   0.373  0.5751 -0.2023 -0.0178
  933MPD2    C413701   0.815   3.879   0.248 -0.1634 -0.3921  0.3714
  933MPD2    C513702   0.828   3.740   0.230 -0.1226  0.4699  0.1556
  933MPD2     H13703   0.921   3.892   0.573 -1.0461 -1.4512  0.4657
  933MPD2    H113704   0.777   3.940   0.167  0.8174  0.0547  0.2465
  933MPD2    H213705   0.876   3.556   0.318 -0.1348 -0.2612  1.9403
  933MPD2    H313706   0.817   3.698   0.131 -0.1775  0.7871  0.0262
  933MPD2     N13707   0.844   4.068   0.408  0.4517  0.2439 -0.2799
  933MPD2    H513708   0.880   4.091   0.500  0.5945 -1.5154  0.0919
  933MPD2    N113709   0.939   3.631   0.559  0.0989  0.3497 -0.6489
  933MPD2    H713710   0.957   3.533   0.540 -0.9573  0.5637 -2.7721
  934MPD2     C13711   2.381   0.090   2.272  0.4904 -0.2331  0.4581
  934MPD2    C113712   2.476   0.004   2.228 -0.2922  0.0532 -0.1310
  934MPD2    C213713   2.456   4.698   2.095  0.3683  0.5742  0.3534
  934MPD2    C313714   2.345   4.726   2.013  0.4226 -0.1986 -0.3911
  934MPD2    C413715   2.250   0.074   2.070 -0.3244  0.6100 -0.3330
  934MPD2    C513716   2.277   0.132   2.195 -0.1909 -0.2966  0.6002
  934MPD2     H13717   2.525   4.627   2.051 -0.5429 -0.8851  1.2686
  934MPD2    H113718   2.157   0.092   2.017 -0.1259  0.2404 -0.8078
  934MPD2    H213719   2.389   0.135   2.371  2.0720  0.7467 -0.1204
  934MPD2    H313720   2.206   0.198   2.244  0.0313  1.2882 -1.2560
  934MPD2     N13721   2.335   4.704   1.875 -0.2451 -0.4208 -0.2352
  934MPD2    H513722   2.246   0.005   1.841  0.0907  0.4093 -0.2187
  934MPD2    N113723   2.597   4.700   2.292  0.5831 -0.0534  0.0010
  934MPD2    H713724   2.655   4.632   2.244  1.2483 -0.2711  1.1082
  935MPD2     C13725   2.943   4.187   1.294 -0.0927 -0.0908 -0.4305
  935MPD2    C113726   2.831   4.213   1.213  0.5561 -0.3746 -0.3492
  935MPD2    C213727   2.744   4.312   1.248  0.6467  0.4277 -0.6620
  935MPD2    C313728   2.763   4.374   1.370 -0.0360 -0.0188  0.2538
  935MPD2    C413729   2.865   4.336   1.456 -0.1857  0.2082 -0.2943
  935MPD2    C513730   2.958   4.253   1.415  0.0153 -0.3483  0.1497
  935MPD2     H13731   2.668   4.335   1.175 -0.9802 -2.5435  0.0865
  935MPD2    H113732   2.886   4.383   1.552 -1.4386  2.6760 -1.2320
  935MPD2    H213733   3.023   4.119   1.268 -0.1351 -0.5102  0.5330
  935MPD2    H313734   3.045   4.231   1.476 -0.1864  1.9542  1.2952
  935MPD2     N13735   2.675   4.464   1.420 -0.1447  0.6422 -0.2159
  935MPD2    H513736   2.690   4.503   1.512 -2.8405  1.4854 -0.1361
  935MPD2    N113737   2.818   4.163   1.082 -0.3374 -0.1049 -0.2304
  935MPD2    H713738   2.748   4.207   1.023 -0.0550 -0.4002 -0.7838
  936MPD2     C13739   1.111   1.614  12.397 -0.2729 -0.2677 -0.0245
  936MPD2    C113740   1.223   1.680  12.448  0.1866  0.1568 -0.2878
  936MPD2    C213741   1.272   1.791  12.386 -0.4107  0.2378  0.1220
  936MPD2    C313742   1.220   1.839  12.274 -0.0841 -0.3948  0.7007
  936MPD2    C413743   1.112   1.782  12.214  0.0713 -0.5233  0.0370
  936MPD2    C513744   1.058   1.661  12.275 -0.0476  0.0468 -0.0156
  936MPD2     H13745   1.355   1.838  12.437 -0.3186 -0.6757  0.8222
  936MPD2    H113746   1.078   1.815  12.117 -0.1092  2.4443  1.1045
  936MPD2    H213747   1.062   1.525  12.433 -0.7241  0.7105  1.7581
  936MPD2    H313748   0.962   1.621  12.246 -0.3747  0.4709  0.4677
  936MPD2     N13749   1.271   1.959  12.217 -0.5472  0.2023  0.1020
  936MPD2    H513750   1.213   2.018  12.158 -1.6585  0.1249  1.1051
  936MPD2    N113751   1.285   1.654  12.574  0.0023  0.1658  0.3945
  936MPD2    H713752   1.360   1.718  12.600  0.1031 -0.0205  0.5661
  937MPD2     C13753   4.146   3.582  11.893  0.3538 -0.0266  0.1296
  937MPD2    C113754   4.148   3.698  11.963  0.2837  0.4794  0.4310
  937MPD2    C213755   4.194   3.808  11.891  0.3863 -0.0525 -0.0023
  937MPD2    C313756   4.216   3.800  11.759  0.1380  0.0435 -0.3703
  937MPD2    C413757   4.219   3.677  11.698  0.2005 -0.1587 -0.6521
  937MPD2    C513758   4.189   3.567  11.767 -0.2920  0.0262  0.1942
  937MPD2     H13759   4.178   3.906  11.934  3.3333  0.7365 -0.6981
  937MPD2    H113760   4.247   3.664  11.594  2.1550 -1.0830 -0.0186
  937MPD2    H213761   4.110   3.495  11.947  1.1132  0.2231  1.0368
  937MPD2    H313762   4.188   3.475  11.708  1.3132 -0.3824  0.7989
  937MPD2     N13763   4.258   3.917  11.684 -0.1551 -0.5549 -0.5553
  937MPD2    H513764   4.277   4.001  11.739 -0.0830 -1.6058  1.0296
  937MPD2    N113765   4.067   3.722  12.081 -0.5105 -0.5394  0.5035
  937MPD2    H713766   4.078   3.812  12.128 -2.9863 -1.1325  2.2043
  938MPD2     C13767   2.038   0.272   0.719  0.3983 -0.3072 -0.1955
  938MPD2    C113768   1.968   0.360   0.805  0.2218 -0.0490  0.1896
  938MPD2    C213769   1.915   0.310   0.922 -0.4051 -0.7367 -0.0157
  938MPD2    C313770   1.937   0.178   0.959 -0.0261  0.7275  0.5436
  938MPD2    C413771   2.017   0.102   0.878 -0.6133 -0.6381 -0.1826
  938MPD2    C513772   2.060   0.144   0.753 -0.1620  0.1522  0.1433
  938MPD2     H13773   1.867   0.385   0.983 -0.8019  0.2596 -1.5599
  938MPD2    H113774   2.045   0.002   0.908 -0.6224 -0.5499  0.1268
  938MPD2    H213775   2.094   0.300   0.629 -1.1296  0.6384 -0.8534
  938MPD2    H313776   2.129   0.082   0.696  0.2395  0.9652 -0.2612
  938MPD2     N13777   1.881   0.126   1.079 -0.4287  0.1949  0.2590
  938MPD2    H513778   1.910   0.030   1.098  2.7886  1.2500  0.6988
  938MPD2    N113779   1.958   0.504   0.783 -0.0281  0.2137 -0.2044
  938MPD2    H713780   1.902   0.564   0.843 -1.1686  0.7030 -1.7485
  939MPD2     C13781   3.368   1.858   1.156  0.0517 -1.3699  0.5890
  939MPD2    C113782   3.244   1.808   1.117 -0.5429  0.0700  0.2178
  939MPD2    C213783   3.235   1.751   0.994  0.5767  0.4071  0.0784
  939MPD2    C313784   3.344   1.746   0.912 -0.1379  0.0626 -0.0483
  939MPD2    C413785   3.468   1.800   0.946 -0.6870 -0.5231 -0.9070
  939MPD2    C513786   3.478   1.850   1.073 -0.2469 -0.8765 -0.8601
  939MPD2     H13787   3.144   1.708   0.956  1.4570 -1.0387 -0.3900
  939MPD2    H113788   3.551   1.800   0.876  1.9612  0.9335  2.2772
  939MPD2    H213789   3.377   1.899   1.256  0.9394  1.0472 -0.4891
  939MPD2    H313790   3.575   1.890   1.099 -0.4387 -2.0877  1.6710
  939MPD2     N13791   3.321   1.681   0.785  0.3571  0.1161 -0.1846
  939MPD2    H513792   3.226   1.650   0.770 -0.3895  2.2772  0.0940
  939MPD2    N113793   3.143   1.805   1.213 -0.1196  0.2736 -0.4000
  939MPD2    H713794   3.174   1.831   1.306 -2.1506 -3.8664  1.4357
  940MPD2     C13795   1.591   1.872  13.630 -0.4305 -1.0534  0.7629
  940MPD2    C113796   1.723   1.904  13.599  0.7624 -0.7303 -0.1380
  940MPD2    C213797   1.760   1.922  13.465 -0.5532  0.5960 -0.1716
  940MPD2    C313798   1.671   1.895  13.361 -0.0165 -0.6868  0.0088
  940MPD2    C413799   1.540   1.879  13.395 -0.2783  0.2191 -0.1047
  940MPD2    C513800   1.502   1.857  13.529  0.7891 -0.6154 -0.2758
  940MPD2     H13801   1.865   1.946  13.453 -0.3216  0.4703  1.5943
  940MPD2    H113802   1.467   1.881  13.315 -0.1106 -0.7610 -0.2794
  940MPD2    H213803   1.556   1.855  13.731 -1.3235  1.7614  0.9366
  940MPD2    H313804   1.395   1.857  13.550  0.4671  0.6446 -1.9660
  940MPD2     N13805   1.712   1.888  13.221  0.4972 -0.0821  0.2353
  940MPD2    H513806   1.637   1.879  13.153  1.7046  0.4474 -1.1487
  940MPD2    N113807   1.823   1.925  13.692 -0.0291 -0.3899 -0.2836
  940MPD2    H713808   1.909   1.958  13.650  1.2613 -3.9170 -0.3951
  941MPD2     C13809   0.973   1.710  10.336 -0.0659  0.0303 -0.7741
  941MPD2    C113810   1.023   1.659  10.218 -0.2931 -0.6283  0.1505
  941MPD2    C213811   1.042   1.521  10.215  0.3178  0.1591 -0.1343
  941MPD2    C313812   1.018   1.440  10.330  0.4870  0.9180  0.2469
  941MPD2    C413813   0.976   1.498  10.451  0.5374  0.2833 -0.5360
  941MPD2    C513814   0.958   1.634  10.453 -0.1402 -0.3069  0.4671
  941MPD2     H13815   1.091   1.477  10.129  0.2859  1.2279 -0.7041
  941MPD2    H113816   0.968   1.438  10.541 -0.3860  0.0301 -0.7853
  941MPD2    H213817   0.950   1.815  10.343 -0.8440 -0.3303  2.1364
  941MPD2    H313818   0.931   1.682  10.546  0.8282 -3.1718  2.2524
  941MPD2     N13819   1.026   1.299  10.337  0.2208 -0.2380 -0.3554
  941MPD2    H513820   1.012   1.269  10.433  1.9499 -2.6265 -0.8499
  941MPD2    N113821   1.040   1.749  10.107 -0.1637  0.0636 -0.9805
  941MPD2    H713822   0.996   1.839  10.118 -1.7112 -0.6117 -1.5119
  942MPD2     C13823   1.469   2.995   9.814 -0.0531  0.7957  0.2232
  942MPD2    C113824   1.384   3.012   9.704 -0.9736  0.5522 -0.1103
  942MPD2    C213825   1.444   3.030   9.581 -0.4197  0.1458 -1.0350
  942MPD2    C313826   1.575   3.046   9.568  0.4397  0.7220  0.2199
  942MPD2    C413827   1.660   3.029   9.676  0.3431 -0.2408  0.0434
  942MPD2    C513828   1.602   3.006   9.806 -0.1934 -0.8914 -0.0012
  942MPD2     H13829   1.378   3.040   9.495 -0.4383  0.7677 -0.9443
  942MPD2    H113830   1.767   3.040   9.672  0.3867 -0.4553  0.5853
  942MPD2    H213831   1.429   2.988   9.915 -0.1086 -2.9716 -0.0600
  942MPD2    H313832   1.665   2.982   9.891  0.6616  1.0712 -0.0971
  942MPD2     N13833   1.649   3.067   9.445  0.1135  0.6268 -0.4784
  942MPD2    H513834   1.750   3.073   9.456  0.3660 -1.8252 -1.4875
  942MPD2    N113835   1.248   2.982   9.711 -0.0252  0.0683 -0.2009
  942MPD2    H713836   1.198   2.983   9.622 -0.8807 -2.9287  0.2707
  943MPD2     C13837   4.349   1.554   9.935  0.8474  0.6848  0.0312
  943MPD2    C113838   4.333   1.497  10.062 -0.2289  0.3724  0.1014
  943MPD2    C213839   4.401   1.557  10.163 -0.4611 -0.3917 -0.1928
  943MPD2    C313840   4.479   1.672  10.143  0.6041  0.5357 -0.0166
  943MPD2    C413841   4.493   1.726  10.019  0.4323  0.1759  0.1441
  943MPD2    C513842   4.420   1.668   9.919 -0.0531  0.1142  0.5013
  943MPD2     H13843   4.391   1.525  10.266 -0.9591  1.3367  0.2923
  943MPD2    H113844   4.547   1.816   9.992  2.6628 -1.6493 -1.4622
  943MPD2    H213845   4.294   1.513   9.850  0.7106 -1.8890  1.3541
  943MPD2    H313846   4.405   1.712   9.821 -0.9261 -4.7460 -1.5316
  943MPD2     N13847   4.539   1.725  10.258  0.7746  0.4420 -0.1179
  943MPD2    H513848   4.503   1.683  10.343 -0.5171 -0.6524 -1.1962
  943MPD2    N113849   4.256   1.385  10.077 -0.2683 -0.0134 -0.4715
  943MPD2    H713850   4.217   1.360   9.987 -0.0224  0.4969 -0.7231
  944MPD2     C13851   3.229   1.753  11.508  0.1222  0.4337  0.0149
  944MPD2    C113852   3.317   1.651  11.532  0.2244 -0.2629 -0.0542
  944MPD2    C213853   3.279   1.527  11.489  0.0524 -0.4514 -0.0992
  944MPD2    C313854   3.180   1.503  11.400  0.0282 -0.1048  0.2400
  944MPD2    C413855   3.104   1.612  11.360 -0.4114  0.0937  0.1433
  944MPD2    C513856   3.120   1.735  11.417  0.6918  0.0981  0.0966
  944MPD2     H13857   3.337   1.437  11.507  0.7536  0.1418  0.5817
  944MPD2    H113858   3.025   1.599  11.287 -2.1290  2.0857  1.6421
  944MPD2    H213859   3.232   1.853  11.550  0.4838 -0.2919  1.7127
  944MPD2    H313860   3.056   1.818  11.392  0.5111  0.9315  3.3534
  944MPD2     N13861   3.165   1.371  11.349  0.0529 -0.0477 -0.3683
  944MPD2    H513862   3.216   1.293  11.389  2.3525  1.4634 -0.3697
  944MPD2    N113863   3.423   1.666  11.628 -0.3799 -0.2128 -0.5675
  944MPD2    H713864   3.477   1.582  11.648 -0.3629  0.7107  3.2194
    1TMC1    C113865   2.422   1.999  16.151  0.3747  0.3386 -0.5953
    1TMC1    C213866   2.415   2.049  16.276  0.4665 -0.4029  0.2394
    1TMC1    C313867   2.481   1.989  16.380 -0.7943 -0.3147  0.0360
    1TMC1    C413868   2.503   1.887  16.121  0.2363  0.4502  0.0285
    1TMC1    C513869   2.580   1.847  16.221 -0.1097  0.4777 -0.5690
    1TMC1    C613870   2.565   1.887  16.353  0.1903  0.1380  0.1104
    1TMC1     C13871   2.416   2.101  16.052  0.2850 -0.4469 -1.0747
    1TMC1     O13872   2.412   2.215  16.097  0.2527 -0.2388  0.2219
    1TMC1     H13873   2.363   2.143  16.288  2.0079  0.5465 -0.4956
    1TMC1    H113874   2.511   1.848  16.020  2.6549  0.8580  0.0656
    1TMC1    H213875   2.636   1.856  16.428 -0.5248 -1.3560  0.1674
    1TMC1    C713876   2.680   1.749  16.184 -0.0301 -0.2643  0.0262
    1TMC1    C813877   2.489   2.048  16.511  0.6652  0.1864 -1.0991
    1TMC1    O113878   2.698   1.727  16.067 -0.1421 -0.0993  0.6057
    1TMC1    O213879   2.582   2.011  16.577 -0.0215 -0.0823 -0.1597
    1TMC1    O313880   2.694   1.656  16.279  0.2973  0.1457  0.4198
    1TMC1    H313881   2.693   1.686  16.372 -0.6679  1.9357 -0.1830
    1TMC1    O513882   2.357   2.062  16.548 -0.4157 -0.2020  0.1487
    1TMC1    H513883   2.289   2.075  16.479  0.8400  1.5201 -0.7563
    2MPD2     C13884   2.406   2.292  15.578 -0.4524  0.1750  0.0145
    2MPD2    C113885   2.431   2.158  15.572  0.3648  0.9677  0.1504
    2MPD2    C213886   2.440   2.084  15.684 -1.2149  0.2213  0.8720
    2MPD2    C313887   2.411   2.141  15.809  0.5103 -0.1307 -0.0954
    2MPD2    C413888   2.383   2.281  15.815  0.1262 -0.8638 -0.9089
    2MPD2    C513889   2.385   2.350  15.695  0.0997 -0.6158 -0.0795
    2MPD2     H13890   2.461   1.978  15.681 -0.5845  0.3439  0.8423
    2MPD2    H113891   2.337   2.330  15.900  0.0479 -1.3435 -0.6707
    2MPD2    H213892   2.391   2.359  15.495 -2.0269  1.0519  1.0047
    2MPD2    H313893   2.350   2.452  15.686 -0.1454 -0.8437 -1.6513
    2MPD2     N13894   2.416   2.059  15.924 -0.7456 -0.0901  0.3913
    2MPD2    H513895   2.434   1.960  15.909  3.1718  0.4476  1.4557
    2MPD2    N113896   2.457   2.096  15.448  0.1453  0.5200 -1.0723
    2MPD2    H713897   2.442   2.164  15.373 -0.8489  1.9894  0.4592
    3TMC2    C113898   2.390   1.931  15.282  0.4253  0.1865 -0.7855
    3TMC2    C213899   2.281   1.847  15.268 -0.2937  0.1774  0.1871
    3TMC2    C313900   2.220   1.838  15.142  0.6686 -0.7195 -0.2295
    3TMC2    C413901   2.430   2.018  15.182  0.8535 -0.6087 -0.0795
    3TMC2    C513902   2.358   2.008  15.059  0.2296  0.0614  0.2616
    3TMC2    C613903   2.263   1.911  15.041 -0.2174  0.0952 -0.1405
    3TMC2     C13904   2.437   1.959  15.419  0.3447 -0.1761 -0.8485
    3TMC2     O13905   2.451   1.863  15.490  0.1297  0.0985 -0.3633
    3TMC2     H13906   2.232   1.816  15.359 -1.6373 -1.9359 -1.2385
    3TMC2    H113907   2.496   2.102  15.202  0.4523 -0.0943 -0.9168
    3TMC2    H213908   2.210   1.907  14.946  3.7873  0.2100 -2.3863
    3TMC2    C713909   2.405   2.085  14.945 -0.3242 -0.4913  0.5504
    3TMC2    C813910   2.115   1.740  15.122 -0.3198  0.0438 -0.4367
    3TMC2    O113911   2.524   2.085  14.927  0.0265 -0.4260 -0.5162
    3TMC2    O213912   2.014   1.763  15.058  0.0885 -0.2429  0.4398
    3TMC2    O513913   2.176   1.630  15.166 -0.1187  0.6635 -0.0780
    3TMC2    H513914   2.268   1.648  15.194 -0.0275  0.8423 -0.4899
    4TMC2    C113915   1.767   2.324  14.241 -0.1560  0.4532  0.3912
    4TMC2    C213916   1.639   2.302  14.284 -0.1129 -0.1118  0.0618
    4TMC2    C313917   1.608   2.317  14.415 -0.3623 -0.5346 -0.9548
    4TMC2    C413918   1.867   2.342  14.332  0.3896 -0.7957 -0.1838
    4TMC2    C513919   1.833   2.360  14.461 -0.7068 -0.1301  0.7613
    4TMC2    C613920   1.707   2.354  14.504 -0.1089 -0.0626 -0.2563
    4TMC2     C13921   1.795   2.305  14.104  1.0456 -0.5526  0.8455
    4TMC2     O13922   1.915   2.315  14.082  0.1217 -0.4675 -0.2107
    4TMC2     H13923   1.559   2.275  14.216  1.4850 -3.6368 -0.4077
    4TMC2    H113924   1.968   2.359  14.294  0.4734  2.7895  1.6050
    4TMC2    H213925   1.676   2.355  14.608 -1.4810  1.7052 -0.6642
    4TMC2    C713926   1.938   2.352  14.559 -0.6584 -0.4268  0.0136
    4TMC2    C813927   1.468   2.345  14.452 -0.4169 -0.3853 -0.1482
    4TMC2    O113928   1.894   2.323  14.666  0.4373  0.0193 -0.6178
    4TMC2    O213929   1.443   2.351  14.568 -0.4646 -0.8941 -0.5655
    4TMC2    O513930   1.429   2.428  14.358  0.1503 -0.3750 -0.3944
    4TMC2    H513931   1.477   2.416  14.273 -1.0678  1.0374 -1.2895
    5MPD2     C13932   1.730   2.279  13.595 -0.2923  0.6373  0.4347
    5MPD2    C113933   1.609   2.244  13.656  0.0691  0.1623  0.6801
    5MPD2    C213934   1.595   2.251  13.794  0.8286 -0.2116  0.2461
    5MPD2    C313935   1.704   2.283  13.877  1.0550 -0.1174  0.1059
    5MPD2    C413936   1.824   2.306  13.811  0.3436  0.4127 -0.7225
    5MPD2    C513937   1.841   2.301  13.673  0.1725  0.0248 -0.7371
    5MPD2     H13938   1.496   2.228  13.832  1.2096 -0.0401  1.3529
    5MPD2    H113939   1.906   2.343  13.871  0.7082 -2.3943  0.5123
    5MPD2    H213940   1.741   2.285  13.487 -1.1945  0.1203  0.3170
    5MPD2    H313941   1.930   2.324  13.617  1.5233 -2.7660  0.2951
    5MPD2     N13942   1.691   2.294  14.014  0.1016 -0.2438  0.9326
    5MPD2    H513943   1.595   2.297  14.048 -0.5874 -1.0149 -0.9342
    5MPD2    N113944   1.503   2.222  13.567 -0.1219 -0.5929  0.3197
    5MPD2    H713945   1.527   2.221  13.469  2.2693 -0.3851  0.8961
    6MPD1     C13946   0.460   3.385  12.449  0.1865 -0.0215 -0.1188
    6MPD1    C113947   0.426   3.359  12.579  0.0053 -0.9178  0.0359
    6MPD1    C213948   0.480   3.245  12.639 -0.0890  0.2900 -0.7817
    6MPD1    C313949   0.581   3.164  12.585  0.6875 -0.7442  0.5754
    6MPD1    C413950   0.615   3.198  12.458  0.2535 -0.0103 -0.3283
    6MPD1    C513951   0.555   3.300  12.391 -0.7157 -0.7122  0.9772
    6MPD1     H13952   0.451   3.221  12.741  0.8639  1.4030 -0.2473
    6MPD1    H113953   0.691   3.140  12.406  0.8998 -0.4873  1.1517
    6MPD1    H213954   0.406   3.456  12.387  1.3501  0.5982 -0.4205
    6MPD1    H313955   0.583   3.301  12.287 -0.1602  1.1590  1.1363
    6MPD1     N13956   0.638   3.047  12.647  0.3347 -0.0693  0.3818
    6MPD1    H513957   0.709   2.998  12.594  1.4386  2.8232 -0.7969
    6MPD1    N113958   0.318   3.430  12.636  0.3207  0.5695 -0.0102
    6MPD1    H613959   0.326   3.530  12.619  1.6483  0.2329 -1.3784
    6MPD1    H713960   0.325   3.418  12.737 -0.5098  2.5813  0.2972
    7MPD2     C13961   0.581   2.405  13.255 -0.6831 -0.0774 -0.1606
    7MPD2    C113962   0.696   2.435  13.184  0.1057  0.8756 -0.2575
    7MPD2    C213963   0.799   2.358  13.210  0.6154 -0.0986 -0.3239
    7MPD2    C313964   0.804   2.253  13.296  0.5575  0.3644 -0.3855
    7MPD2    C413965   0.691   2.221  13.368  0.3377 -0.3311  0.0233
    7MPD2    C513966   0.580   2.300  13.344 -0.0766 -0.3597  0.5173
    7MPD2     H13967   0.890   2.382  13.155  1.3928 -1.8435  0.2050
    7MPD2    H113968   0.686   2.134  13.432  0.7684 -0.1334  0.3212
    7MPD2    H213969   0.493   2.468  13.263 -1.8523 -2.0494  2.1752
    7MPD2    H313970   0.495   2.301  13.411 -1.0568  0.6662 -0.7334
    7MPD2     N13971   0.927   2.189  13.305 -0.1955  0.5867  0.1739
    7MPD2    H513972   1.003   2.210  13.241  1.6235 -0.0492  2.1126
    7MPD2    N113973   0.709   2.539  13.090 -0.0864  0.0556  0.1617
    7MPD2    H713974   0.802   2.578  13.091 -0.7473  1.6115 -0.1177
    8TMC3    C113975   1.098   2.054  13.381 -0.0422 -0.3134  0.2775
    8TMC3    C213976   1.171   2.078  13.490 -0.0723 -0.6137 -0.5950
    8TMC3    C313977   1.292   2.150  13.478  0.1436 -1.2626  0.6155
    8TMC3    C413978   1.150   2.072  13.252 -0.0741  0.4169  0.5280
    8TMC3    C513979   1.258   2.162  13.242  0.6931 -0.6097  0.0118
    8TMC3    C613980   1.330   2.202  13.355  0.8206 -0.0944  0.5275
    8TMC3     C13981   0.963   2.098  13.398 -0.7795  0.2245 -0.4381
    8TMC3     O13982   0.918   2.072  13.508  0.0131  0.3482 -0.5710
    8TMC3     H13983   1.136   2.061  13.590  2.1697 -0.7336  0.1748
    8TMC3    H113984   1.093   2.038  13.166  0.1739 -0.3251  0.6566
    8TMC3    H213985   1.393   2.289  13.345  1.0977 -0.3928 -0.3335
    8TMC3    C713986   1.229   2.262  13.143  0.9026  0.0864  0.0936
    8TMC3    C813987   1.365   2.198  13.599  0.2926 -0.7528 -0.7333
    8TMC3    O113988   1.111   2.279  13.119 -0.2403 -0.4850 -0.6191
    8TMC3    O213989   1.303   2.198  13.704 -0.3381 -0.0063 -0.2084
    9TMC3    C113990   0.670   2.874  12.801  1.0283  0.0508  0.4820
    9TMC3    C213991   0.802   2.857  12.756  0.7858  0.4696  0.3321
    9TMC3    C313992   0.861   2.729  12.780  0.1689  0.0285 -0.1077
    9TMC3    C413993   0.613   2.776  12.879  0.4237  0.0522  0.4607
    9TMC3    C513994   0.673   2.659  12.901  0.2366 -0.0119  0.4848
    9TMC3    C613995   0.800   2.627  12.857  1.1836  0.0661  0.1801
    9TMC3     C13996   0.589   2.987  12.760  0.0017  0.7395  0.5642
    9TMC3     O13997   0.482   3.005  12.816 -0.1850  0.1817 -0.9409
    9TMC3     H13998   0.838   2.928  12.682  0.0335 -0.2302 -0.7131
    9TMC3    H113999   0.510   2.784  12.912  0.3385  0.5037  0.0915
    9TMC3    H214000   0.849   2.537  12.893  0.2727 -0.3863  0.2757
    9TMC3    C714001   0.608   2.582  13.010 -0.6126  0.1533 -0.5219
    9TMC3    C814002   1.003   2.734  12.783 -0.0297 -0.7596 -0.4277
    9TMC3    O114003   0.487   2.569  13.024  0.1899 -0.4447 -0.2740
    9TMC3    O214004   1.048   2.840  12.809 -0.9514  0.0611  0.1704
   10MPD2     C14005   1.432   2.535  12.987 -1.0142 -0.0053 -0.3419
   10MPD2    C114006   1.320   2.455  13.017 -0.1236 -0.0849  0.0596
   10MPD2    C214007   1.202   2.481  12.952 -0.7354  0.2243  0.2671
   10MPD2    C314008   1.180   2.590  12.874  0.5694  0.3346  0.0617
   10MPD2    C414009   1.289   2.661  12.841  0.1763 -0.3011 -0.2898
   10MPD2    C514010   1.415   2.641  12.895  0.3326 -0.0723 -0.2268
   10MPD2     H14011   1.112   2.423  12.967  0.4452 -2.0410 -1.4180
   10MPD2    H114012   1.271   2.741  12.770 -1.9975  0.7031  1.3928
   10MPD2    H214013   1.535   2.526  13.020 -0.9155 -0.7393 -0.8515
   10MPD2    H314014   1.496   2.709  12.871  2.3473 -1.9167  1.3709
   10MPD2     N14015   1.048   2.609  12.829 -0.2925  0.1040 -0.0835
   10MPD2    H514016   0.979   2.534  12.829  1.2234 -1.2777  0.9726
   10MPD2    N114017   1.330   2.343  13.108  0.8513  0.5519  0.1658
   10MPD2    H714018   1.423   2.317  13.139  1.4268  1.4898 -0.7679
   11MPD2     C14019   2.425   2.249  14.700  0.0883 -0.3623 -0.2561
   11MPD2    C114020   2.305   2.221  14.767 -0.6313  0.1845  0.7900
   11MPD2    C214021   2.183   2.259  14.713  0.1289 -0.5293 -0.2713
   11MPD2    C314022   2.187   2.321  14.585  0.1893 -0.6005 -0.2595
   11MPD2    C414023   2.307   2.366  14.536 -0.5228 -0.0150  0.5730
   11MPD2    C514024   2.427   2.327  14.587  0.4801 -0.0408 -0.3140
   11MPD2     H14025   2.091   2.237  14.767  0.9680  0.1242  1.4275
   11MPD2    H114026   2.302   2.433  14.451 -0.0489 -3.6645 -2.3468
   11MPD2    H214027   2.520   2.220  14.743  0.8723  2.7094  0.0382
   11MPD2    H314028   2.519   2.376  14.556 -0.3125  1.6661  0.0524
   11MPD2     N14029   2.069   2.353  14.507  0.3252 -0.5476  0.1121
   11MPD2    H514030   2.090   2.391  14.416 -1.0679 -3.0573 -1.2786
   11MPD2    N114031   2.298   2.150  14.886 -0.3108 -0.1925 -0.2736
   11MPD2    H714032   2.211   2.146  14.938  0.4538 -1.6471  0.8996
    1MPD1     C14033   4.474   3.237  16.429 -0.2312 -0.6770  0.1464
    1MPD1    C114034   4.589   3.200  16.497  0.7109  0.4022 -0.0996
    1MPD1    C214035   4.705   3.243  16.444 -0.0252  0.3081  0.2289
    1MPD1    C314036   4.709   3.320  16.329  0.3122 -0.4494 -0.2625
    1MPD1    C414037   4.591   3.335  16.256 -0.1729 -0.0865  0.0655
    1MPD1    C514038   4.477   3.292  16.308  0.4489  0.0822  0.0396
    1MPD1     H14039   0.059   3.225  16.501  0.7027  1.8194 -0.4201
    1MPD1    H114040   4.593   3.387  16.161 -2.4555 -0.2859 -0.1089
    1MPD1    H214041   4.373   3.219  16.462 -1.3979 -0.3517 -3.2851
    1MPD1    H314042   4.386   3.321  16.256  0.7687  1.2262  0.1305
    1MPD1     N14043   0.091   3.389  16.288  0.4531  0.0462 -0.0906
    1MPD1    H514044   0.078   3.440  16.201 -1.4847  0.3116  0.3546
    1MPD1    N114045   4.582   3.140  16.623  0.5673 -0.0519  0.0742
    1MPD1    H614046   4.520   3.059  16.625  0.1478  0.2492 -0.4670
    1MPD1    H714047   4.669   3.093  16.645  0.8454 -1.0644 -3.1778
    2MPD1     C14048   0.854   4.113  16.496  0.2534 -0.1440  0.0030
    2MPD1    C114049   0.886   4.065  16.369  0.7104 -0.3355  0.1052
    2MPD1    C214050   0.797   3.976  16.312  0.3497 -0.6407 -0.2500
    2MPD1    C314051   0.684   3.941  16.385  0.3666 -0.4004  0.1262
    2MPD1    C414052   0.664   3.981  16.512  0.1386  0.6686  0.0878
    2MPD1    C514053   0.757   4.055  16.571 -0.7491  0.2161  0.2019
    2MPD1     H14054   0.809   3.921  16.219 -0.2364  0.4849 -0.9909
    2MPD1    H114055   0.579   3.954  16.575 -0.6810  0.3479 -1.1382
    2MPD1    H214056   0.916   4.190  16.541 -1.0438  1.3364 -0.7929
    2MPD1    H314057   0.737   4.082  16.674 -1.6189  1.5474 -0.3075
    2MPD1     N14058   0.590   3.859  16.320  0.2268  0.4111  0.2106
    2MPD1    H514059   0.605   3.853  16.220 -0.0434  1.9188  0.0808
    2MPD1    N114060   1.001   4.108  16.297 -0.3356 -0.0325 -0.8339
    2MPD1    H614061   1.033   4.027  16.245  0.8886 -0.9334  1.3323
    2MPD1    H714062   1.078   4.140  16.356 -2.2111  1.2596  0.9093
    3TMC3    C114063   0.421   3.694  16.288  0.7687 -0.0926 -0.7493
    3TMC3    C214064   0.388   3.731  16.158 -0.4854 -0.0130 -0.0353
    3TMC3    C314065   0.299   3.651  16.089  0.6000 -0.4932 -0.1552
    3TMC3    C414066   0.374   3.576  16.344 -0.0222 -0.6357 -0.0679
    3TMC3    C514067   0.292   3.497  16.269  0.7416 -0.2844  0.2534
    3TMC3    C614068   0.257   3.528  16.136 -0.2255  0.6417  0.1508
    3TMC3     C14069   0.500   3.778  16.382  0.2105  0.8275  0.1899
    3TMC3     O14070   0.495   3.749  16.503 -0.1486  0.0017  0.1140
    3TMC3     H14071   0.420   3.821  16.108  2.3154 -0.7404  0.4319
    3TMC3    H114072   0.417   3.537  16.436 -0.6424  2.2791  1.4370
    3TMC3    H214073   0.181   3.472  16.083  0.2192  0.1986 -0.0142
    3TMC3    C714074   0.214   3.396  16.343  0.4067 -0.2579 -0.0319
    3TMC3    C814075   0.268   3.674  15.950 -0.2604 -0.3493  0.4149
    3TMC3    O114076   0.261   3.346  16.445 -0.1471  0.1969  0.2776
    3TMC3    O214077   0.266   3.790  15.907  0.1860  0.1301 -0.0291
    4MPD1     C14078   0.220   3.470  15.486  0.0411  0.5269 -0.7205
    4MPD1    C114079   0.262   3.364  15.566 -0.5864  0.5872 -0.4661
    4MPD1    C214080   0.289   3.399  15.695  0.2286  0.8467  0.2266
    4MPD1    C314081   0.257   3.534  15.741  0.2282 -0.7745 -0.0805
    4MPD1    C414082   0.205   3.628  15.665 -0.3711  0.3240  0.4744
    4MPD1    C514083   0.185   3.595  15.530  0.5862  0.4330 -0.0074
    4MPD1     H14084   0.339   3.329  15.762  0.5521 -0.4049 -1.3241
    4MPD1    H114085   0.174   3.726  15.699 -0.3388  0.1318  1.0681
    4MPD1    H214086   0.202   3.439  15.384  0.6347  0.2884 -0.7496
    4MPD1    H314087   0.132   3.664  15.465  0.2953  0.2909  0.0769
    4MPD1     N14088   0.274   3.554  15.881  0.4814 -0.0063 -0.5719
    4MPD1    H514089   0.293   3.469  15.935 -2.4582  0.8508  1.8597
    4MPD1    N114090   0.278   3.242  15.512  0.1724 -0.2115 -0.1654
    4MPD1    H614091   0.217   3.234  15.431  0.2403 -0.5747 -0.1828
    4MPD1    H714092   0.265   3.158  15.568  2.7066 -0.9377 -0.6724
    1TCq1    O114093   1.290   3.099  10.551  0.1992  0.7252 -0.3089
    1TCq1    C114094   1.404   3.123  10.492 -0.1762  0.9277  0.0751
    1TCq1    O214095   1.436   3.227  10.434  0.3366 -0.5574  0.3627
    1TCq1    C214096   1.502   3.036  10.548  0.8314 -0.1015 -0.1425
    1TCq1    C314097   1.601   3.087  10.633  1.0334 -0.3048 -0.0258
    1TCq1    C414098   1.678   3.005  10.709 -0.0803 -0.4887  0.2930
    1TCq1    C514099   1.655   2.868  10.711 -0.1295  0.0216  0.8566
    1TCq1    C614100   1.573   2.820  10.612  0.3340  0.2947 -0.6864
    1TCq1    C714101   1.497   2.897  10.538 -0.3759 -0.1221 -0.1150
    1TCq1    C814102   1.533   2.682  10.608 -0.6501  0.4185 -0.0994
    1TCq1    O414103   1.420   2.655  10.568  0.1996 -0.1436  0.0925
    1TCq1    C914104   1.730   3.069  10.831 -0.5061  0.1876  0.7562
    1TCq1    O514105   1.752   2.991  10.928 -0.0061  0.7263  0.0790
    1TCq1    O614106   1.755   3.192  10.832  0.0381  0.2778 -0.4766
    1TCq1    H114107   1.309   3.024  10.612  1.0774  0.4386 -0.9336
    1TCq1    H214108   1.587   3.189  10.668 -2.5097 -0.4714 -1.0071
    1TCq1    H314109   1.719   2.811  10.778  0.1973 -0.7827 -0.1324
    1TCq1    H414110   1.444   2.853  10.454  0.0384  0.5950 -0.7508
    2MPD1     C14111   1.617   2.201  10.776 -0.1166 -0.1713  0.6562
    2MPD1    C114112   1.739   2.260  10.749 -0.7757 -0.2083  0.3383
    2MPD1    C214113   1.733   2.395  10.711 -0.0338 -0.5678  0.7444
    2MPD1    C314114   1.623   2.468  10.688  0.1034  0.1552 -0.2468
    2MPD1    C414115   1.502   2.398  10.705 -0.3402  0.4619  0.0683
    2MPD1    C514116   1.501   2.267  10.752 -0.0393 -0.3743 -0.2326
    2MPD1     H14117   1.830   2.445  10.705 -1.2975  1.6163 -1.4919
    2MPD1    H114118   1.405   2.447  10.699 -0.4056  0.1214 -1.8921
    2MPD1    H214119   1.613   2.100  10.814 -1.6873 -0.6513 -0.7916
    2MPD1    H314120   1.406   2.218  10.766  0.8834 -2.2371 -0.6055
    2MPD1     N14121   1.635   2.606  10.655  0.0590  0.5168 -0.5718
    2MPD1    H514122   1.728   2.645  10.669  0.7304 -0.6772 -1.7482
    2MPD1    N114123   1.857   2.203  10.784  0.0153 -0.3056  0.1936
    2MPD1    H614124   1.928   2.247  10.726 -0.2340 -1.7466 -1.2254
    2MPD1    H714125   1.863   2.101  10.782  1.3723 -0.2240  0.3824
    1TMC1    C114126   1.942   4.046   1.606 -0.1120 -0.8417 -0.3953
    1TMC1    C214127   2.004   3.998   1.720 -0.1802 -0.5583  0.2915
    1TMC1    C314128   2.001   3.862   1.733 -0.2980  0.8149 -0.6017
    1TMC1    C414129   1.860   3.972   1.528  0.0171  0.3625  0.8280
    1TMC1    C514130   1.864   3.837   1.545 -0.4849 -0.2226 -0.1255
    1TMC1    C614131   1.936   3.778   1.647  0.1512 -0.4369  0.0019
    1TMC1     C14132   1.938   4.195   1.595 -0.9080 -0.9344 -0.7806
    1TMC1     O14133   1.947   4.251   1.709  0.3411 -0.0185  0.0126
    1TMC1     H14134   2.069   4.056   1.785 -0.9054  0.4990  0.0740
    1TMC1    H114135   1.804   4.019   1.447 -1.7836  1.6789  2.8350
    1TMC1    H214136   1.954   3.671   1.655 -2.3395 -0.7149  1.9056
    1TMC1    C714137   1.785   3.759   1.449 -0.2949  0.2870  0.1061
    1TMC1    C814138   2.081   3.805   1.839 -0.1888  0.4028 -0.0824
    1TMC1    O114139   1.724   3.806   1.356 -0.0448  0.3303 -0.6826
    1TMC1    O214140   2.113   3.688   1.848 -0.0944  0.0141  0.4738
    1TMC1    O314141   1.742   3.646   1.500  0.2457 -0.3270 -0.2803
    1TMC1    H314142   1.762   3.635   1.595  0.0902 -1.7874 -0.4179
    1TMC1    O514143   2.036   3.880   1.942 -0.2707  0.2477 -0.0422
    1TMC1    H514144   2.000   3.967   1.915  0.1748 -0.3834 -2.5878
    2MPD1     C14145   1.968   4.673   1.439  0.2319 -0.3877 -0.5055
    2MPD1    C114146   2.005   4.590   1.339 -0.0488  0.3251  0.4977
    2MPD1    C214147   1.991   4.454   1.346  0.1183  0.0673  0.5359
    2MPD1    C314148   1.934   4.397   1.460 -0.0134  0.7527  0.0521
    2MPD1    C414149   1.874   4.482   1.554  0.3015  0.3042  0.2132
    2MPD1    C514150   1.902   4.614   1.548  0.2999  0.0525  0.1485
    2MPD1     H14151   2.033   4.394   1.265 -2.2868  0.0999 -0.7272
    2MPD1    H114152   1.818   4.448   1.641  0.5939  1.3101  0.7900
    2MPD1    H214153   1.968   0.045   1.421  1.7831 -0.0740  1.3117
    2MPD1    H314154   1.854   4.685   1.615 -0.1012  1.0610 -1.1992
    2MPD1     N14155   1.939   4.254   1.475 -0.0923 -0.3605  0.7474
    2MPD1    H514156   1.978   4.191   1.405  1.9858  3.6380 -1.7509
    2MPD1    N114157   2.028   4.649   1.216  0.0841 -0.5869 -0.0917
    2MPD1    H614158   2.076   0.001   1.232 -2.7017  0.2481  3.6147
    2MPD1    H714159   2.086   4.592   1.154  1.8320  1.9762 -0.8168
    1MPD1     C14160   2.573   1.632  12.291  0.1404  0.3148  0.0481
    1MPD1    C114161   2.557   1.745  12.367  0.2590 -0.5220 -0.4609
    1MPD1    C214162   2.651   1.845  12.339  1.3287  0.0400  0.1838
    1MPD1    C314163   2.755   1.832  12.244  0.5187  0.0019  1.4343
    1MPD1    C414164   2.761   1.714  12.177  0.2520 -0.4819 -0.3573
    1MPD1    C514165   2.671   1.608  12.202 -0.0071  0.2374  0.1173
    1MPD1     H14166   2.644   1.932  12.403 -5.7946 -1.2697  1.2161
    1MPD1    H114167   2.844   1.687  12.112  0.4128  0.9290 -0.7590
    1MPD1    H214168   2.492   1.561  12.302 -0.6897  1.3786  0.8279
    1MPD1    H314169   2.687   1.520  12.141  2.6305 -0.9122  2.4500
    1MPD1     N14170   2.849   1.939  12.236 -0.3594 -0.4096  0.6916
    1MPD1    H514171   2.828   2.030  12.276  0.2111  0.3375 -0.6829
    1MPD1    N114172   2.437   1.768  12.431  0.5211 -0.2871 -0.0794
    1MPD1    H614173   2.393   1.682  12.463  3.5800 -1.9189 -0.3037
    1MPD1    H714174   2.433   1.842  12.501 -0.8662 -1.8227  1.4731
    2MPD1     C14175   2.622   3.351  11.738  0.0897 -0.0626  0.5584
    2MPD1    C114176   2.621   3.421  11.626  0.0956  0.6628  0.0344
    2MPD1    C214177   2.739   3.426  11.558 -0.9921  0.3778 -0.2540
    2MPD1    C314178   2.859   3.385  11.612 -0.5386  0.6711 -0.4991
    2MPD1    C414179   2.865   3.313  11.732  0.4914  0.2286 -0.3352
    2MPD1    C514180   2.738   3.296  11.791  0.2813 -0.0836 -0.1310
    2MPD1     H14181   2.728   3.470  11.459 -1.5426  0.4809 -0.1449
    2MPD1    H114182   2.951   3.267  11.780 -0.0268 -0.1396  0.2448
    2MPD1    H214183   2.533   3.324  11.792 -0.2869  0.8546  0.4002
    2MPD1    H314184   2.727   3.238  11.881 -2.2880  1.8779  0.8267
    2MPD1     N14185   2.980   3.412  11.554  0.2986 -0.2841 -0.5704
    2MPD1    H514186   3.060   3.396  11.615 -1.1670  0.4583  1.5379
    2MPD1    N114187   2.497   3.443  11.550  0.2263  0.2913 -0.1404
    2MPD1    H614188   2.426   3.448  11.623 -1.3473 -2.8106 -1.4774
    2MPD1    H714189   2.500   3.528  11.494  3.4852  1.0519  1.1592
    3MPD1     C14190   3.614   4.048  10.986  0.1065  0.0817 -0.6118
    3MPD1    C114191   3.684   3.976  11.082  0.1959 -0.0630  0.3943
    3MPD1    C214192   3.627   3.855  11.124 -0.3435  0.1244 -0.7377
    3MPD1    C314193   3.498   3.819  11.080  0.0543 -0.5207  0.7387
    3MPD1    C414194   3.436   3.902  10.990 -0.3344 -0.2299 -0.7088
    3MPD1    C514195   3.499   4.013  10.937 -0.5339  0.0076 -0.1095
    3MPD1     H14196   3.673   3.789  11.197  0.4226 -0.0215 -1.3557
    3MPD1    H114197   3.339   3.874  10.950 -1.2040 -0.5798  1.6896
    3MPD1    H214198   3.650   4.142  10.944  1.4153  1.0110  2.5647
    3MPD1    H314199   3.441   4.091  10.888  0.0788  0.8786  0.5572
    3MPD1     N14200   3.435   3.713  11.147  0.0594  0.3594  0.3027
    3MPD1    H514201   3.494   3.664  11.214 -0.2568  0.3209  0.5501
    3MPD1    N114202   3.806   4.026  11.131 -0.2247  1.0890  0.1863
    3MPD1    H614203   3.858   4.083  11.065  1.2948  0.0186  0.4537
    3MPD1    H714204   3.867   3.957  11.174 -1.3755  0.0443  0.1754
    4MPD2     C14205   3.022   2.716  12.299 -0.5978  0.5234  0.7032
    4MPD2    C114206   3.131   2.632  12.287 -0.2696  0.4874 -0.0550
    4MPD2    C214207   3.262   2.670  12.309 -0.3859 -0.2434 -0.1449
    4MPD2    C314208   3.278   2.811  12.334 -0.1577  0.4456 -0.2283
    4MPD2    C414209   3.170   2.902  12.341  0.1384  0.3340 -0.1825
    4MPD2    C514210   3.044   2.849  12.333  0.1592 -1.0628  0.3569
    4MPD2     H14211   3.347   2.603  12.296 -0.2879 -0.4390  1.5361
    4MPD2    H114212   3.188   3.009  12.336 -0.6934  0.4927  0.3159
    4MPD2    H214213   2.922   2.679  12.280  0.7798 -1.1634 -3.2318
    4MPD2    H314214   2.961   2.913  12.360 -0.3791 -1.5535 -0.1545
    4MPD2     N14215   3.407   2.876  12.332  0.3644 -0.6605  0.0259
    4MPD2    H514216   3.413   2.977  12.330  0.7332 -0.7095 -1.2392
    4MPD2    N114217   3.126   2.494  12.263 -0.7883  0.1352  0.1351
    4MPD2    H714218   3.213   2.442  12.261  0.2798  1.9461 -0.8274
    5TMC3    C114219   3.083   2.285  12.194  0.6842 -0.2115 -0.1280
    5TMC3    C214220   2.993   2.180  12.178  0.2566  0.4873 -0.1210
    5TMC3    C314221   3.044   2.057  12.141  0.4086 -0.0101 -0.0745
    5TMC3    C414222   3.219   2.279  12.153 -0.2108 -0.1959 -0.1610
    5TMC3    C514223   3.256   2.158  12.103  0.5697 -0.2846 -0.0676
    5TMC3    C614224   3.176   2.053  12.109  0.2742  0.2504  0.5344
    5TMC3     C14225   3.024   2.413  12.230 -0.4531  0.1686  0.3049
    5TMC3     O14226   2.907   2.430  12.242 -0.3757  0.8977  0.3255
    5TMC3     H14227   2.886   2.195  12.194  0.3757  1.3925 -0.1594
    5TMC3    H114228   3.257   2.369  12.105 -1.6106  0.6642  0.3357
    5TMC3    H214229   3.219   1.956  12.083 -0.2734  0.0352  0.4308
    5TMC3    C714230   3.402   2.138  12.087  0.1768 -0.0523 -0.2633
    5TMC3    C814231   2.964   1.931  12.158  0.3214  0.4324  0.6788
    5TMC3    O114232   3.439   2.040  12.025 -0.3217 -0.0052 -0.0518
    5TMC3    O214233   3.024   1.841  12.100  0.5182  0.0190 -0.4421
    6TMC3    C114234   3.144   3.478  11.394 -0.3110  0.2289  0.0345
    6TMC3    C214235   3.167   3.543  11.281 -0.5410 -0.4724 -0.4736
    6TMC3    C314236   3.296   3.559  11.243  0.0263 -1.3345 -0.6600
    6TMC3    C414237   3.238   3.402  11.459 -0.5620  0.2721  0.0014
    6TMC3    C514238   3.367   3.432  11.421  0.7003 -0.2910  0.0553
    6TMC3    C614239   3.400   3.512  11.313  0.3790 -0.0285 -1.1905
    6TMC3     C14240   3.000   3.468  11.433 -0.7965  0.5021  0.7884
    6TMC3     O14241   2.920   3.520  11.357 -0.1435 -0.0000  0.0062
    6TMC3     H14242   3.085   3.597  11.236 -0.4680 -0.2699 -0.3603
    6TMC3    H114243   3.219   3.347  11.550  0.3980  1.8311  1.1258
    6TMC3    H214244   3.503   3.522  11.281  0.7264 -0.7189 -0.2805
    6TMC3    C714245   3.472   3.354  11.487 -0.5132  0.3275 -0.6661
    6TMC3    C814246   3.308   3.664  11.143  0.3300 -0.3737  0.4268
    6TMC3    O114247   3.432   3.247  11.532 -0.5108  0.4862 -0.1478
    6TMC3    O214248   3.213   3.708  11.077 -0.0423 -0.6664  0.6442
    7MPD2     C14249   3.822   2.396  12.022 -0.1249  0.2544 -0.6753
    7MPD2    C114250   3.744   2.463  12.115  0.6988  0.3432  0.5970
    7MPD2    C214251   3.626   2.403  12.161 -0.1838  0.2866  0.1010
    7MPD2    C314252   3.601   2.271  12.132  0.3961  0.3891 -0.4186
    7MPD2    C414253   3.692   2.203  12.051  0.1007 -0.1338  0.2337
    7MPD2    C514254   3.798   2.267  11.987 -0.2878 -0.3366 -0.5636
    7MPD2     H14255   3.557   2.461  12.221 -1.0179 -2.3964  1.7711
    7MPD2    H114256   3.665   2.112  11.998 -0.0817  0.0889 -0.0597
    7MPD2    H214257   3.919   2.437  11.994  0.6428 -2.2685 -1.6896
    7MPD2    H314258   3.855   2.213  11.912 -1.0984  0.9493 -2.1129
    7MPD2     N14259   3.469   2.229  12.154 -0.3170 -0.4105 -0.5653
    7MPD2    H514260   3.412   2.288  12.214 -0.3518  0.8109 -1.7959
    7MPD2    N114261   3.759   2.598  12.158 -0.4524  0.1083  0.3531
    7MPD2    H714262   3.699   2.640  12.228 -0.1498  0.0204  0.6662
    8TMC3    C114263   3.813   2.814  12.133 -0.0358  0.0190  0.0762
    8TMC3    C214264   3.792   2.899  12.029  0.0843 -0.6101  0.1279
    8TMC3    C314265   3.674   2.973  12.036  0.3390 -0.4472  0.7590
    8TMC3    C414266   3.742   2.819  12.251  0.3130  0.5108 -0.2408
    8TMC3    C514267   3.630   2.892  12.253  0.4210 -0.2667  0.0854
    8TMC3    C614268   3.598   2.968  12.146 -0.0092 -0.1166 -0.4794
    8TMC3     C14269   3.837   2.683  12.086 -0.4006  0.6169 -0.1771
    8TMC3     O14270   3.915   2.664  11.993  0.0291 -0.1410  0.9179
    8TMC3     H14271   3.835   2.891  11.930 -1.2847 -1.2392 -0.4234
    8TMC3    H114272   3.772   2.760  12.337 -0.3789 -2.3680 -1.9583
    8TMC3    H214273   3.505   3.023  12.140  0.0167 -0.1356 -0.9919
    8TMC3    C714274   3.529   2.819  12.326 -0.0384  0.2618 -0.2439
    8TMC3    C814275   3.658   3.073  11.933  0.0051 -0.1127  0.7256
    8TMC3    O114276   3.555   2.699  12.346 -0.1626 -0.4951  0.7603
    8TMC3    O214277   3.545   3.115  11.922  0.1243  0.3071 -0.5957
    9MPD2     C14278   3.909   3.251  11.730  0.1484 -0.2178 -0.9015
    9MPD2    C114279   3.779   3.216  11.773  0.0638  0.5429 -0.1092
    9MPD2    C214280   3.671   3.278  11.701 -0.0539  1.2770  0.2019
    9MPD2    C314281   3.698   3.360  11.587 -0.5750  0.2603 -0.5069
    9MPD2    C414282   3.827   3.396  11.554  0.0427  0.5703  0.2057
    9MPD2    C514283   3.931   3.338  11.625  0.2055  0.1077 -0.1614
    9MPD2     H14284   3.569   3.247  11.721  0.6428 -0.4151  1.1091
    9MPD2    H114285   3.840   3.445  11.459  0.0443 -1.5854 -0.9220
    9MPD2    H214286   3.996   3.212  11.782  0.7193 -1.2313 -2.6370
    9MPD2    H314287   4.032   3.333  11.586  0.7502 -0.3095  1.3261
    9MPD2     N14288   3.596   3.418  11.505  0.3677  0.5924  0.4750
    9MPD2    H514289   3.615   3.502  11.452 -1.8879  1.6044  1.2518
    9MPD2    N114290   3.770   3.112  11.874 -0.5695  0.2614 -0.0711
    9MPD2    H714291   3.864   3.084  11.901 -0.9912 -1.1391 -0.0594
    1MPD1     C14292   2.005   3.315  17.009  0.1521 -0.9017  0.1141
    1MPD1    C114293   1.882   3.260  17.022 -0.0016  0.6763  0.0261
    1MPD1    C214294   1.871   3.120  17.050  0.1301 -0.7759 -0.1820
    1MPD1    C314295   1.986   3.045  17.042  0.3938  0.4343 -0.4862
    1MPD1    C414296   2.111   3.105  17.020 -0.4695 -0.4191  0.4760
    1MPD1    C514297   2.116   3.236  17.001  0.0961  0.6841 -0.0439
    1MPD1     H14298   1.773   3.076  17.067 -0.3051  0.6797  1.0952
    1MPD1    H114299   2.202   3.047  17.031 -2.5542 -4.0013 -0.9656
    1MPD1    H214300   2.019   3.420  16.988  0.5508 -0.9077  0.3590
    1MPD1    H314301   2.217   3.270  16.982  0.3458  0.8877  1.7174
    1MPD1     N14302   1.980   2.905  17.056 -0.1882  0.2178 -0.3777
    1MPD1    H514303   2.068   2.869  17.089 -0.5174 -1.3933 -1.2616
    1MPD1    N114304   1.771   3.343  17.034  0.0989 -0.0745  0.0082
    1MPD1    H614305   1.693   3.306  16.981 -0.7553  0.7517  0.6818
    1MPD1    H714306   1.785   3.440  17.005  2.3744 -0.2769  0.4093
    2TMC2    C114307   2.043   2.492  17.076 -0.8351 -0.2827 -0.3387
    2TMC2    C214308   1.964   2.419  17.160  0.6621  0.0235  0.5156
    2TMC2    C314309   1.856   2.490  17.204  0.6478  0.0205  0.1580
    2TMC2    C414310   2.024   2.625  17.041 -0.1966  0.3334 -0.0886
    2TMC2    C514311   1.912   2.681  17.091  0.6070 -0.3074  0.3564
    2TMC2    C614312   1.825   2.620  17.172 -0.3867 -0.1256 -0.2976
    2TMC2     C14313   2.169   2.428  17.024  0.2941  0.5202 -0.5848
    2TMC2     O14314   2.195   2.316  17.070  0.3605 -0.5481  0.7864
    2TMC2     H14315   1.974   2.313  17.181 -0.2562  0.5230  3.5396
    2TMC2    H114316   2.067   2.675  16.955  1.0539  0.1372  0.4236
    2TMC2    H214317   1.734   2.661  17.216 -1.3449 -1.3108 -1.2060
    2TMC2    C714318   1.875   2.820  17.050  0.1512  0.4622  0.5532
    2TMC2    C814319   1.749   2.415  17.266 -0.4387  0.1995 -0.1874
    2TMC2    O114320   1.754   2.843  17.036 -0.4534  0.6738  0.4968
    2TMC2    O214321   1.730   2.304  17.227  0.1543 -0.6448  0.1635
    2TMC2    O514322   1.719   2.468  17.385  0.2538 -0.5191 -0.1740
    2TMC2    H514323   1.757   2.558  17.399 -0.5559  0.2204 -2.6929
    3MPD1     C14324   2.626   2.420  16.806  1.1473 -0.2123 -0.0808
    3MPD1    C114325   2.582   2.552  16.802  0.2319 -1.0622 -0.0589
    3MPD1    C214326   2.452   2.578  16.841  0.2532  0.2576 -0.1488
    3MPD1    C314327   2.372   2.476  16.886 -0.4215  0.0210 -0.6061
    3MPD1    C414328   2.417   2.347  16.883  0.3920  0.3260  0.3735
    3MPD1    C514329   2.543   2.318  16.845 -0.4016 -1.0618  0.4166
    3MPD1     H14330   2.419   2.681  16.835 -0.4314  0.2779  3.7579
    3MPD1    H114331   2.356   2.265  16.919 -1.2272  1.3508  0.0027
    3MPD1    H214332   2.727   2.390  16.782  0.8405 -1.3070  0.0113
    3MPD1    H314333   2.576   2.215  16.856  2.3908 -0.1698  0.3123
    3MPD1     N14334   2.252   2.512  16.951 -0.5421  0.2919  0.2863
    3MPD1    H514335   2.224   2.609  16.939  0.1965  0.4822  0.0819
    3MPD1    N114336   2.673   2.653  16.776  0.2209 -0.6471  0.1787
    3MPD1    H614337   2.738   2.628  16.703 -0.3517 -0.8109 -0.2786
    3MPD1    H714338   2.636   2.749  16.775  0.5357 -0.5053  1.9632
    1TMC1    C114339   0.720   0.672  13.229  0.3339  0.3936 -0.2920
    1TMC1    C214340   0.598   0.655  13.290 -0.5274  0.2596  0.2065
    1TMC1    C314341   0.560   0.527  13.302  0.4617 -0.4481  0.0576
    1TMC1    C414342   0.791   0.563  13.185  0.5930 -0.2136  0.0444
    1TMC1    C514343   0.753   0.436  13.216 -0.3359  0.5458 -0.5961
    1TMC1    C614344   0.632   0.415  13.267 -0.1602  0.3134  0.4434
    1TMC1     C14345   0.796   0.792  13.255 -0.6845  0.8688  0.1546
    1TMC1     O14346   0.736   0.884  13.305  0.1726 -0.5057  0.3159
    1TMC1     H14347   0.551   0.737  13.344 -1.0714  0.4671 -0.5756
    1TMC1    H114348   0.881   0.569  13.125  0.3550 -0.8950 -0.3739
    1TMC1    H214349   0.594   0.315  13.288 -0.9499  0.5181 -0.0028
    1TMC1    C714350   0.846   0.333  13.188 -0.0057  0.3304 -0.6263
    1TMC1    C814351   0.425   0.503  13.352  0.0133 -0.0477  0.0041
    1TMC1    O114352   0.964   0.355  13.174  0.7303  0.0363  0.3878
    1TMC1    O214353   0.398   0.455  13.461 -0.5672 -0.8083  0.0050
    1TMC1    O314354   0.785   0.228  13.136 -0.1480 -0.1979 -0.0281
    1TMC1    H314355   0.696   0.247  13.099 -1.2807 -0.3612  2.5262
    1TMC1    O514356   0.350   0.602  13.296 -0.6509  0.3641 -0.1935
    1TMC1    H514357   0.376   0.617  13.203  0.9835  0.2993  0.2554
    2MPD2     C14358   1.022   0.996  13.273 -0.0957 -0.3372 -0.5661
    2MPD2    C114359   1.041   0.860  13.268  0.4386  0.0956 -0.9261
    2MPD2    C214360   1.160   0.802  13.304 -0.2504 -1.2461 -0.0761
    2MPD2    C314361   1.269   0.881  13.329 -0.3638  0.5233  0.0320
    2MPD2    C414362   1.255   1.023  13.318  0.4032 -0.4913 -0.0695
    2MPD2    C514363   1.130   1.076  13.291 -0.3441 -0.6544 -0.2050
    2MPD2     H14364   1.161   0.694  13.310  2.2981 -1.2323 -0.1215
    2MPD2    H114365   1.331   1.096  13.342 -1.6299  1.1159  1.5041
    2MPD2    H214366   0.931   1.056  13.269  0.0547 -0.0382  0.7195
    2MPD2    H314367   1.126   1.183  13.308  0.0046 -0.2804 -2.5098
    2MPD2     N14368   1.388   0.821  13.377  0.0488 -0.4316 -0.0937
    2MPD2    H514369   1.399   0.720  13.379  1.8277 -0.2383 -0.5017
    2MPD2    N114370   0.938   0.767  13.245 -0.4311  0.0082 -0.7502
    2MPD2    H714371   0.960   0.670  13.225  0.6491 -0.1118  1.0859
    3TCq1    O114372   1.976   0.963  13.361  0.2944  0.6860  0.9635
    3TCq1    C114373   1.979   0.837  13.311  0.1324  0.4495 -0.4559
    3TCq1    O214374   2.084   0.772  13.303  0.0709  0.2379  0.6210
    3TCq1    C214375   1.845   0.781  13.340 -0.8971  0.4546 -0.5141
    3TCq1    C314376   1.849   0.661  13.402 -0.3151 -0.4658 -0.4150
    3TCq1    C414377   1.738   0.612  13.458 -0.2589 -0.2374  0.7686
    3TCq1    C514378   1.627   0.690  13.466  0.2395  0.4503  0.0178
    3TCq1    C614379   1.628   0.807  13.402  0.2004  0.5043  0.4729
    3TCq1    C714380   1.732   0.855  13.333  0.2854  0.7238  0.1041
    3TCq1    C814381   1.510   0.887  13.377 -0.2015  0.6883 -0.1760
    3TCq1    O414382   1.537   1.004  13.347  0.1249 -0.2253  0.0569
    3TCq1    C914383   1.735   0.475  13.513 -0.6277 -0.1243 -0.0335
    3TCq1    O514384   1.851   0.414  13.507  0.3514 -0.0247  0.0104
    3TCq1    O614385   1.617   0.418  13.518  0.6336  0.1849 -0.0373
    3TCq1    H114386   1.883   0.992  13.375 -1.0145 -3.5423  1.1795
    3TCq1    H214387   1.937   0.597  13.397  1.3898  2.0610 -2.3321
    3TCq1    H314388   1.537   0.648  13.510 -0.6146  1.6421 -0.6063
    3TCq1    H414389   1.731   0.948  13.279 -0.9600  1.3303  1.1560
    1MPD2     C14390   0.994   2.322  15.197  0.1580 -0.5746 -0.3251
    1MPD2    C114391   0.901   2.368  15.102  1.1893 -0.3432 -0.6228
    1MPD2    C214392   0.780   2.315  15.108  0.4397  0.0485 -0.0274
    1MPD2    C314393   0.755   2.205  15.182 -0.3371 -0.3085  0.2483
    1MPD2    C414394   0.849   2.159  15.272 -0.0097 -0.3090  0.0328
    1MPD2    C514395   0.970   2.212  15.273  0.1390 -0.5975  0.4766
    1MPD2     H14396   0.702   2.346  15.039 -1.1905 -0.6452  1.4911
    1MPD2    H114397   0.824   2.071  15.330 -1.3160 -0.0450 -0.1123
    1MPD2    H214398   1.090   2.371  15.205 -0.4710  0.6205 -0.0582
    1MPD2    H314399   1.040   2.171  15.345  2.4859  1.9041 -0.3540
    1MPD2     N14400   0.631   2.134  15.187 -0.6660 -0.4064 -0.3849
    1MPD2    H514401   0.624   2.047  15.240  1.1380 -0.5008 -0.3292
    1MPD2    N114402   0.945   2.452  14.996  0.4600 -0.3342  0.0490
    1MPD2    H714403   1.045   2.465  14.993  0.5233 -0.9191 -0.5526
    2TMC3    C114404   0.915   2.546  14.786  0.4554  0.2405  0.5839
    2TMC3    C214405   0.987   2.451  14.718  0.0506  0.3851 -0.0316
    2TMC3    C314406   0.967   2.426  14.586  0.5514  0.1169  0.0551
    2TMC3    C414407   0.837   2.637  14.718  0.0336  0.4060 -0.2686
    2TMC3    C514408   0.808   2.608  14.589 -0.5084  0.2900  0.8171
    2TMC3    C614409   0.870   2.500  14.525 -0.6641 -0.3148  0.4680
    2TMC3     C14410   0.860   2.531  14.918 -0.1773  0.1693  0.2601
    2TMC3     O14411   0.737   2.537  14.930  0.5634 -0.5294 -0.2799
    2TMC3     H14412   1.065   2.384  14.753 -1.8795 -1.4272  0.8098
    2TMC3    H114413   0.774   2.705  14.775 -0.0738  0.0987 -0.0211
    2TMC3    H214414   0.845   2.480  14.421 -0.9737 -0.3902  0.5553
    2TMC3    C714415   0.677   2.638  14.526 -0.8291  0.6440 -0.0208
    2TMC3    C814416   0.968   2.287  14.552 -0.4461  0.0507  0.1612
    2TMC3    O114417   0.629   2.561  14.444 -0.0954 -0.7177  0.2240
    2TMC3    O214418   1.027   2.244  14.456 -0.6520 -0.1615  0.3150
    3TCq1    O114419   0.063   3.664  14.462  0.4092 -0.3721  0.2147
    3TCq1    C114420   0.107   3.690  14.586  0.4112 -0.1234  0.3529
    3TCq1    O214421   0.056   3.773  14.663  0.3521  0.0123 -0.3468
    3TCq1    C214422   0.206   3.583  14.618 -0.4453  0.8139 -1.2038
    3TCq1    C314423   0.293   3.612  14.724  1.1552 -0.3134 -0.3337
    3TCq1    C414424   0.369   3.510  14.768  0.1770  0.1644  1.1814
    3TCq1    C514425   0.351   3.379  14.727  0.4841  0.3852 -0.1845
    3TCq1    C614426   0.271   3.357  14.623  0.0681 -0.6993  0.0753
    3TCq1    C714427   0.191   3.456  14.568  0.7229 -0.3921  0.6387
    3TCq1    C814428   0.243   3.221  14.579 -0.2570 -0.0046 -0.2274
    3TCq1    O414429   0.144   3.200  14.513 -0.5588  0.4097  0.0996
    3TCq1    C914430   0.462   3.530  14.875  0.2186  0.5301 -0.4261
    3TCq1    O514431   0.479   3.421  14.929  0.5485  0.1777  0.8280
    3TCq1    O614432   0.459   3.645  14.923 -0.0607 -0.5374 -0.5841
    3TCq1    H114433   0.121   3.600  14.415  2.0269  0.6467  0.8512
    3TCq1    H214434   0.309   3.711  14.766 -1.7932 -0.1933  0.5357
    3TCq1    H314435   0.405   3.296  14.771 -0.5534  0.7907  1.8492
    3TCq1    H414436   0.111   3.425  14.502  1.5309  0.8810 -0.9319
    4MPD2     C14437   0.254   2.940  14.484  0.6194 -0.0330  0.8189
    4MPD2    C114438   0.352   2.997  14.565 -0.1954  0.3493  0.7655
    4MPD2    C214439   0.468   2.933  14.596  0.1245  0.9543 -0.3696
    4MPD2    C314440   0.503   2.812  14.541 -0.6362 -0.7055  0.6855
    4MPD2    C414441   0.405   2.743  14.470  0.2732  0.0227 -0.1090
    4MPD2    C514442   0.284   2.810  14.444 -0.6455  0.0846  0.1796
    4MPD2     H14443   0.534   2.976  14.672 -0.2179  1.6800 -0.4788
    4MPD2    H114444   0.425   2.643  14.434  0.2377  0.2105 -0.6533
    4MPD2    H214445   0.160   2.985  14.453  0.8269 -1.0183 -1.2280
    4MPD2    H314446   0.225   2.767  14.364  1.0486 -0.2874 -0.8639
    4MPD2     N14447   0.627   2.761  14.573 -0.3968  0.4040  0.5026
    4MPD2    H514448   0.690   2.815  14.633 -2.1654  0.6120  2.1921
    4MPD2    N114449   0.341   3.126  14.613 -0.5230 -0.3562  0.3670
    4MPD2    H714450   0.419   3.161  14.667 -0.6634 -1.6888  1.4367
    5TMC2    C114451   0.383   1.899  14.967  0.4543 -0.3324  0.3528
    5TMC2    C214452   0.258   1.941  14.937  0.1686  0.5662 -0.2696
    5TMC2    C314453   0.208   2.047  15.011 -0.0322  0.4312 -0.2769
    5TMC2    C414454   0.462   1.962  15.064 -0.3988  0.2147  0.5478
    5TMC2    C514455   0.414   2.064  15.133 -0.6544  0.0469  0.2775
    5TMC2    C614456   0.287   2.108  15.108  0.0031  0.6628  0.2515
    5TMC2     C14457   0.443   1.868  14.845 -0.4894  0.2516 -0.6709
    5TMC2     O14458   0.407   1.771  14.777 -0.3535 -0.6641  0.1434
    5TMC2     H14459   0.203   1.918  14.846  0.4668  1.5798 -0.7067
    5TMC2    H114460   0.557   1.911  15.081 -0.3661  0.2937  0.5996
    5TMC2    H214461   0.254   2.202  15.151 -1.2958  0.8777 -1.2601
    5TMC2    C714462   0.505   2.173  15.152 -0.8397  0.2538 -0.4074
    5TMC2    C814463   0.107   2.122  14.952 -0.2033 -0.0210  0.1723
    5TMC2    O114464   0.467   2.282  15.108 -0.5530 -0.1604  0.5984
    5TMC2    O214465   0.110   2.241  14.984  0.6465 -0.0845 -0.3499
    5TMC2    O514466   0.004   2.040  14.935  0.0523  0.9710  0.1555
    5TMC2    H514467   0.016   1.943  14.941 -0.7531  0.7955 -0.9720
    6MPD2     C14468   0.811   2.018  14.501 -0.6416 -0.0811  0.1125
    6MPD2    C114469   0.807   2.097  14.612 -0.6773  0.4689 -0.7786
    6MPD2    C214470   0.735   2.067  14.718 -0.1094  0.2512  0.0616
    6MPD2    C314471   0.642   1.963  14.711 -0.0114 -0.6791  0.4715
    6MPD2    C414472   0.638   1.883  14.598 -0.4902  0.1394  0.1667
    6MPD2    C514473   0.739   1.903  14.501  0.9989 -1.0151  0.3863
    6MPD2     H14474   0.739   2.132  14.805 -1.5172  0.2688  0.1105
    6MPD2    H114475   0.573   1.798  14.586 -0.2754 -0.1530  1.0987
    6MPD2    H214476   0.868   2.048  14.414 -0.3110 -0.2977  0.2548
    6MPD2    H314477   0.731   1.831  14.420 -0.1342 -1.3813  0.8196
    6MPD2     N14478   0.546   1.956  14.815 -0.2192 -0.7257 -0.2882
    6MPD2    H514479   0.572   2.024  14.885  1.1840 -0.8170 -0.7083
    6MPD2    N114480   0.882   2.215  14.636 -0.0863 -0.1842 -0.0789
    6MPD2    H714481   0.856   2.263  14.722 -0.0773  1.2146 -0.8544
  945NH3     N114482   2.070   4.403  12.026 -0.3816  0.4589 -0.4704
  945NH3     H214483   2.151   4.407  11.966 -3.2147 -1.7119 -4.3955
  945NH3     H314484   2.046   4.305  12.038  1.2681 -0.0257 -1.2546
  945NH3     H414485   2.101   4.422  12.121 -3.3970  0.2935  0.5716
  946SOD     NA14486   1.275   4.164  16.952 -0.0392 -0.3551 -0.1370
  947SOD     NA14487   1.791   3.168  11.055  0.3809  0.3401 -0.1250
  948SOD     NA14488   0.562   2.283   4.225 -0.3968  0.1708  0.1882
  949SOD     NA14489   0.369   2.486  15.127  0.0949  0.2034  0.1089
  950SOD     NA14490   4.406   4.731  14.097  0.0497 -0.3208  0.3627
  951SOD     NA14491   1.708   2.209  11.291 -0.1034  0.0824 -0.4970
  952SOD     NA14492   3.376   1.167   9.904 -0.4381  0.0854 -0.0241
  953SOD     NA14493   4.488   4.550  15.804  0.1321 -0.7971 -0.0984
  954SOL     OW14494   1.200   1.147   8.519  0.2855 -0.5926 -0.5017
  954SOL    HW114495   1.104   1.143   8.530  0.4586 -0.2325  1.1745
  954SOL    HW214496   1.228   1.231   8.555 -2.1696 -0.3970  0.9841
  955SOL     OW14497   4.319   4.508   9.477 -0.4503 -0.0138  0.9870
  955SOL    HW114498   4.290   4.591   9.438  0.0912 -0.9050 -1.2992
  955SOL    HW214499   4.248   4.448   9.457 -0.0583 -0.0036 -0.5002
  956SOL     OW14500   4.243   3.482   3.168 -0.1302  0.3975 -0.1228
  956SOL    HW114501   4.280   3.409   3.118 -0.9868 -0.5981  0.6834
  956SOL    HW214502   4.307   3.490   3.239 -0.3862 -1.9087  0.3624
  957SOL     OW14503   3.518   3.959   5.276  0.2553 -0.2191 -0.3213
  957SOL    HW114504   3.454   4.022   5.240  0.6722  0.5709  0.3289
  957SOL    HW214505   3.483   3.874   5.249 -0.9389  0.8932 -2.3029
  958SOL     OW14506   2.419   1.982  11.729  0.2019 -0.2731  0.4461
  958SOL    HW114507   2.400   1.889  11.721 -0.6063 -0.0068 -0.6290
  958SOL    HW214508   2.442   1.990  11.822 -0.2198  2.1547  0.3454
  959SOL     OW14509   4.056   2.225   7.854  0.5332  0.7955 -0.8002
  959SOL    HW114510   4.130   2.280   7.879  1.1929 -0.9413  1.1180
  959SOL    HW214511   4.095   2.137   7.854  0.4362  0.7532 -0.4782
  960SOL     OW14512   2.312   3.882   3.284  0.0969 -0.5754 -0.0072
  960SOL    HW114513   2.384   3.853   3.341 -0.2636 -0.8779  0.2939
  960SOL    HW214514   2.343   3.972   3.271  0.7340 -0.5077  1.8592
  961SOL     OW14515   0.183   3.175   9.524  0.1761 -0.4698 -0.3054
  961SOL    HW114516   0.271   3.209   9.539  1.0440 -3.8448  2.4245
  961SOL    HW214517   0.202   3.082   9.541  0.2720 -0.9756 -3.0586
  962SOL     OW14518   2.101   0.406   2.038  0.4805 -0.0947 -0.3384
  962SOL    HW114519   2.029   0.351   2.008  1.0297 -1.1613  0.2902
  962SOL    HW214520   2.047   0.481   2.063  0.0055  0.1962 -2.2458
  963SOL     OW14521   4.025   1.115  14.651  0.3578  0.9498  0.4804
  963SOL    HW114522   4.050   1.024  14.664  0.4939  0.7779 -0.9569
  963SOL    HW214523   4.107   1.149  14.614  1.9487 -2.2541  1.0773
  964SOL     OW14524   0.067   0.997   3.317 -0.5607  0.4124  0.0222
  964SOL    HW114525   0.020   1.072   3.354 -2.2136 -0.0484 -1.1273
  964SOL    HW214526   0.013   0.980   3.239  2.6935 -0.6493 -1.9925
  965SOL     OW14527   2.184   0.367   0.374 -0.4165 -0.0149  0.3338
  965SOL    HW114528   2.188   0.416   0.291 -2.8921  0.6416  0.6097
  965SOL    HW214529   2.260   0.414   0.407  0.7997 -1.3712 -0.5219
  966SOL     OW14530   3.647   2.006   2.344 -0.5885 -0.5607  0.2009
  966SOL    HW114531   3.678   2.068   2.410 -0.8454  0.3305 -0.5244
  966SOL    HW214532   3.704   2.028   2.270 -0.8643  1.8115  0.6869
  967SOL     OW14533   3.532   0.680   9.620  0.0433 -0.3540  0.2674
  967SOL    HW114534   3.569   0.608   9.569  1.5107  1.7820 -1.6700
  967SOL    HW214535   3.448   0.638   9.641 -0.9015  1.1885 -0.5070
  968SOL     OW14536   3.639   3.682   3.770 -0.3747  0.1736 -0.4853
  968SOL    HW114537   3.637   3.752   3.835 -0.1600 -1.0698  0.8469
  968SOL    HW214538   3.565   3.699   3.711 -0.5981  1.3123  0.1329
  969SOL     OW14539   1.463   0.600   2.644  0.3996 -0.2374  0.0816
  969SOL    HW114540   1.469   0.508   2.621  0.8831 -0.0264 -0.6391
  969SOL    HW214541   1.536   0.610   2.706 -0.1931 -0.6414  0.8462
  970SOL     OW14542   3.441   0.377  13.227  0.3119 -0.3376 -0.0539
  970SOL    HW114543   3.522   0.332  13.252 -0.3787 -3.1212 -2.7732
  970SOL    HW214544   3.465   0.422  13.147  0.3554  3.7177  2.2723
  971SOL     OW14545   4.502   4.187   7.425  0.4973  0.3835  0.4072
  971SOL    HW114546   4.521   4.104   7.381 -1.5833 -0.9083  1.9185
  971SOL    HW214547   4.449   4.170   7.503 -0.6937 -0.0320 -0.4807
  972SOL     OW14548   2.441   0.785  16.736  0.0974 -0.1138 -0.3547
  972SOL    HW114549   2.516   0.752  16.785 -0.0425  0.8691  0.5126
  972SOL    HW214550   2.399   0.843  16.799 -1.1376 -2.6902  1.1803
  973SOL     OW14551   3.604   0.645   2.556 -0.5745 -0.1871 -0.1871
  973SOL    HW114552   3.586   0.734   2.527 -0.3331  0.2188  0.9154
  973SOL    HW214553   3.621   0.659   2.649 -0.8220 -0.6238 -0.0751
  974SOL     OW14554   0.971   0.731   3.798  0.4295  0.1654 -0.0571
  974SOL    HW114555   0.945   0.686   3.718  0.0773 -0.8601  0.6358
  974SOL    HW214556   1.031   0.664   3.830  0.0537 -0.1517 -0.0214
  975SOL     OW14557   2.513   4.327   7.403  0.1722  0.1690  0.5052
  975SOL    HW114558   2.536   4.419   7.398 -0.3113  0.3819  2.2968
  975SOL    HW214559   2.522   4.308   7.497 -1.5541 -0.5161  0.5506
  976SOL     OW14560   1.261   1.314   5.435  0.3786  0.2343  0.2233
  976SOL    HW114561   1.349   1.297   5.401 -1.1444  1.3679 -4.3088
  976SOL    HW214562   1.262   1.407   5.457  1.1813  0.0816  0.8370
  977SOL     OW14563   4.617   3.800   9.338  0.4603  0.1356  0.4132
  977SOL    HW114564   4.675   3.868   9.304  0.3741  0.3075  0.6098
  977SOL    HW214565   4.583   3.762   9.257  3.0881  0.7421 -0.9858
  978SOL     OW14566   2.790   4.175   8.293 -0.6964  0.4799  0.3078
  978SOL    HW114567   2.812   4.107   8.357 -0.9480 -0.4194 -0.5613
  978SOL    HW214568   2.861   4.235   8.312 -0.1823 -0.0557  0.0733
  979SOL     OW14569   3.292   3.590   5.552  0.0628  0.8418  0.0107
  979SOL    HW114570   3.319   3.500   5.533 -2.2009  0.2363 -0.4049
  979SOL    HW214571   3.321   3.604   5.642 -0.4780  0.5313  0.2333
  980SOL     OW14572   1.617   2.349   5.373 -0.0185 -0.1271  0.0358
  980SOL    HW114573   1.636   2.368   5.465 -0.9318  1.6982 -0.1415
  980SOL    HW214574   1.530   2.389   5.383  0.5905  2.1010 -3.6964
  981SOL     OW14575   0.220   2.698   9.476 -0.0878 -0.1897 -0.2538
  981SOL    HW114576   0.256   2.613   9.450 -3.1847 -1.4000 -0.5841
  981SOL    HW214577   0.154   2.670   9.539 -4.0294  1.2817 -3.7277
  982SOL     OW14578   0.806   1.065   2.882  0.6244 -0.2351 -0.5547
  982SOL    HW114579   0.860   1.134   2.846  0.3267 -0.9347 -2.3284
  982SOL    HW214580   0.809   1.090   2.975 -0.4586 -0.2824 -0.4983
  983SOL     OW14581   3.375   1.821   2.801  0.5232  0.0815 -0.3587
  983SOL    HW114582   3.348   1.841   2.712 -2.7192  1.2487  0.9128
  983SOL    HW214583   3.348   1.904   2.841  2.0963  0.1142  0.6520
  984SOL     OW14584   0.862   1.634  13.770 -0.0994 -0.2930 -0.4808
  984SOL    HW114585   0.809   1.706  13.734 -3.8641 -1.8924  1.8570
  984SOL    HW214586   0.898   1.597  13.689  1.2854 -0.7654  0.3546
  985SOL     OW14587   4.220   0.005   5.609 -0.1743  0.5610  0.1160
  985SOL    HW114588   4.182   4.667   5.658  1.3338 -0.2054  0.1356
  985SOL    HW214589   4.280   0.038   5.676 -0.1407 -0.6588  0.7046
  986SOL     OW14590   0.447   1.676   6.588 -0.5754 -0.3665  0.3521
  986SOL    HW114591   0.379   1.738   6.561 -0.1489  0.3252  0.8620
  986SOL    HW214592   0.400   1.618   6.648  0.7346 -1.7350  0.0588
  987SOL     OW14593   1.205   3.006   8.747  0.5665  0.3107  0.4659
  987SOL    HW114594   1.145   3.032   8.676 -0.2256 -2.3131  0.1398
  987SOL    HW214595   1.159   3.055   8.815 -1.2714  1.4825 -1.6077
  988SOL     OW14596   2.658   2.773  13.353  0.2868 -0.3692  0.6526
  988SOL    HW114597   2.669   2.861  13.317 -0.3895 -0.1888  0.8957
  988SOL    HW214598   2.731   2.723  13.318  0.3230 -0.5590  0.9966
  989SOL     OW14599   1.590   1.449  17.245  0.1411  0.2282 -0.0312
  989SOL    HW114600   1.638   1.529  17.268  3.3635 -1.7849  0.2673
  989SOL    HW214601   1.652   1.409  17.184  0.4105 -0.7904  0.9221
  990SOL     OW14602   3.368   3.252   2.082  0.3312  0.1618 -0.1175
  990SOL    HW114603   3.324   3.330   2.116 -0.6452  0.4343 -2.0281
  990SOL    HW214604   3.448   3.268   2.133 -0.7255  0.8628  1.3194
  991SOL     OW14605   2.237   3.026   5.705 -0.1560 -0.1096 -0.0364
  991SOL    HW114606   2.241   2.945   5.757 -0.6451 -0.7671 -1.0275
  991SOL    HW214607   2.158   3.071   5.735 -0.5982 -0.6130 -0.4407
  992SOL     OW14608   3.952   4.343   5.572  0.1176  0.5617  0.3263
  992SOL    HW114609   3.949   4.252   5.544  1.3111  0.4004  0.7265
  992SOL    HW214610   3.947   4.386   5.487 -2.1115  0.3668  0.3668
  993SOL     OW14611   2.302   2.344   5.713 -0.2743  0.2075  0.4887
  993SOL    HW114612   2.360   2.356   5.788 -0.9012  1.8248  0.7189
  993SOL    HW214613   2.291   2.249   5.710 -2.0040  0.3833  1.0486
  994SOL     OW14614   4.390   2.135   5.190  0.0424 -0.4972 -0.2276
  994SOL    HW114615   4.479   2.124   5.158 -0.1322  0.3836 -1.0290
  994SOL    HW214616   4.353   2.196   5.125 -0.6591  1.0784  1.6376
  995SOL     OW14617   4.639   2.811   7.224  0.4435  0.4057  0.2517
  995SOL    HW114618   4.636   2.805   7.128  0.1794  0.5759  0.2509
  995SOL    HW214619   4.571   2.872   7.250  0.4088  0.9387 -1.1005
  996SOL     OW14620   1.618   0.348   7.379  0.3382 -0.4059 -0.1440
  996SOL    HW114621   1.672   0.331   7.302  0.3159  1.2390 -0.5198
  996SOL    HW214622   1.619   0.443   7.386  0.1625 -0.6601  3.2797
  997SOL     OW14623   0.916   4.495   1.758 -0.0988  0.4560  0.3037
  997SOL    HW114624   0.966   4.471   1.836  2.2848  0.3769 -1.2911
  997SOL    HW214625   0.942   4.586   1.740  0.9519  0.2996  1.0129
  998SOL     OW14626   2.965   3.491  11.981 -0.3141  0.3234  0.0115
  998SOL    HW114627   2.870   3.488  11.973 -0.5091  2.3801  1.3403
  998SOL    HW214628   2.973   3.536  12.065 -1.0305 -2.3432  1.4999
  999SOL     OW14629   2.162   4.330   9.773  0.3301 -0.4368 -0.6082
  999SOL    HW114630   2.134   4.378   9.852  1.2532  0.0967 -0.6054
  999SOL    HW214631   2.146   4.241   9.804  0.9241 -0.7373 -1.1796
 1000SOL     OW14632   4.469   1.716  15.835  0.0012  0.5112 -0.2049
 1000SOL    HW114633   4.492   1.633  15.878 -0.9908  0.0286 -0.5998
 1000SOL    HW214634   4.516   1.704  15.753 -0.9871 -0.6293 -0.6117
 1001SOL     OW14635   4.676   0.595  16.632  0.4710  0.3056 -0.5153
 1001SOL    HW114636   4.681   0.628  16.722 -0.6232 -0.2872 -0.2240
 1001SOL    HW214637   0.023   0.622  16.593  0.6878 -0.5955 -0.6919
 1002SOL     OW14638   3.050   1.117   2.043 -0.2270 -0.3502 -0.2860
 1002SOL    HW114639   3.055   1.180   1.971 -3.9918  1.4638  1.0404
 1002SOL    HW214640   2.984   1.061   2.002 -1.7182  0.7762  0.5995
 1003SOL     OW14641   0.082   4.366   5.011 -0.0207  0.0493 -0.8804
 1003SOL    HW114642   0.018   4.328   5.070 -2.2107  0.4257 -3.0248
 1003SOL    HW214643   0.170   4.372   5.050 -0.6037 -0.8448  0.5597
 1004SOL     OW14644   0.769   1.656  12.814 -0.5177 -0.4098 -0.5611
 1004SOL    HW114645   0.820   1.600  12.756  2.5947  0.5031  1.3226
 1004SOL    HW214646   0.724   1.592  12.870  2.4290 -1.2515  0.8249
 1005SOL     OW14647   4.540   0.621  10.611 -0.6434  0.5800  1.0287
 1005SOL    HW114648   4.501   0.693  10.660  2.2408  1.8999  1.4254
 1005SOL    HW214649   4.497   0.630  10.526 -0.3316 -0.0748  0.8005
 1006SOL     OW14650   4.149   4.413  17.211  0.3231  0.3172 -0.0369
 1006SOL    HW114651   4.238   4.420  17.175  0.7993 -1.7944  0.7043
 1006SOL    HW214652   4.097   4.471  17.156  2.7352  1.2591 -1.3540
 1007SOL     OW14653   1.150   2.253  10.866  0.5205  0.3911  0.0033
 1007SOL    HW114654   1.230   2.221  10.908  1.3156  0.4518 -1.4750
 1007SOL    HW214655   1.150   2.338  10.910 -0.2298  1.7277 -2.6199
 1008SOL     OW14656   2.478   1.598   0.389 -0.4701 -0.3209 -0.3264
 1008SOL    HW114657   2.406   1.558   0.436 -0.4406 -1.0742 -0.9241
 1008SOL    HW214658   2.541   1.526   0.396 -0.4661 -0.3370 -0.5359
 1009SOL     OW14659   0.003   2.429   7.183 -0.0195  0.2084  0.0255
 1009SOL    HW114660   4.667   2.366   7.196  0.6157 -0.9350 -2.0685
 1009SOL    HW214661   4.728   2.499   7.248 -0.4505  0.4456 -0.3004
 1010SOL     OW14662   0.597   1.976   2.566 -0.3112 -0.4753  0.2752
 1010SOL    HW114663   0.632   1.898   2.524 -1.5120  0.2194 -1.9653
 1010SOL    HW214664   0.502   1.972   2.553 -0.0761  0.4387 -1.6001
 1011SOL     OW14665   4.488   2.902  10.481  0.2718  0.1512 -0.0779
 1011SOL    HW114666   4.457   2.827  10.531 -0.4653  0.0558 -0.6638
 1011SOL    HW214667   4.405   2.936  10.446 -0.5651 -0.8978  0.8868
 1012SOL     OW14668   2.284   1.206   7.710 -0.0827 -0.1284  0.7233
 1012SOL    HW114669   2.225   1.253   7.768  0.0802  0.6690  0.2495
 1012SOL    HW214670   2.299   1.132   7.768 -2.3236  1.1484  2.9328
 1013SOL     OW14671   0.335   0.086   8.080  0.0247  0.1816  0.4988
 1013SOL    HW114672   0.351   0.049   7.993  0.1905  0.3942  0.4394
 1013SOL    HW214673   0.265   0.030   8.113  0.4632 -2.0982 -2.4970
 1014SOL     OW14674   4.053   2.790   8.849 -0.1404 -0.1690  0.6930
 1014SOL    HW114675   4.092   2.705   8.867 -1.7274 -0.5915  2.1841
 1014SOL    HW214676   4.030   2.772   8.758 -0.4524  0.0025  0.7364
 1015SOL     OW14677   0.295   0.823   2.387  0.0528 -0.0329  0.1261
 1015SOL    HW114678   0.390   0.834   2.377  0.0070  0.2839  0.0293
 1015SOL    HW214679   0.294   0.730   2.365  0.3767 -0.3106  1.2564
 1016SOL     OW14680   2.293   2.485   3.507 -0.8361  0.3108 -0.1460
 1016SOL    HW114681   2.371   2.472   3.562 -0.8111  0.4090 -0.1580
 1016SOL    HW214682   2.338   2.516   3.428 -0.0878 -2.3091 -0.7741
 1017SOL     OW14683   4.161   1.851   3.376  0.3017 -0.4443 -0.1118
 1017SOL    HW114684   4.257   1.847   3.375  0.4406  2.5003 -0.0839
 1017SOL    HW214685   4.147   1.942   3.350  0.0815 -0.4186  0.1054
 1018SOL     OW14686   4.618   4.169   5.638 -0.3578  0.1916 -0.1434
 1018SOL    HW114687   4.549   4.212   5.588 -0.0457 -1.2192 -1.7780
 1018SOL    HW214688   4.689   4.212   5.591  2.1446 -4.1978 -0.3707
 1019SOL     OW14689   1.021   2.745  12.415 -0.5044  0.1449  0.1506
 1019SOL    HW114690   1.050   2.663  12.454  2.0697 -0.1258 -2.2707
 1019SOL    HW214691   1.051   2.745  12.324  1.5819  3.4248  0.8248
 1020SOL     OW14692   3.279   1.069   0.459 -0.1083  0.2641 -0.0409
 1020SOL    HW114693   3.281   0.997   0.396 -0.9848  1.2635 -1.1937
 1020SOL    HW214694   3.367   1.103   0.441 -0.2250  0.5303 -0.1091
 1021SOL     OW14695   2.568   2.086   1.058 -0.6360  0.3256  0.0594
 1021SOL    HW114696   2.571   2.052   1.148  2.0179 -1.5578 -0.7384
 1021SOL    HW214697   2.659   2.115   1.048 -0.9709  1.6506  0.8432
 1022SOL     OW14698   3.933   2.160  17.123 -0.0947 -0.2523  0.1834
 1022SOL    HW114699   3.867   2.091  17.132  0.2911 -0.6528 -0.0444
 1022SOL    HW214700   3.961   2.125  17.038  1.4484  0.8375  0.2474
 1023SOL     OW14701   0.257   0.666   1.042  0.5060 -0.3439 -0.1995
 1023SOL    HW114702   0.209   0.656   1.124 -0.1779 -1.2433 -0.7082
 1023SOL    HW214703   0.240   0.760   1.034  0.8608 -0.3793 -1.3982
 1024SOL     OW14704   1.725   1.188   8.250 -0.2940  0.4301 -0.0490
 1024SOL    HW114705   1.818   1.179   8.272 -0.6221 -1.3290  0.6617
 1024SOL    HW214706   1.685   1.129   8.315 -1.0775 -0.6323 -1.4792
 1025SOL     OW14707   3.062   1.473   7.515  0.1305  0.1672 -0.0164
 1025SOL    HW114708   3.003   1.543   7.488 -0.8575 -1.1285 -1.2250
 1025SOL    HW214709   3.038   1.459   7.606  0.1779 -1.1358 -0.1999
 1026SOL     OW14710   0.801   3.610  15.281 -0.3751 -0.3333 -0.1468
 1026SOL    HW114711   0.880   3.665  15.276 -0.7132 -0.0096 -2.2315
 1026SOL    HW214712   0.785   3.564  15.199 -0.8974  0.4095 -0.4642
 1027SOL     OW14713   4.397   2.593  12.765 -0.3841  0.0048  0.4748
 1027SOL    HW114714   4.465   2.657  12.743 -3.3680  2.8272 -0.3847
 1027SOL    HW214715   4.454   2.551  12.830  0.5837  3.2204  1.7085
 1028SOL     OW14716   3.816   3.697   6.566 -0.0187  0.1129  0.2510
 1028SOL    HW114717   3.814   3.791   6.549 -1.1600  0.1903  0.7803
 1028SOL    HW214718   3.755   3.667   6.499  0.0793  3.0416 -1.1254
 1029SOL     OW14719   2.025   3.905   3.332 -0.0666 -0.1121  0.0492
 1029SOL    HW114720   2.022   3.825   3.280 -0.4415  0.4295 -0.7745
 1029SOL    HW214721   2.118   3.925   3.330 -0.1115  0.0404 -0.6304
 1030SOL     OW14722   3.195   0.730   9.400 -0.2799  0.0765  0.3398
 1030SOL    HW114723   3.119   0.777   9.433  1.8282  2.2660  2.0851
 1030SOL    HW214724   3.198   0.664   9.470  0.3194 -1.2689 -0.9637
 1031SOL     OW14725   2.664   0.028   0.831  0.3135  0.6985  0.1848
 1031SOL    HW114726   2.681   0.039   0.737  1.9912  1.2350  0.5477
 1031SOL    HW214727   2.673   0.121   0.853 -0.3215  0.3038  2.0367
 1032SOL     OW14728   2.286   0.936   7.898 -0.2519  0.4074 -0.6663
 1032SOL    HW114729   2.206   0.982   7.875 -1.4754 -1.3941 -0.0247
 1032SOL    HW214730   2.255   0.851   7.929  2.7526 -1.1699 -1.9904
 1033SOL     OW14731   4.312   2.181  14.464  0.0301  0.1197  0.6133
 1033SOL    HW114732   4.283   2.090  14.462 -2.1851  0.8413  0.1217
 1033SOL    HW214733   4.381   2.177  14.398  0.6447 -1.8022  1.3855
 1034SOL     OW14734   1.455   4.706  14.922  0.1321  0.2718  0.1442
 1034SOL    HW114735   1.366   4.734  14.904 -1.4763 -4.1368  1.1585
 1034SOL    HW214736   1.484   4.707  14.831  0.5285  0.1589  0.2673
 1035SOL     OW14737   2.942   2.472  14.206  0.3914 -0.0403  0.1048
 1035SOL    HW114738   2.870   2.415  14.235 -0.2371  0.1884 -0.9946
 1035SOL    HW214739   3.011   2.460  14.270  0.8393  2.9047  0.1774
 1036SOL     OW14740   0.581   2.815   4.470 -0.2406  0.1948  0.0078
 1036SOL    HW114741   0.526   2.808   4.393 -1.2311 -1.4349  0.8530
 1036SOL    HW214742   0.521   2.816   4.545 -1.8056 -0.1584 -1.2414
 1037SOL     OW14743   1.024   3.094   8.539  0.6063  0.5779  0.2811
 1037SOL    HW114744   0.958   3.163   8.539 -1.4272 -1.3555 -0.4794
 1037SOL    HW214745   1.074   3.118   8.462 -1.0027  1.4605 -0.4766
 1038SOL     OW14746   1.483   0.117  15.151 -0.1546 -0.2701  0.1785
 1038SOL    HW114747   1.550   0.183  15.136 -0.8296  0.5648  0.8578
 1038SOL    HW214748   1.481   0.073  15.066  0.7299 -0.2301  0.1383
 1039SOL     OW14749   0.480   4.373   6.430  0.2285  0.9609 -0.0049
 1039SOL    HW114750   0.533   4.297   6.406  0.1651  0.4340  1.5079
 1039SOL    HW214751   0.423   4.338   6.499  1.0891 -1.6928 -0.6465
 1040SOL     OW14752   1.763   4.486   2.231  0.2948  0.3335 -0.3104
 1040SOL    HW114753   1.841   4.440   2.202 -0.7042 -1.9765  0.6938
 1040SOL    HW214754   1.789   4.494   2.323  1.5215  1.1755 -0.7320
 1041SOL     OW14755   2.133   0.337   7.157 -0.1978 -0.1796 -0.9321
 1041SOL    HW114756   2.076   0.409   7.182  2.1637  1.2331  0.3482
 1041SOL    HW214757   2.184   0.390   7.095  4.3280 -0.8160  2.3234
 1042SOL     OW14758   2.775   1.263  15.401  0.3011  0.6623 -0.2431
 1042SOL    HW114759   2.832   1.286  15.327  0.5595 -1.9702 -0.8516
 1042SOL    HW214760   2.784   1.336  15.463 -1.0898  1.1440 -0.6066
 1043SOL     OW14761   2.808   4.124  10.591  0.5349  0.1589 -0.5610
 1043SOL    HW114762   2.864   4.188  10.547 -0.7771  0.0217 -2.4420
 1043SOL    HW214763   2.825   4.046  10.539  1.9848 -0.4903  0.9022
 1044SOL     OW14764   3.511   2.181  13.276 -0.3904  0.7466 -0.5085
 1044SOL    HW114765   3.592   2.186  13.327  0.4707 -1.5878 -1.6549
 1044SOL    HW214766   3.491   2.088  13.275  1.4496  0.3603 -0.2173
 1045SOL     OW14767   3.664   1.025   2.058 -1.0382  0.0712 -0.1927
 1045SOL    HW114768   3.603   0.954   2.081 -2.8820  1.9421  0.7161
 1045SOL    HW214769   3.644   1.031   1.964 -1.4017 -0.6144 -0.1611
 1046SOL     OW14770   3.043   2.950  10.526  0.2228  0.3187 -0.2339
 1046SOL    HW114771   2.980   2.998  10.579  1.8549  2.1099  0.0841
 1046SOL    HW214772   3.094   3.027  10.499  1.7163 -1.5434 -2.6670
 1047SOL     OW14773   0.956   1.332   3.925  0.2896 -0.0370  0.2083
 1047SOL    HW114774   1.006   1.413   3.936 -1.5249  1.4687 -2.7323
 1047SOL    HW214775   1.017   1.258   3.935 -1.0167 -1.3525 -1.4764
 1048SOL     OW14776   0.533   0.234   8.165 -0.1370 -0.2326  0.7261
 1048SOL    HW114777   0.449   0.209   8.126 -0.1882  1.3956 -0.1998
 1048SOL    HW214778   0.527   0.326   8.191 -0.6050  0.0919 -0.5164
 1049SOL     OW14779   0.290   0.710   4.963  0.2681 -0.1771 -0.4947
 1049SOL    HW114780   0.280   0.764   5.041  0.5308 -1.3548  0.3666
 1049SOL    HW214781   0.243   0.635   5.000 -1.3601 -0.3257 -2.8552
 1050SOL     OW14782   1.998   1.160   1.818 -0.0100 -0.2078  0.2366
 1050SOL    HW114783   2.070   1.132   1.761 -1.0104 -1.9923 -0.1480
 1050SOL    HW214784   2.030   1.249   1.835  1.0703 -0.7284  0.9102
 1051SOL     OW14785   2.910   2.261   8.117 -0.0237  0.5769  0.1396
 1051SOL    HW114786   2.964   2.256   8.038 -1.2328  0.6281 -0.6797
 1051SOL    HW214787   2.975   2.280   8.185  0.5963 -3.0767  0.5606
 1052SOL     OW14788   3.897   0.432  17.187 -0.3155  0.6212 -0.5398
 1052SOL    HW114789   3.843   0.490  17.241  0.7583 -0.9762  2.2531
 1052SOL    HW214790   3.860   0.452  17.101  2.0746 -0.8030 -1.8877
 1053SOL     OW14791   1.896   0.073  14.826  0.6960 -0.4428  0.0904
 1053SOL    HW114792   1.843   0.043  14.752 -0.5033 -0.7660  1.0944
 1053SOL    HW214793   1.875   0.166  14.826  0.5914 -0.4676  0.5114
 1054SOL     OW14794   3.192   2.405   6.160  0.0061 -0.3783 -0.3073
 1054SOL    HW114795   3.142   2.399   6.079 -1.9616 -1.5625  1.0112
 1054SOL    HW214796   3.172   2.316   6.188 -0.4133 -0.1734  0.0376
 1055SOL     OW14797   0.213   1.683   7.542 -0.0295  0.4282  0.0676
 1055SOL    HW114798   0.197   1.668   7.449 -1.3856 -2.0613  0.6999
 1055SOL    HW214799   0.252   1.599   7.568  2.7365  1.6035 -0.3381
 1056SOL     OW14800   1.942   3.260   8.478 -0.4662  0.2254  0.4257
 1056SOL    HW114801   1.884   3.186   8.458 -0.2624 -0.5542  2.7750
 1056SOL    HW214802   1.876   3.328   8.480  1.1112  1.6932  2.3489
 1057SOL     OW14803   4.223   0.970   3.330 -0.2477  0.2495 -0.1233
 1057SOL    HW114804   4.239   0.937   3.419  2.6802 -2.1234 -1.5455
 1057SOL    HW214805   4.190   1.057   3.350  0.3589  0.6879 -1.0623
 1058SOL     OW14806   2.119   4.188   6.356 -0.0409 -0.4018  0.2338
 1058SOL    HW114807   2.110   4.255   6.288 -0.7534 -1.7385 -0.9818
 1058SOL    HW214808   2.107   4.243   6.434  0.4921  0.9603 -0.6502
 1059SOL     OW14809   3.049   2.358  11.886  0.2289  0.1972  0.0688
 1059SOL    HW114810   3.049   2.272  11.843 -0.2464 -0.3805  1.2093
 1059SOL    HW214811   3.142   2.377  11.885  0.3113 -0.2037 -0.0235
 1060SOL     OW14812   1.726   0.146   3.026  0.3385 -0.0156 -0.6818
 1060SOL    HW114813   1.680   0.198   3.092  1.1087  2.4642 -2.1034
 1060SOL    HW214814   1.687   0.058   3.026 -3.0967  1.4941  0.6038
 1061SOL     OW14815   0.201   1.489  15.893  0.1787 -1.2920  0.0060
 1061SOL    HW114816   0.135   1.556  15.914  0.4560 -1.4600  1.4151
 1061SOL    HW214817   0.186   1.422  15.960 -1.4538  0.0005  0.9500
 1062SOL     OW14818   0.460   3.483  10.302  0.4192 -0.0140  0.1992
 1062SOL    HW114819   0.375   3.523  10.320 -0.5418 -1.9382 -0.0270
 1062SOL    HW214820   0.452   3.395  10.341  3.7944 -0.0753  0.7830
 1063SOL     OW14821   3.808   1.963   1.237 -0.4889 -0.5561  0.4641
 1063SOL    HW114822   3.732   2.016   1.260  0.0996  0.1607  0.7392
 1063SOL    HW214823   3.817   1.965   1.142 -2.6466  2.2273  0.3182
 1064SOL     OW14824   3.616   2.404   2.361  0.6481  0.7184  0.3627
 1064SOL    HW114825   3.617   2.465   2.435  0.8371  0.5035  0.5362
 1064SOL    HW214826   3.621   2.328   2.418 -0.0776  0.8941  0.6588
 1065SOL     OW14827   2.307   4.511   9.498 -0.7281  0.0494 -0.1798
 1065SOL    HW114828   2.288   4.518   9.404  1.6836 -0.6125 -0.7359
 1065SOL    HW214829   2.218   4.495   9.529 -0.3669  0.7763  1.2326
 1066SOL     OW14830   2.779   2.267  14.770 -0.0797 -0.6341 -0.1981
 1066SOL    HW114831   2.759   2.186  14.722  0.0958 -0.1110 -1.1496
 1066SOL    HW214832   2.811   2.323  14.700  2.0407 -2.4462 -0.7017
 1067SOL     OW14833   0.879   2.959   7.645  0.0166 -0.4109  0.1677
 1067SOL    HW114834   0.799   2.911   7.624 -0.3038  1.1105 -2.1137
 1067SOL    HW214835   0.923   2.920   7.721 -0.2299 -0.1380  0.4493
 1068SOL     OW14836   1.947   4.221   6.722 -0.0173  0.1581  0.2648
 1068SOL    HW114837   1.876   4.190   6.665  1.6653 -1.0128 -1.1943
 1068SOL    HW214838   1.975   4.300   6.677  2.5965  1.5262  4.2985
 1069SOL     OW14839   4.633   4.501  13.796  0.5025  0.5913  0.4845
 1069SOL    HW114840   4.602   4.495  13.706  0.2252  0.2511  0.6024
 1069SOL    HW214841   4.671   4.413  13.802  1.9391  1.1239 -0.7679
 1070SOL     OW14842   1.179   2.821  10.473  0.1569  0.4965  0.2665
 1070SOL    HW114843   1.112   2.767  10.514 -0.3035 -0.2010 -1.3744
 1070SOL    HW214844   1.257   2.773  10.501  0.5706 -0.4353 -2.4643
 1071SOL     OW14845   0.434   2.023   1.190  0.5540 -0.7255  0.5970
 1071SOL    HW114846   0.376   1.957   1.151  0.8482 -0.4670 -0.2782
 1071SOL    HW214847   0.400   2.026   1.279 -1.9596  3.0437 -0.5202
 1072SOL     OW14848   0.741   4.254   9.110 -0.6828  0.6048 -0.1748
 1072SOL    HW114849   0.804   4.322   9.088 -0.9410  0.6609 -0.7417
 1072SOL    HW214850   0.728   4.216   9.023  1.9409 -0.7576  0.0331
 1073SOL     OW14851   2.146   2.599   3.180  0.7894 -0.0714 -0.6671
 1073SOL    HW114852   2.174   2.636   3.264 -0.0883  0.0245 -0.4206
 1073SOL    HW214853   2.176   2.508   3.189  2.4781  0.7708  2.5541
 1074SOL     OW14854   4.147   1.134   2.145  0.1255  0.1673 -0.3306
 1074SOL    HW114855   4.074   1.073   2.141 -0.3486  0.6154  1.2765
 1074SOL    HW214856   4.129   1.169   2.233 -2.7104  2.9939 -2.0590
 1075SOL     OW14857   2.466   0.895   8.640 -0.0194  1.2155 -0.0912
 1075SOL    HW114858   2.516   0.820   8.673  1.0131  1.2206 -1.6625
 1075SOL    HW214859   2.415   0.838   8.584 -0.5356 -0.6237  2.2707
 1076SOL     OW14860   3.495   1.890   7.530  0.5384 -0.3565  0.8309
 1076SOL    HW114861   3.544   1.877   7.449 -2.0489 -1.8093 -0.5089
 1076SOL    HW214862   3.410   1.854   7.502  1.0013 -1.1829  0.4969
 1077SOL     OW14863   4.058   4.663   7.669 -0.2467 -0.0137 -0.2856
 1077SOL    HW114864   4.035   4.597   7.604  0.9270 -0.0255 -0.6900
 1077SOL    HW214865   4.044   4.607   7.746  1.5146 -2.0319 -1.4194
 1078SOL     OW14866   3.654   3.373   1.829  0.7131  0.0379  0.1495
 1078SOL    HW114867   3.636   3.433   1.757 -0.4278 -0.8340 -0.2825
 1078SOL    HW214868   3.740   3.336   1.809 -0.5665 -2.7768 -0.1593
 1079SOL     OW14869   2.361   0.395   2.003  0.9691 -0.2016 -0.2052
 1079SOL    HW114870   2.270   0.406   2.030  1.4708 -1.2767  1.8999
 1079SOL    HW214871   2.356   0.300   1.991  1.9192 -0.3879  0.7836
 1080SOL     OW14872   1.668   2.414  17.667  0.3102 -0.4519  0.8482
 1080SOL    HW114873   1.629   2.491  17.626 -0.5602 -2.1156 -1.4285
 1080SOL    HW214874   1.661   2.356  17.592 -0.0322 -1.1616  1.4223
 1081SOL     OW14875   2.692   0.991  17.124 -0.0513  0.0606  0.3203
 1081SOL    HW114876   2.787   0.978  17.135  0.1466  1.0145 -0.3255
 1081SOL    HW214877   2.687   1.076  17.081  1.0295 -0.4341 -0.8112
 1082SOL     OW14878   1.129   2.593   7.566 -0.4903  0.0461 -0.2641
 1082SOL    HW114879   1.062   2.528   7.586  1.1986 -1.0163  1.9355
 1082SOL    HW214880   1.185   2.581   7.643  0.4223  0.5769 -0.8482
 1083SOL     OW14881   3.768   1.866   6.877 -0.3180  0.3698 -0.2631
 1083SOL    HW114882   3.812   1.791   6.836  1.3914  1.0754  0.2702
 1083SOL    HW214883   3.793   1.854   6.968  0.9472 -1.3741 -0.8314
 1084SOL     OW14884   4.184   1.262  15.327 -0.0411  0.2849  0.4392
 1084SOL    HW114885   4.154   1.297  15.411  3.0134 -0.4112  1.8072
 1084SOL    HW214886   4.279   1.262  15.332 -0.1366  1.7313  2.2866
 1085SOL     OW14887   1.637   0.553   9.482  0.5527 -0.3700 -0.0438
 1085SOL    HW114888   1.641   0.457   9.485 -0.1423 -0.4010 -0.0267
 1085SOL    HW214889   1.545   0.562   9.454  0.5296 -0.2443  0.0757
 1086SOL     OW14890   1.156   2.839  13.099  0.1192 -0.3058  0.0706
 1086SOL    HW114891   1.210   2.916  13.116 -1.0418  0.3591  0.7767
 1086SOL    HW214892   1.160   2.832  13.004  1.9874 -0.5347  0.1624
 1087SOL     OW14893   1.762   0.296   3.519  0.1706  0.6069  0.1030
 1087SOL    HW114894   1.806   0.228   3.569 -0.7406  1.1479  1.6645
 1087SOL    HW214895   1.819   0.306   3.443  0.5496 -0.6162  0.2270
 1088SOL     OW14896   3.283   2.342   1.763  0.4008  0.4755 -0.2603
 1088SOL    HW114897   3.244   2.392   1.834  1.0385  0.5191  0.0588
 1088SOL    HW214898   3.360   2.307   1.809 -0.9791 -2.2874 -0.0657
 1089SOL     OW14899   4.517   0.930  10.732  0.1436  0.4178  0.8818
 1089SOL    HW114900   4.594   0.952  10.783  0.1762  3.0539 -0.3160
 1089SOL    HW214901   4.460   0.919  10.808 -0.4808  3.2668  0.8257
 1090SOL     OW14902   2.296   1.881   4.836 -0.1350 -0.3870  0.5461
 1090SOL    HW114903   2.369   1.822   4.857 -1.9071 -2.6736  0.3402
 1090SOL    HW214904   2.226   1.823   4.806  0.3058 -0.9136  0.5379
 1091SOL     OW14905   3.526   0.048   4.021  0.5730 -0.0796  0.1922
 1091SOL    HW114906   3.560   0.078   3.936 -2.5947 -0.2061 -1.1371
 1091SOL    HW214907   3.441   0.091   4.028  0.1191 -1.0500  0.6511
 1092SOL     OW14908   4.693   0.549  15.376 -0.1359 -0.3443  0.1664
 1092SOL    HW114909   4.665   0.640  15.372  0.3554 -0.2249 -0.5666
 1092SOL    HW214910   4.639   0.509  15.307 -0.1629  1.3946 -0.7997
 1093SOL     OW14911   2.421   3.706   2.352  0.2543  0.1263  0.3838
 1093SOL    HW114912   2.453   3.742   2.434  3.1593 -1.1553 -0.1617
 1093SOL    HW214913   2.492   3.646   2.327 -1.2663 -0.9309 -1.4536
 1094SOL     OW14914   2.627   2.778   3.235  0.4598 -0.4026 -0.4680
 1094SOL    HW114915   2.672   2.718   3.174  2.4061  0.5092  0.0745
 1094SOL    HW214916   2.701   2.789   3.294  0.0012  0.9593 -0.1663
 1095SOL     OW14917   0.492   3.372  15.344  0.3539  0.4828  0.3481
 1095SOL    HW114918   0.421   3.323  15.386  3.4160 -0.7210  4.0935
 1095SOL    HW214919   0.463   3.373  15.253  0.9636 -0.4658  0.1477
 1096SOL     OW14920   0.804   0.527   2.238  0.6287  0.0856 -0.6763
 1096SOL    HW114921   0.744   0.453   2.249  0.7192  0.2485  0.9050
 1096SOL    HW214922   0.886   0.500   2.279 -0.4258  0.3507  1.5664
 1097SOL     OW14923   4.259   0.778   1.515  0.8475  0.4525  0.0240
 1097SOL    HW114924   4.350   0.761   1.540  0.1038 -0.5942  2.0233
 1097SOL    HW214925   4.227   0.688   1.523 -0.1485  0.8993  1.1172
 1098SOL     OW14926   2.239   1.124  15.605  0.5089 -0.2869  0.6718
 1098SOL    HW114927   2.210   1.163  15.523 -2.3969 -1.7700  1.0019
 1098SOL    HW214928   2.161   1.075  15.632 -1.2436  2.1061  0.0469
 1099SOL     OW14929   3.630   0.497   7.118 -0.5419 -0.6015  0.1161
 1099SOL    HW114930   3.653   0.410   7.150  0.0331 -0.6175 -0.3204
 1099SOL    HW214931   3.594   0.531   7.200  1.4444  3.1965 -0.5720
 1100SOL     OW14932   4.610   1.095   8.515  0.2631  0.8253 -0.1241
 1100SOL    HW114933   4.547   1.147   8.565  0.0753 -0.8973  1.4109
 1100SOL    HW214934   4.698   1.124   8.539 -1.3417  4.2723  1.5454
 1101SOL     OW14935   3.289   3.533   2.117 -0.1164 -0.0961 -0.2628
 1101SOL    HW114936   3.268   3.624   2.136 -0.0214 -0.3578  1.1035
 1101SOL    HW214937   3.288   3.521   2.022  0.3520  1.1207 -0.4096
 1102SOL     OW14938   3.714   2.476   5.682  0.2252  0.0500 -0.1678
 1102SOL    HW114939   3.757   2.539   5.740  1.2769 -0.5190 -0.3295
 1102SOL    HW214940   3.710   2.540   5.610 -1.2965 -0.9750 -0.9966
 1103SOL     OW14941   4.514   1.836  16.254  0.3111  0.0226  0.1434
 1103SOL    HW114942   4.427   1.820  16.218 -0.4332  4.2336  0.0742
 1103SOL    HW214943   4.515   1.827  16.349 -0.2979  3.2205  0.4575
 1104SOL     OW14944   0.567   1.313  17.334  0.2964 -0.8829  0.3581
 1104SOL    HW114945   0.475   1.318  17.357  0.0110 -1.5863 -0.6205
 1104SOL    HW214946   0.611   1.328  17.418 -0.3796 -2.1564  0.9265
 1105SOL     OW14947   3.636   4.551   4.717 -0.3215  0.1049 -0.1162
 1105SOL    HW114948   3.666   4.586   4.800  4.1507 -0.1610 -1.6430
 1105SOL    HW214949   3.556   4.601   4.697  0.6271  1.3918 -0.6689
 1106SOL     OW14950   2.377   2.776   6.455  0.3344 -0.1239 -0.5881
 1106SOL    HW114951   2.288   2.798   6.482  0.8712  1.0649  0.2453
 1106SOL    HW214952   2.384   2.841   6.385 -0.8887  0.8385  0.1865
 1107SOL     OW14953   0.833   3.778   5.910  0.3516  0.1559  0.1625
 1107SOL    HW114954   0.848   3.747   5.821 -0.8093 -0.0316  0.0378
 1107SOL    HW214955   0.801   3.699   5.953 -1.4864  0.8033 -0.0008
 1108SOL     OW14956   3.133   0.436  16.068  0.0230 -0.4171 -0.3701
 1108SOL    HW114957   3.136   0.361  16.128  0.2973 -0.7572 -0.8131
 1108SOL    HW214958   3.226   0.456  16.063 -0.2190  0.9622  0.3984
 1109SOL     OW14959   4.136   0.768   8.614 -0.4314 -0.0768  0.0640
 1109SOL    HW114960   4.218   0.782   8.662 -1.0893  0.8301  0.8876
 1109SOL    HW214961   4.097   0.855   8.606 -1.4093 -0.4199  1.2542
 1110SOL     OW14962   3.998   0.821  17.348 -0.4931 -0.3230 -0.8786
 1110SOL    HW114963   3.986   0.834  17.442  1.9326  1.9407 -0.8935
 1110SOL    HW214964   3.918   0.772  17.331 -0.4177 -0.4880 -0.7548
 1111SOL     OW14965   3.424   3.791   1.286 -0.4874 -0.4699 -0.5624
 1111SOL    HW114966   3.379   3.780   1.202  2.4512 -2.2052 -1.9258
 1111SOL    HW214967   3.491   3.722   1.284 -1.0342 -1.0874  2.7906
 1112SOL     OW14968   0.340   4.390  10.868 -0.8370 -0.1938  0.0483
 1112SOL    HW114969   0.260   4.379  10.817  0.0309 -1.5415 -1.0142
 1112SOL    HW214970   0.386   4.462  10.827  0.0497 -1.3003 -0.8895
 1113SOL     OW14971   0.994   0.308  17.005 -0.0019 -0.6972  0.1506
 1113SOL    HW114972   1.022   0.267  17.087 -1.3534  2.1677  2.0322
 1113SOL    HW214973   0.901   0.290  17.019  0.0250 -1.4472 -0.6629
 1114SOL     OW14974   3.157   2.225   3.934  0.0521 -0.0367 -0.1022
 1114SOL    HW114975   3.123   2.154   3.880  3.9089 -2.2700  0.4627
 1114SOL    HW214976   3.084   2.222   3.997 -0.7173 -2.2620 -1.0974
 1115SOL     OW14977   4.005   1.936  17.495  0.0606 -0.0970 -0.6477
 1115SOL    HW114978   3.935   1.985  17.451  0.3417 -0.7379 -1.8138
 1115SOL    HW214979   4.010   1.997  17.569  0.8230 -2.6357  1.3571
 1116SOL     OW14980   3.310   4.527   3.223  0.2299  0.1154  0.0597
 1116SOL    HW114981   3.327   4.546   3.131 -0.2347  0.9875  0.1509
 1116SOL    HW214982   3.215   4.517   3.224  0.3667 -1.0883  0.2205
 1117SOL     OW14983   0.969   2.649  13.126  0.0900 -0.6676  0.1692
 1117SOL    HW114984   1.035   2.715  13.102 -0.1638 -1.1668 -1.8603
 1117SOL    HW214985   1.030   2.580  13.152  1.5277  0.0639 -1.2485
 1118SOL     OW14986   0.729   2.958   0.249 -0.2829  0.5802 -0.2825
 1118SOL    HW114987   0.761   2.943   0.338  2.4370 -1.2773 -1.5735
 1118SOL    HW214988   0.788   2.901   0.199 -1.0645 -0.3662 -0.1442
 1119SOL     OW14989   0.641   2.481   4.100  1.0937  0.2512  0.1599
 1119SOL    HW114990   0.602   2.568   4.097 -2.1394 -1.2759 -2.6194
 1119SOL    HW214991   0.700   2.487   4.025  1.6595  0.4390  0.6232
 1120SOL     OW14992   2.598   2.262   1.881  0.2822  0.2060  0.2428
 1120SOL    HW114993   2.605   2.224   1.969 -1.1523  0.1886  0.3337
 1120SOL    HW214994   2.547   2.191   1.841  2.3367 -1.0223 -0.2419
 1121SOL     OW14995   0.464   2.948   6.463  0.4807 -0.1761  0.2043
 1121SOL    HW114996   0.424   3.033   6.443 -1.4391 -0.6756  1.8803
 1121SOL    HW214997   0.472   2.911   6.375 -0.0174 -0.8532  0.4434
 1122SOL     OW14998   3.681   2.165   5.308  0.0333 -0.0109 -0.4715
 1122SOL    HW114999   3.590   2.191   5.302  0.0324 -0.0746 -0.7783
 1122SOL    HW215000   3.730   2.247   5.312 -0.2830  0.1225  0.6149
 1123SOL     OW15001   0.168   2.435   6.975  0.3774  0.0987  0.1916
 1123SOL    HW115002   0.110   2.428   7.051  0.0709 -0.9557 -0.1480
 1123SOL    HW215003   0.227   2.501   7.011  1.3932 -0.3686 -0.6552
 1124SOL     OW15004   3.952   3.099   6.619 -0.4797  0.1306 -0.8703
 1124SOL    HW115005   3.933   3.032   6.554  2.2512 -0.9665 -0.5457
 1124SOL    HW215006   3.966   3.039   6.693  0.3239  1.6129  0.1903
 1125SOL     OW15007   4.732   4.511   9.452  0.8484  0.7124  0.0073
 1125SOL    HW115008   0.075   4.458   9.459  1.0717  0.9980 -0.3220
 1125SOL    HW215009   0.026   4.600   9.474 -1.4608  1.2715  0.8832
 1126SOL     OW15010   2.755   2.802   5.918  0.8267 -0.0194  0.1906
 1126SOL    HW115011   2.731   2.727   5.973 -0.2313  0.6503  0.6383
 1126SOL    HW215012   2.690   2.867   5.944  1.0643  0.0553  0.5976
 1127SOL     OW15013   0.030   4.072   9.776 -0.2516 -0.8551  0.7387
 1127SOL    HW115014   0.050   4.025   9.858 -2.0685 -1.8963  0.5781
 1127SOL    HW215015   0.121   4.086   9.751 -0.5663  2.1149  1.2439
 1128SOL     OW15016   3.282   2.246   7.223  0.2438  0.2938 -0.1205
 1128SOL    HW115017   3.252   2.184   7.289 -1.0894  1.5669  0.4684
 1128SOL    HW215018   3.282   2.329   7.271 -1.7161 -0.0884  0.5306
 1129SOL     OW15019   3.681   2.518  16.768 -0.2065 -0.0354 -0.2476
 1129SOL    HW115020   3.741   2.488  16.837  0.7820  0.5650 -0.8470
 1129SOL    HW215021   3.597   2.521  16.814 -1.0813 -0.0852 -1.8656
 1130SOL     OW15022   0.129   1.188   8.600  0.2289 -0.3099  0.3424
 1130SOL    HW115023   0.078   1.249   8.654 -1.6482 -0.3417 -1.3645
 1130SOL    HW215024   0.206   1.170   8.654  0.1480 -0.1267  0.5244
 1131SOL     OW15025   4.191   0.003   8.202  0.9097 -0.2750 -0.1966
 1131SOL    HW115026   4.220   0.094   8.209  1.3060 -0.3863 -0.3827
 1131SOL    HW215027   4.228   4.708   8.285  0.8864 -0.3059 -0.1977
 1132SOL     OW15028   2.304   4.018   8.306  0.3090 -0.1314 -0.6091
 1132SOL    HW115029   2.375   3.974   8.352  0.9464 -0.5008 -1.9516
 1132SOL    HW215030   2.338   4.000   8.218  1.3276  1.9778 -0.6594
 1133SOL     OW15031   0.620   1.246   4.172 -0.3820  0.0336 -0.6081
 1133SOL    HW115032   0.648   1.222   4.084  0.6236 -0.8691 -0.0532
 1133SOL    HW215033   0.684   1.193   4.220 -0.2106  1.6804  0.9863
 1134SOL     OW15034   1.392   4.655   8.271 -0.5841  0.1504 -1.2304
 1134SOL    HW115035   1.397   4.560   8.259 -2.9172 -0.3129  1.3636
 1134SOL    HW215036   1.484   4.672   8.254 -0.3815  0.6013  0.3136
 1135SOL     OW15037   3.750   0.968   8.489 -0.0102 -0.0267  0.3067
 1135SOL    HW115038   3.670   0.946   8.440 -0.3694 -0.0903  0.9227
 1135SOL    HW215039   3.710   0.976   8.575 -2.1486  0.5739 -0.7193
 1136SOL     OW15040   1.566   4.247   3.479  0.2035 -0.0958  0.1744
 1136SOL    HW115041   1.641   4.289   3.436 -0.8880  3.3283  1.6361
 1136SOL    HW215042   1.506   4.241   3.405 -0.0811  0.6276  0.3473
 1137SOL     OW15043   2.720   1.039  13.999 -0.0383  0.0528 -0.1487
 1137SOL    HW115044   2.705   1.054  13.905 -0.1610  0.5641 -0.0499
 1137SOL    HW215045   2.722   0.944  14.000 -1.6885  0.0316  0.3185
 1138SOL     OW15046   3.041   2.145   4.566  0.5928  0.1238  0.4083
 1138SOL    HW115047   3.083   2.231   4.556  1.0413 -0.1306  0.1001
 1138SOL    HW215048   3.027   2.127   4.473  1.7693 -1.2717  0.4918
 1139SOL     OW15049   4.036   3.809   2.639  0.4502 -0.1977 -0.7756
 1139SOL    HW115050   3.977   3.884   2.634 -1.0344 -1.2148  1.7754
 1139SOL    HW215051   4.006   3.753   2.711  2.6181 -0.1822  0.1443
 1140SOL     OW15052   0.586   4.369   6.137 -0.7143 -0.1204  0.0789
 1140SOL    HW115053   0.520   4.409   6.194 -0.1846 -0.6444  1.0809
 1140SOL    HW215054   0.605   4.439   6.076 -1.8733 -0.5214 -0.7274
 1141SOL     OW15055   1.636   1.509   7.705  0.5546  0.5029 -0.5228
 1141SOL    HW115056   1.671   1.598   7.705  0.0270  0.7181  2.6096
 1141SOL    HW215057   1.557   1.522   7.653 -1.7845 -1.3499  2.5292
 1142SOL     OW15058   2.870   3.539   3.844  0.2592  0.7396  0.0171
 1142SOL    HW115059   2.890   3.552   3.751  0.1406 -2.8680 -0.5073
 1142SOL    HW215060   2.948   3.490   3.868 -1.2482 -1.1240  1.1426
 1143SOL     OW15061   4.532   4.557   8.602 -0.2573  0.0570 -0.1044
 1143SOL    HW115062   4.519   4.473   8.648  0.1225 -0.5059 -1.0170
 1143SOL    HW215063   4.610   4.531   8.552 -0.1054 -1.3984  0.8730
 1144SOL     OW15064   1.705   1.883   9.998 -0.1584 -0.2504  0.3087
 1144SOL    HW115065   1.670   1.913   9.914  1.5619  0.9734  0.0243
 1144SOL    HW215066   1.688   1.790   9.988 -0.9122 -0.1252  0.4459
 1145SOL     OW15067   0.108   3.194  15.268 -0.1701 -0.3665  0.8180
 1145SOL    HW115068   0.176   3.190  15.201  0.4717 -0.8008  1.4984
 1145SOL    HW215069   0.092   3.100  15.277  1.5267 -0.8595 -1.4710
 1146SOL     OW15070   1.626   0.867   3.405  0.1449  0.2369  0.1308
 1146SOL    HW115071   1.718   0.869   3.429  0.2483 -0.0757 -0.2403
 1146SOL    HW215072   1.597   0.788   3.451  1.9144 -0.3030  0.2906
 1147SOL     OW15073   4.381   1.710   9.542 -0.3724 -0.2349  0.0343
 1147SOL    HW115074   4.368   1.621   9.509 -0.0255 -0.1894 -0.2311
 1147SOL    HW215075   4.351   1.762   9.468 -1.6744 -3.2942 -1.5806
 1148SOL     OW15076   4.118   3.600   4.567  0.0675  0.9754 -0.0186
 1148SOL    HW115077   4.036   3.622   4.523  0.2456  0.5451 -0.5612
 1148SOL    HW215078   4.157   3.530   4.515 -1.3410  1.4385 -1.6609
 1149SOL     OW15079   1.815   0.737   3.118  0.1009  0.2275  0.2143
 1149SOL    HW115080   1.833   0.769   3.030  3.0943  0.9012  1.0689
 1149SOL    HW215081   1.731   0.778   3.138  0.3472 -0.3474  2.4460
 1150SOL     OW15082   4.056   3.856  11.136  0.1942 -0.0426 -0.3894
 1150SOL    HW115083   4.146   3.849  11.106  0.4543 -0.4337  0.4958
 1150SOL    HW215084   4.059   3.824  11.227  1.4027  1.1777 -0.0103
 1151SOL     OW15085   0.352   4.060   3.500 -0.2400 -0.5314 -0.1068
 1151SOL    HW115086   0.264   4.038   3.469 -1.7491  2.5453  1.9622
 1151SOL    HW215087   0.335   4.154   3.504 -0.0842 -0.4184 -2.3264
 1152SOL     OW15088   0.227   3.013  12.675  0.0567 -0.0788  0.7685
 1152SOL    HW115089   0.269   3.075  12.734  1.0264  1.2884 -1.3701
 1152SOL    HW215090   0.302   2.973  12.630  0.4687 -0.1856  1.5517
 1153SOL     OW15091   2.456   0.511  12.580  0.1384 -0.4463 -0.2330
 1153SOL    HW115092   2.460   0.435  12.521 -0.1719 -2.2341  2.0783
 1153SOL    HW215093   2.495   0.582  12.529  2.4774 -2.8204 -1.8027
 1154SOL     OW15094   0.124   3.923   7.287 -0.1630 -0.7568  0.0955
 1154SOL    HW115095   0.211   3.894   7.261 -0.4736  0.3734 -2.1412
 1154SOL    HW215096   0.126   4.017   7.273  2.5467 -1.2687 -2.8242
 1155SOL     OW15097   1.074   3.456  11.394 -1.3649 -0.0636  0.0332
 1155SOL    HW115098   0.982   3.472  11.414 -0.8316  1.9288  0.8331
 1155SOL    HW215099   1.100   3.385  11.453 -1.2553 -0.6696 -0.7577
 1156SOL     OW15100   2.152   2.492   3.755 -0.2001 -0.4957  0.0706
 1156SOL    HW115101   2.182   2.482   3.665 -0.4667 -0.1708 -0.0521
 1156SOL    HW215102   2.143   2.398   3.769  2.8920 -1.1602 -2.4819
 1157SOL     OW15103   1.387   0.137  11.345 -0.6396 -0.1974  0.1939
 1157SOL    HW115104   1.346   0.073  11.403  2.0028 -2.3645 -0.3655
 1157SOL    HW215105   1.398   0.208  11.410 -0.5470 -0.1701  0.1486
 1158SOL     OW15106   2.799   1.923   8.462 -0.1936  0.3090 -0.2759
 1158SOL    HW115107   2.874   1.972   8.429  1.1642 -0.6998  1.2534
 1158SOL    HW215108   2.785   1.965   8.547 -0.4409  2.2546 -1.2750
 1159SOL     OW15109   1.823   0.145  12.207  0.7292  0.1805  0.0207
 1159SOL    HW115110   1.740   0.191  12.212  0.8936  0.5297 -0.5176
 1159SOL    HW215111   1.806   0.053  12.184  3.3191  0.3832 -2.6763
 1160SOL     OW15112   3.380   2.767   6.911 -0.3128  0.3242 -0.3531
 1160SOL    HW115113   3.459   2.712   6.906  0.7376  1.7684  0.3871
 1160SOL    HW215114   3.399   2.805   6.997 -0.8541  1.6411 -0.8188
 1161SOL     OW15115   4.077   1.349   7.418  0.0822  0.4137  0.0240
 1161SOL    HW115116   4.153   1.320   7.367  2.2666  0.9960  2.9273
 1161SOL    HW215117   4.102   1.334   7.509  2.9671  1.2318 -0.6136
 1162SOL     OW15118   4.160   3.348   7.425 -0.3327 -0.4237 -0.1153
 1162SOL    HW115119   4.116   3.341   7.340 -3.0423  1.0478  1.1802
 1162SOL    HW215120   4.113   3.408   7.483 -2.0718  0.6299 -2.6150
 1163SOL     OW15121   3.161   4.629   8.115  0.2219  0.2494 -0.7140
 1163SOL    HW115122   3.103   4.562   8.079  0.3970  0.8049 -2.0582
 1163SOL    HW215123   3.113   4.704   8.081 -0.3647  0.5367  0.7849
 1164SOL     OW15124   1.782   3.112  15.638  0.2039 -0.6334  0.2641
 1164SOL    HW115125   1.755   3.200  15.663 -2.5203 -1.1366 -0.9516
 1164SOL    HW215126   1.785   3.117  15.542  0.7846 -1.5651  0.2367
 1165SOL     OW15127   2.712   4.270   5.377  0.3035 -0.6552  0.3025
 1165SOL    HW115128   2.670   4.299   5.458 -0.2261  0.3233 -0.3197
 1165SOL    HW215129   2.688   4.334   5.310 -1.0939 -1.4201  0.0672
 1166SOL     OW15130   0.617   3.604  17.382  0.1531 -0.1122  0.4040
 1166SOL    HW115131   0.611   3.682  17.326 -0.6489 -2.1297 -2.3206
 1166SOL    HW215132   0.591   3.532  17.326  1.3424  0.3488 -0.7424
 1167SOL     OW15133   0.514   0.937  10.503 -0.2695  0.1594  0.3521
 1167SOL    HW115134   0.451   0.873  10.538  1.2565 -1.6090 -0.1222
 1167SOL    HW215135   0.554   0.980  10.579  0.9398 -1.4692  0.6402
 1168SOL     OW15136   3.192   1.014  17.690 -0.2475 -0.6849 -0.3143
 1168SOL    HW115137   3.107   1.000  17.648 -0.8894  0.9150  0.4898
 1168SOL    HW215138   3.218   0.922  17.692  1.7086 -0.0857  1.4747
 1169SOL     OW15139   3.181   1.088   6.887  0.1684  0.0439  0.6611
 1169SOL    HW115140   3.117   1.073   6.957 -0.2873 -1.2330 -0.0212
 1169SOL    HW215141   3.158   1.031   6.813  0.8659  1.8091 -0.9269
 1170SOL     OW15142   4.225   1.496  14.794 -0.1222  0.4280  0.1915
 1170SOL    HW115143   4.175   1.501  14.713  1.0888  2.3940 -0.4187
 1170SOL    HW215144   4.175   1.425  14.833 -1.3472  1.3644  0.3015
 1171SOL     OW15145   2.343   3.208   9.918 -0.0272 -0.2531 -0.0019
 1171SOL    HW115146   2.376   3.297   9.912  0.6075 -0.6794 -2.6280
 1171SOL    HW215147   2.299   3.199   9.834  1.2478 -3.3087 -0.3325
 1172SOL     OW15148   3.313   1.017   8.148 -1.5012  0.3915 -0.3570
 1172SOL    HW115149   3.324   1.021   8.053  0.5534  2.0724 -0.0555
 1172SOL    HW215150   3.230   0.971   8.159 -0.4123 -0.8963  2.4755
 1173SOL     OW15151   1.056   1.448   8.263 -0.1770  0.2430 -0.6723
 1173SOL    HW115152   0.977   1.407   8.299  0.6044 -0.5773  0.1105
 1173SOL    HW215153   1.019   1.531   8.233 -0.0903  0.4669 -0.1633
 1174SOL     OW15154   2.877   4.604   5.189  0.3259 -0.2174  0.1320
 1174SOL    HW115155   2.926   4.605   5.107 -1.7052 -2.1134 -1.1005
 1174SOL    HW215156   2.785   4.624   5.174  0.3998 -0.4558 -0.6250
 1175SOL     OW15157   4.480   2.297   1.041 -0.1208 -0.6952  0.1400
 1175SOL    HW115158   4.415   2.360   1.010 -1.8625 -2.4719  0.2350
 1175SOL    HW215159   4.547   2.362   1.064  0.5772 -0.8289 -1.5306
 1176SOL     OW15160   3.801   0.502   5.660  0.1395  0.2623  0.3159
 1176SOL    HW115161   3.735   0.433   5.651 -0.0885  0.8256 -2.2984
 1176SOL    HW215162   3.749   0.582   5.670  0.5465  0.7733 -1.7720
 1177SOL     OW15163   1.644   4.312   7.565 -0.2115  0.3176 -0.1792
 1177SOL    HW115164   1.658   4.396   7.522 -0.3763  0.2264 -0.4118
 1177SOL    HW215165   1.606   4.260   7.494  3.2033 -1.8604 -0.4254
 1178SOL     OW15166   0.396   0.488   1.456 -0.4328  0.5052 -0.3478
 1178SOL    HW115167   0.459   0.447   1.397 -0.4317 -1.8590  1.2768
 1178SOL    HW215168   0.385   0.573   1.414 -1.0557 -0.0399 -1.2808
 1179SOL     OW15169   1.808   4.618   2.740 -0.5749  0.0319 -0.2877
 1179SOL    HW115170   1.790   4.630   2.833  1.6412 -1.3417  0.3214
 1179SOL    HW215171   1.855   4.535   2.743 -0.0278  0.2979 -1.4665
 1180SOL     OW15172   2.240   3.691   2.160 -0.7295  0.1954  0.2526
 1180SOL    HW115173   2.292   3.692   2.241 -1.0845  2.1734  0.4620
 1180SOL    HW215174   2.284   3.618   2.117 -1.7558 -0.6805  0.6878
 1181SOL     OW15175   3.329   0.203   8.827 -0.9511  0.2063  0.1726
 1181SOL    HW115176   3.364   0.140   8.890  0.4046  0.3253 -0.4675
 1181SOL    HW215177   3.264   0.239   8.888 -0.9496 -1.8742  1.3884
 1182SOL     OW15178   3.204   4.255   9.852  0.2037 -0.3241 -0.1131
 1182SOL    HW115179   3.263   4.319   9.894 -0.8886  0.8551 -0.3685
 1182SOL    HW215180   3.232   4.267   9.762 -1.7336  2.1971 -0.3918
 1183SOL     OW15181   1.049   4.659   3.720  0.2091 -0.2020  0.2073
 1183SOL    HW115182   1.015   4.680   3.807 -0.9047  1.5232 -0.6296
 1183SOL    HW215183   0.967   4.660   3.670  0.5386  3.0755 -0.2642
 1184SOL     OW15184   2.998   1.205  14.744  0.0671  0.0607  0.2064
 1184SOL    HW115185   3.088   1.210  14.775  0.8483 -2.0642 -1.7108
 1184SOL    HW215186   2.944   1.230  14.819 -1.0208  0.0492 -0.5638
 1185SOL     OW15187   0.132   0.555  13.004  0.3560 -0.0064  0.4571
 1185SOL    HW115188   0.069   0.518  12.942  0.6742 -1.1218  0.7874
 1185SOL    HW215189   0.083   0.544  13.085 -2.0840 -0.3648 -1.0583
 1186SOL     OW15190   4.249   0.907  15.259  0.5042  0.4626  0.1642
 1186SOL    HW115191   4.310   0.855  15.205 -0.0772  0.0376 -0.0912
 1186SOL    HW215192   4.313   0.950  15.315 -0.4363 -0.1372  1.6823
 1187SOL     OW15193   3.077   4.111  10.326 -0.2909  0.1063 -0.2221
 1187SOL    HW115194   3.011   4.042  10.332  1.6573 -1.5949  1.5055
 1187SOL    HW215195   3.120   4.091  10.408 -1.2668  0.0455  0.2749
 1188SOL     OW15196   2.086   1.541   1.247  0.0980  0.6703  0.2345
 1188SOL    HW115197   2.170   1.586   1.235  2.3379 -2.7371  3.2900
 1188SOL    HW215198   2.023   1.613   1.249  1.8756  2.2365 -0.2012
 1189SOL     OW15199   3.557   0.013   5.932 -0.0163 -0.2247 -0.6165
 1189SOL    HW115200   3.478   4.730   5.882 -1.1760 -0.2164  1.2218
 1189SOL    HW215201   3.547   0.108   5.935 -2.3599 -0.5115  0.4500
 1190SOL     OW15202   3.634   0.225   9.012  0.0055  0.2488  0.0703
 1190SOL    HW115203   3.599   0.198   8.928 -1.1970  3.0497 -0.3353
 1190SOL    HW215204   3.594   0.170   9.079 -1.2493  0.8551 -0.1906
 1191SOL     OW15205   4.522   3.567   5.085 -0.1584  0.2178  0.6050
 1191SOL    HW115206   4.433   3.532   5.087  0.1411 -0.5701 -0.0317
 1191SOL    HW215207   4.568   3.499   5.134 -0.7108 -0.8738 -0.4058
 1192SOL     OW15208   4.036   1.273   1.443  0.2997 -0.5727  0.0215
 1192SOL    HW115209   4.088   1.333   1.389  2.3502 -1.4709  1.0060
 1192SOL    HW215210   4.090   1.195   1.457  1.4966  0.1246 -0.6546
 1193SOL     OW15211   3.586   3.809   3.465  0.1477 -0.4526  0.2434
 1193SOL    HW115212   3.671   3.846   3.490  0.5977 -1.2012 -0.1740
 1193SOL    HW215213   3.623   3.762   3.390 -1.9192  0.6665 -1.4508
 1194SOL     OW15214   4.435   0.028   6.688  0.0937 -0.1970 -0.2424
 1194SOL    HW115215   4.449   4.712   6.767 -0.3483  1.8119  1.1231
 1194SOL    HW215216   4.340   0.019   6.678 -0.0437  2.2565 -1.0591
 1195SOL     OW15217   3.942   3.938   3.261 -0.2692  0.0459  0.3784
 1195SOL    HW115218   3.864   3.958   3.209  0.4938 -0.1542 -0.8381
 1195SOL    HW215219   3.951   3.846   3.235  1.1648 -0.3179  2.1583
 1196SOL     OW15220   3.035   3.399   6.430  0.2266  0.1420  0.2521
 1196SOL    HW115221   2.992   3.472   6.387 -0.9831 -0.1749  0.9424
 1196SOL    HW215222   3.090   3.361   6.362 -1.6911  0.1516 -1.2880
 1197SOL     OW15223   0.031   0.941  10.089 -0.3392 -0.1582  0.4515
 1197SOL    HW115224   0.078   1.020  10.061 -1.4512  0.9164  1.6578
 1197SOL    HW215225   4.713   0.920  10.013  0.1599 -0.7717  0.2724
 1198SOL     OW15226   2.065   1.590  12.475 -0.4758  0.1062  0.0853
 1198SOL    HW115227   1.982   1.549  12.450 -0.6857  0.9390 -0.5982
 1198SOL    HW215228   2.089   1.529  12.544  2.5064 -1.2098 -2.1164
 1199SOL     OW15229   1.721   0.232  17.397  0.1465  0.4334 -0.5742
 1199SOL    HW115230   1.779   0.249  17.472  0.2663  0.7533 -0.7384
 1199SOL    HW215231   1.778   0.219  17.321 -0.5790 -2.1896 -0.6703
 1200SOL     OW15232   2.031   4.131   4.515  0.3994 -0.4797  0.3584
 1200SOL    HW115233   1.969   4.201   4.494  1.4814  1.0670  2.3194
 1200SOL    HW215234   2.069   4.107   4.431 -0.5229 -0.4023 -0.0737
 1201SOL     OW15235   2.025   3.795  14.488  0.5597  0.2011  0.0378
 1201SOL    HW115236   2.096   3.820  14.430  0.6537 -0.3664 -0.0959
 1201SOL    HW215237   1.953   3.854  14.464  0.7619  0.3044 -0.3191
 1202SOL     OW15238   4.460   2.640   6.813  0.0417 -0.0726  0.7508
 1202SOL    HW115239   4.396   2.606   6.875  0.5807 -2.1050  0.2203
 1202SOL    HW215240   4.414   2.641   6.729  1.0292  2.7040  0.2577
 1203SOL     OW15241   3.456   0.740   7.857  0.4361 -0.1277  0.1750
 1203SOL    HW115242   3.517   0.773   7.790  0.7132 -1.3773 -0.1915
 1203SOL    HW215243   3.370   0.761   7.821  0.6899  2.2946  0.9506
 1204SOL     OW15244   0.755   3.766   6.381 -0.1537  0.5307  0.5916
 1204SOL    HW115245   0.826   3.780   6.318 -0.8142  0.2138 -0.2309
 1204SOL    HW215246   0.674   3.779   6.331  1.0458  2.5831 -0.8317
 1205SOL     OW15247   2.253   2.344  13.067 -0.0347  0.5254 -0.1710
 1205SOL    HW115248   2.282   2.274  13.125  0.9406  1.2462  0.2050
 1205SOL    HW215249   2.211   2.290  13.000  0.1293  0.3785 -0.1549
 1206SOL     OW15250   4.287   3.735   6.988  0.0943 -0.7689 -0.4731
 1206SOL    HW115251   4.222   3.785   7.038 -1.6560 -1.6846 -1.8276
 1206SOL    HW215252   4.247   3.649   7.000 -3.5017  0.9946  0.2665
 1207SOL     OW15253   0.239   3.574   2.150 -0.0240  0.1539 -0.4224
 1207SOL    HW115254   0.173   3.629   2.193 -0.1148 -1.9004  2.1148
 1207SOL    HW215255   0.181   3.501   2.127 -2.4008  0.8894  3.0279
 1208SOL     OW15256   2.875   1.174   4.812  0.0419 -0.5822  0.8635
 1208SOL    HW115257   2.840   1.108   4.753  0.0401 -0.5048  0.7773
 1208SOL    HW215258   2.841   1.131   4.891 -0.2173  0.7151  1.4676
 1209SOL     OW15259   0.371   3.407   2.349 -0.1082  0.3575  0.1862
 1209SOL    HW115260   0.277   3.413   2.368 -0.2689 -3.4273  0.6024
 1209SOL    HW215261   0.367   3.476   2.283 -2.0468  1.5177  1.5208
 1210SOL     OW15262   1.228   3.863   4.093  0.1638 -0.4870  0.3694
 1210SOL    HW115263   1.269   3.787   4.053 -0.0123 -0.4692  0.1565
 1210SOL    HW215264   1.290   3.867   4.166  1.1565  0.5466 -0.5326
 1211SOL     OW15265   2.119   0.240   6.666  0.2444 -0.2620 -0.0450
 1211SOL    HW115266   2.094   0.150   6.646 -0.4181 -0.5621  2.1721
 1211SOL    HW215267   2.149   0.237   6.757  1.8421 -0.5232 -0.5879
 1212SOL     OW15268   0.690   3.337   5.853 -0.0074  0.1097  0.0974
 1212SOL    HW115269   0.728   3.294   5.776  0.6127  1.9503 -0.6428
 1212SOL    HW215270   0.695   3.265   5.915 -0.9645  1.3288  1.5881
 1213SOL     OW15271   0.613   1.539   6.321 -0.3350  0.1954 -0.2768
 1213SOL    HW115272   0.641   1.622   6.361  0.7747  0.5971 -1.9066
 1213SOL    HW215273   0.590   1.493   6.402 -0.5443 -2.6606 -1.9900
 1214SOL     OW15274   2.749   0.285   1.070  0.2963  0.4299  0.0538
 1214SOL    HW115275   2.723   0.365   1.116 -1.0021 -0.3295  0.6314
 1214SOL    HW215276   2.825   0.256   1.120 -1.3182 -0.5355  1.9146
 1215SOL     OW15277   2.547   4.051   2.422  0.0997  0.1075  0.6307
 1215SOL    HW115278   2.601   3.975   2.399  0.9326  0.4596  1.4227
 1215SOL    HW215279   2.616   4.106   2.459  1.2903 -1.4768  0.7655
 1216SOL     OW15280   1.062   2.030  17.225 -0.1337 -0.0609 -0.1099
 1216SOL    HW115281   1.142   2.013  17.176 -0.9087 -0.1383 -1.3254
 1216SOL    HW215282   1.000   1.973  17.179 -1.7681  1.5039  0.1224
 1217SOL     OW15283   3.269   1.741   1.913 -0.3137 -0.2406 -0.0043
 1217SOL    HW115284   3.229   1.828   1.909  1.1864  0.3186 -2.6435
 1217SOL    HW215285   3.193   1.691   1.884 -2.0488  0.7431  2.9126
 1218SOL     OW15286   1.538   1.955  15.779  0.2965 -0.1782 -0.2625
 1218SOL    HW115287   1.520   1.885  15.716 -0.8842  1.1874 -1.4458
 1218SOL    HW215288   1.583   1.904  15.847  0.1389 -0.4859 -0.3885
 1219SOL     OW15289   1.398   0.082   6.729 -0.1535 -0.2760 -0.2239
 1219SOL    HW115290   1.453   0.004   6.734 -2.3008 -1.7068  0.9205
 1219SOL    HW215291   1.328   0.043   6.677  0.6452  0.0071 -1.5392
 1220SOL     OW15292   2.231   2.054   1.417  0.4106 -0.0262  0.1779
 1220SOL    HW115293   2.176   2.027   1.491 -0.8139  1.5681 -0.1655
 1220SOL    HW215294   2.305   1.993   1.423 -0.0576 -0.6489 -0.4277
 1221SOL     OW15295   0.202   0.745   4.337 -0.3185  0.3716 -0.5646
 1221SOL    HW115296   0.147   0.791   4.400 -0.4623 -0.4262 -0.0994
 1221SOL    HW215297   0.290   0.756   4.373 -0.9010 -0.3228  1.1151
 1222SOL     OW15298   2.701   4.117   6.774 -0.1258  0.1868  0.2705
 1222SOL    HW115299   2.665   4.198   6.738 -1.8475 -0.8734 -0.3618
 1222SOL    HW215300   2.619   4.071   6.791  1.1931 -2.0034  0.7552
 1223SOL     OW15301   2.522   3.397   0.025 -0.0850  0.3191  0.2258
 1223SOL    HW115302   2.462   3.377   0.097  1.1460 -3.2306  0.2620
 1223SOL    HW215303   2.600   3.347   0.048  0.2295  1.0247  0.6732
 1224SOL     OW15304   2.563   3.744   6.752 -0.4165  0.1519 -0.2832
 1224SOL    HW115305   2.507   3.797   6.695  1.0895 -1.5728 -3.3785
 1224SOL    HW215306   2.540   3.789   6.833 -2.1406 -0.3252 -0.5099
 1225SOL     OW15307   2.786   3.472   8.714 -0.4484  0.0124 -0.5821
 1225SOL    HW115308   2.713   3.492   8.655 -0.5179 -0.5260 -0.6839
 1225SOL    HW215309   2.729   3.442   8.785  0.9548  0.3297  0.6833
 1226SOL     OW15310   2.312   4.554   0.590  0.1361  0.4724  0.0741
 1226SOL    HW115311   2.302   4.644   0.559 -0.1158 -0.3076 -2.1463
 1226SOL    HW215312   2.239   4.551   0.651  0.6537  0.2133  0.6826
 1227SOL     OW15313   0.153   1.479  12.820  0.0144 -0.2739  0.4301
 1227SOL    HW115314   0.104   1.528  12.886  0.2064  0.5397 -0.0319
 1227SOL    HW215315   0.166   1.393  12.858  1.7489 -0.6313 -0.9878
 1228SOL     OW15316   3.155   0.380   1.417  0.0622  0.2041 -0.0167
 1228SOL    HW115317   3.132   0.452   1.358  0.7365 -0.4945 -1.1241
 1228SOL    HW215318   3.122   0.423   1.496  0.9675 -1.1466  1.0859
 1229SOL     OW15319   3.128   3.183   8.771 -0.2147 -0.1423 -0.4027
 1229SOL    HW115320   3.162   3.102   8.735  1.5385 -0.0971  1.1383
 1229SOL    HW215321   3.093   3.220   8.690 -0.6563  0.3688  0.0221
 1230SOL     OW15322   2.221   1.308   3.330  0.4099 -0.1138 -0.0747
 1230SOL    HW115323   2.248   1.335   3.243 -0.0997 -1.0267 -0.5104
 1230SOL    HW215324   2.129   1.334   3.328  0.5681  0.2777 -1.9928
 1231SOL     OW15325   1.653   3.577   7.621  0.1685 -0.3742  0.3483
 1231SOL    HW115326   1.562   3.589   7.649  0.5546  0.0055  1.4236
 1231SOL    HW215327   1.666   3.652   7.563  0.4089 -1.1025 -0.5551
 1232SOL     OW15328   2.871   3.927   2.161  0.4768 -0.0230 -0.0700
 1232SOL    HW115329   2.822   3.886   2.232  0.3722 -2.8036 -1.7465
 1232SOL    HW215330   2.799   3.946   2.100  0.6533  1.4887  0.1745
 1233SOL     OW15331   0.470   2.907   8.147  0.1307  0.0000  0.3934
 1233SOL    HW115332   0.384   2.884   8.113 -0.5750  1.8598  0.9332
 1233SOL    HW215333   0.475   3.001   8.129 -1.8482 -0.1482 -0.8933
 1234SOL     OW15334   2.793   0.379  12.803 -0.0087  0.1729 -0.4920
 1234SOL    HW115335   2.882   0.382  12.768  0.5044  2.8928  1.0783
 1234SOL    HW215336   2.797   0.298  12.854  0.1741  0.1067 -0.6117
 1235SOL     OW15337   3.520   2.544   3.823  0.1481 -0.1525 -0.1634
 1235SOL    HW115338   3.518   2.448   3.815  0.7236 -0.1430 -0.4281
 1235SOL    HW215339   3.432   2.572   3.799  0.5151  1.1704  0.0504
 1236SOL     OW15340   4.260   2.029   1.696  0.1088 -0.6416 -0.0628
 1236SOL    HW115341   4.253   1.953   1.639  0.5842 -1.8811  1.5220
 1236SOL    HW215342   4.262   2.102   1.634  1.4700 -1.1780 -0.6557
 1237SOL     OW15343   2.866   1.041   7.266 -0.4984 -0.1257 -0.0097
 1237SOL    HW115344   2.785   0.990   7.268  0.0203 -0.9472  0.0459
 1237SOL    HW215345   2.885   1.067   7.356 -1.1853 -0.3016  0.1870
 1238SOL     OW15346   0.772   3.239   3.605 -0.2128  0.7222  0.1909
 1238SOL    HW115347   0.691   3.274   3.641  0.2181  0.4519  1.4348
 1238SOL    HW215348   0.752   3.257   3.513 -0.0658 -0.2126 -0.0276
 1239SOL     OW15349   0.403   3.841   1.030 -0.4023 -0.0580  0.6781
 1239SOL    HW115350   0.430   3.933   1.031  2.2565 -0.8116 -0.4082
 1239SOL    HW215351   0.416   3.826   0.936 -0.5540 -0.9431  0.8065
 1240SOL     OW15352   3.586   0.687   4.899  0.6048 -0.6963  0.1860
 1240SOL    HW115353   3.646   0.751   4.937 -0.0500 -0.8119  1.4043
 1240SOL    HW215354   3.648   0.614   4.891  0.1644 -1.0282 -0.1785
 1241SOL     OW15355   0.324   0.033  10.853  0.4090  0.0397 -0.2178
 1241SOL    HW115356   0.349   0.122  10.878 -1.4562  0.4874  0.0562
 1241SOL    HW215357   0.339   4.726  10.938  3.2006 -0.0040 -0.7156
 1242SOL     OW15358   3.912   1.924   9.233  0.2567 -0.1931  0.2654
 1242SOL    HW115359   3.843   1.962   9.179  2.2692 -1.4219 -3.1663
 1242SOL    HW215360   3.880   1.946   9.320 -0.9200 -4.0734  0.8229
 1243SOL     OW15361   1.617   0.365   9.164 -0.1803  0.5047  0.1612
 1243SOL    HW115362   1.701   0.335   9.198 -1.1266 -0.5056  1.5869
 1243SOL    HW215363   1.565   0.288   9.185 -0.4932  0.5919 -0.2799
 1244SOL     OW15364   4.160   2.706  14.211  0.0192  0.2859 -0.6819
 1244SOL    HW115365   4.120   2.767  14.274  0.9292 -1.0540  1.1823
 1244SOL    HW215366   4.194   2.769  14.148 -1.1494  0.7952 -0.8070
 1245SOL     OW15367   1.801   1.272  12.135 -0.7343 -0.0572 -0.5589
 1245SOL    HW115368   1.794   1.202  12.200  2.7296 -0.0527 -0.2072
 1245SOL    HW215369   1.719   1.262  12.085 -0.7500  1.1413 -0.7598
 1246SOL     OW15370   4.259   2.788  10.711 -0.1210 -0.4256 -0.5425
 1246SOL    HW115371   4.199   2.806  10.783  1.4033 -1.8010  1.0367
 1246SOL    HW215372   4.216   2.843  10.645 -1.3196  0.6968  1.1704
 1247SOL     OW15373   3.699   2.654   9.183  0.8562 -0.0112 -0.0962
 1247SOL    HW115374   3.707   2.735   9.234 -1.3352  0.3078 -0.2581
 1247SOL    HW215375   3.746   2.676   9.103 -0.6193  1.4812 -0.5497
 1248SOL     OW15376   2.563   1.641   2.633 -0.4823 -0.1391  0.0101
 1248SOL    HW115377   2.536   1.595   2.553 -0.3975 -0.8019  0.3635
 1248SOL    HW215378   2.648   1.608   2.660 -1.0450 -1.0918  0.6221
 1249SOL     OW15379   2.430   1.292  13.526 -0.3852 -0.6678  0.4515
 1249SOL    HW115380   2.362   1.264  13.587 -0.4708  0.4638  0.8868
 1249SOL    HW215381   2.475   1.350  13.588 -1.6377  2.3662 -1.5148
 1250SOL     OW15382   2.931   4.352  14.986  0.3585  0.8196  0.5626
 1250SOL    HW115383   2.999   4.370  15.051 -0.5857  1.7536  1.2871
 1250SOL    HW215384   2.890   4.282  15.035  1.8539 -0.8417 -0.5480
 1251SOL     OW15385   0.462   2.459   6.560  0.0863  0.0263  0.3442
 1251SOL    HW115386   0.451   2.503   6.476  0.6041 -1.9495 -0.7419
 1251SOL    HW215387   0.401   2.386   6.549 -0.2574  0.3993 -0.2566
 1252SOL     OW15388   2.677   1.350   3.175 -0.4917  0.2009 -0.0308
 1252SOL    HW115389   2.700   1.351   3.082  2.1050 -1.0242  0.6025
 1252SOL    HW215390   2.751   1.401   3.209  0.6023  0.5166 -2.8303
 1253SOL     OW15391   0.910   3.529   6.718 -0.1244  0.9537 -0.1694
 1253SOL    HW115392   0.833   3.532   6.661 -0.1606 -2.0673 -0.2936
 1253SOL    HW215393   0.882   3.471   6.788  1.6215 -2.0600 -1.9603
 1254SOL     OW15394   1.412   3.722   5.091 -0.2913  0.2523 -0.0764
 1254SOL    HW115395   1.444   3.677   5.169  0.8214  0.1172 -0.6249
 1254SOL    HW215396   1.448   3.685   5.010  1.2677  1.7619 -0.0732
 1255SOL     OW15397   2.488   1.128   7.214 -0.5643  0.3589  0.1874
 1255SOL    HW115398   2.504   1.210   7.261 -2.1487  1.1791 -0.6993
 1255SOL    HW215399   2.537   1.122   7.132  0.3419  1.9537  0.6075
 1256SOL     OW15400   1.480   2.761   2.662 -0.2305 -0.4405  0.0429
 1256SOL    HW115401   1.408   2.778   2.601  0.2322 -0.7517 -0.5952
 1256SOL    HW215402   1.542   2.833   2.659 -0.5759 -0.1583 -0.4038
 1257SOL     OW15403   2.640   3.247   5.801  0.6052 -0.3788 -0.3153
 1257SOL    HW115404   2.583   3.289   5.865  0.8703 -0.4123 -0.0550
 1257SOL    HW215405   2.703   3.198   5.855 -0.9459 -2.4467 -0.3851
 1258SOL     OW15406   4.275   3.469   5.975  0.8138 -0.2300 -0.6637
 1258SOL    HW115407   4.357   3.461   5.926  0.7710  0.4301 -0.8374
 1258SOL    HW215408   4.235   3.540   5.925 -1.5906 -1.7757 -0.9836
 1259SOL     OW15409   4.590   2.819   0.100  0.2309 -0.0435 -0.4535
 1259SOL    HW115410   4.578   2.751   0.034 -0.1751 -1.8007  1.4059
 1259SOL    HW215411   4.593   2.900   0.050 -0.6125 -0.5404 -1.3050
 1260SOL     OW15412   4.655   2.973   3.685  0.3080  0.1932  0.1676
 1260SOL    HW115413   4.679   2.959   3.777 -1.1783  0.4704  0.6016
 1260SOL    HW215414   4.692   3.061   3.678 -1.5491  0.8701 -1.1074
 1261SOL     OW15415   1.730   0.398   2.560  0.0629 -0.4428 -0.5068
 1261SOL    HW115416   1.792   0.324   2.562 -0.0585 -0.4993  1.5117
 1261SOL    HW215417   1.777   0.453   2.623 -2.0017  0.0348  0.5991
 1262SOL     OW15418   1.712   4.690   4.917  0.1998  0.3914 -0.0369
 1262SOL    HW115419   1.807   4.680   4.914  0.1120 -0.9088  1.6141
 1262SOL    HW215420   1.698   4.650   5.003  2.0121  0.2134  0.1711
 1263SOL     OW15421   0.767   2.945   2.420  0.1462 -0.0156  0.4533
 1263SOL    HW115422   0.801   2.946   2.330 -1.6279  1.9364 -0.2065
 1263SOL    HW215423   0.814   2.870   2.455  0.5281  0.4614  0.9727
 1264SOL     OW15424   1.008   0.898   4.596 -0.7123  0.3108 -0.7742
 1264SOL    HW115425   1.069   0.968   4.621 -1.2418 -0.2987  2.2288
 1264SOL    HW215426   0.930   0.903   4.651  0.0534  1.8524  0.1754
 1265SOL     OW15427   3.707   0.693  11.804 -0.1748 -0.4148  0.0041
 1265SOL    HW115428   3.683   0.642  11.728  2.3637 -0.2449 -0.9300
 1265SOL    HW215429   3.621   0.733  11.816 -0.9325 -1.6830 -1.2998
 1266SOL     OW15430   3.659   1.568   3.457 -0.3403 -0.6515 -0.3988
 1266SOL    HW115431   3.677   1.474   3.465  0.4614 -0.4627  0.0266
 1266SOL    HW215432   3.728   1.605   3.512  0.4560 -2.5786 -0.0744
 1267SOL     OW15433   3.946   0.731   5.961 -0.0365 -0.5492 -0.6428
 1267SOL    HW115434   3.963   0.824   5.977  0.0694 -0.1581 -2.9592
 1267SOL    HW215435   3.943   0.695   6.049 -1.0643  0.3396 -0.3030
 1268SOL     OW15436   0.633   1.097  16.173  0.7565  0.5162  0.5659
 1268SOL    HW115437   0.619   1.002  16.176  1.2531  0.3937 -0.7586
 1268SOL    HW215438   0.648   1.103  16.078  0.9169  1.3981  0.6499
 1269SOL     OW15439   1.964   3.275   6.239 -0.6188  0.1905  0.1776
 1269SOL    HW115440   2.032   3.329   6.200  0.7367 -0.8435  1.1290
 1269SOL    HW215441   1.910   3.336   6.289  1.1108  2.2455 -0.5032
 1270SOL     OW15442   2.474   2.672   5.621 -0.6057  0.3378  0.0297
 1270SOL    HW115443   2.540   2.605   5.607 -2.7698 -1.8485  0.3621
 1270SOL    HW215444   2.525   2.753   5.629 -1.0151  0.5177  0.8361
 1271SOL     OW15445   4.008   1.946   3.105 -0.6668 -0.0013 -0.0247
 1271SOL    HW115446   4.000   1.998   3.185 -1.6045 -1.0824  0.5920
 1271SOL    HW215447   3.949   1.994   3.047 -1.7521  1.8198  2.5531
 1272SOL     OW15448   3.586   3.137   4.177  0.5526  0.5613 -0.5110
 1272SOL    HW115449   3.630   3.057   4.205 -0.8085  0.1014  0.2758
 1272SOL    HW215450   3.605   3.143   4.083  0.2184 -0.6175 -0.6444
 1273SOL     OW15451   3.875   4.023   2.590  0.1965 -0.2501  0.3807
 1273SOL    HW115452   3.822   4.097   2.619  0.8603  1.2262 -2.1786
 1273SOL    HW215453   3.947   4.065   2.543 -0.3645 -0.6509 -0.8407
 1274SOL     OW15454   3.790   0.759   2.201  0.2429 -0.1888 -0.0179
 1274SOL    HW115455   3.708   0.727   2.165  0.2117 -0.6592  0.4752
 1274SOL    HW215456   3.809   0.689   2.263  0.5391 -0.2852 -0.2176
 1275SOL     OW15457   3.952   1.852   3.705  0.4933 -0.3780 -0.0945
 1275SOL    HW115458   3.978   1.923   3.763 -0.9744 -0.1056  0.2369
 1275SOL    HW215459   4.043   1.837   3.678  0.6732 -1.3364  1.0664
 1276SOL     OW15460   2.521   2.549  13.376  0.1276  0.3245  0.0883
 1276SOL    HW115461   2.576   2.520  13.448  0.6230 -1.1372 -0.8757
 1276SOL    HW215462   2.552   2.639  13.374 -1.4714  0.8329 -1.7513
 1277SOL     OW15463   3.041   3.200   1.571 -0.0237 -0.1258 -0.1545
 1277SOL    HW115464   2.952   3.194   1.538  0.5301 -1.2605 -1.4437
 1277SOL    HW215465   3.093   3.210   1.491  0.5658 -1.1412  0.0992
 1278SOL     OW15466   1.703   2.366   0.857 -0.4585  0.4026  0.2404
 1278SOL    HW115467   1.667   2.454   0.868 -1.8492 -0.2091  0.6149
 1278SOL    HW215468   1.652   2.335   0.781 -2.4644  2.1118  0.8932
 1279SOL     OW15469   4.332   3.673   8.279 -0.6849 -0.0622 -1.2239
 1279SOL    HW115470   4.343   3.656   8.186  1.6972 -2.1921 -0.5582
 1279SOL    HW215471   4.363   3.591   8.320  0.6333  0.8852 -0.3277
 1280SOL     OW15472   2.813   1.437   8.283  0.6311  0.6396 -0.0869
 1280SOL    HW115473   2.867   1.413   8.358 -0.4766  0.5588  0.6796
 1280SOL    HW215474   2.774   1.517   8.319 -0.6693  0.3671 -0.8971
 1281SOL     OW15475   2.010   2.865   3.986 -0.0481  0.0244 -0.2721
 1281SOL    HW115476   2.070   2.792   4.000  1.1894  0.7030 -2.0016
 1281SOL    HW215477   1.930   2.815   4.001 -0.2107  0.4224  0.2207
 1282SOL     OW15478   0.723   1.211   2.030  0.0423  0.5747  0.0904
 1282SOL    HW115479   0.793   1.145   2.031 -0.7749 -0.2662  1.9179
 1282SOL    HW215480   0.666   1.181   2.101  2.2798 -2.7848  0.5133
 1283SOL     OW15481   2.100   2.991   6.746  0.0189  0.4837 -0.2485
 1283SOL    HW115482   2.012   2.965   6.773 -0.8097  3.1722 -0.4645
 1283SOL    HW215483   2.127   3.020   6.832  1.3973  1.0832 -0.8870
 1284SOL     OW15484   1.894   1.380   5.225  0.3639  0.0938  0.5281
 1284SOL    HW115485   1.887   1.474   5.213  0.2849 -0.0339 -0.4230
 1284SOL    HW215486   1.871   1.368   5.317 -1.3243 -3.2590 -0.3235
 1285SOL     OW15487   2.288   1.987   5.498  0.0070  0.4174 -0.2599
 1285SOL    HW115488   2.205   1.966   5.454 -0.5976  0.5427  0.8110
 1285SOL    HW215489   2.335   2.041   5.435  1.1955 -0.7721 -0.3941
 1286SOL     OW15490   4.626   0.926   1.319 -0.1657 -0.1525 -0.6384
 1286SOL    HW115491   4.566   0.979   1.266  1.2644  1.4508 -0.6528
 1286SOL    HW215492   4.663   0.996   1.373 -2.7727  1.2183 -0.6097
 1287SOL     OW15493   0.935   0.574   7.745 -0.1994 -0.3053 -0.3235
 1287SOL    HW115494   0.895   0.533   7.821 -0.6681  2.7253  1.0654
 1287SOL    HW215495   0.992   0.625   7.802 -0.3880  0.3984 -0.7699
 1288SOL     OW15496   3.408   3.274   4.723 -0.0343 -0.1782 -0.4151
 1288SOL    HW115497   3.332   3.224   4.755  0.1298  0.8665  1.5875
 1288SOL    HW215498   3.473   3.203   4.728  0.9362  0.7500 -0.0528
 1289SOL     OW15499   3.134   2.290   5.271 -0.1377  0.0624 -0.5956
 1289SOL    HW115500   3.118   2.379   5.238 -2.2230 -0.1377 -0.0639
 1289SOL    HW215501   3.042   2.266   5.278 -0.2235 -0.5167 -3.6771
 1290SOL     OW15502   1.119   0.276  10.384 -0.0411 -0.0894 -0.3678
 1290SOL    HW115503   1.099   0.244  10.472  2.0025 -1.8391 -0.5547
 1290SOL    HW215504   1.032   0.293  10.346 -0.5121 -1.5348  0.0540
 1291SOL     OW15505   0.012   3.702   2.274  0.1147  0.0433  0.1817
 1291SOL    HW115506   4.694   3.707   2.352  0.3868 -0.0186  0.3729
 1291SOL    HW215507   0.002   3.795   2.256  0.3357 -0.0652 -0.5087
 1292SOL     OW15508   0.061   1.710   8.064 -0.3167  0.1638  0.3090
 1292SOL    HW115509   0.154   1.691   8.076 -0.4650  0.5809  2.0767
 1292SOL    HW215510   0.062   1.778   7.996 -1.4793  0.1033  0.2292
 1293SOL     OW15511   3.459   0.478   2.405 -0.1581 -0.5953  0.4831
 1293SOL    HW115512   3.537   0.454   2.355 -1.6102 -0.3854 -1.8791
 1293SOL    HW215513   3.495   0.550   2.457 -1.7732 -0.5777  1.5954
 1294SOL     OW15514   1.669   2.981   5.059 -0.2432  0.4715 -0.0424
 1294SOL    HW115515   1.757   3.016   5.047 -0.9297  2.1531 -0.1008
 1294SOL    HW215516   1.654   2.948   5.148  0.5835  0.3487  0.0519
 1295SOL     OW15517   4.226   0.445  10.287 -0.6776 -0.0422 -0.7043
 1295SOL    HW115518   4.179   0.517  10.247 -1.2076  0.6459  1.1335
 1295SOL    HW215519   4.247   0.384  10.216  1.9817 -1.0735  0.9433
 1296SOL     OW15520   1.318   2.035   1.693 -0.3121  0.0408 -0.2236
 1296SOL    HW115521   1.263   1.979   1.747  1.9442 -1.7098  0.2432
 1296SOL    HW215522   1.293   2.021   1.601 -2.3013  2.9101 -0.1142
 1297SOL     OW15523   0.007   0.542   1.894  0.0196  0.1136  0.2865
 1297SOL    HW115524   0.052   0.458   1.910 -0.6965 -0.3641 -0.1895
 1297SOL    HW215525   0.027   0.584   1.977  0.8380 -2.3217  1.3233
 1298SOL     OW15526   1.482   4.166   2.969  0.0319  0.4983 -0.0712
 1298SOL    HW115527   1.570   4.202   2.985  0.6107 -0.2165 -1.6868
 1298SOL    HW215528   1.497   4.130   2.882 -0.6999  0.6465 -0.2549
 1299SOL     OW15529   3.429   0.485   7.605  0.2227  0.4601 -0.3690
 1299SOL    HW115530   3.392   0.573   7.618 -1.1780 -0.4892  2.1403
 1299SOL    HW215531   3.352   0.429   7.603 -1.5872  2.8457  1.0122
 1300SOL     OW15532   1.828   3.552  16.300 -0.8264  0.6253  0.2059
 1300SOL    HW115533   1.763   3.616  16.272 -0.2917  1.1455  0.1484
 1300SOL    HW215534   1.905   3.591  16.258 -0.5499  1.6582  1.6587
 1301SOL     OW15535   3.830   3.359  16.487 -0.0407 -0.2317 -0.0017
 1301SOL    HW115536   3.739   3.378  16.462 -0.5997 -0.5233  1.8260
 1301SOL    HW215537   3.839   3.264  16.494 -1.4165 -0.0598  4.0105
 1302SOL     OW15538   2.302   0.011   8.195  0.0565 -0.4574  0.2223
 1302SOL    HW115539   2.359   4.732   8.119  2.7049  1.8199  1.7308
 1302SOL    HW215540   2.332   4.667   8.239  0.0574 -0.8211 -0.4453
 1303SOL     OW15541   2.981   0.758   2.259 -0.1324 -0.7893 -0.3613
 1303SOL    HW115542   3.003   0.697   2.329 -0.8196  1.9502  2.2125
 1303SOL    HW215543   2.935   0.689   2.211  1.0782 -0.3250 -2.1997
 1304SOL     OW15544   3.792   2.177   7.969  0.4604  0.2509  0.0272
 1304SOL    HW115545   3.782   2.082   7.977  1.0119  0.1380 -0.5774
 1304SOL    HW215546   3.880   2.181   7.931  0.2388  2.6999 -0.2138
 1305SOL     OW15547   0.237   0.754   6.623 -0.4813 -0.0142 -0.1624
 1305SOL    HW115548   0.241   0.679   6.682  1.0234  1.3146  1.4203
 1305SOL    HW215549   0.161   0.804   6.652 -0.8804  0.2852 -1.7210
 1306SOL     OW15550   2.813   1.749  14.695  0.3494 -0.0623  0.2690
 1306SOL    HW115551   2.742   1.708  14.646  0.3761 -1.4278  1.3820
 1306SOL    HW215552   2.854   1.677  14.744  2.8419  1.1469 -0.0360
 1307SOL     OW15553   3.062   0.219   3.750  0.0136  0.0800 -0.0993
 1307SOL    HW115554   3.118   0.195   3.823  0.7829  0.3311 -0.6001
 1307SOL    HW215555   2.981   0.181   3.783 -1.0668  0.3567 -2.4296
 1308SOL     OW15556   4.138   2.269   1.496  1.0554 -0.6758 -0.4466
 1308SOL    HW115557   4.130   2.239   1.405 -2.7080  0.1877 -0.4004
 1308SOL    HW215558   4.054   2.238   1.530  0.7528 -1.6082 -2.0291
 1309SOL     OW15559   2.546   0.723   1.023 -0.0744 -0.1797  0.7224
 1309SOL    HW115560   2.576   0.676   0.945  0.7286 -1.6093  1.9081
 1309SOL    HW215561   2.506   0.801   0.983  1.6025  0.0864 -0.4136
 1310SOL     OW15562   2.706   1.261   5.758  0.3804 -0.1335  0.5009
 1310SOL    HW115563   2.769   1.189   5.747 -0.5281 -1.1127  1.7809
 1310SOL    HW215564   2.766   1.336   5.763  1.8517 -1.3834  1.6128
 1311SOL     OW15565   2.917   0.833   3.214  0.5924 -0.5366  0.0591
 1311SOL    HW115566   2.921   0.740   3.191 -0.9995 -0.3783 -0.8770
 1311SOL    HW215567   2.991   0.843   3.274 -0.0349  0.6226  0.6233
 1312SOL     OW15568   1.252   2.673   1.706  0.2222 -0.2489  0.2152
 1312SOL    HW115569   1.197   2.726   1.763  0.0563 -2.1103  1.8020
 1312SOL    HW215570   1.305   2.742   1.666 -0.4260 -0.6966 -1.3928
 1313SOL     OW15571   1.991   2.371   6.663 -0.5635 -0.3043 -0.6888
 1313SOL    HW115572   2.031   2.382   6.577 -2.7112  0.8985 -1.5295
 1313SOL    HW215573   2.017   2.457   6.693 -1.2026 -1.1157  2.1385
 1314SOL     OW15574   1.908   1.864   2.505  0.2738 -0.2750  0.0455
 1314SOL    HW115575   1.958   1.871   2.587  0.1331 -1.4808  0.2358
 1314SOL    HW215576   1.980   1.840   2.447 -1.3551 -1.8180 -1.3151
 1315SOL     OW15577   4.037   4.520  12.057  0.3204  0.3737 -0.4689
 1315SOL    HW115578   4.047   4.525  11.962  0.5605 -1.0276 -0.5228
 1315SOL    HW215579   3.953   4.563  12.072 -0.1266 -0.5806 -0.2175
 1316SOL     OW15580   2.956   1.143   9.165 -0.0228  0.7606  0.2829
 1316SOL    HW115581   2.938   1.235   9.146 -1.1660  0.1689 -1.6036
 1316SOL    HW215582   3.052   1.138   9.170 -0.2536 -2.5513  1.0555
 1317SOL     OW15583   0.050   2.017   4.881  0.7777  0.6757  0.6896
 1317SOL    HW115584   0.105   1.939   4.873 -1.9139 -1.1349 -0.4137
 1317SOL    HW215585   4.726   2.000   4.808  0.1900 -0.5726  1.4563
 1318SOL     OW15586   2.809   1.014   5.064  0.0212  0.0427  1.0624
 1318SOL    HW115587   2.747   1.021   5.136 -0.7697 -0.6777  0.4479
 1318SOL    HW215588   2.887   0.973   5.101  0.9168  0.6349 -0.1324
 1319SOL     OW15589   4.146   1.270   5.196 -0.4541 -0.0024 -0.7239
 1319SOL    HW115590   4.196   1.304   5.270 -0.0258 -1.4415 -0.3454
 1319SOL    HW215591   4.211   1.214   5.153  0.1707  0.7864 -0.8275
 1320SOL     OW15592   1.918   1.091  15.656  0.5038 -0.1565 -0.5839
 1320SOL    HW115593   1.907   0.998  15.640  1.4443 -0.2106 -0.9479
 1320SOL    HW215594   1.878   1.102  15.742  0.2488  3.0934 -1.0882
 1321SOL     OW15595   0.668   3.566   2.105 -0.5078 -0.2614 -0.7171
 1321SOL    HW115596   0.590   3.574   2.050 -2.4346 -0.5161  1.9284
 1321SOL    HW215597   0.619   3.613   2.172 -0.0476  0.3793 -0.8383
 1322SOL     OW15598   1.679   3.525   7.025  0.2905 -0.2031 -0.1939
 1322SOL    HW115599   1.714   3.437   7.034  0.5015 -0.3286 -2.2599
 1322SOL    HW215600   1.618   3.511   6.952  1.9782  1.4263 -1.9160
 1323SOL     OW15601   1.601   2.498   5.971  0.1111 -0.2168 -0.4211
 1323SOL    HW115602   1.682   2.455   5.943 -0.6482 -2.0161  0.1709
 1323SOL    HW215603   1.628   2.589   5.981  0.3854 -0.1413 -1.8437
 1324SOL     OW15604   3.665   4.197   1.227  0.3238  0.4066 -0.0627
 1324SOL    HW115605   3.668   4.286   1.194 -2.3517  1.5582  2.8146
 1324SOL    HW215606   3.757   4.177   1.244  0.0951 -0.8351 -0.2455
 1325SOL     OW15607   0.371   1.880   0.022 -0.0255  0.1160  0.3619
 1325SOL    HW115608   0.332   1.792   0.025  0.2406  0.0061  0.5949
 1325SOL    HW215609   0.372   1.883  17.668 -0.5013 -3.0610  0.2568
 1326SOL     OW15610   0.359   0.866   4.527 -0.2674 -0.1959 -0.0225
 1326SOL    HW115611   0.326   0.890   4.614  1.1672  0.4542  0.3534
 1326SOL    HW215612   0.453   0.877   4.544 -0.4464  0.0232  0.8539
 1327SOL     OW15613   0.082   0.333  15.489  0.4556 -0.3622  0.4099
 1327SOL    HW115614   0.014   0.395  15.463 -1.6094 -1.2613  3.7521
 1327SOL    HW215615   0.162   0.380  15.463  0.7188 -0.5405  0.8944
 1328SOL     OW15616   0.774   1.838   7.819  0.1538  0.1584  0.4741
 1328SOL    HW115617   0.731   1.757   7.846 -1.8087  1.5961  1.6963
 1328SOL    HW215618   0.860   1.824   7.860  0.0960 -0.7164  0.2909
 1329SOL     OW15619   1.865   3.505   1.875 -0.4367 -0.3342  0.6393
 1329SOL    HW115620   1.948   3.536   1.910 -1.4084  1.7560  1.1349
 1329SOL    HW215621   1.806   3.576   1.903  0.9575  0.2827  2.0452
 1330SOL     OW15622   1.459   1.175   3.860  0.1730 -0.5273  0.5933
 1330SOL    HW115623   1.490   1.093   3.898 -0.4354 -0.9714  0.1407
 1330SOL    HW215624   1.518   1.184   3.785 -0.3333 -1.2971  0.1025
 1331SOL     OW15625   0.486   0.864  12.856 -0.0797  0.2255  0.2486
 1331SOL    HW115626   0.548   0.874  12.784  0.2051  2.1061  0.7596
 1331SOL    HW215627   0.527   0.906  12.931 -1.4693  1.2254  0.4423
 1332SOL     OW15628   0.022   2.816   6.046 -0.2287 -0.4754  0.4441
 1332SOL    HW115629   4.663   2.817   6.035 -0.2532 -0.5423  0.6483
 1332SOL    HW215630   0.051   2.730   6.014 -1.7931  0.0193 -2.2906
 1333SOL     OW15631   2.199   0.921   1.112  0.7115 -0.2550  0.1796
 1333SOL    HW115632   2.214   0.991   1.048 -1.5353  0.7612  0.7883
 1333SOL    HW215633   2.146   0.858   1.063  2.1979 -2.3375  1.2071
 1334SOL     OW15634   4.049   3.693  12.490  0.4240 -0.2026  0.0143
 1334SOL    HW115635   4.067   3.787  12.490  1.0214 -0.3254  1.1919
 1334SOL    HW215636   4.000   3.685  12.572  1.8630  1.1673  0.9979
 1335SOL     OW15637   0.308   1.929   2.509  0.4208  0.7070  0.3607
 1335SOL    HW115638   0.254   1.983   2.566 -0.5344  2.1470 -1.9061
 1335SOL    HW215639   0.282   1.840   2.531  0.9913  0.5221  0.2816
 1336SOL     OW15640   2.146   1.406   7.864 -0.5615 -0.0080  0.0325
 1336SOL    HW115641   2.169   1.354   7.941 -0.2808  0.5878  0.3544
 1336SOL    HW215642   2.216   1.470   7.871  0.2366 -0.7262 -1.3757
 1337SOL     OW15643   0.642   1.136  12.833  0.0068 -0.0641  0.5635
 1337SOL    HW115644   0.672   1.094  12.914  1.1900  0.9464  0.6525
 1337SOL    HW215645   0.553   1.164  12.855 -0.3371 -0.4489 -0.3090
 1338SOL     OW15646   2.365   0.422   6.240  0.3067 -0.0598  0.3947
 1338SOL    HW115647   2.331   0.505   6.206 -0.5672 -0.6493 -0.1698
 1338SOL    HW215648   2.380   0.446   6.331  0.3387  2.9993 -0.4297
 1339SOL     OW15649   3.825   1.499   4.389  0.3522 -0.1871  0.1747
 1339SOL    HW115650   3.742   1.459   4.364  0.2936 -0.9981  1.6551
 1339SOL    HW215651   3.793   1.577   4.435  1.7541  0.6171 -0.2136
 1340SOL     OW15652   1.002   1.389   4.404 -0.6343 -0.5171 -0.0230
 1340SOL    HW115653   1.075   1.433   4.360 -0.0410  0.1186  1.5833
 1340SOL    HW215654   0.990   1.316   4.343  0.4581  0.3632 -1.2934
 1341SOL     OW15655   2.907   4.296   5.129  0.0675  0.0214  0.0642
 1341SOL    HW115656   2.831   4.352   5.123  0.1992  0.3408  1.4396
 1341SOL    HW215657   2.924   4.322   5.219 -1.5195  1.7201 -0.1458
 1342SOL     OW15658   0.989   1.342  14.012  0.2165  0.5735  0.0926
 1342SOL    HW115659   1.001   1.247  14.015  2.9002  0.8457 -1.8085
 1342SOL    HW215660   0.918   1.342  14.075  0.3043  1.5676  0.1867
 1343SOL     OW15661   3.878   1.589   6.841  0.0810  0.0009  0.3785
 1343SOL    HW115662   3.834   1.510   6.809  3.7301 -1.1704 -1.6826
 1343SOL    HW215663   3.970   1.574   6.819  0.2870 -0.7812  1.7373
 1344SOL     OW15664   0.486   1.264   5.386 -0.1882  0.2641  0.5502
 1344SOL    HW115665   0.528   1.285   5.303 -0.3901 -0.2403  0.3196
 1344SOL    HW215666   0.562   1.277   5.443 -0.9420 -3.0388  2.3327
 1345SOL     OW15667   2.530   1.215  11.752  0.1436  0.2291 -0.2489
 1345SOL    HW115668   2.580   1.296  11.762  2.2373 -1.0500 -0.4479
 1345SOL    HW215669   2.583   1.176  11.682  3.3728 -0.0005  2.3158
 1346SOL     OW15670   2.265   4.197   2.466 -0.4746 -0.5159 -0.0638
 1346SOL    HW115671   2.194   4.188   2.528 -1.4205 -0.6451 -1.1682
 1346SOL    HW215672   2.248   4.130   2.399 -0.9602  0.2087 -0.6598
 1347SOL     OW15673   1.036   2.420  13.508  0.5195 -0.3086 -0.4970
 1347SOL    HW115674   0.968   2.369  13.464  0.4673 -1.5529  1.0003
 1347SOL    HW215675   1.028   2.388  13.598 -0.9063  3.6032  0.7516
 1348SOL     OW15676   3.719   3.977   4.817 -0.4157  0.2570 -0.2913
 1348SOL    HW115677   3.742   3.943   4.903  0.6583  0.6735 -0.4271
 1348SOL    HW215678   3.645   4.035   4.837 -0.3436  0.6361 -1.0944
 1349SOL     OW15679   4.233   0.170   1.511  0.1327  0.6241 -1.0157
 1349SOL    HW115680   4.167   0.207   1.569  0.2221 -1.2616  0.2589
 1349SOL    HW215681   4.288   0.119   1.570  1.2539  2.3446 -0.5364
 1350SOL     OW15682   0.184   2.597   3.635 -0.0953  0.2391  0.2331
 1350SOL    HW115683   0.240   2.544   3.579  2.0708  0.1003  2.5430
 1350SOL    HW215684   0.248   2.660   3.668  1.5858 -0.0767 -2.4947
 1351SOL     OW15685   0.716   0.428   1.421  0.1004  0.0891  0.0820
 1351SOL    HW115686   0.655   0.462   1.356 -1.0716  0.7733  1.5300
 1351SOL    HW215687   0.783   0.382   1.371 -1.2136 -0.5113 -1.1213
 1352SOL     OW15688   0.035   3.353  10.355 -0.1510 -0.0931 -0.1111
 1352SOL    HW115689   0.056   3.331  10.446 -2.0867  1.6674  0.7558
 1352SOL    HW215690   4.700   3.289  10.344 -1.2129  1.2061 -0.7694
 1353SOL     OW15691   4.448   1.241   8.686  0.3169  0.3770  0.1151
 1353SOL    HW115692   4.396   1.310   8.646 -0.2426 -0.7033 -1.0133
 1353SOL    HW215693   4.523   1.286   8.725 -2.8689  4.6968  1.2500
 1354SOL     OW15694   0.954   3.328   0.465 -0.3713 -0.1824 -0.0276
 1354SOL    HW115695   0.896   3.313   0.539  1.3979  1.6150  1.7107
 1354SOL    HW215696   0.896   3.313   0.390 -2.9255 -0.1511  1.9438
 1355SOL     OW15697   2.681   3.538  13.473  0.0125 -0.4267 -0.2202
 1355SOL    HW115698   2.730   3.534  13.391 -1.3952  0.4681 -1.1009
 1355SOL    HW215699   2.593   3.510  13.448  0.3162 -1.0655 -0.5577
 1356SOL     OW15700   1.836   3.999   5.654  0.0201 -0.2432 -0.2060
 1356SOL    HW115701   1.824   4.087   5.617  0.8760 -0.6542 -1.4645
 1356SOL    HW215702   1.745   3.975   5.669 -1.0749  2.8835 -1.8025
 1357SOL     OW15703   1.616   0.095  10.297 -0.0141 -0.5019 -0.0926
 1357SOL    HW115704   1.588   0.158  10.231  1.1568 -1.3652 -1.4290
 1357SOL    HW215705   1.552   0.108  10.366  0.3786 -0.8082  0.3326
 1358SOL     OW15706   0.947   0.475   7.989 -0.4698 -0.0149  0.0542
 1358SOL    HW115707   0.886   0.404   8.012 -1.0139  0.6775  0.7358
 1358SOL    HW215708   1.002   0.470   8.068  0.1698  0.6197 -0.3556
 1359SOL     OW15709   1.000   2.732   5.221  0.8139  0.0876 -0.0891
 1359SOL    HW115710   1.087   2.717   5.185 -0.7656 -1.7127 -3.2285
 1359SOL    HW215711   0.950   2.665   5.174 -0.4656 -0.0708  1.4883
 1360SOL     OW15712   4.103   0.995   9.050  0.3251  0.2220 -0.1832
 1360SOL    HW115713   4.054   0.915   9.071  0.8279  0.0511  0.3389
 1360SOL    HW215714   4.037   1.051   9.009  0.9327  0.7616 -0.4088
 1361SOL     OW15715   1.612   3.095   6.376 -0.8270 -0.6249 -0.0349
 1361SOL    HW115716   1.625   3.176   6.425 -1.5443 -1.0409  0.8536
 1361SOL    HW215717   1.666   3.099   6.297  1.1700 -0.1607  1.3349
 1362SOL     OW15718   0.654   1.133   5.990 -0.2887  0.1536  0.3834
 1362SOL    HW115719   0.626   1.184   5.914  0.9868  2.9135  1.7360
 1362SOL    HW215720   0.696   1.191   6.053 -4.2864  1.0187  2.3160
 1363SOL     OW15721   2.406   3.102  13.521  0.1339  0.2546  0.3815
 1363SOL    HW115722   2.323   3.099  13.567 -0.1557  0.7737 -0.1182
 1363SOL    HW215723   2.376   3.042  13.452  1.0533  0.3640 -0.1225
 1364SOL     OW15724   0.146   2.829   9.239  0.2626 -0.8153  0.2151
 1364SOL    HW115725   0.153   2.785   9.324  2.4612  1.1609  1.0520
 1364SOL    HW215726   0.122   2.920   9.258 -0.1141 -1.1859  1.4796
 1365SOL     OW15727   2.154   2.818  13.829 -0.2316  0.2485  0.0567
 1365SOL    HW115728   2.113   2.883  13.886 -1.1116 -0.6175  0.4084
 1365SOL    HW215729   2.076   2.780  13.790 -0.6832  0.9401  0.2917
 1366SOL     OW15730   0.983   1.031   0.732 -0.7335 -0.3368  0.3901
 1366SOL    HW115731   0.969   1.117   0.772 -2.7503  0.8657 -2.8485
 1366SOL    HW215732   1.071   1.007   0.760 -0.2502 -0.7992 -1.4924
 1367SOL     OW15733   0.948   0.978   1.055 -0.1449  0.1945 -0.1065
 1367SOL    HW115734   0.899   0.996   1.136 -0.0146 -0.6037  0.1484
 1367SOL    HW215735   0.943   1.065   1.014  0.6502  0.0780 -0.4420
 1368SOL     OW15736   4.648   3.872   0.509 -0.5935 -0.6490  0.3234
 1368SOL    HW115737   4.571   3.829   0.473  1.3195 -1.4434 -2.8533
 1368SOL    HW215738   4.677   3.923   0.433  0.6593  0.0561  1.2667
 1369SOL     OW15739   1.337   0.854   7.616  0.3846 -0.1593 -0.0473
 1369SOL    HW115740   1.359   0.854   7.709  1.1325  1.3484 -0.2263
 1369SOL    HW215741   1.304   0.764   7.611  1.9760 -0.8130  1.6266
 1370SOL     OW15742   2.209   1.961   7.103 -0.2841 -0.1087 -0.0456
 1370SOL    HW115743   2.202   2.031   7.038 -0.0065 -1.1117 -1.1565
 1370SOL    HW215744   2.240   1.888   7.050 -0.5058 -0.4607  0.3104
 1371SOL     OW15745   3.863   1.690   7.314  0.2281  0.2190  0.4927
 1371SOL    HW115746   3.814   1.618   7.353  0.2786 -0.8191 -1.3918
 1371SOL    HW215747   3.948   1.661   7.348 -1.3687 -1.2862  3.2252
 1372SOL     OW15748   3.760   1.662   8.909  0.8462  0.1569  0.4183
 1372SOL    HW115749   3.702   1.676   8.984 -0.3019 -0.3881 -0.3641
 1372SOL    HW215750   3.794   1.575   8.929 -0.9378 -0.7255 -0.3232
 1373SOL     OW15751   1.009   2.723   3.221 -0.1089  0.7058 -0.1980
 1373SOL    HW115752   1.030   2.721   3.128 -0.2791 -0.1801 -0.2215
 1373SOL    HW215753   1.096   2.732   3.260  0.5258 -4.5404 -0.3196
 1374SOL     OW15754   3.025   2.076   2.426  0.3173  0.5889  0.3832
 1374SOL    HW115755   3.049   2.034   2.508 -1.7762  0.2810  0.8570
 1374SOL    HW215756   2.997   1.996   2.382 -1.1244  1.0157  0.5168
 1375SOL     OW15757   1.916   2.366   3.981  0.0045 -0.0621 -0.0645
 1375SOL    HW115758   1.834   2.364   3.932 -0.3716  0.9332  0.5215
 1375SOL    HW215759   1.968   2.325   3.912 -0.6981 -0.5382 -0.3143
 1376SOL     OW15760   2.942   1.675   6.075  0.2694 -0.5538 -0.6998
 1376SOL    HW115761   3.017   1.735   6.080  0.5681 -1.0913  1.4506
 1376SOL    HW215762   2.956   1.600   6.133 -1.7212 -1.8124 -1.8339
 1377SOL     OW15763   3.872   3.264   4.420 -0.0655 -0.0386  0.5919
 1377SOL    HW115764   3.839   3.328   4.484 -0.4991 -2.2101  2.5231
 1377SOL    HW215765   3.850   3.286   4.330 -1.0046 -1.4049  0.4830
 1378SOL     OW15766   2.091   3.147  14.925 -0.0811 -0.0128  0.0221
 1378SOL    HW115767   2.119   3.091  14.853 -0.2684 -2.4123  1.8222
 1378SOL    HW215768   2.173   3.173  14.966  0.3111  2.7099 -2.5319
 1379SOL     OW15769   4.174   1.529   1.740  0.2312 -0.5993  0.0379
 1379SOL    HW115770   4.230   1.466   1.694  0.9398  0.6164 -0.7835
 1379SOL    HW215771   4.145   1.485   1.819  0.2983 -2.2800 -0.8775
 1380SOL     OW15772   4.329   0.397   1.719  0.6081 -0.2943  0.4608
 1380SOL    HW115773   4.315   0.310   1.756  0.5292  0.6430  2.6548
 1380SOL    HW215774   4.240   0.423   1.694  0.7474 -0.3334 -0.0728
 1381SOL     OW15775   2.226   2.638   6.080  0.1816  0.1300  0.1222
 1381SOL    HW115776   2.133   2.656   6.065 -0.2825 -5.1596 -3.1082
 1381SOL    HW215777   2.228   2.631   6.175  0.2660  1.2772  0.2149
 1382SOL     OW15778   0.724   1.871   2.960 -0.8294 -0.1120 -0.2153
 1382SOL    HW115779   0.725   1.793   2.904 -1.9928 -0.4207  0.1893
 1382SOL    HW215780   0.811   1.907   2.943 -0.5465 -0.7769 -0.1696
 1383SOL     OW15781   1.234   2.447  11.069  0.2212 -0.1748  0.4930
 1383SOL    HW115782   1.267   2.357  11.069  0.2374 -0.1644  3.6936
 1383SOL    HW215783   1.314   2.500  11.076  0.1675 -0.0835  0.4090
 1384SOL     OW15784   4.111   4.354   9.415  0.5080  0.1715 -0.3095
 1384SOL    HW115785   4.015   4.351   9.417  0.5545 -1.6789 -0.8127
 1384SOL    HW215786   4.123   4.279   9.357  1.4826  2.7459 -3.4320
 1385SOL     OW15787   0.868   2.134   6.851  0.7650  0.0873 -0.3553
 1385SOL    HW115788   0.912   2.217   6.831 -1.3703  0.9018 -1.7607
 1385SOL    HW215789   0.891   2.127   6.943  0.2895  1.1701 -0.1533
 1386SOL     OW15790   2.107   2.104  16.969  0.4484 -1.0159 -0.2996
 1386SOL    HW115791   2.148   2.190  16.985 -0.5517 -0.1632 -2.3608
 1386SOL    HW215792   2.172   2.057  16.916  2.2722  0.1911  0.8328
 1387SOL     OW15793   4.036   2.520   3.349 -0.0635  0.6119  0.2370
 1387SOL    HW115794   3.978   2.595   3.359  0.0273  0.5779  1.0330
 1387SOL    HW215795   4.000   2.466   3.419  0.0246 -1.3597 -1.2438
 1388SOL     OW15796   0.424   3.836   0.764  0.2238  0.8202  0.3723
 1388SOL    HW115797   0.516   3.864   0.771 -0.0267  1.3929  1.3577
 1388SOL    HW215798   0.433   3.748   0.727 -1.6179  1.7537 -2.3393
 1389SOL     OW15799   2.048   0.500   4.984  1.6273 -0.4354  0.3360
 1389SOL    HW115800   2.096   0.583   4.981 -0.1682  0.6475  1.6789
 1389SOL    HW215801   2.086   0.456   5.059  0.8516  0.4412  1.2455
 1390SOL     OW15802   2.658   0.278  10.088 -0.2215  0.9408  0.0544
 1390SOL    HW115803   2.696   0.280  10.000 -2.6657  1.1483 -1.0112
 1390SOL    HW215804   2.632   0.187  10.082  1.3197  0.5103 -0.1500
 1391SOL     OW15805   4.296   0.271   2.759 -0.4491  0.6327 -0.6183
 1391SOL    HW115806   4.207   0.245   2.782 -0.3565 -0.5337 -1.6025
 1391SOL    HW215807   4.273   0.361   2.734  1.1425  0.9670 -0.8321
 1392SOL     OW15808   4.674   4.313   6.796 -0.0400  0.7447 -0.6144
 1392SOL    HW115809   4.604   4.300   6.859 -0.2726  1.6406 -0.6866
 1392SOL    HW215810   4.693   4.224   6.766 -0.7326  0.6226 -0.6907
 1393SOL     OW15811   3.169   0.663  15.609 -0.4154 -0.4431  0.7663
 1393SOL    HW115812   3.240   0.707  15.562 -0.7748  0.3609  0.9675
 1393SOL    HW215813   3.209   0.583  15.643  1.0023 -0.5041 -1.0554
 1394SOL     OW15814   0.818   0.508   8.529  0.1261 -0.5154  0.3527
 1394SOL    HW115815   0.827   0.498   8.434 -3.4703 -1.8407  0.1446
 1394SOL    HW215816   0.749   0.445   8.549 -1.2484  1.2948  1.2159
 1395SOL     OW15817   0.741   4.555   2.768 -0.4128 -0.4235 -0.1550
 1395SOL    HW115818   0.733   4.593   2.855 -1.4781 -0.4201 -0.2637
 1395SOL    HW215819   0.658   4.509   2.763 -0.5897  0.0439 -1.5847
 1396SOL     OW15820   2.833   4.289   2.378  0.1665  0.2033  0.1350
 1396SOL    HW115821   2.878   4.247   2.305 -1.2640 -0.7809 -0.1671
 1396SOL    HW215822   2.762   4.336   2.335  0.0626 -2.6719 -2.7959
 1397SOL     OW15823   4.302   0.305  13.798 -0.3367  0.1506 -0.1367
 1397SOL    HW115824   4.282   0.398  13.797  1.6403  0.5911  0.6311
 1397SOL    HW215825   4.214   0.271  13.816 -0.5629  1.3778  1.0629
 1398SOL     OW15826   3.430   4.406   0.916 -0.0924 -0.3668  0.6199
 1398SOL    HW115827   3.396   4.452   0.993  0.8759  0.0250  0.8099
 1398SOL    HW215828   3.400   4.465   0.847  2.5083 -1.3018 -1.3035
 1399SOL     OW15829   4.105   3.897   0.106  0.7759 -0.1301 -0.4357
 1399SOL    HW115830   4.095   3.955   0.182 -0.9583 -1.3822  0.2988
 1399SOL    HW215831   4.121   3.952   0.030 -0.7509 -0.8919 -1.2942
 1400SOL     OW15832   1.909   1.437   4.698  0.4563 -0.2758 -0.2039
 1400SOL    HW115833   1.887   1.346   4.717  1.1254  0.1028  2.3239
 1400SOL    HW215834   1.972   1.420   4.627 -0.6679  2.8012 -1.9489
 1401SOL     OW15835   1.939   3.659   7.124 -0.1842 -0.5173 -1.1943
 1401SOL    HW115836   1.984   3.580   7.092 -1.2544 -0.4514 -2.8521
 1401SOL    HW215837   1.881   3.691   7.055 -3.0645 -2.1033  0.4988
 1402SOL     OW15838   3.314   1.005   3.828  0.1079  0.3059 -0.0797
 1402SOL    HW115839   3.327   0.952   3.749  1.3501 -0.5086  0.6693
 1402SOL    HW215840   3.220   1.023   3.828  0.6922  3.3052  3.3791
 1403SOL     OW15841   3.997   4.567   5.302  0.1124  0.8149  0.5122
 1403SOL    HW115842   3.908   4.577   5.268 -0.6199 -0.6093  2.0038
 1403SOL    HW215843   4.045   4.586   5.221 -1.7278 -2.2438 -1.3004
 1404SOL     OW15844   4.528   2.108   1.614 -0.0986 -0.3887  0.2753
 1404SOL    HW115845   4.612   2.078   1.648 -0.8274  0.1784  2.5344
 1404SOL    HW215846   4.477   2.029   1.632 -1.7866  0.4569 -0.7962
 1405SOL     OW15847   3.378   1.623   7.882 -0.3617 -0.9414  0.1843
 1405SOL    HW115848   3.426   1.557   7.833 -2.4814  0.4258 -3.6985
 1405SOL    HW215849   3.428   1.605   7.962  1.2130 -0.6721 -0.7575
 1406SOL     OW15850   0.710   1.188   9.729 -0.0654 -0.0531 -0.3624
 1406SOL    HW115851   0.654   1.186   9.807  0.5959 -1.7504  0.0781
 1406SOL    HW215852   0.776   1.245   9.769 -0.2926 -1.5633  2.1587
 1407SOL     OW15853   4.475   0.545   8.514 -0.6705 -0.2765  0.4592
 1407SOL    HW115854   4.559   0.571   8.551 -0.4417 -0.7432  0.2659
 1407SOL    HW215855   4.430   0.628   8.498  1.5546  1.2388  2.2073
 1408SOL     OW15856   4.567   3.241   4.850 -0.1438 -0.3404  0.1548
 1408SOL    HW115857   4.643   3.294   4.826 -1.8148  1.1723 -1.7803
 1408SOL    HW215858   4.494   3.298   4.829  1.0322  1.4135  0.8871
 1409SOL     OW15859   2.986   3.040   8.070 -0.2037  0.1532  0.1183
 1409SOL    HW115860   2.918   2.973   8.061 -0.4054  0.3682  0.0777
 1409SOL    HW215861   2.975   3.059   8.163  0.8843  0.1815  0.2503
 1410SOL     OW15862   1.764   4.349   3.320 -0.2248  1.2546  0.7569
 1410SOL    HW115863   1.818   4.423   3.292 -0.3275  0.9742 -0.1760
 1410SOL    HW215864   1.767   4.287   3.247 -2.1494  2.7663 -0.5924
 1411SOL     OW15865   4.432   1.257   3.396  0.6887 -0.0530  0.5938
 1411SOL    HW115866   4.468   1.190   3.453  0.9549  0.0248  0.5210
 1411SOL    HW215867   4.442   1.327   3.460 -1.1636  1.3127 -0.6095
 1412SOL     OW15868   4.429   2.308   2.354  0.0875 -0.1877  0.5802
 1412SOL    HW115869   4.382   2.300   2.271  2.0289  0.5439 -0.5798
 1412SOL    HW215870   4.492   2.376   2.331  0.7622 -0.1489  2.5644
 1413SOL     OW15871   1.553   0.777  10.893  0.2549  0.6949  0.5911
 1413SOL    HW115872   1.600   0.724  10.829  2.5164  2.8892  0.4546
 1413SOL    HW215873   1.581   0.867  10.878 -1.8154  0.9144 -1.8506
 1414SOL     OW15874   0.483   3.494   5.116  0.5400  0.0267  0.2930
 1414SOL    HW115875   0.526   3.473   5.199  2.0535 -0.3710 -0.5925
 1414SOL    HW215876   0.484   3.587   5.141 -0.6427 -0.1314  0.9142
 1415SOL     OW15877   0.031   4.664   6.795 -0.1547  0.0771  0.7716
 1415SOL    HW115878   4.722   4.647   6.712  0.4043  2.0864  0.0689
 1415SOL    HW215879   4.720   4.610   6.858 -0.7594  0.9695  1.0761
 1416SOL     OW15880   3.049   3.216   6.678 -0.1946  0.1401 -0.3670
 1416SOL    HW115881   2.995   3.255   6.746  1.8516  0.9081  0.8211
 1416SOL    HW215882   3.045   3.285   6.611  0.6381  0.4864 -0.0599
 1417SOL     OW15883   4.026   0.578   2.022 -0.0024  0.0292 -0.0959
 1417SOL    HW115884   4.036   0.506   2.084  0.9824  0.8848  0.7293
 1417SOL    HW215885   4.077   0.649   2.062 -0.5123  0.9777 -1.1014
 1418SOL     OW15886   3.245   3.292   5.987 -0.2056 -0.1349 -0.2186
 1418SOL    HW115887   3.333   3.288   5.948 -0.4991 -2.6192 -0.6628
 1418SOL    HW215888   3.204   3.221   5.937  0.2109 -1.3309  1.1359
 1419SOL     OW15889   4.442   2.343   6.944 -0.1359  0.0187  0.5572
 1419SOL    HW115890   4.420   2.432   6.972  1.8784  1.4719 -2.4925
 1419SOL    HW215891   4.357   2.316   6.909  0.1337  1.9219 -1.6282
 1420SOL     OW15892   3.056   3.200  17.455  0.3243 -0.2271 -0.6346
 1420SOL    HW115893   3.034   3.118  17.411  0.8114 -0.2071 -0.9119
 1420SOL    HW215894   3.019   3.268  17.400  0.1132  0.7671  0.7455
 1421SOL     OW15895   2.393   1.383  15.876 -0.0224  0.0801  0.0660
 1421SOL    HW115896   2.414   1.380  15.783  0.7698 -2.4280  0.3328
 1421SOL    HW215897   2.384   1.291  15.898  0.3080  0.1204  0.3616
 1422SOL     OW15898   1.983   3.700  13.348  0.1464 -0.4986 -0.4986
 1422SOL    HW115899   1.891   3.706  13.321  0.1342  2.2625  0.2016
 1422SOL    HW215900   2.019   3.784  13.374 -0.7113 -0.7394  1.4676
 1423SOL     OW15901   4.654   4.239   4.811  0.4240 -0.2910 -0.3730
 1423SOL    HW115902   4.656   4.147   4.837  0.8271  0.1867  1.2594
 1423SOL    HW215903   4.716   4.282   4.869  1.9941  0.4515 -2.6203
 1424SOL     OW15904   3.366   2.260   3.609 -0.8093  0.3628 -0.0911
 1424SOL    HW115905   3.359   2.343   3.562 -1.3301 -0.2985 -1.1716
 1424SOL    HW215906   3.291   2.217   3.568 -0.5459 -0.8328  0.6769
 1425SOL     OW15907   1.739   1.076   5.334 -0.1120 -0.1247 -0.6929
 1425SOL    HW115908   1.775   1.159   5.365 -1.6569  1.0219 -1.9236
 1425SOL    HW215909   1.704   1.039   5.415  1.3753 -0.0412 -0.0147
 1426SOL     OW15910   1.783   0.923   1.760  0.1274  0.6070  0.2550
 1426SOL    HW115911   1.878   0.915   1.750  0.1536  3.8904 -2.1065
 1426SOL    HW215912   1.772   0.834   1.795 -2.1403  1.4657  1.7347
 1427SOL     OW15913   3.479   1.490   6.917 -0.2299 -0.3955 -0.4208
 1427SOL    HW115914   3.455   1.432   6.845  0.5674 -1.1467 -0.0741
 1427SOL    HW215915   3.393   1.492   6.959  0.4651  0.3661  0.9605
 1428SOL     OW15916   2.990   3.029   3.747 -0.0614  0.0364 -0.5481
 1428SOL    HW115917   3.018   3.019   3.838 -0.8161  2.1856 -0.0860
 1428SOL    HW215918   2.957   2.939   3.742 -0.8832  0.2850  0.5245
 1429SOL     OW15919   2.021   0.484  12.947 -0.0859  0.3902 -0.3495
 1429SOL    HW115920   2.094   0.514  12.892  0.9450 -0.5943  0.4915
 1429SOL    HW215921   2.051   0.514  13.033  1.7845 -0.6781 -0.6396
 1430SOL     OW15922   2.988   2.362   2.448  0.0223 -0.3758 -0.0191
 1430SOL    HW115923   3.067   2.401   2.410 -1.3690  2.0899 -0.3865
 1430SOL    HW215924   3.017   2.271   2.439  1.1197 -0.0461  0.1372
 1431SOL     OW15925   1.069   4.254   7.556 -0.1421 -0.2452 -0.1290
 1431SOL    HW115926   1.019   4.278   7.635  0.7420  0.8392  0.0992
 1431SOL    HW215927   1.001   4.259   7.489  0.1606  1.6314 -0.2795
 1432SOL     OW15928   4.671   0.202   2.424  0.0816  0.0491  0.1190
 1432SOL    HW115929   4.692   0.124   2.372 -0.1298  1.0839 -1.4927
 1432SOL    HW215930   4.646   0.152   2.502 -0.6411  2.7426  1.5918
 1433SOL     OW15931   4.543   1.916   0.601 -0.3378 -0.0262 -0.2071
 1433SOL    HW115932   4.549   1.966   0.683  1.0301  1.7227 -1.3655
 1433SOL    HW215933   4.523   1.827   0.630 -2.6937  0.1757 -1.1357
 1434SOL     OW15934   4.212   3.913   7.483  0.1368  0.0577  0.2044
 1434SOL    HW115935   4.244   3.846   7.543 -1.0818 -0.8904 -0.1997
 1434SOL    HW215936   4.249   3.888   7.398  0.6724  1.7808 -0.0727
 1435SOL     OW15937   3.019   0.325   2.947  0.0191  0.0039 -0.5100
 1435SOL    HW115938   3.043   0.352   3.036  0.3893 -2.0201  0.0040
 1435SOL    HW215939   2.983   0.237   2.954 -0.1495 -0.1038 -2.7250
 1436SOL     OW15940   2.014   4.182   4.127 -0.4687 -0.4296  0.1694
 1436SOL    HW115941   2.045   4.206   4.040  1.5024  0.4094  1.0954
 1436SOL    HW215942   2.093   4.189   4.180 -0.7864 -0.4474  0.6449
 1437SOL     OW15943   2.648   1.606   1.949 -0.2064  0.2051  0.1612
 1437SOL    HW115944   2.567   1.653   1.968 -0.3983 -0.4218  0.9186
 1437SOL    HW215945   2.654   1.600   1.854  1.4889 -0.4785  0.3015
 1438SOL     OW15946   3.122   0.094  14.951 -0.1601  0.1292  0.1282
 1438SOL    HW115947   3.128   0.189  14.954 -0.6669  0.1262  1.1338
 1438SOL    HW215948   3.034   0.084  14.916 -0.3313 -0.0670  0.6174
 1439SOL     OW15949   3.380   3.533   7.550  0.5409 -0.0565 -0.5329
 1439SOL    HW115950   3.350   3.493   7.631 -0.2514 -1.2271 -1.4167
 1439SOL    HW215951   3.381   3.460   7.488 -0.4081  1.1566 -2.0147
 1440SOL     OW15952   1.801   0.725   9.610 -0.1928 -0.0961  0.2486
 1440SOL    HW115953   1.735   0.666   9.573 -0.1988 -0.1144  0.2891
 1440SOL    HW215954   1.794   0.711   9.704  0.7733  1.8399  0.5918
 1441SOL     OW15955   1.935   4.383   5.478  0.4996  0.1833 -0.0503
 1441SOL    HW115956   1.878   4.356   5.406  0.7088 -0.0566 -0.1236
 1441SOL    HW215957   2.004   4.319   5.464 -1.9993 -2.5494  0.1285
 1442SOL     OW15958   2.511   2.945   3.410 -0.2899 -0.4613 -0.1961
 1442SOL    HW115959   2.527   2.895   3.490 -0.8101 -0.1643  0.0941
 1442SOL    HW215960   2.518   2.880   3.340 -0.6498 -0.9094  0.1812
 1443SOL     OW15961   3.469   3.694   8.903  0.4728  0.1249  0.2698
 1443SOL    HW115962   3.559   3.683   8.873  0.9880  0.5011  1.6873
 1443SOL    HW215963   3.442   3.610   8.939 -2.3643  1.8342  2.1580
 1444SOL     OW15964   1.221   0.011  14.812 -0.0356  0.2282 -0.1396
 1444SOL    HW115965   1.209   0.011  14.717  1.4980  0.3303 -0.3243
 1444SOL    HW215966   1.149   4.690  14.839 -1.7820  1.0302 -3.0095
 1445SOL     OW15967   1.407   3.642   7.720 -0.1489 -0.2764  0.5694
 1445SOL    HW115968   1.386   3.690   7.800 -0.2493 -1.5230  1.2925
 1445SOL    HW215969   1.323   3.627   7.678  0.4171 -1.1511 -0.2719
 1446SOL     OW15970   4.181   3.969   7.963 -0.1156 -0.1149  0.7459
 1446SOL    HW115971   4.133   3.939   7.886 -0.4134  0.0115  0.8837
 1446SOL    HW215972   4.270   3.951   7.933  0.4035  2.5910  0.6809
 1447SOL     OW15973   1.007   2.594  10.965 -0.4343 -0.3258  0.2944
 1447SOL    HW115974   0.954   2.546  10.901 -2.0761  1.3454  0.3950
 1447SOL    HW215975   1.065   2.526  10.999  0.2063 -0.5411 -1.2369
 1448SOL     OW15976   2.061   0.801  11.650  0.2118 -0.3942  0.4253
 1448SOL    HW115977   1.966   0.801  11.657  0.2852 -0.6371  1.3618
 1448SOL    HW215978   2.076   0.723  11.703 -1.2170 -0.9216  0.0368
 1449SOL     OW15979   1.101   1.017   7.231  0.1543 -0.6486 -0.3136
 1449SOL    HW115980   1.062   0.931   7.213 -0.8448 -0.0637 -0.9814
 1449SOL    HW215981   1.174   0.989   7.286  0.0415 -1.1662 -0.4311
 1450SOL     OW15982   1.785   1.321   7.550 -0.1800  0.4862 -0.2252
 1450SOL    HW115983   1.744   1.239   7.578 -1.0480  0.3398 -1.8966
 1450SOL    HW215984   1.711   1.378   7.569 -0.8839 -0.7780  0.8149
 1451SOL     OW15985   1.877   3.783   7.772  0.0737  0.5186  0.6148
 1451SOL    HW115986   1.835   3.780   7.686 -0.6580 -0.1709  0.9988
 1451SOL    HW215987   1.814   3.734   7.824  0.5654 -0.9433 -0.1682
 1452SOL     OW15988   3.639   3.823   8.162  0.1146 -0.2863 -0.0635
 1452SOL    HW115989   3.616   3.732   8.179 -1.4534 -0.2378 -1.9375
 1452SOL    HW215990   3.709   3.810   8.098  0.1469  0.5546 -0.1974
 1453SOL     OW15991   4.253   2.027   8.689  0.1114  0.3446 -0.2522
 1453SOL    HW115992   4.193   2.099   8.667  2.1449  2.0406 -0.3165
 1453SOL    HW215993   4.270   2.060   8.777  0.1693  0.0922 -0.1700
 1454SOL     OW15994   1.794   3.380  13.571  0.1121  0.0093  0.4780
 1454SOL    HW115995   1.768   3.301  13.620  0.0600 -0.0006  0.4346
 1454SOL    HW215996   1.888   3.376  13.583  0.1787 -2.3819 -0.8283
 1455SOL     OW15997   1.772   2.316  11.076  0.0145  0.1061 -0.5196
 1455SOL    HW115998   1.678   2.306  11.092  0.0153  0.0595 -0.5444
 1455SOL    HW215999   1.780   2.287  10.986 -2.1622  2.4675 -1.4702
 1456SOL     OW16000   4.134   4.381   9.154 -0.1470  0.1476 -0.5351
 1456SOL    HW116001   4.149   4.394   9.060 -1.9994 -2.1186 -1.1569
 1456SOL    HW216002   4.100   4.469   9.172 -0.9820 -0.5628  1.3929
 1457SOL     OW16003   0.817   1.904   8.942 -0.3790 -0.5591 -0.0153
 1457SOL    HW116004   0.893   1.961   8.929  0.1479 -1.7944 -2.3723
 1457SOL    HW216005   0.824   1.855   8.860  1.5677 -2.2558  1.1540
 1458SOL     OW16006   4.177   4.651  11.280 -0.0204  0.6596  0.1048
 1458SOL    HW116007   4.150   4.573  11.231 -0.4649  0.9264 -0.0761
 1458SOL    HW216008   4.262   4.618  11.308  0.8874  0.5173 -2.8106
 1459SOL     OW16009   0.319   4.462   6.055  0.2844  0.4910  0.0098
 1459SOL    HW116010   0.260   4.516   6.107  0.4905 -0.5528  1.3330
 1459SOL    HW216011   0.349   4.527   5.991  0.6859  1.3844  1.1180
 1460SOL     OW16012   1.416   3.679   2.791  0.3565  0.6940 -0.1847
 1460SOL    HW116013   1.359   3.605   2.773  1.6525 -0.6804  1.3802
 1460SOL    HW216014   1.359   3.709   2.862 -1.4475  2.7914 -2.5337
 1461SOL     OW16015   0.010   3.894  15.891  0.0840  0.4515 -0.2783
 1461SOL    HW116016   0.035   3.978  15.852  4.2076 -0.1633  1.1050
 1461SOL    HW216017   0.084   3.836  15.875 -0.4137 -0.2981  0.1671
 1462SOL     OW16018   3.793   1.512  11.494  0.3153  0.2043 -0.1948
 1462SOL    HW116019   3.828   1.599  11.475 -0.5240  0.4095 -0.8543
 1462SOL    HW216020   3.733   1.497  11.420 -1.0251  1.4043  0.6439
 1463SOL     OW16021   2.871   2.445   4.531 -0.6260 -0.0766  0.1175
 1463SOL    HW116022   2.953   2.397   4.541  0.8570  2.1305 -1.6405
 1463SOL    HW216023   2.813   2.395   4.473 -0.1968 -0.7729  0.2860
 1464SOL     OW16024   3.091   4.140  15.722  0.5608  0.3153  0.2751
 1464SOL    HW116025   3.071   4.109  15.634 -0.0937  0.9916  0.1891
 1464SOL    HW216026   3.036   4.082  15.774  2.3279 -0.3987  1.3414
 1465SOL     OW16027   1.117   3.605   5.000 -0.1142 -0.6226  0.4249
 1465SOL    HW116028   1.116   3.627   5.093  1.3845  0.1901  0.2503
 1465SOL    HW216029   1.193   3.548   4.987  0.3632 -0.0888  0.8719
 1466SOL     OW16030   2.145   2.713   3.418  0.0693  0.4421  0.6104
 1466SOL    HW116031   2.188   2.698   3.502 -0.6672  1.1466  1.1202
 1466SOL    HW216032   2.173   2.798   3.386 -0.8989 -0.2426 -2.0819
 1467SOL     OW16033   3.024   4.507  14.790  0.0452 -0.7255  0.3560
 1467SOL    HW116034   3.104   4.464  14.821  3.2388  2.5021 -3.3797
 1467SOL    HW216035   2.964   4.494  14.863  1.0359 -1.5291  1.0326
 1468SOL     OW16036   0.890   3.754   1.078  0.8160  0.3007  0.1838
 1468SOL    HW116037   0.863   3.836   1.036 -0.2503 -0.0026  0.2684
 1468SOL    HW216038   0.811   3.700   1.075 -0.5947  2.3781  0.0796
 1469SOL     OW16039   4.698   1.060  12.932  0.0747  0.0512  0.0687
 1469SOL    HW116040   0.031   0.996  12.913 -0.3824 -0.1421 -0.9248
 1469SOL    HW216041   4.628   1.001  12.963  1.2650 -0.5937  1.5171
 1470SOL     OW16042   4.690   0.538   3.380 -0.4517  0.0555  0.3402
 1470SOL    HW116043   4.683   0.628   3.411  2.4890  0.7482 -0.9831
 1470SOL    HW216044   4.722   0.502   3.463  0.6313 -2.1248 -1.0146
 1471SOL     OW16045   1.641   1.476   2.702  0.2665  0.2931  0.3366
 1471SOL    HW116046   1.691   1.553   2.728  2.1676 -0.9460  0.3804
 1471SOL    HW216047   1.555   1.517   2.713 -0.6114 -1.9355  1.6523
 1472SOL     OW16048   3.543   3.459   9.169  0.0721 -0.2730  0.1849
 1472SOL    HW116049   3.511   3.394   9.231  1.2079 -2.4681 -1.5182
 1472SOL    HW216050   3.485   3.535   9.165  0.2295 -0.2290 -1.3851
 1473SOL     OW16051   1.709   0.966   9.531 -0.3816 -0.4350  0.2128
 1473SOL    HW116052   1.714   0.878   9.567  0.9728 -0.9537 -1.2096
 1473SOL    HW216053   1.614   0.971   9.524 -0.3668  0.6428  0.8561
 1474SOL     OW16054   3.039   2.623   7.611 -0.1674 -0.2806  0.1696
 1474SOL    HW116055   2.981   2.553   7.581 -0.3648 -1.2918  2.9069
 1474SOL    HW216056   3.001   2.702   7.573  2.4490  0.6716 -0.4901
 1475SOL     OW16057   1.741   1.647  17.312  0.1470  0.1254  0.1709
 1475SOL    HW116058   1.762   1.652  17.219  0.4430 -0.3616  0.2125
 1475SOL    HW216059   1.733   1.739  17.337 -1.8528  0.2999 -1.0882
 1476SOL     OW16060   1.341   0.111   5.774 -0.2471  0.2884 -0.6108
 1476SOL    HW116061   1.295   0.121   5.857  0.6690 -0.1899 -0.0428
 1476SOL    HW216062   1.431   0.102   5.806 -0.6620 -0.2723  0.3647
 1477SOL     OW16063   2.951   1.917   3.067 -0.1828 -0.1917  0.1861
 1477SOL    HW116064   2.881   1.918   3.002  0.2601  0.5563 -0.2864
 1477SOL    HW216065   3.009   1.848   3.033 -2.1048 -1.9717  0.5303
 1478SOL     OW16066   1.182   0.747   7.910 -0.3165  0.1450  0.3340
 1478SOL    HW116067   1.117   0.817   7.921  1.7819  2.2374 -0.6686
 1478SOL    HW216068   1.171   0.704   7.995 -2.1200  1.4976  0.7735
 1479SOL     OW16069   0.203   0.535   6.174  0.2490 -0.3578 -0.1300
 1479SOL    HW116070   0.193   0.629   6.190  1.9388  0.2368 -2.5004
 1479SOL    HW216071   0.171   0.503   6.258 -2.6532 -0.9711 -1.4973
 1480SOL     OW16072   1.901   2.818   1.773 -0.2837  0.0603 -0.4297
 1480SOL    HW116073   1.858   2.894   1.811 -1.3134 -0.3677 -0.7108
 1480SOL    HW216074   1.831   2.763   1.737 -0.5095 -1.2098  1.9183
 1481SOL     OW16075   0.311   0.405   7.771 -0.0759 -0.1631 -0.2520
 1481SOL    HW116076   0.342   0.408   7.680  2.9803  0.0437  0.7961
 1481SOL    HW216077   0.221   0.374   7.760  0.4299 -1.5351 -0.4801
 1482SOL     OW16078   1.290   1.230   9.031  0.5064 -0.2188  0.3681
 1482SOL    HW116079   1.276   1.290   9.103  0.0417 -1.0156  0.9400
 1482SOL    HW216080   1.199   1.227   8.999  0.7864 -2.7127 -0.2299
 1483SOL     OW16081   1.954   3.607   2.121 -0.6132 -0.0106 -0.4081
 1483SOL    HW116082   2.038   3.652   2.111 -0.3781 -0.2251  0.6331
 1483SOL    HW216083   1.941   3.632   2.212 -0.4346 -0.7634 -0.1729
 1484SOL     OW16084   1.377   1.197  10.118 -0.1882  0.0817  0.0185
 1484SOL    HW116085   1.420   1.275  10.083 -1.4959  1.0983  0.6673
 1484SOL    HW216086   1.283   1.214  10.116 -0.4221 -1.1682  0.4902
 1485SOL     OW16087   0.239   4.410   0.756 -0.2191  0.4649 -0.7249
 1485SOL    HW116088   0.286   4.411   0.673  1.1872 -0.2302  0.0619
 1485SOL    HW216089   0.156   4.453   0.735 -1.0236 -0.1777  1.1540
 1486SOL     OW16090   2.179   3.213   5.213 -0.1546  0.3921 -0.5105
 1486SOL    HW116091   2.274   3.219   5.227 -0.3519  0.9288  0.5699
 1486SOL    HW216092   2.149   3.235   5.301  0.7618  0.4578 -0.2079
 1487SOL     OW16093   2.643   4.362   4.034  0.1636  0.0863  0.7014
 1487SOL    HW116094   2.635   4.375   3.940  1.5003 -0.2003  0.5459
 1487SOL    HW216095   2.573   4.300   4.052 -1.4958  1.4098 -1.2512
 1488SOL     OW16096   1.440   1.860   7.852  0.2121 -0.5508 -0.2843
 1488SOL    HW116097   1.516   1.834   7.800  1.6040  0.2848  1.3335
 1488SOL    HW216098   1.479   1.879   7.937  0.4386  0.6074 -0.6574
 1489SOL     OW16099   1.133   3.857   6.726  0.1115 -0.1572  0.1640
 1489SOL    HW116100   1.132   3.830   6.634  2.2939  0.4568 -0.0444
 1489SOL    HW216101   1.039   3.861   6.740  0.2421  3.2543  0.1013
 1490SOL     OW16102   1.427   0.557   5.070  0.1482 -0.2219  0.1148
 1490SOL    HW116103   1.466   0.610   5.000  0.3375  0.9263  1.0832
 1490SOL    HW216104   1.497   0.559   5.135  0.7062  0.5976 -0.4979
 1491SOL     OW16105   3.014   0.702  12.637 -0.3492 -0.1083  0.1938
 1491SOL    HW116106   2.965   0.652  12.572 -0.7744 -1.5706  1.6323
 1491SOL    HW216107   2.945   0.739  12.693 -0.6133  1.1643 -0.9851
 1492SOL     OW16108   0.545   1.976   8.948  0.3518  0.7271  0.1624
 1492SOL    HW116109   0.568   1.990   8.856 -1.4625 -2.7025 -0.8143
 1492SOL    HW216110   0.633   1.957   8.979  0.5260 -1.5352 -1.7666
 1493SOL     OW16111   0.586   1.831   9.821 -0.2870 -0.0671 -0.3901
 1493SOL    HW116112   0.644   1.822   9.746 -0.7268  0.7578 -0.8168
 1493SOL    HW216113   0.524   1.758   9.821 -0.0275 -0.2891  1.6089
 1494SOL     OW16114   0.780   4.262   1.754  0.0192 -0.1950  0.1451
 1494SOL    HW116115   0.808   4.354   1.754  2.8788 -1.0375 -1.7573
 1494SOL    HW216116   0.728   4.256   1.833  1.9657 -0.4418  1.4102
 1495SOL     OW16117   1.592   3.697   2.299 -0.3810 -0.2990 -0.3295
 1495SOL    HW116118   1.622   3.648   2.376  0.8792  0.7955 -0.1323
 1495SOL    HW216119   1.645   3.775   2.311  0.2999 -0.8579  0.3112
 1496SOL     OW16120   4.540   0.833   2.372 -0.1409  0.0775 -0.8805
 1496SOL    HW116121   4.452   0.798   2.362 -0.4025  0.5113 -0.1326
 1496SOL    HW216122   4.554   0.829   2.466 -1.9316  1.9349 -0.5185
 1497SOL     OW16123   2.468   4.219   8.693  0.2678 -0.4056  0.1245
 1497SOL    HW116124   2.506   4.271   8.764 -1.8719  1.5632 -0.1346
 1497SOL    HW216125   2.413   4.165   8.750  0.6331 -0.8101  0.0879
 1498SOL     OW16126   0.554   0.309   7.852 -0.0207 -0.0077  0.3289
 1498SOL    HW116127   0.459   0.320   7.862 -0.2772  1.1167 -3.1753
 1498SOL    HW216128   0.553   0.243   7.782 -0.8776  0.7745 -0.4043
 1499SOL     OW16129   0.552   4.103  11.461  0.1413 -0.0247  0.0594
 1499SOL    HW116130   0.490   4.135  11.527 -0.0162  0.6753 -0.4199
 1499SOL    HW216131   0.634   4.126  11.506  0.4612 -1.8016  0.3709
 1500SOL     OW16132   1.551   4.324   2.156  0.1125  0.3028  0.0462
 1500SOL    HW116133   1.497   4.396   2.189 -0.2080 -0.2207  0.6654
 1500SOL    HW216134   1.636   4.356   2.185  0.3532  0.8599 -1.2903
 1501SOL     OW16135   1.911   1.759   0.691  0.2099  0.2301  0.2000
 1501SOL    HW116136   1.926   1.781   0.783  0.9845 -0.9800  0.3634
 1501SOL    HW216137   1.838   1.818   0.673 -0.3734 -0.2696  0.9455
 1502SOL     OW16138   1.125   1.198   8.149 -0.5917 -0.3958  0.0530
 1502SOL    HW116139   1.070   1.264   8.192 -1.1493  0.1855 -1.5410
 1502SOL    HW216140   1.072   1.193   8.069 -0.2910  0.6176 -0.2052
 1503SOL     OW16141   1.818   0.419   5.381  0.3736  0.6900  0.0440
 1503SOL    HW116142   1.747   0.470   5.342 -1.6509 -0.9075  1.6086
 1503SOL    HW216143   1.841   0.476   5.454 -1.2102 -3.4573  3.7995
 1504SOL     OW16144   1.466   0.767   7.081 -0.1242  0.1427  0.8141
 1504SOL    HW116145   1.550   0.774   7.037 -0.8323  2.0414 -0.2097
 1504SOL    HW216146   1.413   0.807   7.012  0.7372  0.2134  0.1967
 1505SOL     OW16147   3.016   2.235   7.600  0.6512 -0.1787  0.3018
 1505SOL    HW116148   2.994   2.261   7.511 -3.0702 -1.7183  0.7666
 1505SOL    HW216149   2.931   2.240   7.644 -0.3636 -1.3130 -1.5171
 1506SOL     OW16150   0.790   2.264   1.687  0.6169  0.3053 -0.2446
 1506SOL    HW116151   0.824   2.317   1.759 -0.1002 -0.6403  0.7772
 1506SOL    HW216152   0.706   2.243   1.727  0.1962 -0.1696 -1.3931
 1507SOL     OW16153   4.314   3.274   1.346 -0.2648 -0.2851  0.0902
 1507SOL    HW116154   4.377   3.263   1.417  1.3522  4.2270 -0.6258
 1507SOL    HW216155   4.252   3.203   1.361 -0.9455  0.7081  2.0194
 1508SOL     OW16156   3.898   2.773  10.638  0.1771 -0.3096  0.4190
 1508SOL    HW116157   3.936   2.685  10.638  3.0829  0.9558 -0.7954
 1508SOL    HW216158   3.906   2.785  10.732 -0.5568 -1.4193  0.6220
 1509SOL     OW16159   3.688   1.525   2.252 -0.6077  0.7432  0.4672
 1509SOL    HW116160   3.646   1.586   2.191 -1.9840 -0.3807  0.2944
 1509SOL    HW216161   3.640   1.536   2.334  0.5724  1.3202  1.0738
 1510SOL     OW16162   4.546   4.021   1.671  0.1053 -0.3253 -0.0147
 1510SOL    HW116163   4.620   3.971   1.637 -0.4740 -0.4850 -1.0397
 1510SOL    HW216164   4.576   4.059   1.753  1.8945 -0.2643 -0.7203
 1511SOL     OW16165   1.522   1.306   5.294 -0.9197 -0.0009 -0.1967
 1511SOL    HW116166   1.601   1.286   5.344 -0.3590 -0.4675 -1.2643
 1511SOL    HW216167   1.555   1.346   5.214 -1.6565 -0.8524 -0.9317
 1512SOL     OW16168   3.601   3.869  16.754  0.3145 -0.1228 -0.8420
 1512SOL    HW116169   3.517   3.912  16.735  0.6021  0.0350 -1.7528
 1512SOL    HW216170   3.570   3.779  16.757  0.0082  0.0009 -0.2365
 1513SOL     OW16171   2.665   3.035  12.731 -0.1276 -0.5033  0.2230
 1513SOL    HW116172   2.743   2.988  12.703  1.6605  2.6105 -0.0575
 1513SOL    HW216173   2.596   2.978  12.698 -0.5863 -0.3994  1.0017
 1514SOL     OW16174   2.734   0.279   9.003 -0.2274  0.7053  0.3205
 1514SOL    HW116175   2.728   0.185   8.991  1.0312  0.6422  0.1747
 1514SOL    HW216176   2.772   0.291   9.090  0.6417  2.6351 -0.3199
 1515SOL     OW16177   2.367   3.875   1.741 -0.1776  0.9115  0.8543
 1515SOL    HW116178   2.457   3.905   1.747  0.5509 -0.6566 -2.2420
 1515SOL    HW216179   2.344   3.883   1.648  2.9833 -0.5528 -0.0417
 1516SOL     OW16180   4.719   1.217   6.794  0.2730  0.2928 -0.5722
 1516SOL    HW116181   0.009   1.132   6.830  0.4305  0.4914 -0.2084
 1516SOL    HW216182   4.673   1.261   6.866  0.7431  0.5689 -0.4419
 1517SOL     OW16183   0.095   1.156   7.275  0.1589 -0.3158 -0.4876
 1517SOL    HW116184   0.107   1.076   7.327  0.1064  0.0948  0.1584
 1517SOL    HW216185   0.111   1.217   7.347 -1.1451 -0.4686 -0.0679
 1518SOL     OW16186   2.454   2.800  15.192 -0.1989 -0.0452 -0.3090
 1518SOL    HW116187   2.461   2.805  15.287 -0.0952 -0.4162 -0.2987
 1518SOL    HW216188   2.360   2.806  15.179 -0.3971  1.6484  1.8554
 1519SOL     OW16189   2.350   4.708  11.197  0.5991  0.5440  0.3679
 1519SOL    HW116190   2.312   4.685  11.112  0.3781 -0.9944  0.8867
 1519SOL    HW216191   2.364   0.066  11.188 -0.7311  0.5896 -1.2441
 1520SOL     OW16192   4.616   1.576  13.274 -0.4202 -0.3774 -0.3625
 1520SOL    HW116193   4.685   1.557  13.337 -1.5605  0.2045  1.0700
 1520SOL    HW216194   4.667   1.575  13.193  1.0997 -1.4047  0.6067
 1521SOL     OW16195   3.857   1.904   7.609  0.2519 -0.0668  0.6863
 1521SOL    HW116196   3.938   1.868   7.573  0.5942  0.3518  1.0492
 1521SOL    HW216197   3.824   1.828   7.657 -1.2071  1.2099  1.6841
 1522SOL     OW16198   2.950   0.062   0.906 -0.7069 -0.0658 -0.2502
 1522SOL    HW116199   2.893   4.735   0.949 -1.3543  1.3006  0.9100
 1522SOL    HW216200   2.950   0.133   0.970 -0.5521  0.5290 -0.8970
 1523SOL     OW16201   0.687   4.271   5.530 -0.6235 -0.8862  0.2437
 1523SOL    HW116202   0.774   4.231   5.525  0.8725  2.2111  1.0956
 1523SOL    HW216203   0.697   4.297   5.621 -1.5047  1.1989 -0.2446
 1524SOL     OW16204   0.484   4.666   3.445 -0.3128 -0.2982  0.3598
 1524SOL    HW116205   0.511   0.019   3.469 -0.7314 -0.0177 -0.1939
 1524SOL    HW216206   0.511   4.618   3.523  0.8740  1.0362  0.7735
 1525SOL     OW16207   2.123   3.924   5.759  0.4972 -0.6303  0.3896
 1525SOL    HW116208   2.027   3.925   5.750  0.7917 -0.2728 -2.5274
 1525SOL    HW216209   2.154   4.014   5.767 -2.6158  0.5421 -0.4523
 1526SOL     OW16210   2.957   4.197   2.155  0.1587 -0.5701 -0.7831
 1526SOL    HW116211   2.938   4.103   2.159  1.9661 -0.9946 -2.0399
 1526SOL    HW216212   3.048   4.202   2.186 -0.6840  3.2818  1.0701
 1527SOL     OW16213   3.326   0.111   1.586  0.3308  0.2878 -0.0313
 1527SOL    HW116214   3.414   0.089   1.617  0.3519 -0.1903 -0.4298
 1527SOL    HW216215   3.340   0.119   1.492 -1.6604  1.6982 -0.2054
 1528SOL     OW16216   3.102   3.910   8.583  0.2618 -0.2176  0.9407
 1528SOL    HW116217   3.074   3.968   8.512  1.0549  0.0956  0.8909
 1528SOL    HW216218   3.197   3.908   8.581  0.2127  0.2030 -2.2721
 1529SOL     OW16219   0.915   3.407   1.980 -0.6577  0.2705 -0.1546
 1529SOL    HW116220   0.928   3.502   1.982 -0.7944  0.2817  0.1577
 1529SOL    HW216221   0.823   3.392   2.005 -1.0784  1.8313 -0.7547
 1530SOL     OW16222   2.754   3.036   7.787 -0.0482 -0.0348  0.0292
 1530SOL    HW116223   2.713   3.119   7.763 -1.8324 -1.0877 -0.5224
 1530SOL    HW216224   2.734   3.029   7.880  0.0070  0.5326  0.0855
 1531SOL     OW16225   4.360   0.385   7.932  0.3053  0.4774  0.2683
 1531SOL    HW116226   4.429   0.333   7.973  0.3740  0.6668  0.3950
 1531SOL    HW216227   4.297   0.395   8.003 -0.5172 -0.1598 -0.3664
 1532SOL     OW16228   4.087   4.697   9.748  0.1208  0.4470 -0.2413
 1532SOL    HW116229   4.121   4.731   9.830  1.1334 -0.5140 -0.2542
 1532SOL    HW216230   4.143   4.619   9.754 -1.4005 -0.7790 -1.8338
 1533SOL     OW16231   4.707   1.414  10.361 -0.9337 -0.3585  0.5826
 1533SOL    HW116232   4.676   1.374  10.279  0.9892  0.7368 -0.6761
 1533SOL    HW216233   4.652   1.363  10.419  1.0549 -0.4567  2.3832
 1534SOL     OW16234   2.117   0.009  17.523 -0.2520  0.5399  0.1328
 1534SOL    HW116235   2.082   0.051  17.445  0.4674 -1.1316 -1.0857
 1534SOL    HW216236   2.105   4.650  17.520  2.6407  0.1472  0.6421
 1535SOL     OW16237   1.515   2.824   0.331  0.1575  0.0330  0.3789
 1535SOL    HW116238   1.429   2.837   0.290  0.6427 -2.5080 -1.4738
 1535SOL    HW216239   1.548   2.749   0.281  0.5571 -0.1518  0.9181
 1536SOL     OW16240   0.396   1.924   6.308 -0.2545 -0.2371 -0.4616
 1536SOL    HW116241   0.322   1.946   6.250  1.3217  0.6637 -2.1147
 1536SOL    HW216242   0.411   2.013   6.340  0.3130 -0.4102 -0.2641
 1537SOL     OW16243   0.132   3.499  11.097  0.3326  0.2175 -0.0047
 1537SOL    HW116244   0.165   3.477  11.184 -0.7845 -1.8540 -0.1134
 1537SOL    HW216245   0.065   3.431  11.090 -1.2955  1.9954 -1.6009
 1538SOL     OW16246   4.567   1.287  17.197  0.5797 -0.1823  0.8848
 1538SOL    HW116247   4.545   1.220  17.261 -0.6126  1.1581  1.8700
 1538SOL    HW216248   4.662   1.293  17.200  0.6163  0.9820 -2.3921
 1539SOL     OW16249   1.187   4.109   1.823  0.0123  0.2957  0.1225
 1539SOL    HW116250   1.138   4.132   1.903 -1.1928 -2.3708  0.1420
 1539SOL    HW216251   1.267   4.157   1.844 -0.2173  0.5604  0.4071
 1540SOL     OW16252   1.951   1.372  11.577 -0.1151 -0.1492 -0.0848
 1540SOL    HW116253   1.909   1.316  11.643 -0.2441  0.8700  0.6974
 1540SOL    HW216254   1.886   1.425  11.530 -0.4059 -1.4442 -1.1318
 1541SOL     OW16255   3.106   3.559   9.181  0.3045  0.0101 -0.1813
 1541SOL    HW116256   3.068   3.643   9.155 -3.2241 -0.8849  2.2272
 1541SOL    HW216257   3.197   3.582   9.202  0.4152 -2.2066  1.7008
 1542SOL     OW16258   3.424   0.538   1.706 -0.1381  0.1913  0.0893
 1542SOL    HW116259   3.383   0.617   1.671 -0.1131  0.3231  0.3600
 1542SOL    HW216260   3.359   0.507   1.768 -1.9441  1.2220 -1.2943
 1543SOL     OW16261   0.537   3.246   0.562 -0.1622  0.0610 -0.6523
 1543SOL    HW116262   0.521   3.160   0.525 -0.0540 -0.0491 -0.4426
 1543SOL    HW216263   0.453   3.267   0.603  0.1768  1.1021 -0.4930
 1544SOL     OW16264   4.639   3.688   2.521 -0.0130 -0.0927  0.1150
 1544SOL    HW116265   4.628   3.782   2.537 -0.8148 -0.0259 -0.8082
 1544SOL    HW216266   4.651   3.658   2.611  1.4566  1.5267  0.4625
 1545SOL     OW16267   2.456   2.131  14.225  0.5927  0.2092 -0.4122
 1545SOL    HW116268   2.443   2.143  14.130 -1.4532 -0.0883 -0.1774
 1545SOL    HW216269   2.368   2.126  14.262  0.6745 -1.1856 -0.4119
 1546SOL     OW16270   2.926   2.783   5.284  0.4516 -0.5648 -0.9865
 1546SOL    HW116271   2.845   2.804   5.237 -0.9542 -2.4745  0.5417
 1546SOL    HW216272   2.943   2.691   5.261  0.2102 -0.5842 -1.0907
 1547SOL     OW16273   0.506   3.759  11.125 -0.4352  0.2181  0.1800
 1547SOL    HW116274   0.537   3.718  11.044  0.1482 -1.1497  1.0847
 1547SOL    HW216275   0.556   3.840  11.134 -1.7664  1.1730 -1.0316
 1548SOL     OW16276   4.221   0.952   9.304  0.2849  0.6549 -0.1641
 1548SOL    HW116277   4.298   0.947   9.247  0.9389  1.8898  0.6127
 1548SOL    HW216278   4.166   0.994   9.237  0.1577 -1.5615 -1.4371
 1549SOL     OW16279   3.890   0.881   1.367  1.0654  0.3470 -0.2235
 1549SOL    HW116280   3.912   0.861   1.458  1.9771 -0.4012 -0.6049
 1549SOL    HW216281   3.883   0.798   1.320  0.1250  1.1044 -1.4303
 1550SOL     OW16282   1.237   1.633   5.832  0.3878 -0.1179  0.6288
 1550SOL    HW116283   1.311   1.690   5.852 -0.1475  0.9555 -0.4559
 1550SOL    HW216284   1.161   1.690   5.841 -0.8880 -1.3964 -1.9476
 1551SOL     OW16285   3.908   1.000   2.165  0.2780 -0.4348  0.0839
 1551SOL    HW116286   3.878   0.910   2.178 -1.6617 -0.0489 -1.6504
 1551SOL    HW216287   3.823   1.043   2.154  1.2154  1.7753  1.5483
 1552SOL     OW16288   0.383   4.479  11.380 -0.0898 -0.4131  0.1227
 1552SOL    HW116289   0.289   4.481  11.361 -0.1605  1.2482  0.6310
 1552SOL    HW216290   0.403   4.572  11.369  1.0896 -0.3954  2.5656
 1553SOL     OW16291   3.362   2.468   7.621  0.2884  0.0469  0.1534
 1553SOL    HW116292   3.393   2.397   7.677  1.2641 -0.8864 -1.5943
 1553SOL    HW216293   3.417   2.540   7.653 -0.6950  0.2831  1.3496
 1554SOL     OW16294   1.238   2.585  13.425  0.2014  0.7846  0.5202
 1554SOL    HW116295   1.182   2.511  13.447  2.5874 -1.2986 -0.4456
 1554SOL    HW216296   1.280   2.608  13.508  1.3149  2.2988 -0.4577
 1555SOL     OW16297   3.648   4.430  15.491  0.2508 -0.7362  0.3427
 1555SOL    HW116298   3.598   4.493  15.439  1.0171  1.4044  2.2405
 1555SOL    HW216299   3.731   4.437  15.445 -0.8559 -1.1500 -1.7323
 1556SOL     OW16300   0.085   4.693  17.518  0.8343  0.2145  0.0339
 1556SOL    HW116301   0.082   0.037  17.467  0.6212  0.4255  0.3780
 1556SOL    HW216302   0.085   4.725  17.608 -2.9518 -0.3186  0.2409
 1557SOL     OW16303   3.060   3.191   7.138  0.3648 -0.2130  0.0887
 1557SOL    HW116304   3.108   3.189   7.055 -1.3848  1.1656 -0.9553
 1557SOL    HW216305   2.970   3.191   7.105  0.2117  0.8843  0.5117
 1558SOL     OW16306   1.545   2.696   3.513  0.0278  0.2918 -0.0230
 1558SOL    HW116307   1.521   2.742   3.593 -1.6973  1.7518 -1.3811
 1558SOL    HW216308   1.619   2.745   3.477 -0.1751 -1.2794 -2.5863
 1559SOL     OW16309   2.506   2.688   6.706 -0.3487  0.2841 -0.1965
 1559SOL    HW116310   2.502   2.781   6.725 -4.4339  0.0086  0.4454
 1559SOL    HW216311   2.457   2.697   6.625 -0.5639  0.6516 -0.0266
 1560SOL     OW16312   2.607   2.560   4.390  0.7739  0.0736  0.3483
 1560SOL    HW116313   2.578   2.606   4.312  0.7485  4.4628  2.9671
 1560SOL    HW216314   2.700   2.568   4.373 -0.2759  2.6407 -3.9892
 1561SOL     OW16315   1.803   0.756   8.469 -0.5278  0.6035 -0.1131
 1561SOL    HW116316   1.843   0.726   8.387 -1.9845 -2.8937  0.4596
 1561SOL    HW216317   1.776   0.676   8.514 -0.0332  0.0573 -0.7763
 1562SOL     OW16318   3.575   3.693   8.441 -0.0640  0.1516 -0.3819
 1562SOL    HW116319   3.480   3.709   8.446  0.4053  2.5785  0.3094
 1562SOL    HW216320   3.581   3.642   8.360 -2.5933 -2.3722  0.9836
 1563SOL     OW16321   1.247   1.776   9.102  0.7063 -0.4188  0.2801
 1563SOL    HW116322   1.343   1.784   9.104  0.5151  1.5138  2.2392
 1563SOL    HW216323   1.219   1.840   9.167 -0.2995 -1.3227  0.7316
 1564SOL     OW16324   0.845   4.461   4.947  0.3422  0.5667 -0.0418
 1564SOL    HW116325   0.835   4.533   5.008  3.1492  1.1368 -0.2569
 1564SOL    HW216326   0.896   4.490   4.871 -1.6013  3.9353 -0.0183
 1565SOL     OW16327   1.080   0.522   3.003  0.2309  0.0867  0.2391
 1565SOL    HW116328   1.032   0.445   3.034  0.6251  0.1030  0.8928
 1565SOL    HW216329   1.139   0.489   2.936  0.1854  0.7929 -0.1473
 1566SOL     OW16330   1.602   4.425   3.747 -0.1840 -0.1739  0.6031
 1566SOL    HW116331   1.593   4.365   3.673  0.6887  2.5039 -1.6768
 1566SOL    HW216332   1.513   4.425   3.781 -0.1237  0.6749  0.7567
 1567SOL     OW16333   2.285   1.929   4.459 -0.1290 -0.0246 -0.0991
 1567SOL    HW116334   2.271   1.876   4.537  1.8011 -1.9957 -1.1027
 1567SOL    HW216335   2.373   1.914   4.425 -1.1276 -2.8057 -1.4349
 1568SOL     OW16336   1.330   3.916   8.950  0.0163 -0.4098 -0.1448
 1568SOL    HW116337   1.379   3.996   8.927  0.1606  0.0006  1.5590
 1568SOL    HW216338   1.406   3.873   8.990  0.1877 -0.9836 -1.0823
 1569SOL     OW16339   2.615   0.180   5.301 -0.3636 -0.1547  0.1690
 1569SOL    HW116340   2.642   0.104   5.352 -3.2184 -0.3077  1.4577
 1569SOL    HW216341   2.696   0.224   5.324 -0.1707 -0.4104 -0.0196
 1570SOL     OW16342   0.538   4.570   9.007  0.1309  0.5536  0.0518
 1570SOL    HW116343   0.562   4.558   9.099  2.5594  0.9722 -0.5077
 1570SOL    HW216344   0.587   4.648   8.978  0.3433  0.2581 -0.3818
 1571SOL     OW16345   2.068   2.774   5.794 -0.0858 -0.0556  0.2851
 1571SOL    HW116346   2.125   2.717   5.742 -1.2549  1.2017 -2.3597
 1571SOL    HW216347   2.049   2.729   5.876 -1.1272  2.7764  1.5847
 1572SOL     OW16348   2.730   4.131   4.901  0.0322  0.9142  0.7069
 1572SOL    HW116349   2.664   4.186   4.944 -0.5859  0.3746  0.4565
 1572SOL    HW216350   2.775   4.093   4.977  0.6861  3.0070  1.3575
 1573SOL     OW16351   1.002   3.550  10.695 -0.9609  0.0900 -0.1859
 1573SOL    HW116352   1.032   3.563  10.786 -1.2567  0.7694 -0.1904
 1573SOL    HW216353   1.084   3.514  10.660 -1.3106  0.7301 -1.6216
 1574SOL     OW16354   4.334   1.217   6.295  0.6064  0.2091 -0.1577
 1574SOL    HW116355   4.404   1.270   6.258 -0.4959  2.8987  1.6392
 1574SOL    HW216356   4.344   1.145   6.232  0.1881 -0.1119  0.1374
 1575SOL     OW16357   4.052   2.104   1.296  0.1372  0.3257 -0.4489
 1575SOL    HW116358   3.960   2.082   1.303  0.2228  0.3604  0.9409
 1575SOL    HW216359   4.092   2.028   1.254 -0.7884 -0.9777  1.0214
 1576SOL     OW16360   2.322   1.605   7.943  0.1421  0.3517  0.2474
 1576SOL    HW116361   2.345   1.698   7.951 -1.3386  0.6598  1.0355
 1576SOL    HW216362   2.398   1.563   7.904  0.4064  0.6680  0.4177
 1577SOL     OW16363   2.668   1.213  12.100 -0.0517 -0.2530  0.2827
 1577SOL    HW116364   2.757   1.246  12.095 -0.1614  0.1532  0.9894
 1577SOL    HW216365   2.618   1.285  12.061 -0.7024  0.5368  2.5405
 1578SOL     OW16366   0.462   3.252   9.569 -0.6343 -0.0408 -0.1801
 1578SOL    HW116367   0.475   3.253   9.474 -0.6774  1.2501 -0.1719
 1578SOL    HW216368   0.543   3.208   9.594  0.3635  0.8249 -1.9103
 1579SOL     OW16369   2.297   1.743   8.776 -1.0552 -0.1710 -0.0536
 1579SOL    HW116370   2.275   1.677   8.710  2.7125  0.4820 -1.9243
 1579SOL    HW216371   2.388   1.755   8.748 -1.4549  0.0048 -1.3035
 1580SOL     OW16372   0.215   2.429   1.405  0.6346 -0.1000 -0.3361
 1580SOL    HW116373   0.169   2.351   1.376 -1.4224  0.7970  0.4804
 1580SOL    HW216374   0.302   2.399   1.430  0.1829 -0.2843  1.0404
 1581SOL     OW16375   1.106   0.053  11.880 -0.0207 -0.5197 -0.2958
 1581SOL    HW116376   1.045   0.022  11.947 -2.7080  2.8763 -1.2221
 1581SOL    HW216377   1.047   0.044  11.804  0.1646  0.4996 -0.5561
 1582SOL     OW16378   2.252   2.700   6.912 -0.1259 -0.3708  0.2718
 1582SOL    HW116379   2.346   2.684   6.908  0.1391  0.6610  2.3297
 1582SOL    HW216380   2.247   2.784   6.959 -0.8249  0.1835 -0.7947
 1583SOL     OW16381   2.382   4.367  13.915 -0.3060 -0.0488  0.4326
 1583SOL    HW116382   2.461   4.418  13.933 -0.9749  1.7592 -1.7529
 1583SOL    HW216383   2.402   4.341  13.825 -1.5052 -1.9834  0.7272
 1584SOL     OW16384   2.770   2.474   7.642 -0.2087 -0.2583 -0.2401
 1584SOL    HW116385   2.699   2.508   7.697 -2.3701 -3.2764 -1.1121
 1584SOL    HW216386   2.772   2.387   7.682  2.1716  0.5756  1.4210
 1585SOL     OW16387   0.808   1.814   4.584  0.2707  0.0758  0.6398
 1585SOL    HW116388   0.734   1.770   4.543  2.3265 -1.2273 -1.6848
 1585SOL    HW216389   0.804   1.897   4.536  1.4296 -0.3299 -0.1556
 1586SOL     OW16390   1.606   2.695   8.426  0.2109 -0.0473 -0.4271
 1586SOL    HW116391   1.591   2.782   8.463  2.5419 -0.1018  0.6753
 1586SOL    HW216392   1.685   2.679   8.479 -2.7026 -3.1945  2.9980
 1587SOL     OW16393   0.238   2.357   8.220 -0.0322 -0.0677 -0.3711
 1587SOL    HW116394   0.143   2.359   8.211  0.1707  1.5828 -2.1185
 1587SOL    HW216395   0.239   2.371   8.315  1.4166 -0.5062 -0.3062
 1588SOL     OW16396   1.304   4.616  11.872  0.0420  0.5120  0.2870
 1588SOL    HW116397   1.255   4.695  11.848 -1.9968 -1.3964 -1.8397
 1588SOL    HW216398   1.263   4.602  11.957 -1.4467 -0.6046 -0.6199
 1589SOL     OW16399   4.106   4.134   2.574 -0.4051  0.4412  0.2220
 1589SOL    HW116400   4.051   4.187   2.632 -1.4429  2.4741 -2.5643
 1589SOL    HW216401   4.131   4.203   2.512  0.6651  1.9022  2.2771
 1590SOL     OW16402   1.223   0.988   1.634 -0.8900  0.4083  0.6342
 1590SOL    HW116403   1.288   1.057   1.621 -0.7535  0.5012  1.7793
 1590SOL    HW216404   1.238   0.923   1.566  1.2555  0.9690  0.5660
 1591SOL     OW16405   2.094   1.822  13.549 -0.5943 -0.4236 -0.7156
 1591SOL    HW116406   2.075   1.730  13.530  0.3489 -1.3231  2.6286
 1591SOL    HW216407   2.168   1.831  13.609 -1.6511 -3.1670  1.0323
 1592SOL     OW16408   2.534   2.883   8.384  0.0108  0.2748 -0.2765
 1592SOL    HW116409   2.618   2.928   8.384  0.1322  0.0346  1.6800
 1592SOL    HW216410   2.564   2.793   8.396 -1.3765  0.1040  2.0057
 1593SOL     OW16411   1.591   2.037   7.111  0.2127 -0.0526 -0.6760
 1593SOL    HW116412   1.585   2.132   7.120 -1.0494 -0.0437 -1.5696
 1593SOL    HW216413   1.621   2.023   7.021  1.0042  0.0257 -0.4263
 1594SOL     OW16414   2.227   1.207  15.344  0.0170 -0.6391  0.6986
 1594SOL    HW116415   2.317   1.220  15.314 -0.1773  2.5546  1.4532
 1594SOL    HW216416   2.212   1.125  15.299  1.1200  0.3382 -1.4407
 1595SOL     OW16417   1.441   4.507  13.565 -0.3906  0.1497 -0.2488
 1595SOL    HW116418   1.488   4.572  13.514  0.4688 -0.7975 -0.6666
 1595SOL    HW216419   1.490   4.506  13.647  0.5614 -0.4342 -0.8203
 1596SOL     OW16420   0.839   3.216   1.053 -0.1520 -0.2468 -0.3917
 1596SOL    HW116421   0.747   3.199   1.030 -0.7002  1.6282  0.4143
 1596SOL    HW216422   0.821   3.303   1.089 -1.0897  0.1992 -1.9082
 1597SOL     OW16423   4.700   3.069  12.631  0.4153  0.6322  0.2470
 1597SOL    HW116424   4.727   3.104  12.547 -2.5531  0.3586 -0.7907
 1597SOL    HW216425   0.049   3.061  12.675  0.0421  2.4123  1.2912
 1598SOL     OW16426   3.678   3.200   3.599 -0.0348  0.0411 -0.0533
 1598SOL    HW116427   3.693   3.270   3.663  0.9202  1.7561 -2.1885
 1598SOL    HW216428   3.630   3.239   3.526 -0.2947  1.7910  1.0541
 1599SOL     OW16429   1.957   4.437   5.116  0.1764  0.1761  0.7644
 1599SOL    HW116430   2.042   4.480   5.121  0.1505  0.1145  1.6194
 1599SOL    HW216431   1.903   4.516   5.119 -0.4587 -0.2496  0.4878
 1600SOL     OW16432   0.182   4.662   1.317 -0.2988 -0.3358  0.0501
 1600SOL    HW116433   0.206   4.723   1.247 -0.5920 -2.2251 -1.7086
 1600SOL    HW216434   0.187   4.575   1.278 -0.5670  0.7679 -2.4742
 1601SOL     OW16435   0.415   0.349   5.672 -0.1095  0.1246 -0.0209
 1601SOL    HW116436   0.488   0.405   5.697 -0.9933  0.9515  0.7309
 1601SOL    HW216437   0.356   0.389   5.736 -1.3563 -0.1019 -1.0247
 1602SOL     OW16438   4.581   3.009   3.356 -0.1336 -0.6926  0.0044
 1602SOL    HW116439   4.532   2.963   3.288 -4.0707  2.2820  0.8571
 1602SOL    HW216440   4.589   3.101   3.330  1.8003 -0.7302  0.4675
 1603SOL     OW16441   4.314   2.817  17.505 -0.5330  0.3403  0.1653
 1603SOL    HW116442   4.374   2.843  17.435 -1.6528 -0.5191 -1.1166
 1603SOL    HW216443   4.370   2.780  17.574 -0.9736 -0.2707  0.2016
 1604SOL     OW16444   0.311   3.288   1.240 -0.0303 -0.2838 -0.6415
 1604SOL    HW116445   0.339   3.374   1.210 -0.4891  0.5875  1.4839
 1604SOL    HW216446   0.236   3.275   1.181  0.8649 -2.3601 -1.3132
 1605SOL     OW16447   3.609   2.008   8.345  0.0450  0.7402 -0.3473
 1605SOL    HW116448   3.594   1.923   8.303  1.3768 -0.2278  1.1108
 1605SOL    HW216449   3.638   2.058   8.269 -1.3568  0.2400 -1.2230
 1606SOL     OW16450   4.709   0.295  16.682  0.6209 -0.4360 -0.0293
 1606SOL    HW116451   4.646   0.255  16.741  1.7126  0.2607  1.5922
 1606SOL    HW216452   4.656   0.368  16.650 -0.0476 -0.1547  1.7307
 1607SOL     OW16453   0.106   1.059   7.007  0.2452 -0.0025  0.8521
 1607SOL    HW116454   0.037   1.000   7.037 -0.6105 -0.5357 -2.2040
 1607SOL    HW216455   0.109   1.114   7.086  1.3899  1.5653 -0.2758
 1608SOL     OW16456   2.790   0.422   6.709  0.2117  0.2995 -0.7003
 1608SOL    HW116457   2.808   0.407   6.802 -1.0759  2.1745 -0.1448
 1608SOL    HW216458   2.749   0.339   6.684  1.2605 -0.5623  0.4676
 1609SOL     OW16459   2.511   1.143   8.390  0.3073 -0.2423 -0.1759
 1609SOL    HW116460   2.577   1.161   8.323  1.0957 -1.6533  0.2128
 1609SOL    HW216461   2.547   1.066   8.433 -0.1361 -0.9778 -1.1031
 1610SOL     OW16462   1.665   1.395   5.062 -0.1110 -0.3345 -0.0784
 1610SOL    HW116463   1.689   1.426   4.975 -0.8852 -1.7760 -0.7956
 1610SOL    HW216464   1.753   1.378   5.098  0.4769  0.3463 -1.2000
 1611SOL     OW16465   0.432   3.651   3.742  0.0776 -0.0647  0.1435
 1611SOL    HW116466   0.512   3.643   3.794 -0.2293  0.3410  0.6858
 1611SOL    HW216467   0.458   3.722   3.684 -0.0516 -2.0078 -2.3124
 1612SOL     OW16468   3.868   2.905   6.180 -0.2008  0.0058  0.3250
 1612SOL    HW116469   3.810   2.831   6.197 -0.6584  0.3543  0.2687
 1612SOL    HW216470   3.950   2.857   6.167  0.7143  1.9629 -1.1616
 1613SOL     OW16471   1.598   2.286   6.949 -0.3017 -0.3082  0.4048
 1613SOL    HW116472   1.579   2.304   7.041  3.9665 -0.4888  1.3008
 1613SOL    HW216473   1.691   2.309   6.945 -0.5129  0.8451  2.1477
 1614SOL     OW16474   1.568   2.380   2.722  0.1008  0.4243  0.0229
 1614SOL    HW116475   1.512   2.424   2.786  1.4947 -0.7450  2.0129
 1614SOL    HW216476   1.508   2.392   2.648 -0.0843 -0.6376  0.0112
 1615SOL     OW16477   3.140   0.149   1.783  0.1874 -0.7000 -0.6111
 1615SOL    HW116478   3.199   0.123   1.854 -0.7201  1.1369  0.8018
 1615SOL    HW216479   3.189   0.128   1.703  0.4907 -0.0683 -0.5902
 1616SOL     OW16480   1.799   1.588  17.057 -0.3618 -0.5056 -0.6853
 1616SOL    HW116481   1.723   1.622  17.010  0.1273 -0.2558 -1.3054
 1616SOL    HW216482   1.861   1.620  16.991  0.7972 -1.5926 -0.1255
 1617SOL     OW16483   3.002   4.221   3.091  0.2064  0.6696  0.1123
 1617SOL    HW116484   2.931   4.240   3.030  1.8097 -1.2275 -2.3456
 1617SOL    HW216485   3.079   4.228   3.035  0.5684 -2.0144  0.2737
 1618SOL     OW16486   2.322   2.289  15.254  0.0895  0.4947  0.9454
 1618SOL    HW116487   2.252   2.354  15.258 -1.1986 -0.8600  0.5366
 1618SOL    HW216488   2.403   2.338  15.243 -1.0245  1.6181 -2.0829
 1619SOL     OW16489   1.590   3.046   5.601 -0.2163 -0.1668  0.0779
 1619SOL    HW116490   1.592   3.058   5.506 -2.5077  1.5469  0.2466
 1619SOL    HW216491   1.513   3.098   5.622 -0.4771 -1.3624  2.1233
 1620SOL     OW16492   3.021   2.903   5.921 -0.2528  0.3735 -0.7587
 1620SOL    HW116493   3.063   2.838   5.977 -0.0408  0.4325 -0.8493
 1620SOL    HW216494   2.935   2.861   5.914 -0.1985 -0.1401  1.8676
 1621SOL     OW16495   4.148   1.790   6.007 -0.3964  0.8267 -0.2688
 1621SOL    HW116496   4.171   1.845   5.933  0.4914  2.4619  1.2179
 1621SOL    HW216497   4.219   1.797   6.071  0.9826 -1.5355 -1.5536
 1622SOL     OW16498   2.762   1.705  11.195  0.1703 -0.2779  0.1980
 1622SOL    HW116499   2.786   1.683  11.105  2.6718 -0.4868  0.8972
 1622SOL    HW216500   2.818   1.780  11.215 -0.3859 -0.0238  0.8063
 1623SOL     OW16501   3.174   0.173   0.209  0.0158  0.6336  0.1022
 1623SOL    HW116502   3.179   0.232   0.134 -2.2128 -0.1209 -0.6274
 1623SOL    HW216503   3.092   0.129   0.186 -1.3590  1.7426  2.8311
 1624SOL     OW16504   0.049   2.607   9.647  0.4637  0.1067 -0.2328
 1624SOL    HW116505   4.721   2.548   9.606 -1.2470  1.8031 -0.0168
 1624SOL    HW216506   0.010   2.616   9.734 -0.0386  1.1465 -0.5659
 1625SOL     OW16507   4.137   1.522   6.775  0.3390 -0.3204 -0.2043
 1625SOL    HW116508   4.211   1.496   6.831  0.3079 -1.3511 -0.6317
 1625SOL    HW216509   4.187   1.522   6.693 -0.6134 -1.6727 -0.7765
 1626SOL     OW16510   3.419   1.152   1.527 -0.7872 -0.4519 -0.0314
 1626SOL    HW116511   3.440   1.191   1.611 -0.2474 -1.1220  0.1482
 1626SOL    HW216512   3.389   1.231   1.481 -0.9821  0.1803  1.1992
 1627SOL     OW16513   2.302   1.455   1.513 -0.2368 -0.0362 -0.3363
 1627SOL    HW116514   2.309   1.366   1.550 -0.2428 -0.2774 -0.9236
 1627SOL    HW216515   2.226   1.446   1.456 -0.2951  1.4768 -0.4939
 1628SOL     OW16516   0.435   1.154   6.420  0.7558 -0.2569  0.0683
 1628SOL    HW116517   0.512   1.193   6.461  0.4353 -1.0854  1.4531
 1628SOL    HW216518   0.447   1.180   6.328 -1.3311 -1.5121 -0.5648
 1629SOL     OW16519   2.242   0.609   9.118 -0.1877  0.2008 -0.3530
 1629SOL    HW116520   2.251   0.646   9.030  0.3663 -0.0352 -0.3945
 1629SOL    HW216521   2.157   0.649   9.133 -0.3181 -0.0054 -0.5353
 1630SOL     OW16522   4.698   3.404  14.272  0.0693 -0.0707  0.0086
 1630SOL    HW116523   4.698   3.448  14.187  0.2160 -0.3283 -0.1256
 1630SOL    HW216524   0.014   3.328  14.243 -0.7848  0.0515 -1.8160
 1631SOL     OW16525   0.085   2.585   5.912 -0.2213 -0.3077 -0.2446
 1631SOL    HW116526   0.138   2.658   5.881  0.4521 -0.6635  0.0703
 1631SOL    HW216527   0.149   2.514   5.905 -0.1529  0.0565 -3.0952
 1632SOL     OW16528   4.385   4.321   3.979 -0.4812 -0.8788 -0.0261
 1632SOL    HW116529   4.379   4.334   4.073 -1.4704  0.3137 -0.2515
 1632SOL    HW216530   4.293   4.298   3.962 -0.7721 -2.9430  4.4528
 1633SOL     OW16531   0.156   0.511   8.020 -0.0562 -0.3739 -0.0012
 1633SOL    HW116532   0.135   0.603   8.001 -1.6521 -0.3754  1.8409
 1633SOL    HW216533   0.218   0.493   7.948  0.2617  2.5604 -0.4761
 1634SOL     OW16534   0.969   4.268   5.126  0.2359  0.4811 -0.4064
 1634SOL    HW116535   0.937   4.346   5.082  0.9594 -0.3738 -2.4268
 1634SOL    HW216536   1.062   4.271   5.105  0.4453  0.4766  0.4859
 1635SOL     OW16537   0.388   2.433   8.029  0.0237  0.2003 -0.3558
 1635SOL    HW116538   0.328   2.412   8.101 -0.7316  0.3551 -0.9506
 1635SOL    HW216539   0.334   2.477   7.964 -0.4836 -0.9955 -0.7365
 1636SOL     OW16540   0.263   4.584   9.001 -0.6226 -0.0576 -0.1234
 1636SOL    HW116541   0.358   4.574   8.993 -0.6312  0.3948 -0.8358
 1636SOL    HW216542   0.247   4.495   9.031 -0.6603 -0.4873 -1.4138
 1637SOL     OW16543   2.388   0.683  15.443 -0.0421  0.4350 -0.0284
 1637SOL    HW116544   2.399   0.713  15.353 -2.1412 -1.3829 -0.8902
 1637SOL    HW216545   2.428   0.596  15.442 -0.7431  0.1202 -0.2089
 1638SOL     OW16546   4.327   4.056   2.732 -0.3405  1.2989  0.4342
 1638SOL    HW116547   4.352   4.134   2.782  2.9798  0.4716  0.0694
 1638SOL    HW216548   4.252   4.086   2.681 -0.2130  1.0021  0.0695
 1639SOL     OW16549   2.170   3.657  13.613  0.7151 -0.0674 -0.4253
 1639SOL    HW116550   2.099   3.649  13.550  1.6181  0.7316 -1.5551
 1639SOL    HW216551   2.152   3.572  13.654  1.5388 -0.9738 -1.9454
 1640SOL     OW16552   2.929   3.728   5.781  0.2526  0.3053  0.1181
 1640SOL    HW116553   3.004   3.775   5.745 -1.2978  1.2122 -1.9711
 1640SOL    HW216554   2.973   3.644   5.794 -0.4874  0.0481  0.9494
 1641SOL     OW16555   3.614   0.561   6.561 -0.4498  0.1383  0.1529
 1641SOL    HW116556   3.581   0.562   6.650  1.8682  0.2793  1.0056
 1641SOL    HW216557   3.691   0.504   6.556 -1.0373 -0.6691  0.3966
 1642SOL     OW16558   1.104   2.596   0.909  0.7670 -0.5368 -0.1318
 1642SOL    HW116559   1.014   2.618   0.882  1.1170 -1.2185 -1.8200
 1642SOL    HW216560   1.124   2.685   0.939 -0.1001 -0.7898  1.2312
 1643SOL     OW16561   2.165   0.549   3.464 -0.3421 -0.1301 -0.4615
 1643SOL    HW116562   2.243   0.595   3.434  0.0743 -0.7446 -0.3249
 1643SOL    HW216563   2.110   0.554   3.386 -2.3939 -0.9558  0.9027
 1644SOL     OW16564   1.313   1.421   7.041 -0.1535  0.4221 -0.2549
 1644SOL    HW116565   1.260   1.491   7.079 -1.9236 -1.5620  0.9688
 1644SOL    HW216566   1.255   1.391   6.971 -0.2968 -1.6341  0.7279
 1645SOL     OW16567   2.445   2.431   9.380 -0.3750  0.6103 -0.5873
 1645SOL    HW116568   2.398   2.513   9.394 -2.0563 -1.0027  3.2317
 1645SOL    HW216569   2.369   2.379   9.355  0.0513 -1.1920  1.8693
 1646SOL     OW16570   3.105   1.998   8.167  0.7128 -0.0624  0.1521
 1646SOL    HW116571   3.108   2.033   8.078  2.3826  1.4165  0.7749
 1646SOL    HW216572   3.033   2.046   8.209  2.1172  0.8602  1.5143
 1647SOL     OW16573   0.262   3.008   5.032  0.1143  0.4468  0.8257
 1647SOL    HW116574   0.197   2.940   5.018  0.3307  0.2636  0.7059
 1647SOL    HW216575   0.336   2.963   4.990  0.2579  0.8215  0.6686
 1648SOL     OW16576   3.590   0.238   4.885 -0.1791  0.8267  1.1142
 1648SOL    HW116577   3.613   0.146   4.900 -0.6944  0.5486  0.2501
 1648SOL    HW216578   3.667   0.286   4.914  0.3984  0.7070 -0.2257
 1649SOL     OW16579   2.973   1.681   7.733 -0.6191  0.3258  0.0162
 1649SOL    HW116580   2.929   1.764   7.720 -0.6500  0.1345 -1.1266
 1649SOL    HW216581   3.039   1.721   7.790  0.3633 -1.0557 -0.1277
 1650SOL     OW16582   3.460   0.825   7.569 -0.8105 -0.7611 -0.2909
 1650SOL    HW116583   3.384   0.863   7.524 -0.6970  0.6702  0.7314
 1650SOL    HW216584   3.525   0.867   7.514 -1.0870  0.2246  0.1301
 1651SOL     OW16585   1.863   1.540  12.241  0.1213  0.3370  0.5505
 1651SOL    HW116586   1.795   1.491  12.195  3.0387 -2.4345 -0.8286
 1651SOL    HW216587   1.823   1.624  12.261  1.8563  0.9088  1.6465
 1652SOL     OW16588   2.598   3.599   8.192 -0.5060 -0.1357  0.2521
 1652SOL    HW116589   2.563   3.575   8.106  1.9014  0.4633 -0.8974
 1652SOL    HW216590   2.537   3.548   8.245 -0.4842 -0.5803 -0.1591
 1653SOL     OW16591   4.410   0.011   5.811 -0.2564 -0.1119 -0.2523
 1653SOL    HW116592   4.486   4.700   5.778  0.5106  0.1966  1.1006
 1653SOL    HW216593   4.419   4.721   5.903  1.3214 -1.0427 -0.6678
 1654SOL     OW16594   2.249   4.460   0.316  0.7411 -0.3777 -0.0692
 1654SOL    HW116595   2.278   4.485   0.403 -0.7127  1.4775 -0.1276
 1654SOL    HW216596   2.194   4.532   0.285  2.1698  0.7227  0.0111
 1655SOL     OW16597   1.110   3.657   3.217  0.2600  0.0936 -0.1873
 1655SOL    HW116598   1.052   3.585   3.242 -0.5860  0.5216 -0.9442
 1655SOL    HW216599   1.134   3.694   3.302  0.4923  1.3215 -0.7834
 1656SOL     OW16600   4.247   2.584   6.066  0.2703  0.0898 -0.2346
 1656SOL    HW116601   4.289   2.640   6.000 -0.9621  1.7261  0.3682
 1656SOL    HW216602   4.237   2.507   6.010 -1.1932  1.0459 -1.3168
 1657SOL     OW16603   0.823   1.114   5.095 -0.4049  0.2387 -0.3776
 1657SOL    HW116604   0.912   1.093   5.123  0.4024 -0.8585 -3.7308
 1657SOL    HW216605   0.778   1.078   5.171  3.1713 -0.7096  1.3033
 1658SOL     OW16606   0.442   4.466   9.279  0.2135  1.0273 -0.1065
 1658SOL    HW116607   0.366   4.426   9.322  2.5107  0.1365  3.1638
 1658SOL    HW216608   0.425   4.438   9.189 -1.5191 -0.1506  0.5650
 1659SOL     OW16609   2.947   0.840   9.386 -0.2931 -0.4784 -0.2716
 1659SOL    HW116610   2.937   0.932   9.408  0.9631 -0.5110  0.4251
 1659SOL    HW216611   2.955   0.849   9.291 -1.5681  0.3451 -0.2963
 1660SOL     OW16612   0.356   0.079   4.054 -0.0259 -0.2968  0.4650
 1660SOL    HW116613   0.307   0.101   4.133  0.7534  0.8483  0.6197
 1660SOL    HW216614   0.349   4.719   4.062  0.0663 -0.1839  1.8096
 1661SOL     OW16615   1.902   0.874   5.728 -0.3799  0.6672 -0.1936
 1661SOL    HW116616   1.937   0.953   5.688 -1.1631  1.7565  1.3053
 1661SOL    HW216617   1.961   0.859   5.801 -1.6044 -0.8372  0.4849
 1662SOL     OW16618   0.729   1.477   5.331 -0.0253 -0.2269 -0.1133
 1662SOL    HW116619   0.676   1.556   5.338 -0.8999 -0.7010 -1.4656
 1662SOL    HW216620   0.735   1.464   5.236  0.5071  0.7424 -0.2099
 1663SOL     OW16621   3.804   3.605   6.811 -0.2066 -0.1215 -0.2764
 1663SOL    HW116622   3.808   3.630   6.718 -1.6614 -2.1624 -0.8910
 1663SOL    HW216623   3.827   3.512   6.809 -2.0587 -0.5828  0.0388
 1664SOL     OW16624   4.254   1.876   9.376 -0.3797 -0.1430 -0.8152
 1664SOL    HW116625   4.310   1.882   9.299 -0.9455  1.4200 -1.1067
 1664SOL    HW216626   4.225   1.967   9.382 -0.0825 -0.0464 -0.8699
 1665SOL     OW16627   2.000   3.231  11.011 -0.0580  0.0891  0.2219
 1665SOL    HW116628   2.079   3.227  11.064 -1.3057  0.5175  2.1155
 1665SOL    HW216629   2.020   3.293  10.941 -0.4530 -0.1519 -0.1062
 1666SOL     OW16630   1.054   2.625   1.261 -0.8328  0.4325 -0.0793
 1666SOL    HW116631   0.990   2.635   1.191 -1.7082 -1.6506  0.4228
 1666SOL    HW216632   0.992   2.582   1.320 -0.9153  1.4831  0.5966
 1667SOL     OW16633   2.291   2.551   1.940  0.2499 -0.0147 -0.2553
 1667SOL    HW116634   2.377   2.535   1.979  0.7868 -1.7704 -2.1313
 1667SOL    HW216635   2.230   2.532   2.011  0.3768  0.4506 -0.0216
 1668SOL     OW16636   4.248   1.391   1.307 -0.0187 -0.2085  0.2275
 1668SOL    HW116637   4.293   1.318   1.349  0.3533  0.8920  1.7221
 1668SOL    HW216638   4.313   1.414   1.240 -1.1092 -2.2900 -1.5658
 1669SOL     OW16639   4.685   1.461   4.748 -0.7331  0.1277  0.0205
 1669SOL    HW116640   0.000   1.418   4.679 -1.7368  0.2721 -0.8096
 1669SOL    HW216641   4.653   1.383   4.794  2.7151 -0.4907  1.3979
 1670SOL     OW16642   1.372   1.749   2.361  0.6652  0.2701 -0.0044
 1670SOL    HW116643   1.455   1.764   2.406  1.3673 -0.1810 -1.1512
 1670SOL    HW216644   1.365   1.657   2.334  0.9810  0.7111 -1.6060
 1671SOL     OW16645   3.580   1.764   8.233 -0.6687  0.1483  0.0131
 1671SOL    HW116646   3.605   1.708   8.160  0.1910 -1.8915  1.8817
 1671SOL    HW216647   3.485   1.777   8.227 -0.6289  0.3959 -0.0897
 1672SOL     OW16648   1.125   1.207   5.637 -0.0694  0.1539 -0.3055
 1672SOL    HW116649   1.139   1.258   5.557  1.2591 -1.8933 -1.3743
 1672SOL    HW216650   1.127   1.114   5.616 -1.9727  0.6817 -2.7354
 1673SOL     OW16651   0.265   1.927   7.367  0.4636 -0.4508 -0.2141
 1673SOL    HW116652   0.255   1.897   7.457  0.0654 -2.2257 -0.8480
 1673SOL    HW216653   0.209   2.003   7.353 -1.5024 -1.9887 -0.8163
 1674SOL     OW16654   0.018   4.293   6.493 -0.5003  0.3521  0.3966
 1674SOL    HW116655   0.069   4.261   6.419 -0.0082 -0.0730  0.9250
 1674SOL    HW216656   4.708   4.212   6.514 -0.6456  0.0331 -1.1396
 1675SOL     OW16657   4.556   3.434  12.389 -0.6137 -0.6099  0.1746
 1675SOL    HW116658   4.566   3.529  12.383 -0.0303 -0.8987 -3.9132
 1675SOL    HW216659   4.597   3.403  12.308  2.6071  1.6351  0.9355
 1676SOL     OW16660   2.476   3.218   4.577 -0.3147  0.4432 -0.4434
 1676SOL    HW116661   2.506   3.309   4.586  2.9105 -0.9109  2.8957
 1676SOL    HW216662   2.430   3.192   4.657  1.1714  1.2405  0.6711
 1677SOL     OW16663   2.663   4.134  16.128  0.0565 -0.0449  0.2347
 1677SOL    HW116664   2.608   4.206  16.159  1.9315  1.2519  0.6169
 1677SOL    HW216665   2.608   4.056  16.128 -1.0135  0.6955 -1.6594
 1678SOL     OW16666   3.401   0.739  13.684  0.0381 -0.0530 -0.1077
 1678SOL    HW116667   3.436   0.799  13.618  2.0056 -1.4608 -0.3559
 1678SOL    HW216668   3.452   0.760  13.762 -1.7326  1.9765  0.5073
 1679SOL     OW16669   0.649   1.280   0.297 -0.3950  0.1968 -0.3149
 1679SOL    HW116670   0.682   1.328   0.373 -1.4762 -1.8110  1.3993
 1679SOL    HW216671   0.595   1.351   0.265  0.0863  0.7594  0.1082
 1680SOL     OW16672   1.074   0.965   9.070 -0.4517 -0.0810  0.0368
 1680SOL    HW116673   1.064   0.996   9.160 -1.6465  0.4768 -0.2877
 1680SOL    HW216674   1.059   1.049   9.027  0.6740 -0.5644 -1.3080
 1681SOL     OW16675   4.215   3.888   5.631 -0.3401 -0.1507  0.2340
 1681SOL    HW116676   4.131   3.896   5.584  1.0477 -1.5048 -2.4840
 1681SOL    HW216677   4.255   3.955   5.575 -0.7674  2.3700  2.9576
 1682SOL     OW16678   0.139   3.175   9.230  0.0338  0.5485  0.1233
 1682SOL    HW116679   0.203   3.185   9.301  0.0505  0.1642  0.1628
 1682SOL    HW216680   0.057   3.179   9.280 -1.1307  1.0742 -1.8358
 1683SOL     OW16681   0.956   3.470  10.266  0.1145  0.4920 -0.3603
 1683SOL    HW116682   0.886   3.407  10.280 -1.1477  1.7644 -0.9384
 1683SOL    HW216683   0.917   3.551  10.232 -2.6861  0.1244  2.0127
 1684SOL     OW16684   0.500   0.248   3.637  0.2977  0.0120  0.4850
 1684SOL    HW116685   0.444   0.319   3.608  2.1964  0.3789 -2.2760
 1684SOL    HW216686   0.560   0.242   3.563  1.1032 -0.0684  1.1418
 1685SOL     OW16687   4.420   2.678   7.351 -0.2744  0.2712 -0.1567
 1685SOL    HW116688   4.502   2.666   7.303 -1.3431 -0.3768 -1.8510
 1685SOL    HW216689   4.451   2.711   7.435  0.4327 -0.8360  0.0253
 1686SOL     OW16690   4.475   2.833   3.152  0.6018  0.2920 -0.0557
 1686SOL    HW116691   4.555   2.782   3.164  0.5289  1.0036  3.5201
 1686SOL    HW216692   4.485   2.858   3.060  0.1811  0.2886 -0.1016
 1687SOL     OW16693   1.973   2.063   6.182  0.5718  0.3207  0.0958
 1687SOL    HW116694   1.986   1.969   6.181  0.5019  0.3306 -1.8454
 1687SOL    HW216695   2.044   2.078   6.118  0.8531  1.8089  0.7426
 1688SOL     OW16696   4.197   4.693   4.436 -0.1255  0.3252 -0.4047
 1688SOL    HW116697   4.121   0.016   4.440  1.0955  1.8373  0.7741
 1688SOL    HW216698   4.228   4.705   4.346  0.8044 -1.0164 -0.2633
 1689SOL     OW16699   0.625   2.532   5.358 -0.5433 -0.2642 -0.4726
 1689SOL    HW116700   0.719   2.530   5.346 -0.2418  1.6896  1.4754
 1689SOL    HW216701   0.606   2.625   5.340  0.0524  0.0946  0.7410
 1690SOL     OW16702   1.279   0.155   9.096 -0.2724 -0.0283  0.2152
 1690SOL    HW116703   1.313   0.120   9.013 -0.3545  1.1633 -0.3149
 1690SOL    HW216704   1.260   0.248   9.085 -2.6045 -0.5801 -0.4777
 1691SOL     OW16705   1.699   0.669   1.861  0.3752 -0.2562  0.3212
 1691SOL    HW116706   1.667   0.592   1.813  0.1255  1.7427 -2.7300
 1691SOL    HW216707   1.683   0.637   1.950  0.5541  1.2038  0.8815
 1692SOL     OW16708   2.402   1.753   5.589  0.0269  0.3591 -0.0662
 1692SOL    HW116709   2.409   1.752   5.684  2.8505  0.7086 -0.2665
 1692SOL    HW216710   2.357   1.837   5.575  0.5436  0.7311  0.5037
 1693SOL     OW16711   0.761   3.249   5.589  0.0453 -0.3306 -0.5608
 1693SOL    HW116712   0.777   3.155   5.588 -0.7263 -0.4616 -0.4585
 1693SOL    HW216713   0.835   3.293   5.547  0.2323 -0.1698 -0.0714
 1694SOL     OW16714   3.629   0.299   5.595  0.0985  0.1983  0.1880
 1694SOL    HW116715   3.564   0.275   5.660 -1.2967  0.0174 -1.2707
 1694SOL    HW216716   3.688   0.225   5.605 -0.8552 -0.5846  0.0071
 1695SOL     OW16717   2.026   1.225   5.019  0.2232  0.3425  0.0133
 1695SOL    HW116718   2.012   1.273   5.100  1.0765 -2.1372  1.6561
 1695SOL    HW216719   2.065   1.294   4.966 -0.8623 -0.0199 -1.2569
 1696SOL     OW16720   0.204   1.860   9.152 -0.2090  0.1634  0.1303
 1696SOL    HW116721   0.220   1.775   9.193 -0.6384 -0.8592 -1.8216
 1696SOL    HW216722   0.218   1.833   9.062 -1.8311 -0.6970  0.1458
 1697SOL     OW16723   2.789   0.275   0.115 -0.4805 -0.0395  0.7023
 1697SOL    HW116724   2.718   0.284   0.179 -0.8488  0.5491  0.2103
 1697SOL    HW216725   2.820   0.364   0.099  3.4181 -1.5687 -0.2201
 1698SOL     OW16726   0.442   0.728   7.568 -0.1669  0.0673 -0.2336
 1698SOL    HW116727   0.412   0.767   7.486  0.6338  0.2216 -0.4497
 1698SOL    HW216728   0.476   0.652   7.521 -0.3576 -2.0597  3.0650
 1699SOL     OW16729   2.162   2.347  12.578 -0.2736  0.2550  0.3193
 1699SOL    HW116730   2.139   2.279  12.514 -1.8949 -1.2844  2.5514
 1699SOL    HW216731   2.224   2.289  12.623  0.8472  2.3052  1.3792
 1700SOL     OW16732   3.153   3.503   7.767 -0.2358  0.0784  0.1588
 1700SOL    HW116733   3.205   3.533   7.841 -1.0051 -0.2414  0.8161
 1700SOL    HW216734   3.083   3.567   7.769 -0.8351 -0.6040  0.6488
 1701SOL     OW16735   3.762   0.058   5.603 -0.1056 -0.2995 -0.5397
 1701SOL    HW116736   3.840   0.059   5.548  1.0992 -1.2102  1.1531
 1701SOL    HW216737   3.790   0.023   5.688  1.9338  0.5271 -0.8654
 1702SOL     OW16738   1.712   4.614   5.175 -0.1183 -0.5501  0.1608
 1702SOL    HW116739   1.727   4.559   5.253  0.7054  0.0068  0.4030
 1702SOL    HW216740   1.719   4.702   5.212  1.8565 -1.0537  1.0013
 1703SOL     OW16741   0.892   4.591   4.495 -0.8102 -0.1567 -0.3081
 1703SOL    HW116742   0.954   4.605   4.423 -0.5169 -0.5880 -0.1403
 1703SOL    HW216743   0.846   4.510   4.472 -1.7086  0.7177 -1.5808
 1704SOL     OW16744   0.763   2.509   2.533 -0.2660  0.0272  0.5942
 1704SOL    HW116745   0.690   2.530   2.476  1.5529 -3.3034 -2.9538
 1704SOL    HW216746   0.829   2.574   2.508  1.9564 -3.1252 -1.7912
 1705SOL     OW16747   1.680   4.503  10.563 -0.2074 -0.3909 -0.4097
 1705SOL    HW116748   1.648   4.418  10.532  1.8766 -1.9249  1.6067
 1705SOL    HW216749   1.625   4.510  10.641 -1.4304  1.2474 -1.4228
 1706SOL     OW16750   0.864   1.451   9.760  0.4517 -0.7228 -0.3134
 1706SOL    HW116751   0.878   1.398   9.838 -1.9249 -1.3280 -0.2960
 1706SOL    HW216752   0.776   1.485   9.778  0.4562 -1.3762  0.8996
 1707SOL     OW16753   3.734   2.591   8.388  0.1442  0.0559  0.0051
 1707SOL    HW116754   3.776   2.531   8.450  0.2380 -1.5763 -1.6305
 1707SOL    HW216755   3.649   2.549   8.384  0.5982 -0.7739 -0.9570
 1708SOL     OW16756   4.121   3.480   4.813 -0.0991 -0.7372 -0.6479
 1708SOL    HW116757   4.110   3.527   4.730  2.7629  1.1769  0.0770
 1708SOL    HW216758   4.190   3.418   4.790 -0.1991 -1.3099  0.5839
 1709SOL     OW16759   3.804   2.704   5.822 -0.1700 -0.2105 -0.3884
 1709SOL    HW116760   3.885   2.687   5.774  0.3208  1.8288 -0.2724
 1709SOL    HW216761   3.822   2.671   5.910  1.6249 -2.3258 -1.5510
 1710SOL     OW16762   0.647   0.064   8.912 -0.3577 -0.1107 -0.6113
 1710SOL    HW116763   0.591   0.092   8.840 -0.4064 -1.0158 -0.9275
 1710SOL    HW216764   0.721   0.123   8.899  1.4081 -1.9718  0.8800
 1711SOL     OW16765   0.196   0.616   8.317  0.6692  0.2267 -0.4165
 1711SOL    HW116766   0.203   0.571   8.232 -2.1365 -0.6590 -0.1813
 1711SOL    HW216767   0.106   0.649   8.318  0.5426 -0.1825  0.8086
 1712SOL     OW16768   1.831   2.404   7.038 -0.4954 -0.1419 -0.0545
 1712SOL    HW116769   1.896   2.441   6.977 -1.8556 -2.7582 -3.1028
 1712SOL    HW216770   1.867   2.411   7.126 -0.5782 -3.3012  0.2259
 1713SOL     OW16771   0.953   1.703   8.069 -0.0833 -0.8384 -0.0396
 1713SOL    HW116772   1.022   1.760   8.034 -1.0165 -0.2395 -0.8898
 1713SOL    HW216773   0.937   1.745   8.153  2.1084  2.0264 -1.0590
 1714SOL     OW16774   3.550   2.675   7.434 -0.6155  0.0494  0.6103
 1714SOL    HW116775   3.605   2.600   7.456  0.3499  1.1516  1.9315
 1714SOL    HW216776   3.591   2.739   7.492 -1.7672  2.0878 -0.7929
 1715SOL     OW16777   3.372   0.707   4.233  0.0114  0.0821  0.2569
 1715SOL    HW116778   3.299   0.757   4.195 -0.3361  0.1758  1.0596
 1715SOL    HW216779   3.385   0.638   4.168  0.9726  0.1633  0.3642
 1716SOL     OW16780   4.657   0.616   9.065 -0.2004  0.1554  0.1687
 1716SOL    HW116781   4.659   0.521   9.049 -0.7937  0.2855 -0.6786
 1716SOL    HW216782   4.726   0.631   9.130 -0.9522  0.1723  0.9719
 1717SOL     OW16783   0.206   1.374   2.581  0.4064  0.1681  0.2185
 1717SOL    HW116784   0.247   1.326   2.653 -0.1541 -1.8738 -0.8252
 1717SOL    HW216785   0.151   1.423   2.642  0.1468  0.8463 -0.5491
 1718SOL     OW16786   2.227   4.130   7.870 -0.3636 -0.2832 -0.2966
 1718SOL    HW116787   2.232   4.149   7.776 -0.7488 -0.0566 -0.2702
 1718SOL    HW216788   2.140   4.165   7.889 -0.5712 -1.1382  0.3391
 1719SOL     OW16789   2.411   1.350   3.588 -0.0055  0.2207  0.6314
 1719SOL    HW116790   2.362   1.349   3.506 -0.5599 -1.4684  0.9781
 1719SOL    HW216791   2.344   1.380   3.649  1.9116  3.9390  0.9344
 1720SOL     OW16792   1.308   2.098   3.344 -0.0669  0.5431  0.8695
 1720SOL    HW116793   1.347   2.169   3.294  0.6055  1.4357  2.6477
 1720SOL    HW216794   1.346   2.096   3.432 -1.5981 -2.1209  1.4737
 1721SOL     OW16795   1.824   4.694   7.730 -0.6761 -0.2707 -0.1060
 1721SOL    HW116796   1.842   4.668   7.640  0.4517 -2.4450  0.7433
 1721SOL    HW216797   1.838   0.050   7.707  1.2230 -0.4677  0.2855
 1722SOL     OW16798   1.428   2.839   3.739  0.1432  0.8522 -0.2590
 1722SOL    HW116799   1.478   2.918   3.758 -0.3580  0.7578  1.4129
 1722SOL    HW216800   1.417   2.812   3.830 -2.9465 -1.5549 -1.3300
 1723SOL     OW16801   3.234   4.144  16.962 -0.1150  0.6141 -0.3826
 1723SOL    HW116802   3.288   4.073  16.926 -1.0731  0.3367 -1.3007
 1723SOL    HW216803   3.211   4.113  17.049  0.5665 -0.9282 -0.7383
 1724SOL     OW16804   0.479   2.281   4.941 -0.0784 -0.0328 -0.0243
 1724SOL    HW116805   0.407   2.222   4.965 -0.0841  0.4602  1.1584
 1724SOL    HW216806   0.494   2.320   5.028 -1.0112 -0.7191  0.4481
 1725SOL     OW16807   0.339   1.322  10.468 -0.3141  0.1771 -0.0048
 1725SOL    HW116808   0.427   1.326  10.431 -0.9770 -0.4006 -1.6490
 1725SOL    HW216809   0.361   1.279  10.551 -0.2084  0.0986 -0.0739
 1726SOL     OW16810   1.235   2.604   0.436  0.2974 -0.2097 -0.2263
 1726SOL    HW116811   1.210   2.612   0.344  1.1104  0.4854 -0.3910
 1726SOL    HW216812   1.156   2.620   0.489 -0.7727 -0.4553 -1.7248
 1727SOL     OW16813   4.161   0.527   7.775  0.2854 -0.3688 -0.1064
 1727SOL    HW116814   4.247   0.488   7.792 -0.3836 -1.9770 -0.4489
 1727SOL    HW216815   4.135   0.542   7.866  1.3032  1.5841 -0.1446
 1728SOL     OW16816   3.970   0.258   8.803  0.1312 -0.0382  0.6908
 1728SOL    HW116817   3.971   0.297   8.890  0.3266  1.6397 -0.0576
 1728SOL    HW216818   4.013   0.175   8.821  2.8159  0.7595 -2.0773
 1729SOL     OW16819   0.154   1.973  11.270  0.2048  0.6733 -0.8780
 1729SOL    HW116820   0.125   1.979  11.179 -1.1972  1.7969 -0.3652
 1729SOL    HW216821   0.219   2.040  11.288 -0.6926  1.1499  0.5937
 1730SOL     OW16822   3.567   4.126   9.136  0.3001  0.3009 -0.3340
 1730SOL    HW116823   3.657   4.158   9.148  0.6362 -0.0247 -1.9727
 1730SOL    HW216824   3.590   4.059   9.072  2.5431 -0.8886  1.7205
 1731SOL     OW16825   3.228   4.396   4.570 -0.2050  0.0162  0.0982
 1731SOL    HW116826   3.152   4.439   4.532  0.4465 -0.1092 -1.3575
 1731SOL    HW216827   3.210   4.427   4.658 -1.0657 -1.4473  0.4296
 1732SOL     OW16828   4.532   4.537   4.976 -0.2820  0.1483 -0.4654
 1732SOL    HW116829   4.559   4.583   4.896 -1.6186  1.4120 -0.1969
 1732SOL    HW216830   4.493   4.459   4.936 -1.0178  0.7723 -0.9670
 1733SOL     OW16831   1.414   0.494   9.069 -0.1966 -0.4564  0.7024
 1733SOL    HW116832   1.491   0.447   9.100 -0.5630 -1.4781  0.0623
 1733SOL    HW216833   1.466   0.554   9.017  0.2678  0.4746  2.2279
 1734SOL     OW16834   1.153   4.282   5.375  0.4163 -0.1232 -0.3244
 1734SOL    HW116835   1.132   4.359   5.323 -0.8091 -0.8543 -0.9264
 1734SOL    HW216836   1.086   4.308   5.439  0.4105 -0.6603 -0.1105
 1735SOL     OW16837   4.347   3.578  16.948  0.2666  0.6130  0.0069
 1735SOL    HW116838   4.323   3.501  17.000  1.6548  0.7612  0.8707
 1735SOL    HW216839   4.388   3.529  16.876  1.8656  2.0210 -0.0247
 1736SOL     OW16840   3.331   2.378   6.760 -0.0357 -0.1470  0.3337
 1736SOL    HW116841   3.253   2.335   6.794 -0.4817  0.9576  0.7178
 1736SOL    HW216842   3.354   2.435   6.834  0.3784  2.6808 -1.9904
 1737SOL     OW16843   0.364   3.225   4.203 -0.1137  0.3083 -0.1698
 1737SOL    HW116844   0.392   3.227   4.295 -1.6579 -1.7080  0.3489
 1737SOL    HW216845   0.271   3.210   4.219 -0.4495  0.3621 -2.0396
 1738SOL     OW16846   0.069   3.889   1.025  0.2547  0.3514 -0.3108
 1738SOL    HW116847   0.157   3.926   1.035  0.1206  0.1090  1.8901
 1738SOL    HW216848   0.036   3.944   0.954  1.2935  0.0581 -1.0155
 1739SOL     OW16849   3.911   0.492   6.954 -0.1524  0.7010 -0.5283
 1739SOL    HW116850   3.879   0.429   7.018  2.3006  1.0564  1.0582
 1739SOL    HW216851   3.903   0.437   6.876 -0.1624  0.7749 -0.5800
 1740SOL     OW16852   2.746   3.923   5.815 -0.0292 -0.2547 -0.3523
 1740SOL    HW116853   2.818   3.985   5.814 -0.4537  0.2340 -0.8741
 1740SOL    HW216854   2.793   3.844   5.788  0.0991  0.6471 -2.7718
 1741SOL     OW16855   0.370   2.271  12.786  0.2108  0.6775  0.1640
 1741SOL    HW116856   0.442   2.328  12.759 -0.6640  2.3445  1.3006
 1741SOL    HW216857   0.422   2.197  12.817  2.0420  1.3239 -1.3509
 1742SOL     OW16858   0.794   1.121  17.724 -0.5530 -0.1325 -0.8216
 1742SOL    HW116859   0.725   1.180   0.012  0.9306  1.0744  0.2199
 1742SOL    HW216860   0.728   1.062  17.688 -0.4491 -1.2372  0.7964
 1743SOL     OW16861   4.422   3.133  14.068 -0.3843  0.2945 -0.7362
 1743SOL    HW116862   4.495   3.104  14.013  0.9462  0.4451  0.9641
 1743SOL    HW216863   4.400   3.221  14.037  1.3303  2.4094  4.0238
 1744SOL     OW16864   3.525   2.322   8.784 -0.1886 -0.5201  0.4720
 1744SOL    HW116865   3.489   2.256   8.843  0.0929 -0.6276  0.5247
 1744SOL    HW216866   3.478   2.311   8.701 -2.8387 -0.4115  1.9464
 1745SOL     OW16867   1.764   1.650   9.673  0.2557  0.0767  0.4884
 1745SOL    HW116868   1.694   1.589   9.650 -0.9421  2.5553 -2.4965
 1745SOL    HW216869   1.715   1.730   9.692  2.0190  1.5028 -0.9504
 1746SOL     OW16870   3.186   2.465   7.389  0.0879 -0.0075 -0.6759
 1746SOL    HW116871   3.220   2.457   7.478  0.5595 -0.0348 -0.8618
 1746SOL    HW216872   3.214   2.556   7.375  0.6187 -0.0900 -0.1477
 1747SOL     OW16873   4.028   1.725  10.652 -0.4493 -0.3674 -0.3539
 1747SOL    HW116874   4.001   1.727  10.560  1.1190 -1.0029 -0.8312
 1747SOL    HW216875   3.962   1.781  10.692  3.1738  2.0053  2.3172
 1748SOL     OW16876   4.423   2.437  11.484  0.0093  0.6041 -0.5289
 1748SOL    HW116877   4.366   2.362  11.503 -1.3814  1.6584 -0.5536
 1748SOL    HW216878   4.402   2.493  11.559 -0.6046  0.7007 -0.7721
 1749SOL     OW16879   3.461   1.590   3.222  0.4400  0.0093  0.0397
 1749SOL    HW116880   3.512   1.563   3.145 -1.3540  1.1987 -1.5670
 1749SOL    HW216881   3.507   1.533   3.284  3.3674  2.4543  0.1334
 1750SOL     OW16882   0.361   2.591   4.030 -0.1257 -0.3156 -0.1211
 1750SOL    HW116883   0.277   2.633   4.009  0.0517  0.2737  0.3340
 1750SOL    HW216884   0.379   2.532   3.957 -3.1367 -2.3070  0.7237
 1751SOL     OW16885   4.398   4.346   1.740  0.0171  0.0631 -0.5082
 1751SOL    HW116886   4.408   4.298   1.658 -3.0365  1.5675 -1.7641
 1751SOL    HW216887   4.351   4.425   1.713 -1.7653 -0.2352  1.7377
 1752SOL     OW16888   1.994   3.192   2.639 -0.4980  0.7217  0.5749
 1752SOL    HW116889   2.056   3.223   2.573  0.1791  1.0942  1.3910
 1752SOL    HW216890   1.913   3.217   2.593  0.8649  1.0711 -1.6260
 1753SOL     OW16891   3.507   0.451  12.960 -0.1728  0.1193 -0.2607
 1753SOL    HW116892   3.414   0.454  12.936 -0.0147  2.6459 -0.6096
 1753SOL    HW216893   3.534   0.367  12.924 -0.5786 -0.8286  1.6485
 1754SOL     OW16894   0.482   1.934   5.893 -0.3989  0.1938  0.8348
 1754SOL    HW116895   0.493   2.007   5.832 -3.0498 -2.5179 -2.8984
 1754SOL    HW216896   0.498   1.983   5.973  0.2832 -1.3197  1.6339
 1755SOL     OW16897   2.105   3.129   4.321 -0.0823 -0.1003 -0.0009
 1755SOL    HW116898   2.045   3.169   4.257 -0.0899  0.3552  0.2908
 1755SOL    HW216899   2.050   3.062   4.362  0.6534  0.2075  1.4923
 1756SOL     OW16900   4.564   0.092   3.364  0.3086  0.8682 -0.1274
 1756SOL    HW116901   4.518   0.075   3.446 -0.4729  0.7197 -0.5895
 1756SOL    HW216902   4.521   0.029   3.306  2.2372  0.7974 -1.4946
 1757SOL     OW16903   3.267   4.289   6.347 -0.3649 -0.4828 -0.0774
 1757SOL    HW116904   3.223   4.373   6.359  0.5826  0.0725 -0.5195
 1757SOL    HW216905   3.237   4.239   6.423 -0.4512  0.1699  0.3141
 1758SOL     OW16906   0.804   4.574   6.049 -0.0302 -0.8915 -0.5705
 1758SOL    HW116907   0.863   4.513   6.092  0.8135 -1.9134 -3.1803
 1758SOL    HW216908   0.848   4.606   5.971  0.9521  0.4481  0.5381
 1759SOL     OW16909   0.716   4.125   4.245 -0.2566  0.4258 -0.1553
 1759SOL    HW116910   0.800   4.097   4.209  0.4090 -0.3273  1.9798
 1759SOL    HW216911   0.679   4.042   4.275 -1.1951  0.9988  0.2858
 1760SOL     OW16912   2.560   0.514   0.736 -0.3303 -0.1081 -0.1664
 1760SOL    HW116913   2.613   0.590   0.758 -0.5995 -0.4987  1.8874
 1760SOL    HW216914   2.627   0.446   0.734  1.2896  1.4751  0.7014
 1761SOL     OW16915   0.593   3.829  15.087 -0.3813 -0.3474 -0.3951
 1761SOL    HW116916   0.543   3.772  15.029  0.9117 -1.4638 -0.4169
 1761SOL    HW216917   0.583   3.784  15.171  2.1028 -1.3990 -0.6514
 1762SOL     OW16918   0.464   0.519   9.738 -0.2091 -0.2672 -0.0419
 1762SOL    HW116919   0.534   0.460   9.708  0.9293  0.9618  0.2124
 1762SOL    HW216920   0.516   0.572   9.799 -3.7695  2.2826  0.7478
 1763SOL     OW16921   4.599   2.630   8.478  0.0932  0.6809 -0.3816
 1763SOL    HW116922   4.567   2.540   8.468 -0.5639  0.7613  0.9203
 1763SOL    HW216923   4.538   2.665   8.543  1.3786 -2.2838  2.4316
 1764SOL     OW16924   4.599   1.585   0.407  0.0943 -0.5366 -0.3140
 1764SOL    HW116925   4.519   1.533   0.397 -0.2198  0.1366 -1.2697
 1764SOL    HW216926   4.553   1.668   0.404  2.3176  0.7201  0.5619
 1765SOL     OW16927   0.472   0.005  11.376 -0.2721 -0.2009 -0.1287
 1765SOL    HW116928   0.530   0.041  11.310  3.2062 -1.4058  2.2652
 1765SOL    HW216929   0.459   0.078  11.437  1.1012 -1.2151  1.3803
 1766SOL     OW16930   1.965   1.562   6.959 -0.3701  0.8289 -0.0054
 1766SOL    HW116931   2.001   1.512   6.887  1.7313  0.6087  1.2015
 1766SOL    HW216932   2.045   1.601   6.995  1.0869 -0.9205 -1.3722
 1767SOL     OW16933   0.238   3.932   2.351 -0.0777  0.8044  0.6397
 1767SOL    HW116934   0.216   3.850   2.396 -0.4696 -0.3928 -1.7354
 1767SOL    HW216935   0.291   3.976   2.417  3.5776 -0.8838 -1.1731
 1768SOL     OW16936   1.018   1.787  16.547  0.2955  0.0569 -0.9471
 1768SOL    HW116937   1.101   1.784  16.595  0.2801 -1.1085 -0.9849
 1768SOL    HW216938   1.031   1.719  16.481  1.5059  0.3100 -0.9791
 1769SOL     OW16939   3.892   1.324   5.102 -0.3393  0.8600  0.1268
 1769SOL    HW116940   3.915   1.388   5.169  0.3904  0.8078 -0.0757
 1769SOL    HW216941   3.979   1.285   5.097  0.0128  2.0155 -3.0527
 1770SOL     OW16942   4.701   3.573  10.062  0.0874  0.0134 -0.2298
 1770SOL    HW116943   0.014   3.571  10.145  1.2565  0.4375 -0.9119
 1770SOL    HW216944   0.019   3.512  10.012 -1.9110 -1.8825 -0.1085
 1771SOL     OW16945   4.151   1.958   7.809  0.0747  0.0924 -0.2068
 1771SOL    HW116946   4.085   1.890   7.797  1.0991 -0.4370 -2.8288
 1771SOL    HW216947   4.231   1.909   7.787 -0.7019 -0.6947 -1.2776
 1772SOL     OW16948   3.794   0.728   4.215 -0.0620 -0.6795 -0.2493
 1772SOL    HW116949   3.762   0.651   4.167  2.4439 -1.7791 -0.1813
 1772SOL    HW216950   3.770   0.695   4.301 -1.1536  1.2105  0.1793
 1773SOL     OW16951   0.594   3.592   4.035  0.2504  0.0234 -0.2670
 1773SOL    HW116952   0.569   3.504   4.004 -0.3038  0.6221 -1.5357
 1773SOL    HW216953   0.671   3.612   3.981  0.4400 -1.3774 -0.5237
 1774SOL     OW16954   4.342   0.572   4.376  0.1965  0.5331  0.3547
 1774SOL    HW116955   4.329   0.478   4.367 -0.1917  0.4944  1.2700
 1774SOL    HW216956   4.263   0.605   4.334 -0.1546  1.4909  1.7595
 1775SOL     OW16957   3.329   3.418   8.905 -0.2508 -0.5038  0.1236
 1775SOL    HW116958   3.297   3.343   8.954 -1.1175  0.7855  1.5333
 1775SOL    HW216959   3.248   3.440   8.858 -0.6818  0.5433  1.3605
 1776SOL     OW16960   3.015   4.079   9.836  0.7460  0.4788  0.1910
 1776SOL    HW116961   3.091   4.137   9.829  1.0831  0.4155  3.1748
 1776SOL    HW216962   2.965   4.102   9.758  2.0283 -2.0521 -1.4101
 1777SOL     OW16963   1.324   3.003   2.059  1.1864  0.7651  0.0229
 1777SOL    HW116964   1.369   3.086   2.070  0.0566  1.6610 -2.1436
 1777SOL    HW216965   1.389   2.953   2.009  0.3851 -0.7879  0.5429
 1778SOL     OW16966   4.173   0.735  16.121  0.0150  0.1411 -0.5399
 1778SOL    HW116967   4.152   0.822  16.085  0.6586 -0.4836 -2.4510
 1778SOL    HW216968   4.239   0.771  16.179 -0.0848  0.5988 -0.7112
 1779SOL     OW16969   1.409   0.129  10.562 -0.1776  0.3662  0.2342
 1779SOL    HW116970   1.393   0.059  10.625 -0.7318  0.6749  0.4443
 1779SOL    HW216971   1.337   0.115  10.501 -0.0906  1.8232 -0.2059
 1780SOL     OW16972   1.294   2.284   1.362 -0.3139  0.4407  0.8982
 1780SOL    HW116973   1.266   2.343   1.432  0.3443  2.0431 -0.1752
 1780SOL    HW216974   1.325   2.347   1.297  1.9163 -1.3899  0.1978
 1781SOL     OW16975   0.025   2.031   1.685 -0.7048  0.0114  0.3476
 1781SOL    HW116976   0.059   2.116   1.716  0.4205  0.0561 -0.9932
 1781SOL    HW216977   0.063   1.976   1.754 -0.0138  0.0278 -0.0160
 1782SOL     OW16978   4.261   0.126  10.768 -0.3034  0.1367 -0.2937
 1782SOL    HW116979   4.340   0.136  10.715 -1.1443 -0.0117 -1.5933
 1782SOL    HW216980   4.252   0.031  10.774  1.7917 -0.0036  0.5383
 1783SOL     OW16981   1.543   3.063   3.797 -0.0825 -0.0317  0.1304
 1783SOL    HW116982   1.605   3.027   3.734 -1.2583  0.1339 -1.1065
 1783SOL    HW216983   1.606   3.110   3.852 -1.9243  2.6495 -0.0800
 1784SOL     OW16984   1.670   4.038   8.414 -0.2352 -0.1304 -0.0521
 1784SOL    HW116985   1.633   4.080   8.491  0.9699 -1.9591  1.5293
 1784SOL    HW216986   1.704   3.959   8.457  0.0434  1.5045  2.7766
 1785SOL     OW16987   1.033   3.756   7.276 -0.3557  0.9161 -0.2463
 1785SOL    HW116988   1.055   3.827   7.337  0.4202  1.6116 -1.3260
 1785SOL    HW216989   0.967   3.801   7.224  0.0817  2.5934  0.6413
 1786SOL     OW16990   3.359   2.791   4.067  0.1015  0.1373 -0.6018
 1786SOL    HW116991   3.393   2.712   4.110 -2.5042  0.4005  1.8996
 1786SOL    HW216992   3.388   2.863   4.122  0.6628  0.1278 -0.8751
 1787SOL     OW16993   1.223   0.814   9.359 -0.2250 -0.4430 -0.6322
 1787SOL    HW116994   1.180   0.898   9.377 -0.6905 -0.7569 -0.2768
 1787SOL    HW216995   1.169   0.752   9.407 -0.2455  0.5689  0.6526
 1788SOL     OW16996   1.496   3.873   1.676 -0.4881 -0.3205 -0.0363
 1788SOL    HW116997   1.525   3.948   1.625  0.1150 -1.8081 -1.8663
 1788SOL    HW216998   1.404   3.896   1.683 -0.1098  1.3213 -0.4733
 1789SOL     OW16999   2.552   1.969  11.999 -0.2430  0.1552 -0.7500
 1789SOL    HW117000   2.635   2.017  11.993 -0.3698  0.3558 -0.9135
 1789SOL    HW217001   2.589   1.890  12.038 -1.1151 -0.6209 -1.4944
 1790SOL     OW17002   2.599   4.604   7.397  0.2820 -0.0795  0.3299
 1790SOL    HW117003   2.631   4.671   7.457 -1.6953  0.2719  1.0166
 1790SOL    HW217004   2.561   4.653   7.324 -0.1792  2.5823  2.3479
 1791SOL     OW17005   1.592   4.121   8.667  0.0256  0.2350  0.3041
 1791SOL    HW117006   1.566   4.100   8.757 -1.4496  1.0091  0.0602
 1791SOL    HW217007   1.544   4.201   8.646  0.9700  0.1833 -2.0573
 1792SOL     OW17008   0.591   2.399   3.303 -0.4517  0.6569 -0.1828
 1792SOL    HW117009   0.551   2.388   3.217 -1.1152  1.8338 -0.0334
 1792SOL    HW217010   0.686   2.400   3.296 -0.5526  0.0893 -1.6237
 1793SOL     OW17011   4.512   0.501   6.789  1.2321 -0.2304  0.1865
 1793SOL    HW117012   4.505   0.407   6.775  3.3730  0.1944 -3.7250
 1793SOL    HW217013   4.432   0.522   6.837  0.3426 -0.5086 -1.1865
 1794SOL     OW17014   1.723   0.315   8.134 -0.1131  0.5656  0.1820
 1794SOL    HW117015   1.687   0.300   8.046  0.9463 -1.3739  0.0708
 1794SOL    HW217016   1.815   0.289   8.125 -0.7769 -0.8531 -2.5540
 1795SOL     OW17017   2.177   3.586   7.754 -0.2344 -0.0897  0.4652
 1795SOL    HW117018   2.116   3.576   7.680 -0.3100 -0.5419  0.5887
 1795SOL    HW217019   2.195   3.680   7.754 -0.9465  0.0539  0.1072
 1796SOL     OW17020   4.648   1.983   8.439 -0.5000  0.4083 -0.1887
 1796SOL    HW117021   4.555   1.964   8.424 -0.3751 -0.6674  0.4005
 1796SOL    HW217022   4.672   2.029   8.359 -2.2409 -0.3190 -1.1229
 1797SOL     OW17023   1.010   3.136  10.325 -0.2284  0.7797 -0.2836
 1797SOL    HW117024   0.979   3.218  10.364 -0.4618  0.2916  0.5399
 1797SOL    HW217025   1.096   3.165  10.293 -0.5177  0.8411 -0.9921
 1798SOL     OW17026   1.978   0.479   6.632  0.1913 -0.0025  0.2666
 1798SOL    HW117027   2.025   0.396   6.625 -0.7937 -0.6920  1.8720
 1798SOL    HW217028   2.027   0.541   6.577  0.3734  0.4029  0.8874
 1799SOL     OW17029   2.029   3.848   7.328 -0.0723 -0.4486  0.2059
 1799SOL    HW117030   1.966   3.919   7.314 -1.2425 -1.5408 -0.0647
 1799SOL    HW217031   2.013   3.778   7.265 -0.3294  0.2601 -0.5171
 1800SOL     OW17032   3.318   4.229   9.592 -0.4419  0.2825 -0.1660
 1800SOL    HW117033   3.325   4.254   9.500 -0.6071 -0.2617 -0.3224
 1800SOL    HW217034   3.412   4.222   9.610 -1.0580 -4.6492  0.9054
 1801SOL     OW17035   0.751   0.432   7.240 -0.7772  0.4190  0.7933
 1801SOL    HW117036   0.695   0.356   7.254 -2.7560  1.4537 -1.3937
 1801SOL    HW217037   0.759   0.427   7.144 -1.4349  3.3439  0.5858
 1802SOL     OW17038   3.060   0.708   0.105  1.1134 -0.0326  0.1735
 1802SOL    HW117039   3.021   0.738   0.023 -1.9408 -0.0984  1.6033
 1802SOL    HW217040   2.986   0.743   0.155  1.0086 -1.3911  0.9681
 1803SOL     OW17041   0.804   2.925  12.449  0.2462  0.7761  0.1644
 1803SOL    HW117042   0.868   2.858  12.424  1.4394  0.8408  3.0356
 1803SOL    HW217043   0.771   2.952  12.363  1.1184 -1.8831 -1.0041
 1804SOL     OW17044   3.827   3.119   3.194 -0.3467  0.3207 -0.2378
 1804SOL    HW117045   3.780   3.044   3.157  1.6289 -0.7555 -0.5817
 1804SOL    HW217046   3.908   3.113   3.144 -0.1434 -3.3793  0.4916
 1805SOL     OW17047   2.203   0.655   6.212 -0.2855  0.1812  0.4012
 1805SOL    HW117048   2.151   0.644   6.292 -0.5652 -1.0384  0.0477
 1805SOL    HW217049   2.215   0.749   6.225  0.6952  0.0604  0.3901
 1806SOL     OW17050   0.440   4.340   1.813  0.1718  0.1145  0.1194
 1806SOL    HW117051   0.364   4.307   1.861  1.1420 -1.0471  0.8514
 1806SOL    HW217052   0.431   4.296   1.728  0.1124  1.9145 -0.8214
 1807SOL     OW17053   1.488   3.996   5.274  0.4444 -0.3312  0.3027
 1807SOL    HW117054   1.393   3.985   5.275  0.3065  0.9721  0.6897
 1807SOL    HW217055   1.492   4.088   5.300  1.0791  0.3018 -2.0465
 1808SOL     OW17056   1.803   0.360   6.917  0.2815  0.3122 -0.1541
 1808SOL    HW117057   1.732   0.398   6.865  0.2791  1.7642  0.9382
 1808SOL    HW217058   1.830   0.296   6.850  1.8561  0.8624 -0.0449
 1809SOL     OW17059   0.593   2.255   1.848  0.2518 -0.3066  0.0168
 1809SOL    HW117060   0.577   2.226   1.938 -1.4362 -1.9893 -0.8271
 1809SOL    HW217061   0.566   2.347   1.851 -0.3199 -0.4178 -1.9592
 1810SOL     OW17062   4.249   1.437   3.279 -0.0616  0.0966  0.2069
 1810SOL    HW117063   4.304   1.368   3.317 -0.9195 -1.0943 -0.7002
 1810SOL    HW217064   4.227   1.393   3.196  1.3318  1.4392 -0.8693
 1811SOL     OW17065   1.515   1.202  16.115 -0.1111  0.0585 -0.1019
 1811SOL    HW117066   1.543   1.111  16.110  0.8479  0.2762  1.2817
 1811SOL    HW217067   1.555   1.248  16.188 -0.9677  2.4469 -1.1297
 1812SOL     OW17068   0.927   0.412   6.919 -0.1900  0.4925  0.5364
 1812SOL    HW117069   0.925   0.487   6.859 -2.0688 -0.9279 -1.1820
 1812SOL    HW217070   1.022   0.412   6.934  0.0702 -0.7708 -1.0343
 1813SOL     OW17071   0.663   1.835   5.624 -0.0392 -0.2450  0.3289
 1813SOL    HW117072   0.664   1.793   5.710  3.4871 -1.0193 -0.1186
 1813SOL    HW217073   0.706   1.918   5.642  1.0705 -0.4980 -1.1514
 1814SOL     OW17074   1.044   4.405   4.680 -0.3720 -0.4485 -0.2736
 1814SOL    HW117075   1.010   4.485   4.639  0.0691 -0.0295  0.1771
 1814SOL    HW217076   1.079   4.352   4.608 -0.3309  0.0446 -0.6208
 1815SOL     OW17077   3.405   4.493   5.625 -0.0903  0.1181 -0.4854
 1815SOL    HW117078   3.443   4.570   5.582  3.4025  0.1721  2.7055
 1815SOL    HW217079   3.464   4.425   5.591  0.2594  0.0673  0.2345
 1816SOL     OW17080   3.012   2.739   9.095 -0.1101 -0.2924 -0.2784
 1816SOL    HW117081   2.994   2.645   9.091  0.4548 -0.3880 -0.5755
 1816SOL    HW217082   2.926   2.774   9.071 -0.0146 -0.4762 -0.8969
 1817SOL     OW17083   3.515   1.946   5.833 -0.1180 -0.2117 -0.5655
 1817SOL    HW117084   3.598   1.915   5.870 -0.8354  0.6398  1.7565
 1817SOL    HW217085   3.532   1.955   5.739 -1.7952 -0.3193 -0.8656
 1818SOL     OW17086   3.834   0.353   4.956 -0.2822  0.1987 -0.3119
 1818SOL    HW117087   3.842   0.448   4.965  0.0825  0.1130  0.2394
 1818SOL    HW217088   3.915   0.316   4.990  0.6037 -0.2788 -2.9671
 1819SOL     OW17089   1.135   2.045   7.340 -0.6705 -0.4307 -0.4479
 1819SOL    HW117090   1.226   2.020   7.324 -0.0650  1.6543 -0.2515
 1819SOL    HW217091   1.137   2.135   7.307 -0.3215 -1.0925 -2.2581
 1820SOL     OW17092   2.541   2.287   8.147  0.4061 -0.2536 -0.2920
 1820SOL    HW117093   2.460   2.287   8.198  0.2487 -0.7700 -0.5457
 1820SOL    HW217094   2.597   2.215   8.176 -0.8482 -0.6997  0.9720
 1821SOL     OW17095   1.684   3.231   6.123  0.0442  0.2476 -0.0319
 1821SOL    HW117096   1.773   3.211   6.152  0.1072 -0.3989 -0.6733
 1821SOL    HW217097   1.705   3.292   6.052  0.1313 -0.1633 -0.3568
 1822SOL     OW17098   2.787   2.652   4.714 -0.0045  0.0136  0.1335
 1822SOL    HW117099   2.816   2.594   4.644 -0.4837  1.1862 -1.0257
 1822SOL    HW217100   2.789   2.733   4.664 -2.0092  0.3707  0.6401
 1823SOL     OW17101   3.343   1.826  13.567 -0.0648 -0.0878 -0.5528
 1823SOL    HW117102   3.429   1.784  13.577  0.5052  1.1584 -0.2481
 1823SOL    HW217103   3.338   1.889  13.639 -0.0422 -0.0165 -0.6139
 1824SOL     OW17104   2.341   2.097   6.434  0.2681  0.5234 -0.1954
 1824SOL    HW117105   2.326   2.035   6.362  0.0385 -1.2384  1.3822
 1824SOL    HW217106   2.269   2.156   6.409 -0.6305 -0.7637 -0.6229
 1825SOL     OW17107   1.793   4.626   9.557 -0.0030 -0.5944  0.3134
 1825SOL    HW117108   1.813   4.632   9.463 -3.6528  1.1489 -0.3539
 1825SOL    HW217109   1.863   4.688   9.578  0.5225 -1.2722  0.5749
 1826SOL     OW17110   1.954   1.848   0.959 -0.2754 -0.0654  0.0871
 1826SOL    HW117111   1.943   1.940   0.984  0.6658  0.2766 -0.7457
 1826SOL    HW217112   1.971   1.812   1.046 -0.9655 -1.4355 -0.3478
 1827SOL     OW17113   0.506   3.137   3.187  0.5081  0.3507 -0.0835
 1827SOL    HW117114   0.485   3.050   3.153  1.1566  0.9377 -1.9321
 1827SOL    HW217115   0.452   3.193   3.131  1.0117  0.2721 -0.6402
 1828SOL     OW17116   4.582   1.596  16.134 -0.0785  0.2396 -0.0038
 1828SOL    HW117117   4.528   1.528  16.174 -0.6943 -0.4877 -2.0758
 1828SOL    HW217118   4.563   1.663  16.200  1.5439 -0.4103  1.1338
 1829SOL     OW17119   0.235   1.464   2.081 -0.1149  0.1499  0.0500
 1829SOL    HW117120   0.176   1.536   2.105 -2.7123 -2.0423  0.3455
 1829SOL    HW217121   0.258   1.434   2.169 -0.7556 -1.3326 -0.2812
 1830SOL     OW17122   4.187   3.381   2.543  0.1242 -0.2773  0.0588
 1830SOL    HW117123   4.123   3.450   2.530  1.9688  0.9556 -2.5930
 1830SOL    HW217124   4.267   3.420   2.509  0.9118 -1.6242  0.3342
 1831SOL     OW17125   4.412   1.843   1.837  0.1417 -0.1909 -0.1553
 1831SOL    HW117126   4.376   1.916   1.785  1.4547 -0.8699 -2.0362
 1831SOL    HW217127   4.339   1.790   1.868 -0.4029  2.2385  2.6833
 1832SOL     OW17128   1.641   2.706   2.382  0.1253 -0.3486 -0.4040
 1832SOL    HW117129   1.697   2.751   2.319  0.4907 -3.0318 -1.9846
 1832SOL    HW217130   1.685   2.714   2.467  0.7985  2.6302 -1.0320
 1833SOL     OW17131   4.280   3.705   3.463  0.0954  0.6652  0.6133
 1833SOL    HW117132   4.194   3.731   3.497 -0.7913 -0.8136 -0.4570
 1833SOL    HW217133   4.297   3.628   3.517 -0.7435 -0.1092 -0.2346
 1834SOL     OW17134   2.575   0.699  12.434 -0.2700  0.0041 -0.3757
 1834SOL    HW117135   2.637   0.760  12.473  0.8636 -1.5195  0.1752
 1834SOL    HW217136   2.601   0.704  12.342 -0.8245  0.4803 -0.5079
 1835SOL     OW17137   4.308   3.605   7.374  0.0914  0.1361 -0.5643
 1835SOL    HW117138   4.218   3.627   7.351 -0.1181 -0.7393 -0.6012
 1835SOL    HW217139   4.286   3.519   7.409  1.3172  0.7222  1.6111
 1836SOL     OW17140   0.080   0.704   7.508 -0.1989 -0.0499  0.8495
 1836SOL    HW117141   0.011   0.639   7.492  1.3053 -1.5213  0.3813
 1836SOL    HW217142   0.141   0.648   7.555  0.9121 -0.0977 -0.6471
 1837SOL     OW17143   3.601   0.150   6.517  0.0198  0.0567 -0.5026
 1837SOL    HW117144   3.671   0.131   6.455  0.9858 -1.7207  1.1418
 1837SOL    HW217145   3.630   0.093   6.588  3.9248  1.0996 -1.2669
 1838SOL     OW17146   1.937   1.590  13.474  0.5040 -0.2608 -0.1936
 1838SOL    HW117147   1.961   1.500  13.455  0.0861 -0.2538 -0.7421
 1838SOL    HW217148   1.890   1.578  13.557 -0.0776  0.3978 -0.4215
 1839SOL     OW17149   2.097   1.374   7.196 -0.7363 -0.6127 -0.4100
 1839SOL    HW117150   2.009   1.409   7.215 -0.3831  1.3920 -2.4398
 1839SOL    HW217151   2.075   1.281   7.196 -0.1732 -0.7376  0.3532
 1840SOL     OW17152   0.350   0.290   2.377 -0.4067  0.3876 -0.3609
 1840SOL    HW117153   0.289   0.359   2.351 -0.6546  0.4212  0.3264
 1840SOL    HW217154   0.342   0.282   2.472 -0.3923  0.5508 -0.3461
 1841SOL     OW17155   0.347   1.786   2.917 -0.0979  0.8541 -0.0103
 1841SOL    HW117156   0.404   1.740   2.856 -0.5033  0.8940 -0.4181
 1841SOL    HW217157   0.292   1.716   2.953 -1.4153  1.5392 -0.6769
 1842SOL     OW17158   3.423   2.224   5.298 -0.3249 -0.2005 -0.4169
 1842SOL    HW117159   3.328   2.230   5.295 -0.3922 -2.0885 -2.2371
 1842SOL    HW217160   3.443   2.280   5.223  1.1069 -1.3889 -0.9311
 1843SOL     OW17161   1.206   0.947   5.807  0.6576 -0.3999  0.1836
 1843SOL    HW117162   1.167   0.866   5.842  0.3668 -1.0448 -1.6603
 1843SOL    HW217163   1.186   1.020   5.865 -0.5091 -0.4466 -0.1584
 1844SOL     OW17164   0.478   0.592   2.582  0.1003  0.0032 -0.4473
 1844SOL    HW117165   0.531   0.527   2.535 -1.1957  1.4255 -3.9092
 1844SOL    HW217166   0.396   0.543   2.595 -0.0196  0.3144 -0.0450
 1845SOL     OW17167   1.805   3.947   3.800 -0.9193 -0.2090 -0.0987
 1845SOL    HW117168   1.814   4.042   3.803 -0.7577 -0.3580  3.2330
 1845SOL    HW217169   1.722   3.943   3.846  0.5018  1.0037  2.5549
 1846SOL     OW17170   3.441   2.699   8.149 -0.0536 -0.6068 -0.0681
 1846SOL    HW117171   3.511   2.685   8.085 -0.3773 -1.5027 -0.2276
 1846SOL    HW217172   3.367   2.656   8.107  0.8748 -2.8967  0.6161
 1847SOL     OW17173   0.184   0.526   5.105 -0.6357  0.3278  0.4324
 1847SOL    HW117174   0.159   0.435   5.119  0.7257 -0.2023 -0.6391
 1847SOL    HW217175   0.188   0.553   5.197 -0.3708  1.3055  0.1407
 1848SOL     OW17176   1.760   4.138   3.122  0.2230 -0.4320 -0.5694
 1848SOL    HW117177   1.834   4.122   3.063  0.3404  1.6404 -0.9880
 1848SOL    HW217178   1.758   4.061   3.180  0.0060 -0.7531 -1.0066
 1849SOL     OW17179   1.041   4.462   7.172  0.7817  0.0384  1.1829
 1849SOL    HW117180   1.056   4.469   7.078 -0.5114 -0.6344  0.9154
 1849SOL    HW217181   1.111   4.402   7.198  1.3294  0.9969  1.8759
 1850SOL     OW17182   1.109   2.616   6.866  0.9534 -0.3879 -0.3388
 1850SOL    HW117183   1.186   2.673   6.870  0.5090  0.1980  0.0144
 1850SOL    HW217184   1.043   2.670   6.824  1.5653  1.2041  0.7151
 1851SOL     OW17185   0.128   3.011  11.436  0.8313  0.2761 -0.4076
 1851SOL    HW117186   0.066   2.979  11.370  0.7598  0.7156 -0.5541
 1851SOL    HW217187   0.084   3.095  11.451 -1.5141 -0.5888 -2.4727
 1852SOL     OW17188   2.547   3.965   5.585  0.1997  0.3459 -0.3158
 1852SOL    HW117189   2.566   3.881   5.545 -1.2864  0.2456 -0.7757
 1852SOL    HW217190   2.618   3.977   5.649  1.0107 -2.4061 -0.7189
 1853SOL     OW17191   3.606   2.052   6.704  0.0969 -0.2863 -0.5687
 1853SOL    HW117192   3.628   2.015   6.619 -0.2577 -0.4546 -0.5886
 1853SOL    HW217193   3.672   2.004   6.753  1.3699  0.9925 -1.0107
 1854SOL     OW17194   1.375   0.307   7.470 -0.3375 -0.5158 -0.3441
 1854SOL    HW117195   1.456   0.312   7.419 -0.5714 -0.5743 -0.7127
 1854SOL    HW217196   1.313   0.346   7.409 -0.2041  0.2836  0.0238
 1855SOL     OW17197   2.084   3.422  17.333 -0.6389 -0.0059  0.1076
 1855SOL    HW117198   2.107   3.507  17.297 -0.1769 -0.5498 -0.8576
 1855SOL    HW217199   2.135   3.355  17.288  1.2282  1.3558  0.2191
 1856SOL     OW17200   0.230   0.568   3.302 -0.4553 -0.0029 -0.8142
 1856SOL    HW117201   0.138   0.550   3.323  0.2534 -2.0928  0.5622
 1856SOL    HW217202   0.227   0.663   3.289 -2.7253  0.0234 -0.0072
 1857SOL     OW17203   0.410   1.229  12.910  0.3796  0.0325  0.2910
 1857SOL    HW117204   0.335   1.194  12.862  0.4110  1.3163 -0.6856
 1857SOL    HW217205   0.362   1.230  12.994  1.5972 -1.2417  1.0123
 1858SOL     OW17206   0.178   0.360   3.884 -0.5682 -0.0974 -0.2535
 1858SOL    HW117207   0.183   0.289   3.819  1.6881  0.2175 -0.4041
 1858SOL    HW217208   0.271   0.381   3.894  0.1491 -3.2778 -0.2159
 1859SOL     OW17209   0.665   1.726   5.873 -0.4596  0.2656 -0.5601
 1859SOL    HW117210   0.606   1.786   5.918  1.9288  1.4937  0.9499
 1859SOL    HW217211   0.639   1.644   5.916  1.6999  0.4885  1.1313
 1860SOL     OW17212   2.195   2.645  12.137 -0.1047 -0.1062  0.5864
 1860SOL    HW117213   2.196   2.613  12.227 -0.5931 -2.1378 -0.1368
 1860SOL    HW217214   2.102   2.635  12.117 -0.0740 -1.5244  1.1664
 1861SOL     OW17215   4.263   1.013   0.721  0.2459  0.3852  0.1983
 1861SOL    HW117216   4.203   0.942   0.744  0.9203 -0.1242  0.4128
 1861SOL    HW217217   4.270   1.065   0.801  0.1096 -0.8914  1.0382
 1862SOL     OW17218   1.060   2.195  16.188 -0.3798 -0.7917  0.0177
 1862SOL    HW117219   1.078   2.143  16.266  0.5401 -0.2244  0.1846
 1862SOL    HW217220   1.148   2.199  16.151  0.5374 -2.6520  1.9849
 1863SOL     OW17221   1.755   4.718  14.615 -0.0988 -0.2127 -0.0650
 1863SOL    HW117222   1.795   4.660  14.550  2.5791  1.0540  0.4272
 1863SOL    HW217223   1.665   4.688  14.618 -0.2291  0.2114  0.2764
 1864SOL     OW17224   3.317   0.353   4.324  0.1177  0.8159  0.8412
 1864SOL    HW117225   3.275   0.404   4.255 -1.1521  0.3390  1.2494
 1864SOL    HW217226   3.365   0.415   4.378 -0.5767  0.1966  2.1704
 1865SOL     OW17227   3.215   4.727   5.517  0.2462  0.1541 -0.0123
 1865SOL    HW117228   3.278   0.044   5.469 -0.5949  0.6621 -0.5547
 1865SOL    HW217229   3.188   4.671   5.444 -0.3013  0.2580  0.1106
 1866SOL     OW17230   1.386   3.745  17.096  0.5920  0.0161 -0.1771
 1866SOL    HW117231   1.294   3.743  17.125  0.1004 -3.1856 -2.0264
 1866SOL    HW217232   1.381   3.726  17.003  2.5149 -2.5687  0.2426
 1867SOL     OW17233   0.597   3.191   1.965  0.8588  0.9612  0.1809
 1867SOL    HW117234   0.513   3.233   1.945  0.5458  1.5628  2.7723
 1867SOL    HW217235   0.596   3.209   2.059  0.3552  0.2486  0.3161
 1868SOL     OW17236   1.268   1.814  16.142  0.8985  0.2986  0.1326
 1868SOL    HW117237   1.311   1.728  16.139  4.0396  1.8873  0.7578
 1868SOL    HW217238   1.191   1.786  16.092  0.3518 -1.5723  2.0135
 1869SOL     OW17239   1.750   0.676  12.019  0.4815 -0.2428 -0.2617
 1869SOL    HW117240   1.824   0.731  12.046  0.9831 -1.8134  1.4957
 1869SOL    HW217241   1.792   0.591  12.007  1.4720  0.1756  0.2439
 1870SOL     OW17242   2.043   2.451   0.351  0.0213  0.0301  0.0515
 1870SOL    HW117243   2.036   2.411   0.437  1.3117 -0.8844 -0.2677
 1870SOL    HW217244   2.067   2.375   0.298  0.0500  0.2480 -0.2517
 1871SOL     OW17245   0.401   0.640  13.039 -0.1689  0.2804  0.1195
 1871SOL    HW117246   0.418   0.711  12.978 -0.1034  0.7844  0.7311
 1871SOL    HW217247   0.333   0.593  12.990  0.1760 -0.7579  0.6342
 1872SOL     OW17248   4.347   1.903   5.337 -0.0670  0.6597 -0.0315
 1872SOL    HW117249   4.402   1.958   5.281  2.4409  0.7062  2.4600
 1872SOL    HW217250   4.267   1.954   5.347  1.2988  2.5971  1.2212
 1873SOL     OW17251   4.701   2.794   0.350 -0.6153 -0.3150  0.0938
 1873SOL    HW117252   4.634   2.736   0.385  0.7690 -2.2898 -0.5171
 1873SOL    HW217253   4.669   2.821   0.264  2.2380  0.5460 -0.7057
 1874SOL     OW17254   3.588   0.549   4.360  0.3923 -0.5181 -0.0334
 1874SOL    HW117255   3.550   0.628   4.323  0.3044 -0.7534 -0.4433
 1874SOL    HW217256   3.610   0.572   4.451  1.0273 -1.7721  0.1299
 1875SOL     OW17257   0.395   4.188   6.046  0.0641  0.1573  0.5706
 1875SOL    HW117258   0.375   4.271   6.003  2.5211  0.3668 -0.1910
 1875SOL    HW217259   0.455   4.224   6.111  2.6585 -0.6448 -1.3628
 1876SOL     OW17260   3.772   0.759   3.714 -0.2882  0.2963  0.6628
 1876SOL    HW117261   3.843   0.762   3.779 -0.0887 -0.3446  0.4737
 1876SOL    HW217262   3.724   0.836   3.744 -0.4049 -0.2743  1.9546
 1877SOL     OW17263   3.926   1.471   7.706 -0.4530 -0.6982  0.0583
 1877SOL    HW117264   3.906   1.466   7.613 -1.4666 -0.6130  0.2674
 1877SOL    HW217265   4.003   1.415   7.717  1.6252  2.7468  3.0775
 1878SOL     OW17266   2.162   1.471   5.273 -0.4498 -0.1098 -0.1764
 1878SOL    HW117267   2.205   1.556   5.275 -0.6474  0.0126 -1.8620
 1878SOL    HW217268   2.126   1.457   5.186 -0.6268  0.6388 -0.2254
 1879SOL     OW17269   2.271   4.547   6.395  0.1791  0.6700  0.4812
 1879SOL    HW117270   2.350   4.507   6.431 -0.2914 -4.2278 -3.8780
 1879SOL    HW217271   2.285   4.535   6.301 -1.3438 -3.3680  0.7387
 1880SOL     OW17272   3.728   2.013   3.111  0.2158 -0.1905  0.5665
 1880SOL    HW117273   3.636   2.000   3.137  0.0433 -0.8752 -0.4115
 1880SOL    HW217274   3.755   2.063   3.188  1.7713  1.0171 -0.7767
 1881SOL     OW17275   3.924   3.081   1.955 -0.1099  0.0992  0.0733
 1881SOL    HW117276   3.917   3.151   1.891 -1.5138  0.6700  0.8432
 1881SOL    HW217277   3.839   3.091   1.999 -0.5566 -2.0145 -0.2979
 1882SOL     OW17278   3.376   3.478   8.306  0.5374 -0.4706 -0.3716
 1882SOL    HW117279   3.364   3.384   8.314 -0.7054 -0.1968  0.8503
 1882SOL    HW217280   3.313   3.504   8.373 -0.5958 -1.3648 -1.1068
 1883SOL     OW17281   2.928   1.415   9.193 -0.2150 -0.5158  0.0371
 1883SOL    HW117282   2.973   1.471   9.130  0.5975  0.7354  1.7067
 1883SOL    HW217283   2.884   1.487   9.240  0.3674 -0.6039  0.7127
 1884SOL     OW17284   3.160   0.585   8.108  0.0206  0.2722 -0.2353
 1884SOL    HW117285   3.243   0.567   8.151  0.5395  0.3631 -1.1981
 1884SOL    HW217286   3.173   0.575   8.013  2.0920 -1.5777  0.2687
 1885SOL     OW17287   0.771   3.256   8.228  0.1260  0.2497  0.1550
 1885SOL    HW117288   0.724   3.192   8.175  0.1321  0.2560  0.1423
 1885SOL    HW217289   0.705   3.323   8.243 -0.4131 -0.7293  2.0782
 1886SOL     OW17290   3.784   0.525   1.086  0.0615 -0.5622 -0.1902
 1886SOL    HW117291   3.778   0.613   1.048  0.7111  0.1493  1.3729
 1886SOL    HW217292   3.698   0.495   1.114 -0.9210  2.0175 -0.4719
 1887SOL     OW17293   0.997   0.650   9.117 -0.1302 -0.1470 -0.0113
 1887SOL    HW117294   1.052   0.727   9.103  0.9542 -0.9115  0.0335
 1887SOL    HW217295   0.951   0.638   9.034  1.2880 -1.5123 -0.6252
 1888SOL     OW17296   2.679   1.074  13.747  0.2494  0.0316 -0.5712
 1888SOL    HW117297   2.613   1.070  13.678 -0.9175 -0.1822  0.5696
 1888SOL    HW217298   2.724   1.156  13.725 -0.5143  0.6798  0.2809
 1889SOL     OW17299   2.188   1.168   9.128 -0.6486 -0.2271  0.0523
 1889SOL    HW117300   2.118   1.227   9.157 -0.5251 -0.9603  1.8271
 1889SOL    HW217301   2.257   1.228   9.099 -0.1281 -1.2914 -0.9335
 1890SOL     OW17302   1.669   2.382   4.754 -0.0619  0.5172  0.1676
 1890SOL    HW117303   1.731   2.309   4.753 -1.8380 -0.9944 -0.2808
 1890SOL    HW217304   1.688   2.426   4.836  1.5459  1.6039 -0.8050
 1891SOL     OW17305   0.972   2.617   3.944 -0.0451  0.3895  0.3562
 1891SOL    HW117306   1.062   2.588   3.959  0.3707  2.5705  2.2199
 1891SOL    HW217307   0.927   2.533   3.934  1.7847 -0.3529 -1.6153
 1892SOL     OW17308   2.315   1.775   5.861 -0.4108  0.1770  0.3788
 1892SOL    HW117309   2.369   1.727   5.924  1.9219  0.1477 -1.6309
 1892SOL    HW217310   2.254   1.707   5.835  0.6982 -1.5841  2.3240
 1893SOL     OW17311   2.582   2.961  14.967  0.3855  0.3694  0.0025
 1893SOL    HW117312   2.549   2.902  15.034 -0.9137  1.1448  0.0461
 1893SOL    HW217313   2.505   2.957  14.911 -0.9472 -2.1982  1.9961
 1894SOL     OW17314   1.976   4.277   8.448 -0.4623 -0.7280 -0.9192
 1894SOL    HW117315   2.012   4.366   8.447 -3.8509  0.6497  2.4817
 1894SOL    HW217316   1.926   4.273   8.529  0.3793  2.1908 -0.2385
 1895SOL     OW17317   3.686   4.139   2.339 -0.2780 -0.2641  0.4195
 1895SOL    HW117318   3.680   4.232   2.319 -2.4244 -0.7564 -1.1442
 1895SOL    HW217319   3.763   4.111   2.290 -0.2315 -0.9451  0.8766
 1896SOL     OW17320   3.161   4.506  15.737 -0.9233  0.3274  0.2752
 1896SOL    HW117321   3.243   4.547  15.708 -0.6302 -1.0080 -0.7912
 1896SOL    HW217322   3.163   4.432  15.677 -0.1485  0.3865  0.2319
 1897SOL     OW17323   4.628   0.532  12.775  0.1129  0.3010  0.0006
 1897SOL    HW117324   4.546   0.582  12.771 -0.0432 -0.1560 -2.1041
 1897SOL    HW217325   4.676   0.600  12.728 -0.4899 -0.9683 -2.4002
 1898SOL     OW17326   3.321   0.546   6.501  0.2252 -0.4579 -0.0576
 1898SOL    HW117327   3.346   0.573   6.590 -0.8689  0.4868 -0.0301
 1898SOL    HW217328   3.408   0.547   6.461  0.0019  1.8717 -0.4931
 1899SOL     OW17329   2.621   1.507   3.564  0.5528 -0.5398  0.5777
 1899SOL    HW117330   2.576   1.572   3.619 -1.6028 -0.1988 -1.5621
 1899SOL    HW217331   2.560   1.434   3.567  0.1369 -0.1949  0.4886
 1900SOL     OW17332   2.038   2.464   4.204 -0.3118 -0.0856  0.6822
 1900SOL    HW117333   1.992   2.425   4.129 -0.6612 -0.8190  1.2814
 1900SOL    HW217334   1.999   2.417   4.277 -0.8697 -0.7499 -0.0390
 1901SOL     OW17335   2.938   2.415   8.452 -0.0740  0.6488  0.3729
 1901SOL    HW117336   2.894   2.466   8.384 -0.6616  0.8287  0.8793
 1901SOL    HW217337   2.989   2.480   8.500 -0.4360  0.7182  0.6670
 1902SOL     OW17338   2.366   0.794   2.412 -0.2490  0.3100 -0.0809
 1902SOL    HW117339   2.439   0.755   2.459 -2.2682 -2.4983  0.7677
 1902SOL    HW217340   2.341   0.868   2.468  0.8130  0.4881  0.1452
 1903SOL     OW17341   2.133   0.695  10.801  0.0697 -0.1031  0.5064
 1903SOL    HW117342   2.204   0.754  10.827  0.0037 -0.6577  1.9735
 1903SOL    HW217343   2.160   0.688  10.710  1.8635 -0.2843  1.0528
 1904SOL     OW17344   3.226   0.628   8.786 -0.4167  0.0511  0.0987
 1904SOL    HW117345   3.308   0.647   8.832 -0.6443 -0.6055  0.7917
 1904SOL    HW217346   3.259   0.587   8.706 -0.0609  0.3584  0.0904
 1905SOL     OW17347   1.460   2.465   1.165  0.5400  0.1411  0.1449
 1905SOL    HW117348   1.540   2.448   1.115 -0.9558 -0.0627 -2.1631
 1905SOL    HW217349   1.405   2.526   1.116  0.0217 -1.5189 -1.3479
 1906SOL     OW17350   3.910   3.666   2.833  0.2886 -0.0365  0.3622
 1906SOL    HW117351   3.845   3.722   2.876 -1.8272  0.2038 -3.1840
 1906SOL    HW217352   3.925   3.596   2.896  0.6715 -1.0580 -0.8663
 1907SOL     OW17353   2.242   2.293   9.247 -0.9400  0.2252 -0.5183
 1907SOL    HW117354   2.164   2.266   9.295 -0.0761 -0.1969  0.6384
 1907SOL    HW217355   2.237   2.228   9.177  0.2801 -1.1238  0.6701
 1908SOL     OW17356   0.512   3.888   9.190 -0.1860 -0.7532 -0.1018
 1908SOL    HW117357   0.566   3.834   9.247  0.2599  1.1527  1.2716
 1908SOL    HW217358   0.531   3.854   9.102  1.2250 -0.4488  0.0887
 1909SOL     OW17359   4.627   1.371   5.829 -0.2179 -0.4100 -0.2390
 1909SOL    HW117360   4.671   1.414   5.902  1.5987 -1.3929 -0.7553
 1909SOL    HW217361   4.693   1.371   5.759  1.3843 -2.1785  1.2981
 1910SOL     OW17362   3.005   1.661   2.177  0.2428 -0.1584 -0.4904
 1910SOL    HW117363   3.004   1.718   2.254 -0.0758  0.6774 -1.1129
 1910SOL    HW217364   2.967   1.720   2.112  0.3537  0.8827  0.3767
 1911SOL     OW17365   1.024   3.341   3.543  0.1324 -0.0079 -0.3655
 1911SOL    HW117366   0.955   3.291   3.587  0.3225  0.0515 -0.0061
 1911SOL    HW217367   1.097   3.283   3.565 -0.2100 -0.9611 -1.6991
 1912SOL     OW17368   2.469   1.142   5.784  0.0918  0.0771  0.6566
 1912SOL    HW117369   2.558   1.179   5.783  0.5076 -0.9839 -1.1219
 1912SOL    HW217370   2.481   1.086   5.861  0.0384 -0.1202  0.5202
 1913SOL     OW17371   3.722   2.650  16.144 -0.6379  0.0916  0.3506
 1913SOL    HW117372   3.693   2.641  16.054  1.1539 -0.2149 -0.2024
 1913SOL    HW217373   3.758   2.563  16.163  0.8237  1.0050  1.7990
 1914SOL     OW17374   0.754   1.852  16.558 -0.7409 -0.2387  1.1447
 1914SOL    HW117375   0.717   1.863  16.470 -0.3823 -0.2318  0.9904
 1914SOL    HW217376   0.846   1.830  16.540 -0.2681  1.7431  1.1925
 1915SOL     OW17377   4.434   1.212   6.533  0.4927 -0.1991 -0.2676
 1915SOL    HW117378   4.508   1.153   6.518 -1.2670 -2.3933 -0.4327
 1915SOL    HW217379   4.402   1.206   6.442  0.6387 -1.1457 -0.2654
 1916SOL     OW17380   2.024   1.032   7.811  0.0834  0.1917  0.3590
 1916SOL    HW117381   1.951   1.056   7.869 -0.1898 -2.4464  1.0912
 1916SOL    HW217382   1.988   1.067   7.729  2.2096 -2.4651 -1.6926
 1917SOL     OW17383   0.971   3.270   6.343  0.6382  0.5472  0.2235
 1917SOL    HW117384   1.038   3.216   6.385  0.4543 -0.4193 -0.7389
 1917SOL    HW217385   1.001   3.354   6.378  1.8674  0.2903 -0.2301
 1918SOL     OW17386   0.186   2.224   4.725 -0.3576 -0.1871  0.2634
 1918SOL    HW117387   0.154   2.309   4.753 -1.2592 -0.2601 -0.5500
 1918SOL    HW217388   0.158   2.164   4.794  2.7908 -1.3395  0.5564
 1919SOL     OW17389   4.146   2.582   8.308  0.3936  0.4080 -0.2669
 1919SOL    HW117390   4.061   2.624   8.311 -0.4325 -1.4350  2.3959
 1919SOL    HW217391   4.133   2.498   8.264  2.6751 -0.1419  0.0877
 1920SOL     OW17392   4.469   1.593   9.282 -0.5414  0.0587  0.4094
 1920SOL    HW117393   4.472   1.498   9.278  0.1057  0.0857  0.0837
 1920SOL    HW217394   4.415   1.618   9.207 -0.4419 -1.2836 -0.1044
 1921SOL     OW17395   4.619   1.122   8.136 -0.4799 -0.8712 -0.0561
 1921SOL    HW117396   4.705   1.160   8.152 -1.2771  0.2250  1.7144
 1921SOL    HW217397   4.645   1.030   8.138 -1.4677 -1.1553 -0.3152
 1922SOL     OW17398   2.496   3.080   5.611 -0.0415 -0.5390 -0.3761
 1922SOL    HW117399   2.556   3.121   5.673 -1.3868 -0.1754  0.6853
 1922SOL    HW217400   2.418   3.059   5.664  0.8415  0.8361  1.4589
 1923SOL     OW17401   1.187   0.417   6.906 -0.2312  0.5594 -0.0206
 1923SOL    HW117402   1.222   0.416   6.995 -3.6533  0.4986  1.2882
 1923SOL    HW217403   1.227   0.495   6.866  0.7008 -0.9093 -1.9680
 1924SOL     OW17404   1.788   0.515  14.922  0.1563 -0.5515 -0.5774
 1924SOL    HW117405   1.798   0.606  14.952  1.0154  0.0611 -2.7071
 1924SOL    HW217406   1.779   0.530  14.828 -2.1678  0.8828 -0.1366
 1925SOL     OW17407   1.039   3.403  13.733 -0.5019 -0.3328  0.4709
 1925SOL    HW117408   1.046   3.381  13.826  1.8233 -0.2364  0.3076
 1925SOL    HW217409   1.044   3.499  13.735  0.3775 -0.3715  0.0966
 1926SOL     OW17410   4.322   1.031   9.943  0.6237 -0.0495 -0.2217
 1926SOL    HW117411   4.287   0.957   9.893  1.4009 -1.0841  0.7677
 1926SOL    HW217412   4.415   1.012   9.955  0.8925 -0.0413 -2.2051
 1927SOL     OW17413   0.121   1.379   6.435  0.9406 -0.7398 -0.3330
 1927SOL    HW117414   0.170   1.342   6.508 -0.0629 -0.3159  0.5594
 1927SOL    HW217415   0.040   1.401   6.483  2.2154  1.5622  0.7766
 1928SOL     OW17416   1.596   4.112   4.316 -0.7580 -0.3258 -0.3155
 1928SOL    HW117417   1.666   4.048   4.330  1.2936  1.2204 -3.3659
 1928SOL    HW217418   1.522   4.052   4.315 -1.9225  1.1153 -0.0028
 1929SOL     OW17419   1.449   3.311   1.984 -0.3834 -0.4528  0.1583
 1929SOL    HW117420   1.495   3.394   1.995  1.4501 -1.6304  1.2977
 1929SOL    HW217421   1.373   3.340   1.933  0.1995 -0.9052 -0.9711
 1930SOL     OW17422   4.561   2.537  12.965 -0.5448 -0.1849 -0.2595
 1930SOL    HW117423   4.636   2.593  12.984  0.5241 -0.9800 -2.2288
 1930SOL    HW217424   4.538   2.506  13.053 -1.3094  1.8782  0.2547
 1931SOL     OW17425   3.473   3.541   9.835  0.0533  0.3660  0.1996
 1931SOL    HW117426   3.482   3.446   9.836 -1.4696  0.2227  0.7298
 1931SOL    HW217427   3.409   3.550   9.764 -1.1842  0.8794  1.3775
 1932SOL     OW17428   0.903   0.200   8.867  0.1901  0.5810  0.0790
 1932SOL    HW117429   0.929   0.179   8.957  2.5373  0.9929 -0.4786
 1932SOL    HW217430   0.982   0.250   8.845  0.7435 -1.4342 -2.4046
 1933SOL     OW17431   1.478   4.731   4.456 -0.1643  0.4723 -0.1032
 1933SOL    HW117432   1.409   0.037   4.508  0.3272  0.7671  0.3152
 1933SOL    HW217433   1.554   0.037   4.494  0.4640  0.8689 -1.7888
 1934SOL     OW17434   2.212   2.737   8.324  0.2675  0.8486 -0.2154
 1934SOL    HW117435   2.159   2.736   8.244  1.2813 -0.7969 -0.8425
 1934SOL    HW217436   2.155   2.790   8.380 -0.8654  0.1248 -0.6660
 1935SOL     OW17437   4.422   2.869   9.108 -0.2696  0.2807 -0.4371
 1935SOL    HW117438   4.515   2.878   9.126 -0.6312  1.3466  0.9064
 1935SOL    HW217439   4.431   2.818   9.028  2.5191 -0.6690  0.4877
 1936SOL     OW17440   2.029   0.731   4.420  0.0618  0.6118  0.2616
 1936SOL    HW117441   2.027   0.636   4.413 -0.6564  0.7827 -1.7926
 1936SOL    HW217442   2.047   0.759   4.330 -0.4694  0.3899  0.0844
 1937SOL     OW17443   0.321   1.074   5.509 -0.1379 -0.7670 -0.0346
 1937SOL    HW117444   0.332   0.997   5.454  0.2707 -0.9357  0.2841
 1937SOL    HW217445   0.390   1.133   5.478  0.3925 -0.4661  1.6955
 1938SOL     OW17446   0.589   0.592   9.113  0.4959  0.2807 -0.1701
 1938SOL    HW117447   0.563   0.504   9.085  1.6970 -0.5087  1.1747
 1938SOL    HW217448   0.518   0.613   9.175  0.7897 -0.2352  0.3381
 1939SOL     OW17449   2.480   1.165   0.493 -0.3421  0.1600 -0.2098
 1939SOL    HW117450   2.386   1.183   0.490 -0.1885  0.7855 -1.1244
 1939SOL    HW217451   2.498   1.140   0.584 -0.9657 -1.4736 -0.5396
 1940SOL     OW17452   4.656   4.333   1.866 -0.0073  0.5023 -0.0948
 1940SOL    HW117453   4.565   4.338   1.836 -0.3028  3.5346  1.2765
 1940SOL    HW217454   4.710   4.313   1.790  0.6026 -1.8218  0.9233
 1941SOL     OW17455   1.337   2.108  16.113 -0.1453 -0.2390 -0.4289
 1941SOL    HW117456   1.333   2.113  16.018 -0.5557  2.4422 -0.2701
 1941SOL    HW217457   1.337   2.013  16.129  1.3279  0.1638  2.1151
 1942SOL     OW17458   3.447   2.389   5.752  0.1160 -0.0053 -0.1648
 1942SOL    HW117459   3.541   2.406   5.752  0.4370 -1.7294 -2.8753
 1942SOL    HW217460   3.440   2.354   5.840  3.0693  3.4993  1.4468
 1943SOL     OW17461   3.868   0.043   6.610  0.6871 -0.2957 -0.0273
 1943SOL    HW117462   3.875   0.023   6.517 -1.9257 -0.7681 -0.1317
 1943SOL    HW217463   3.895   4.694   6.646  0.6344  0.4374  1.7139
 1944SOL     OW17464   3.957   0.773   9.156  0.0398  0.4489 -0.1152
 1944SOL    HW117465   3.916   0.697   9.114 -1.0024  0.8627  0.1439
 1944SOL    HW217466   3.881   0.825   9.181 -0.0844 -0.7101  1.9347
 1945SOL     OW17467   0.056   1.603   5.450  0.3744  0.4041  0.2601
 1945SOL    HW117468   0.012   1.687   5.461 -1.9343 -0.8906  1.0460
 1945SOL    HW217469   0.118   1.625   5.380  1.9309  0.9430  1.8191
 1946SOL     OW17470   2.904   0.629   1.139 -0.2449 -0.2594  0.1368
 1946SOL    HW117471   2.858   0.712   1.134  0.5527  0.2785  1.7290
 1946SOL    HW217472   2.847   0.573   1.191  0.7151 -0.1295  1.3384
 1947SOL     OW17473   2.076   1.870   9.133 -0.7523  0.0912  0.7322
 1947SOL    HW117474   1.983   1.870   9.110 -0.5653 -0.4643 -0.0555
 1947SOL    HW217475   2.106   1.780   9.120  1.6839  0.9803  0.3504
 1948SOL     OW17476   0.609   2.831   3.388  0.6036  0.4214  0.2893
 1948SOL    HW117477   0.604   2.872   3.475  0.5966  0.7469  0.1342
 1948SOL    HW217478   0.522   2.838   3.351  0.0468 -1.4875  1.2381
 1949SOL     OW17479   4.639   1.110   5.242  0.5254 -0.0205 -0.4004
 1949SOL    HW117480   4.631   1.015   5.234 -1.6596  0.2564 -1.3828
 1949SOL    HW217481   4.603   1.131   5.156  0.0214 -0.5622 -0.3207
 1950SOL     OW17482   4.609   1.809   5.326 -0.1987  0.3287 -0.4081
 1950SOL    HW117483   4.515   1.814   5.305  0.2824 -1.0771 -2.8681
 1950SOL    HW217484   4.601   1.830   5.419  0.1300 -0.0336 -0.2989
 1951SOL     OW17485   4.025   0.441  14.110 -0.3444  0.0116  0.1344
 1951SOL    HW117486   4.117   0.448  14.083 -0.2746  1.5706  0.7600
 1951SOL    HW217487   3.975   0.440  14.029  0.9379 -0.1805 -0.6518
 1952SOL     OW17488   4.508   0.621   3.179  0.1652 -0.7683  0.1174
 1952SOL    HW117489   4.572   0.592   3.244  1.1122  0.7603 -0.1261
 1952SOL    HW217490   4.488   0.539   3.134  2.0176 -0.3371 -1.5095
 1953SOL     OW17491   0.273   1.055  10.921  0.1205 -0.0805 -0.0302
 1953SOL    HW117492   0.252   0.972  10.964  2.8355 -1.0127 -0.5304
 1953SOL    HW217493   0.355   1.076  10.966  0.1127  2.7245 -1.3107
 1954SOL     OW17494   3.842   2.612   5.174 -0.5737 -0.1564  0.6885
 1954SOL    HW117495   3.785   2.688   5.167  0.3594  0.4916  0.0801
 1954SOL    HW217496   3.915   2.662   5.213  0.2137 -1.1917  0.5375
 1955SOL     OW17497   4.511   1.500   2.695 -0.1119 -0.0184  0.1398
 1955SOL    HW117498   4.470   1.547   2.767 -1.2609 -0.3610 -0.2880
 1955SOL    HW217499   4.546   1.422   2.739  0.8507  0.8353  0.8979
 1956SOL     OW17500   0.563   1.942   8.091 -0.0125 -0.6023  0.5009
 1956SOL    HW117501   0.641   1.984   8.128  0.4557 -1.4115  0.4306
 1956SOL    HW217502   0.542   1.864   8.143 -0.6665 -0.1597  0.9114
 1957SOL     OW17503   3.353   0.479   3.079 -0.4907  0.2663 -0.4054
 1957SOL    HW117504   3.322   0.446   2.995 -2.6239 -0.5124  0.6791
 1957SOL    HW217505   3.384   0.568   3.064  0.4490 -0.0254 -0.1682
 1958SOL     OW17506   4.545   2.017   5.971 -0.4459  0.1264 -0.7146
 1958SOL    HW117507   4.510   1.999   6.058 -1.6712  2.1047 -0.7925
 1958SOL    HW217508   4.638   1.999   5.987 -0.3130 -0.3061 -1.9405
 1959SOL     OW17509   1.828   2.440   3.573 -0.2631 -0.2023 -0.1487
 1959SOL    HW117510   1.906   2.399   3.535  0.6701  1.1980  0.2548
 1959SOL    HW217511   1.814   2.505   3.505  1.9668 -0.3667 -0.7664
 1960SOL     OW17512   2.800   3.922   4.033  0.3397 -0.3742  0.3186
 1960SOL    HW117513   2.756   3.860   3.975 -0.5865  0.0751  0.5356
 1960SOL    HW217514   2.768   4.004   3.997  1.9222 -1.4213 -3.4355
 1961SOL     OW17515   2.891   0.443  13.138 -0.3243  0.1053 -0.5080
 1961SOL    HW117516   2.838   0.384  13.084  1.6570 -1.8898 -0.2847
 1961SOL    HW217517   2.942   0.491  13.073  0.6092  0.7475  0.7036
 1962SOL     OW17518   1.747   0.155   6.336 -0.9726  0.5774 -0.5675
 1962SOL    HW117519   1.666   0.205   6.349 -2.2463 -1.4238 -0.8993
 1962SOL    HW217520   1.813   0.213   6.376  0.5301 -0.9423 -0.8469
 1963SOL     OW17521   1.097   4.425  16.431  0.0359  0.3683 -0.7683
 1963SOL    HW117522   1.122   4.359  16.495 -0.4904  0.1462 -0.7876
 1963SOL    HW217523   1.104   4.511  16.473  1.8332 -0.2821  0.2268
 1964SOL     OW17524   0.285   1.238   5.783  0.8632 -0.2426  0.0516
 1964SOL    HW117525   0.230   1.213   5.710  0.3011  0.4509  0.2319
 1964SOL    HW217526   0.372   1.241   5.744  1.5332 -1.3266  1.4471
 1965SOL     OW17527   3.819   4.599   4.072  0.2669  0.4626 -0.2499
 1965SOL    HW117528   3.760   4.638   4.137 -0.8888 -0.0758 -0.9720
 1965SOL    HW217529   3.755   4.546   4.025 -0.3196  0.6205  0.3547
 1966SOL     OW17530   2.755   2.550   7.318 -0.2376  0.0068 -0.1839
 1966SOL    HW117531   2.805   2.549   7.400 -2.5377  0.7685  1.2197
 1966SOL    HW217532   2.667   2.522   7.344 -1.3027  2.1054 -1.5740
 1967SOL     OW17533   2.509   1.074   1.236 -0.1686 -0.1017 -0.3864
 1967SOL    HW117534   2.529   1.092   1.328  2.2082  0.4484 -1.0280
 1967SOL    HW217535   2.444   1.144   1.221 -0.5900 -0.9178 -2.3369
 1968SOL     OW17536   4.383   2.228   4.431 -0.4636  0.4344  0.7048
 1968SOL    HW117537   4.306   2.172   4.441 -3.2968  3.5154 -3.6702
 1968SOL    HW217538   4.398   2.224   4.336  0.6249 -0.3962  0.9099
 1969SOL     OW17539   0.637   3.309   3.370 -0.2283  0.1926 -0.9944
 1969SOL    HW117540   0.666   3.332   3.282  3.1115 -0.1168  0.0468
 1969SOL    HW217541   0.575   3.240   3.345  0.3643 -0.2080 -1.3515
 1970SOL     OW17542   4.164   3.798   4.207  0.0522 -0.1107  0.0419
 1970SOL    HW117543   4.080   3.842   4.224  1.0676  1.3988  1.1313
 1970SOL    HW217544   4.132   3.729   4.149  0.1511 -0.3545  0.2755
 1971SOL     OW17545   0.405   4.665  11.082  1.0837  0.0098  0.0136
 1971SOL    HW117546   0.458   4.586  11.091 -0.1268 -0.6823  1.0850
 1971SOL    HW217547   0.455   0.002  11.120 -1.5723  0.9449  1.7114
 1972SOL     OW17548   4.566   1.281   7.303 -0.0282  0.2056 -0.2301
 1972SOL    HW117549   4.605   1.315   7.384 -1.2939  0.4373  0.2764
 1972SOL    HW217550   4.639   1.224   7.281  0.7391  1.4130 -0.8304
 1973SOL     OW17551   1.798   0.435   9.915 -0.2401  0.0569 -0.3137
 1973SOL    HW117552   1.828   0.526   9.905 -3.7183  1.3226  0.9935
 1973SOL    HW217553   1.710   0.433   9.877  0.2992  0.4525 -1.5854
 1974SOL     OW17554   3.133   1.422   6.700 -0.5282 -0.0192  0.1859
 1974SOL    HW117555   3.103   1.508   6.729  0.9167  0.4489  0.3091
 1974SOL    HW217556   3.173   1.451   6.618 -0.6939  0.8955  0.4314
 1975SOL     OW17557   3.691   0.146   2.566  0.3627  0.2936  0.4445
 1975SOL    HW117558   3.669   0.229   2.607  1.2047 -0.0462  1.5674
 1975SOL    HW217559   3.685   0.090   2.643  0.7507 -1.3763 -0.7210
 1976SOL     OW17560   2.487   3.126   5.068  0.0490  0.0863  0.0879
 1976SOL    HW117561   2.457   3.195   5.127  2.1054  0.5374  0.6234
 1976SOL    HW217562   2.582   3.120   5.080  0.1306 -1.4021 -1.2654
 1977SOL     OW17563   3.550   0.709   3.542 -0.2859  0.4498 -0.7928
 1977SOL    HW117564   3.618   0.749   3.596  0.3679 -1.7480  0.0003
 1977SOL    HW217565   3.588   0.625   3.518  2.5069  1.4046  0.3661
 1978SOL     OW17566   1.424   0.876   5.372  0.0270  0.1465 -0.2201
 1978SOL    HW117567   1.469   0.800   5.409  1.4801  0.7215 -0.7921
 1978SOL    HW217568   1.345   0.887   5.424  0.1856 -0.7845  0.2110
 1979SOL     OW17569   4.314   2.224   2.981  0.0673 -0.4293 -0.4318
 1979SOL    HW117570   4.371   2.299   2.998  0.5867 -0.7329 -0.8205
 1979SOL    HW217571   4.248   2.235   3.050  0.6339 -0.8067  0.1625
 1980SOL     OW17572   1.305   0.693   6.476 -0.2151  0.4144 -0.5514
 1980SOL    HW117573   1.218   0.689   6.514  0.7214 -1.5274  1.3695
 1980SOL    HW217574   1.320   0.599   6.468 -3.2889 -0.1941  0.9441
 1981SOL     OW17575   3.269   0.570   3.324 -0.1320  0.2810 -0.5514
 1981SOL    HW117576   3.307   0.539   3.241  0.2102 -0.7457 -0.0083
 1981SOL    HW217577   3.281   0.485   3.366  1.6721  0.7047 -0.1983
 1982SOL     OW17578   4.237   0.573   4.696  0.4488  0.1472 -0.2818
 1982SOL    HW117579   4.212   0.551   4.607 -3.9577  1.3169  0.6195
 1982SOL    HW217580   4.311   0.518   4.721 -0.0347 -0.8656 -1.0721
 1983SOL     OW17581   4.185   2.290   7.389  0.9200 -0.4645  0.0592
 1983SOL    HW117582   4.122   2.248   7.448 -0.6101  1.5174 -0.1845
 1983SOL    HW217583   4.184   2.236   7.310  0.5420  0.2636 -0.4338
 1984SOL     OW17584   1.841   2.958   6.115  0.2635  1.0192  0.2308
 1984SOL    HW117585   1.870   3.031   6.059  0.3755  0.0782 -0.9302
 1984SOL    HW217586   1.877   2.992   6.196  0.8355 -1.3913  0.9630
 1985SOL     OW17587   1.278   2.719   3.301  0.7480  0.2185  0.5892
 1985SOL    HW117588   1.276   2.721   3.396 -1.4001  1.5238  0.5202
 1985SOL    HW217589   1.371   2.737   3.291  0.4386  0.2792 -2.2197
 1986SOL     OW17590   4.245   0.077   3.366  0.0663 -0.2684  0.1757
 1986SOL    HW117591   4.294   0.045   3.442  0.4698  1.2255  0.5399
 1986SOL    HW217592   4.308   0.070   3.295  1.3068 -1.0297  1.3575
 1987SOL     OW17593   1.887   3.859  13.712 -0.2493  0.1783 -0.2087
 1987SOL    HW117594   1.911   3.850  13.804 -0.5040  0.6867 -0.0956
 1987SOL    HW217595   1.852   3.948  13.707 -0.4525  0.2603  2.6401
 1988SOL     OW17596   0.201   4.318   9.645  0.3717 -0.3362 -0.1715
 1988SOL    HW117597   0.250   4.398   9.667  0.4818 -0.3513 -0.3629
 1988SOL    HW217598   0.138   4.324   9.717 -0.3265 -1.3464 -0.7103
 1989SOL     OW17599   0.923   4.283   7.332 -0.3707  0.1938  0.4547
 1989SOL    HW117600   0.833   4.265   7.304 -0.6132  0.3571  1.1149
 1989SOL    HW217601   0.939   4.356   7.273 -0.3318 -0.3496 -0.2073
 1990SOL     OW17602   2.959   0.755   6.131  0.7658  0.0346 -0.1957
 1990SOL    HW117603   2.965   0.705   6.213 -1.7001  1.7544  1.0388
 1990SOL    HW217604   3.029   0.817   6.153  1.2398 -0.1200 -1.2650
 1991SOL     OW17605   4.001   1.909   9.516 -0.3115 -0.4511  0.2301
 1991SOL    HW117606   4.058   1.851   9.466 -0.2381  0.9213 -1.2943
 1991SOL    HW217607   4.054   1.934   9.592 -3.3880  0.1093  2.1709
 1992SOL     OW17608   1.582   0.570   0.627 -0.2609  0.5294  0.1727
 1992SOL    HW117609   1.609   0.541   0.540  1.1836 -0.5600  0.9923
 1992SOL    HW217610   1.501   0.518   0.634  0.5763 -0.5988  1.4623
 1993SOL     OW17611   1.998   3.647   3.227 -0.1148 -0.2410 -0.0052
 1993SOL    HW117612   2.038   3.628   3.142  1.0047  0.6382  0.3349
 1993SOL    HW217613   1.907   3.673   3.208 -0.0735 -1.1992 -1.4841
 1994SOL     OW17614   4.023   0.043   4.005 -0.5050  0.1797 -0.1694
 1994SOL    HW117615   3.973   0.116   3.970  0.5117  0.4101 -1.1424
 1994SOL    HW217616   3.960   4.734   4.061 -0.7894  0.5302 -0.2108
 1995SOL     OW17617   4.290   0.128  11.156 -0.1495  0.2947  0.1701
 1995SOL    HW117618   4.289   0.150  11.249  2.1524  0.9958  0.0187
 1995SOL    HW217619   4.225   0.058  11.159 -0.6527  0.7221 -0.6460
 1996SOL     OW17620   1.524   0.321   8.320 -0.5757  0.1593  0.1340
 1996SOL    HW117621   1.469   0.283   8.253  1.0176 -3.5321  0.9044
 1996SOL    HW217622   1.605   0.335   8.271 -1.4835 -0.6519 -1.5760
 1997SOL     OW17623   4.191   3.318   6.494 -0.0158  0.1573  0.1796
 1997SOL    HW117624   4.129   3.250   6.519  1.8477 -1.8186 -0.4861
 1997SOL    HW217625   4.165   3.316   6.402 -0.3787  0.7301  0.2750
 1998SOL     OW17626   1.676   1.599   8.875 -0.1595 -0.1765 -0.5792
 1998SOL    HW117627   1.601   1.539   8.887 -0.9620  1.3744  2.2582
 1998SOL    HW217628   1.641   1.668   8.819 -2.5331  0.1368  1.2590
 1999SOL     OW17629   0.527   4.263  14.545  0.4071  0.2458 -0.8009
 1999SOL    HW117630   0.504   4.345  14.590  1.4423  0.1901 -0.1605
 1999SOL    HW217631   0.436   4.238  14.527  0.0933 -0.2125  1.3718
 2000SOL     OW17632   1.739   1.766   7.640  0.7920  0.2313 -0.0495
 2000SOL    HW117633   1.833   1.782   7.646  0.8491 -0.7052  1.6883
 2000SOL    HW217634   1.708   1.852   7.611 -1.6510 -1.1058 -1.3424
 2001SOL     OW17635   3.010   1.981   6.872 -0.1349  0.1199 -0.0847
 2001SOL    HW117636   2.932   1.945   6.831  0.6899 -2.7717  0.8926
 2001SOL    HW217637   3.069   1.972   6.796  0.3339 -0.0552  0.2985
 2002SOL     OW17638   1.418   1.973   4.254  0.2032 -0.1260  0.2913
 2002SOL    HW117639   1.365   1.927   4.319  1.7535 -1.3330  0.7087
 2002SOL    HW217640   1.395   1.921   4.177 -3.4036 -1.0981  2.0350
 2003SOL     OW17641   2.119   4.564   7.630 -0.4030  0.2261 -0.1594
 2003SOL    HW117642   2.026   4.573   7.609 -0.5046  1.6398  0.8707
 2003SOL    HW217643   2.146   4.501   7.563 -0.0016 -1.2451  1.4196
 2004SOL     OW17644   3.335   1.425   7.464  0.1663  0.1011  0.0904
 2004SOL    HW117645   3.241   1.444   7.470  0.6915  2.4557  0.8963
 2004SOL    HW217646   3.355   1.481   7.388 -1.5924 -0.0336 -0.4679
 2005SOL     OW17647   2.619   0.251   9.276 -0.5369  0.8594  0.2316
 2005SOL    HW117648   2.539   0.304   9.269  0.0220  2.0268  2.8758
 2005SOL    HW217649   2.681   0.321   9.296  1.1902 -1.1309  1.8811
 2006SOL     OW17650   3.679   0.237   1.302 -0.0921  0.1301  0.3241
 2006SOL    HW117651   3.615   0.308   1.293 -0.5721 -0.4236 -0.5871
 2006SOL    HW217652   3.670   0.183   1.224  0.4950 -0.2218  0.4968
 2007SOL     OW17653   3.647   4.296   4.840  0.0750  0.0603  0.0125
 2007SOL    HW117654   3.632   4.374   4.786  0.3504 -0.2518 -0.5157
 2007SOL    HW217655   3.599   4.324   4.918 -0.4996  0.9066 -0.6504
 2008SOL     OW17656   1.010   0.423  17.409 -0.3430 -0.8014 -0.1695
 2008SOL    HW117657   1.089   0.370  17.399  0.5402  0.0873  2.2788
 2008SOL    HW217658   1.027   0.469  17.491 -0.8340  1.0079 -1.0869
 2009SOL     OW17659   2.501   4.081  15.797  0.1394  0.0010  0.1885
 2009SOL    HW117660   2.593   4.056  15.787  0.6291  1.5517  0.8048
 2009SOL    HW217661   2.491   4.156  15.738  2.0756  0.8982  1.0063
 2010SOL     OW17662   1.232   3.860  14.180 -0.1266 -0.1604  0.3525
 2010SOL    HW117663   1.144   3.831  14.154 -1.1878  1.8465  1.7768
 2010SOL    HW217664   1.225   3.874  14.274  1.0800 -1.0224  0.5724
 2011SOL     OW17665   2.731   1.659  15.786  0.2691 -0.5379  0.2103
 2011SOL    HW117666   2.704   1.569  15.806  0.0014 -0.5596 -0.2396
 2011SOL    HW217667   2.723   1.691  15.876 -0.8144 -0.4222  0.0823
 2012SOL     OW17668   2.500   1.144   6.326 -0.3335  0.4834 -0.0615
 2012SOL    HW117669   2.516   1.051   6.311  1.6702  0.9435 -0.8512
 2012SOL    HW217670   2.472   1.147   6.417  1.4607  2.1904  0.4381
 2013SOL     OW17671   0.965   4.684   2.100 -0.2125  0.0279  0.1829
 2013SOL    HW117672   0.885   4.690   2.049  0.1825 -0.3711 -0.4826
 2013SOL    HW217673   0.975   4.591   2.080  1.6745  0.5320 -1.1845
 2014SOL     OW17674   2.191   3.316   2.834  0.3195 -0.6007  0.9590
 2014SOL    HW117675   2.152   3.339   2.750  0.4182  1.0662  1.3661
 2014SOL    HW217676   2.234   3.232   2.814 -0.6762 -0.8644 -0.0621
 2015SOL     OW17677   2.261   3.144   6.042  0.4062 -0.0291 -0.0053
 2015SOL    HW117678   2.170   3.145   6.014  0.9096  1.8402 -1.5466
 2015SOL    HW217679   2.303   3.084   5.980  3.6863  1.6636  0.5620
 2016SOL     OW17680   0.336   4.563   8.367  0.8212 -0.2741 -0.6467
 2016SOL    HW117681   0.287   4.522   8.438  0.9825  0.9558  0.1874
 2016SOL    HW217682   0.341   4.656   8.391  0.0557 -0.6344  0.9238
 2017SOL     OW17683   4.075   1.374   4.472 -0.3713 -0.1109 -0.3533
 2017SOL    HW117684   4.124   1.455   4.483 -2.6923  1.2766 -0.3506
 2017SOL    HW217685   3.992   1.405   4.436 -0.8777  0.1970  1.1023
 2018SOL     OW17686   2.477   3.343   6.026  0.0658  0.1510 -0.5814
 2018SOL    HW117687   2.457   3.433   6.000 -3.4271 -0.4161  0.0766
 2018SOL    HW217688   2.401   3.292   5.997 -0.9855  2.6927 -2.3327
 2019SOL     OW17689   4.613   3.517   4.561 -0.0554  0.0118 -0.3015
 2019SOL    HW117690   4.666   3.451   4.606 -0.1866  0.9201  1.1872
 2019SOL    HW217691   4.575   3.456   4.497  1.2625 -0.5873 -0.5302
 2020SOL     OW17692   3.262   4.004  11.616 -0.4628  0.5265 -0.3014
 2020SOL    HW117693   3.296   4.065  11.551 -0.6110 -0.3535 -1.2036
 2020SOL    HW217694   3.207   4.063  11.668 -0.8822  1.2350 -1.5479
 2021SOL     OW17695   3.114   0.971   5.124 -0.6015  0.0874  0.2978
 2021SOL    HW117696   3.126   1.045   5.184 -1.2905  0.5668 -0.1523
 2021SOL    HW217697   3.159   1.001   5.045 -1.1262  0.2885  0.0741
 2022SOL     OW17698   0.282   3.968   7.006  0.3693  0.6497  0.2444
 2022SOL    HW117699   0.189   3.949   7.009  0.2083  1.5658  1.0797
 2022SOL    HW217700   0.317   3.894   7.055 -1.4527 -0.3743 -0.0339
 2023SOL     OW17701   1.174   0.517  17.064  0.0632 -0.0467 -0.3612
 2023SOL    HW117702   1.104   0.474  17.015 -0.4670  0.1313  0.2390
 2023SOL    HW217703   1.146   0.608  17.072  3.8855  1.0393  0.5803
 2024SOL     OW17704   2.418   1.965  11.424  0.2890 -0.2658 -0.5247
 2024SOL    HW117705   2.335   1.921  11.402 -0.9299  1.5604  0.4578
 2024SOL    HW217706   2.416   1.972  11.519  0.0046 -1.4141 -0.4439
 2025SOL     OW17707   4.181   4.085   9.317 -0.4324 -0.5480  0.2770
 2025SOL    HW117708   4.255   4.108   9.373  0.2348  0.7723 -1.1294
 2025SOL    HW217709   4.231   4.083   9.236 -0.3002  0.1717  0.3419
 2026SOL     OW17710   3.148   0.260  15.766  0.6308 -0.0596  0.0500
 2026SOL    HW117711   3.111   0.220  15.687 -0.5198  2.6332 -0.7828
 2026SOL    HW217712   3.145   0.183  15.823  0.2277  0.1409  0.3048
 2027SOL     OW17713   3.739   4.282  16.746 -0.1136  0.4295 -0.1966
 2027SOL    HW117714   3.740   4.219  16.674  1.2678 -0.9509  1.0174
 2027SOL    HW217715   3.744   4.233  16.828  0.0082 -2.6279 -2.0471
 2028SOL     OW17716   3.947   1.528   2.207  0.1928 -0.0750  0.1658
 2028SOL    HW117717   3.921   1.464   2.142  1.2009 -0.5595  0.2338
 2028SOL    HW217718   3.868   1.512   2.258 -0.1531 -0.2426 -0.4243
 2029SOL     OW17719   0.786   2.750   6.958  0.2386  0.1486 -0.2106
 2029SOL    HW117720   0.851   2.733   7.027 -0.8547  2.0703  1.3021
 2029SOL    HW217721   0.838   2.748   6.878  1.5329  1.1150  0.6013
 2030SOL     OW17722   3.650   3.749   5.859 -0.1295  0.1573 -0.4583
 2030SOL    HW117723   3.701   3.818   5.816  1.0076 -0.4614 -0.0852
 2030SOL    HW217724   3.624   3.692   5.787  0.3555 -1.0933  0.3657
 2031SOL     OW17725   2.608   0.097   6.888 -0.2617  0.0842 -0.0559
 2031SOL    HW117726   2.627   0.166   6.951  4.2389  0.1497 -1.4921
 2031SOL    HW217727   2.688   0.045   6.879 -2.0116 -2.7365  0.6814
 2032SOL     OW17728   2.995   4.008   0.175 -0.2136 -0.5084  0.6356
 2032SOL    HW117729   3.086   4.020   0.203 -0.7025 -0.1433  2.0583
 2032SOL    HW217730   3.009   3.997   0.081 -3.2451  0.8155  0.0336
 2033SOL     OW17731   1.772   0.801   5.205  0.2202 -0.2362  0.4090
 2033SOL    HW117732   1.853   0.766   5.241  1.0741  1.6549  0.3142
 2033SOL    HW217733   1.769   0.877   5.263 -0.4081 -0.6206  0.8834
 2034SOL     OW17734   3.948   2.982   9.318  0.7159  0.1622 -0.0666
 2034SOL    HW117735   3.859   2.990   9.283  1.4510 -0.6570 -2.1484
 2034SOL    HW217736   3.987   3.040   9.253  0.2411 -0.3575 -0.8270
 2035SOL     OW17737   1.790   2.973   5.797 -0.1687 -0.2540  0.4791
 2035SOL    HW117738   1.735   3.000   5.723  0.1938  2.2695  1.1250
 2035SOL    HW217739   1.833   2.895   5.763 -0.0944 -0.5737  1.3019
 2036SOL     OW17740   0.151   4.034   4.894 -0.0306  0.5269 -0.3830
 2036SOL    HW117741   0.183   4.100   4.832  0.4777 -1.4464 -2.2045
 2036SOL    HW217742   0.082   3.997   4.840 -0.6648  3.8481 -1.8356
 2037SOL     OW17743   1.223   4.694   7.048 -0.3158 -0.1607 -0.0136
 2037SOL    HW117744   1.179   0.002   7.121  0.0143 -0.1862  0.1983
 2037SOL    HW217745   1.212   0.025   6.980  0.0440 -2.0518 -1.9259
 2038SOL     OW17746   3.004   4.541   4.483 -0.3057  0.4447 -0.3206
 2038SOL    HW117747   2.924   4.585   4.510 -2.2086 -1.6021 -2.6155
 2038SOL    HW217748   3.000   4.550   4.387 -0.8241  0.2011 -0.3181
 2039SOL     OW17749   2.078   0.799   7.620 -0.4669 -0.4422  0.0958
 2039SOL    HW117750   2.088   0.865   7.552  1.2401 -0.1684  0.6224
 2039SOL    HW217751   2.083   0.854   7.698  1.9789  1.1052 -1.1685
 2040SOL     OW17752   1.774   3.184  14.924 -0.1459  0.4243  0.2230
 2040SOL    HW117753   1.867   3.159  14.925 -0.3666 -0.4964 -2.7564
 2040SOL    HW217754   1.727   3.105  14.948  1.6130 -0.6643  0.0853
 2041SOL     OW17755   3.942   0.005   2.405 -0.3666 -0.2329  0.0594
 2041SOL    HW117756   3.891   0.079   2.371 -0.7792 -1.4224 -1.9129
 2041SOL    HW217757   3.978   4.700   2.326 -2.0327  0.2505 -0.9575
 2042SOL     OW17758   1.996   2.106   8.280  0.2389  0.3874 -0.6997
 2042SOL    HW117759   2.024   2.156   8.203  1.9337  0.5803  0.0331
 2042SOL    HW217760   1.963   2.034   8.227 -0.1571  0.0992 -0.0578
 2043SOL     OW17761   1.039   2.307  10.539 -1.1113 -0.0699 -0.3035
 2043SOL    HW117762   1.103   2.373  10.510 -0.8745  0.2128  0.8609
 2043SOL    HW217763   0.964   2.345  10.494 -1.8241 -1.2232 -0.0867
 2044SOL     OW17764   4.359   0.085   2.310  0.2580 -0.3145  0.3352
 2044SOL    HW117765   4.443   0.091   2.266 -0.4575  0.1530 -0.9609
 2044SOL    HW217766   4.378   0.065   2.402 -0.5984 -1.5133  0.2498
 2045SOL     OW17767   4.626   1.756   4.182  0.1611 -0.0894 -0.1868
 2045SOL    HW117768   4.546   1.784   4.137 -0.3988 -1.4086 -0.0183
 2045SOL    HW217769   4.668   1.705   4.113  0.4697 -1.1040  0.7619
 2046SOL     OW17770   1.948   4.011   5.243 -0.0619 -0.0856 -0.3413
 2046SOL    HW117771   1.916   4.093   5.280 -0.7991 -0.9425  0.9262
 2046SOL    HW217772   2.005   4.027   5.168  0.4182 -1.9162 -0.3609
 2047SOL     OW17773   0.202   3.074  15.728 -0.1379 -0.0407 -0.0935
 2047SOL    HW117774   0.116   3.049  15.696 -0.1915 -0.0905  0.0878
 2047SOL    HW217775   0.191   3.142  15.795  1.9987  0.7545 -0.5425
 2048SOL     OW17776   0.510   4.076   7.577  0.0410  0.5265  0.5385
 2048SOL    HW117777   0.476   3.988   7.596 -3.7767  2.1912  1.3662
 2048SOL    HW217778   0.549   4.063   7.491 -1.2148 -0.4085  0.1134
 2049SOL     OW17779   3.235   2.627   4.833  0.0753 -0.7531  0.2613
 2049SOL    HW117780   3.278   2.680   4.900 -1.8505  2.2004 -0.8335
 2049SOL    HW217781   3.270   2.652   4.747 -0.3026 -1.5006 -0.1138
 2050SOL     OW17782   0.523   0.060   8.659  0.3285 -0.2580  0.3706
 2050SOL    HW117783   0.589   0.021   8.601 -0.9717 -0.5019 -0.9433
 2050SOL    HW217784   0.457   0.055   8.590  0.1950  2.7169  0.3086
 2051SOL     OW17785   3.296   2.931   3.376 -0.1879  0.4043  0.2851
 2051SOL    HW117786   3.229   2.869   3.406  0.7223 -0.7772 -0.1137
 2051SOL    HW217787   3.303   2.913   3.282 -1.0708  0.6301  0.1745
 2052SOL     OW17788   3.903   1.954   1.531 -0.2913  0.2093  0.2865
 2052SOL    HW117789   3.948   1.899   1.467  1.2108 -0.8229  2.2691
 2052SOL    HW217790   3.861   1.885   1.583  0.6884 -0.9939 -0.5256
 2053SOL     OW17791   0.563   1.972   1.801  0.3186  0.3834  0.4709
 2053SOL    HW117792   0.647   1.965   1.847  2.2625  1.1510 -2.8980
 2053SOL    HW217793   0.564   2.059   1.762 -2.7525 -0.0042 -0.5020
 2054SOL     OW17794   3.785   2.261   8.774 -0.5995 -0.4389 -0.1835
 2054SOL    HW117795   3.789   2.170   8.803  1.2940 -0.0300  0.8233
 2054SOL    HW217796   3.694   2.288   8.786  0.1640  1.5353  1.0695
 2055SOL     OW17797   1.312   1.210   7.872 -0.1199 -0.0876  0.2858
 2055SOL    HW117798   1.318   1.304   7.886 -1.5437  0.1937 -0.9045
 2055SOL    HW217799   1.374   1.174   7.935 -1.0244 -0.4099  0.9821
 2056SOL     OW17800   3.561   1.761   1.881  0.4615 -0.2344  0.4306
 2056SOL    HW117801   3.477   1.730   1.917  1.3681 -0.6546  2.1790
 2056SOL    HW217802   3.627   1.718   1.935  0.5494  0.4230  0.8536
 2057SOL     OW17803   0.023   0.755   7.942 -0.5429 -0.2163 -0.1276
 2057SOL    HW117804   4.734   0.701   7.867 -1.4576 -1.3977  1.0045
 2057SOL    HW217805   0.024   0.842   7.904 -2.2844  0.2777  0.9677
 2058SOL     OW17806   3.407   3.349   2.705  0.0635  0.3403  0.6273
 2058SOL    HW117807   3.403   3.444   2.719  2.2637  0.4645  0.3588
 2058SOL    HW217808   3.323   3.318   2.738 -0.6486 -0.0631 -1.5459
 2059SOL     OW17809   0.339   1.913   2.222  0.3719 -0.3577  0.2397
 2059SOL    HW117810   0.344   1.922   2.317  0.4473  4.0572 -0.1665
 2059SOL    HW217811   0.429   1.896   2.195  0.2092 -0.1310 -0.4552
 2060SOL     OW17812   3.010   0.675  11.068  0.1563 -0.1684 -0.2731
 2060SOL    HW117813   3.024   0.581  11.059  0.2796 -0.5662  3.7832
 2060SOL    HW217814   3.046   0.714  10.989  0.1252 -1.1992 -0.7965
 2061SOL     OW17815   2.647   1.161  14.817 -0.1116 -0.1157 -0.1272
 2061SOL    HW117816   2.621   1.115  14.897  1.1676  0.3720  0.5678
 2061SOL    HW217817   2.699   1.235  14.849  2.4203 -1.6437 -0.7216
 2062SOL     OW17818   3.439   0.705   8.173  0.1505 -0.7331 -0.2409
 2062SOL    HW117819   3.443   0.713   8.078 -0.2247 -1.0700 -0.2845
 2062SOL    HW217820   3.434   0.793   8.211 -0.3588 -0.4867 -0.8852
 2063SOL     OW17821   1.125   0.567   3.953 -0.1721 -0.2556  0.3785
 2063SOL    HW117822   1.180   0.611   4.017 -0.8229 -0.2039  0.9110
 2063SOL    HW217823   1.150   0.475   3.958  1.2142 -0.0116 -2.0177
 2064SOL     OW17824   2.906   0.893   0.286  0.1295 -0.1386 -0.5375
 2064SOL    HW117825   2.812   0.909   0.302  0.4903 -0.6420  2.0383
 2064SOL    HW217826   2.940   0.909   0.374  1.0873  2.2277 -1.3344
 2065SOL     OW17827   0.653   1.445   1.439 -0.0419  0.3100 -0.0205
 2065SOL    HW117828   0.707   1.366   1.432 -1.4231 -0.5472 -1.0833
 2065SOL    HW217829   0.598   1.438   1.517 -0.6437  2.5158 -0.2564
 2066SOL     OW17830   0.392   4.263   7.210  0.1780  0.6447 -0.6251
 2066SOL    HW117831   0.350   4.349   7.200  1.6592  1.6866  2.0329
 2066SOL    HW217832   0.308   4.223   7.232  0.0478 -0.3249 -2.9620
 2067SOL     OW17833   1.708   1.518   6.999 -0.6451 -0.8521 -0.5432
 2067SOL    HW117834   1.798   1.519   6.966  0.8003  0.6229  3.3457
 2067SOL    HW217835   1.702   1.598   7.051 -0.1304 -0.3383 -1.2825
 2068SOL     OW17836   0.777   4.201   2.616 -0.3277 -0.3046  0.0759
 2068SOL    HW117837   0.856   4.178   2.664 -1.0566  0.3629  1.5780
 2068SOL    HW217838   0.779   4.142   2.540 -0.4527 -0.9189  0.5481
 2069SOL     OW17839   4.658   3.385   8.823 -0.2521  0.7145  0.1041
 2069SOL    HW117840   4.727   3.383   8.889  0.3076  0.3893 -0.4868
 2069SOL    HW217841   4.629   3.476   8.822 -2.5533 -0.0349  1.5631
 2070SOL     OW17842   0.955   4.023   7.808  0.2733  0.1437  0.4491
 2070SOL    HW117843   0.871   4.064   7.786 -0.0025 -0.6524  0.0410
 2070SOL    HW217844   0.970   4.069   7.891 -0.5634  0.3937  0.4629
 2071SOL     OW17845   1.472   2.885  17.672  0.3110 -0.5283 -0.2821
 2071SOL    HW117846   1.402   2.930  17.626  0.7831  1.3282  0.8094
 2071SOL    HW217847   1.548   2.942  17.681 -0.5476  0.7475 -1.2535
 2072SOL     OW17848   2.607   4.161  13.804 -0.0902 -0.4058 -0.7760
 2072SOL    HW117849   2.582   4.109  13.881 -2.0086  2.0501  0.2913
 2072SOL    HW217850   2.694   4.187  13.834 -1.4689  2.4984  0.7186
 2073SOL     OW17851   3.059   4.205   8.145 -0.1267  0.0716  0.4912
 2073SOL    HW117852   3.031   4.270   8.080  2.2456  2.2326  1.6520
 2073SOL    HW217853   3.152   4.219   8.158  0.1059 -2.2428  1.3670
 2074SOL     OW17854   1.150   0.323   8.752  0.0505 -0.3585  0.1010
 2074SOL    HW117855   1.176   0.379   8.826  0.1723  1.0383 -0.9829
 2074SOL    HW217856   1.229   0.274   8.729 -1.5268 -1.7919 -2.2184
 2075SOL     OW17857   3.338   1.189   7.633  0.0950  0.1691 -0.4565
 2075SOL    HW117858   3.321   1.250   7.562  0.0214  0.1167 -0.4840
 2075SOL    HW217859   3.427   1.216   7.657 -0.7956  0.6606  2.3006
 2076SOL     OW17860   2.478   4.355  14.850 -0.1130 -1.0583 -0.0969
 2076SOL    HW117861   2.510   4.445  14.847 -0.1160 -1.1019 -1.7516
 2076SOL    HW217862   2.397   4.364  14.901  0.8003  0.8153  1.0224
 2077SOL     OW17863   3.044   2.438  10.346  0.2364 -0.0413 -0.3477
 2077SOL    HW117864   2.984   2.364  10.350 -0.0695  0.2642  0.7382
 2077SOL    HW217865   2.997   2.507  10.392 -1.3600  0.2778 -2.4511
 2078SOL     OW17866   4.186   3.960   2.191 -0.6686  0.0483 -0.0831
 2078SOL    HW117867   4.236   3.879   2.201 -1.0570 -0.0544  1.0301
 2078SOL    HW217868   4.234   4.004   2.121  1.1463 -1.4446  0.2330
 2079SOL     OW17869   2.423   3.098   3.773  0.2432 -0.5415 -0.2494
 2079SOL    HW117870   2.385   3.185   3.779  0.0953 -0.5463 -1.1877
 2079SOL    HW217871   2.516   3.108   3.750  0.0632  3.2318  0.7430
 2080SOL     OW17872   0.410   3.351   7.178  0.5164  0.7780 -0.2411
 2080SOL    HW117873   0.336   3.294   7.199  0.0156  1.5540  0.1203
 2080SOL    HW217874   0.455   3.334   7.261  0.7832  0.2955 -0.4876
 2081SOL     OW17875   4.214   3.481   6.249 -0.6176  0.3410  0.6097
 2081SOL    HW117876   4.221   3.481   6.153 -3.2886 -2.1726  0.3852
 2081SOL    HW217877   4.124   3.514   6.254 -0.9086 -0.6415  1.9097
 2082SOL     OW17878   0.871   3.537   2.322 -0.3623 -0.2294  0.1635
 2082SOL    HW117879   0.844   3.626   2.344  2.7661  0.4053  1.4074
 2082SOL    HW217880   0.809   3.517   2.251  0.6142 -0.9282 -0.4933
 2083SOL     OW17881   0.181   3.164   3.914  0.1798  0.3100  0.1555
 2083SOL    HW117882   0.166   3.200   4.002 -1.4566  2.7410 -1.1076
 2083SOL    HW217883   0.222   3.080   3.934  1.0565  0.7584  0.2667
 2084SOL     OW17884   2.392   0.265   8.272 -0.6259  0.4114 -0.2420
 2084SOL    HW117885   2.333   0.191   8.258  0.4465 -0.4534 -0.1572
 2084SOL    HW217886   2.470   0.226   8.233 -1.4502 -0.1101 -1.3689
 2085SOL     OW17887   3.805   0.206   2.219 -0.5244  0.0360  0.0708
 2085SOL    HW117888   3.731   0.241   2.268 -0.0867  2.1076 -0.7383
 2085SOL    HW217889   3.764   0.140   2.163  1.1667  0.3659 -1.5604
 2086SOL     OW17890   4.416   3.564  12.085 -0.0323  0.0693  0.1031
 2086SOL    HW117891   4.367   3.500  12.136 -2.5454  1.2556 -0.8316
 2086SOL    HW217892   4.369   3.567  12.002 -2.7062 -1.7965  1.5473
 2087SOL     OW17893   0.756   2.022   4.416  0.1153  0.4630 -0.1278
 2087SOL    HW117894   0.800   2.082   4.355  1.3597 -1.1965 -0.8618
 2087SOL    HW217895   0.664   2.048   4.409  0.2900  0.8876 -0.9998
 2088SOL     OW17896   0.350   3.747   1.448  0.0950  0.2229  0.0516
 2088SOL    HW117897   0.325   3.714   1.534 -1.1708 -0.0939 -0.4419
 2088SOL    HW217898   0.267   3.787   1.426  0.0052  0.5234  0.9192
 2089SOL     OW17899   1.394   1.829   3.996  0.2566  0.1789  0.0787
 2089SOL    HW117900   1.417   1.805   3.906  1.5082  1.2528  0.1139
 2089SOL    HW217901   1.453   1.773   4.047 -2.1652 -1.3347  1.2077
 2090SOL     OW17902   4.031   0.968   4.498  0.0623 -0.1678  0.6492
 2090SOL    HW117903   4.101   1.024   4.466 -0.8329 -0.2844 -1.5183
 2090SOL    HW217904   4.025   0.999   4.588 -1.8980 -0.3496  0.5905
 2091SOL     OW17905   3.499   2.491   8.323 -0.1633 -0.4084  0.4276
 2091SOL    HW117906   3.497   2.413   8.267  0.1986  0.7656 -1.2041
 2091SOL    HW217907   3.486   2.562   8.260  2.0058  0.7005  1.2469
 2092SOL     OW17908   2.868   0.852  14.604 -0.4297 -0.1304  0.3021
 2092SOL    HW117909   2.917   0.776  14.571  0.0711  0.3035  0.0538
 2092SOL    HW217910   2.838   0.912  14.536  1.0366  0.9971  0.6520
 2093SOL     OW17911   1.365   3.953   4.333 -0.2079 -0.0589  0.5018
 2093SOL    HW117912   1.280   3.991   4.354 -0.9306 -1.1212 -0.4941
 2093SOL    HW217913   1.381   3.885   4.398 -1.2000  0.1494  0.9506
 2094SOL     OW17914   2.545   1.682   1.688  0.6482 -0.1568 -0.3418
 2094SOL    HW117915   2.573   1.633   1.611  0.5589  1.0351 -1.1187
 2094SOL    HW217916   2.454   1.652   1.698  0.3304  1.0432  0.3883
 2095SOL     OW17917   0.397   0.467   3.526  0.0727  0.1008  0.2885
 2095SOL    HW117918   0.396   0.528   3.600  2.3318 -0.4219  0.7676
 2095SOL    HW217919   0.307   0.479   3.496 -0.1381 -0.0851  0.8439
 2096SOL     OW17920   3.650   0.294  13.519  0.0085  0.1975 -0.4583
 2096SOL    HW117921   3.600   0.374  13.538  1.3328  1.0812 -0.6883
 2096SOL    HW217922   3.648   0.288  13.424 -0.1115  0.5954 -0.4855
 2097SOL     OW17923   1.002   3.440   0.070  0.1878 -0.6231 -0.2631
 2097SOL    HW117924   0.955   3.518   0.040  0.3052  0.2462  1.8141
 2097SOL    HW217925   1.083   3.488   0.091  0.6853 -0.8580 -1.6707
 2098SOL     OW17926   2.942   3.363  12.685 -0.6923 -0.7094  0.2397
 2098SOL    HW117927   2.936   3.449  12.727  1.9998 -0.6347  0.4817
 2098SOL    HW217928   3.032   3.360  12.653 -0.9896 -0.9441 -0.5740
 2099SOL     OW17929   2.931   1.133   8.211  0.6369 -0.6212  0.0037
 2099SOL    HW117930   2.985   1.100   8.283  0.6701 -1.6570 -0.5037
 2099SOL    HW217931   2.901   1.216   8.248 -0.1392 -1.6100  1.5898
 2100SOL     OW17932   0.105   3.930  10.005 -0.2799 -0.5121 -0.1286
 2100SOL    HW117933   0.140   3.991  10.069 -1.1723  0.3094 -0.4090
 2100SOL    HW217934   0.174   3.865  10.015 -0.1426 -0.2781  0.4272
 2101SOL     OW17935   0.647   1.052   8.252 -0.3359  0.6545 -0.0818
 2101SOL    HW117936   0.588   0.979   8.231 -0.1491  0.8766 -1.4219
 2101SOL    HW217937   0.705   1.048   8.175 -0.3068  1.7233 -0.1081
 2102SOL     OW17938   3.368   2.365  12.394 -0.4367 -0.9981 -0.3355
 2102SOL    HW117939   3.332   2.334  12.477 -0.7432  1.1932  0.3423
 2102SOL    HW217940   3.443   2.410  12.434 -1.1017  0.8328 -1.1746
 2103SOL     OW17941   4.181   1.406   0.657 -0.0837 -0.3821 -0.1831
 2103SOL    HW117942   4.128   1.389   0.579 -0.2263  0.2603 -0.2245
 2103SOL    HW217943   4.144   1.353   0.727  1.7982 -0.1501  0.9873
 2104SOL     OW17944   0.806   3.176   7.170  0.5580  0.2662 -0.2143
 2104SOL    HW117945   0.872   3.240   7.143 -0.7392  0.8348 -2.0503
 2104SOL    HW217946   0.745   3.221   7.228  0.5160 -0.1410  0.0563
 2105SOL     OW17947   2.037   0.775   5.305 -0.2170  0.0607  0.8089
 2105SOL    HW117948   2.085   0.800   5.226 -2.5454  1.9258 -0.0051
 2105SOL    HW217949   2.054   0.854   5.356  4.3960  0.2498 -1.0042
 2106SOL     OW17950   0.965   1.313   9.364 -0.1841 -0.4888  0.0601
 2106SOL    HW117951   0.992   1.313   9.456  0.6911 -1.6241 -0.2015
 2106SOL    HW217952   1.040   1.361   9.328  0.7142 -2.8275 -1.2117
 2107SOL     OW17953   3.401   1.990   2.513 -0.1916  0.0874  0.2797
 2107SOL    HW117954   3.476   1.982   2.453 -2.4484 -1.1099 -2.3398
 2107SOL    HW217955   3.337   1.979   2.444 -0.8634 -0.3663  0.9857
 2108SOL     OW17956   2.219   4.279  13.317 -0.2210  0.0771 -0.0228
 2108SOL    HW117957   2.131   4.305  13.343 -0.3140  0.6259 -0.9161
 2108SOL    HW217958   2.218   4.183  13.325  0.1175 -0.2743 -4.0964
 2109SOL     OW17959   2.432   1.573  15.183  0.2088  0.2487 -0.0266
 2109SOL    HW117960   2.447   1.507  15.251  0.7928  1.8488  1.3971
 2109SOL    HW217961   2.509   1.562  15.127  0.6485 -1.1387  0.8458
 2110SOL     OW17962   1.395   2.814   2.395 -0.4067  0.1266 -0.0067
 2110SOL    HW117963   1.481   2.772   2.400 -0.6517 -0.4319 -0.5707
 2110SOL    HW217964   1.419   2.905   2.414  0.1482  0.0244 -0.2084
 2111SOL     OW17965   2.884   2.896   8.570 -0.8690 -0.1195 -0.1724
 2111SOL    HW117966   2.935   2.820   8.597 -1.6702 -0.7089 -0.3327
 2111SOL    HW217967   2.925   2.897   8.483  1.5220 -0.0978  0.9463
 2112SOL     OW17968   1.394   0.608   9.345  0.3609 -0.0583  0.1304
 2112SOL    HW117969   1.335   0.684   9.340 -1.9854 -1.9313 -0.8034
 2112SOL    HW217970   1.374   0.563   9.262  0.5603 -1.6735  0.9643
 2113SOL     OW17971   4.061   4.387  10.378  0.6941  0.2840  0.0877
 2113SOL    HW117972   4.104   4.332  10.444  1.1234  0.2990 -0.1791
 2113SOL    HW217973   3.970   4.371  10.401  0.2627  0.3036 -1.6076
 2114SOL     OW17974   2.125   2.241   6.327  0.1248 -0.3500 -0.2510
 2114SOL    HW117975   2.087   2.327   6.345  2.8866  0.7485  0.4293
 2114SOL    HW217976   2.048   2.191   6.303 -0.0981  1.0654 -2.4125
 2115SOL     OW17977   0.383   2.983   2.808  0.1643 -0.1094 -0.2134
 2115SOL    HW117978   0.467   2.978   2.762 -0.2735 -0.7205 -0.9450
 2115SOL    HW217979   0.317   2.981   2.738 -0.2676  1.2589  0.1521
 2116SOL     OW17980   3.541   1.122   4.466 -0.2887  0.0629  0.2101
 2116SOL    HW117981   3.540   1.050   4.529 -0.0498  0.3431  0.5310
 2116SOL    HW217982   3.634   1.128   4.445 -0.3431 -0.4080 -0.1703
 2117SOL     OW17983   0.016   0.789   6.192 -0.0383  0.3262  0.4480
 2117SOL    HW117984   4.734   0.779   6.098  0.7595 -1.5252  0.4926
 2117SOL    HW217985   4.673   0.751   6.230 -0.2923 -0.7013 -1.0924
 2118SOL     OW17986   2.273   0.888   3.171 -0.1887  0.0400 -0.6689
 2118SOL    HW117987   2.306   0.942   3.243  0.8214 -2.4449  0.7297
 2118SOL    HW217988   2.209   0.947   3.131  0.5368  0.5376 -1.0890
 2119SOL     OW17989   0.147   4.164   8.042 -0.1984 -0.2682 -0.4008
 2119SOL    HW117990   0.231   4.118   8.050 -0.5568 -0.8616 -0.0362
 2119SOL    HW217991   0.153   4.218   7.964  3.4960 -0.5581 -0.3192
 2120SOL     OW17992   3.185   1.501  16.824 -0.0093  0.7587 -0.5222
 2120SOL    HW117993   3.236   1.559  16.766 -0.8977 -0.1637 -2.2329
 2120SOL    HW217994   3.216   1.417  16.790 -2.0847 -0.4873  0.7016
 2121SOL     OW17995   3.821   3.319   6.837  0.0364  0.3899 -0.4040
 2121SOL    HW117996   3.842   3.230   6.866  0.2067  0.1699 -1.2247
 2121SOL    HW217997   3.784   3.298   6.751  1.1569  1.0818 -1.0469
 2122SOL     OW17998   1.537   0.983   2.739  0.6615  0.4284 -0.6659
 2122SOL    HW117999   1.485   0.903   2.736 -0.1044  0.8244  1.6470
 2122SOL    HW218000   1.576   0.978   2.827 -0.8342  0.2556 -0.0151
 2123SOL     OW18001   2.405   2.717   4.563 -0.6281  0.0808 -0.3320
 2123SOL    HW118002   2.452   2.638   4.536 -4.3400 -1.7982 -1.2875
 2123SOL    HW218003   2.350   2.736   4.486 -1.6448  2.4919  0.9832
 2124SOL     OW18004   3.585   1.819  12.108  0.4391 -0.1201  0.8859
 2124SOL    HW118005   3.523   1.767  12.159 -1.4232  0.8437 -0.3828
 2124SOL    HW218006   3.526   1.891  12.085 -0.6712 -1.8230 -1.6309
 2125SOL     OW18007   0.334   3.660   8.904 -0.2845  0.2540  0.4829
 2125SOL    HW118008   0.384   3.722   8.958 -0.5639  0.6345  0.3035
 2125SOL    HW218009   0.397   3.592   8.879  1.5911  1.6148  1.4651
 2126SOL     OW18010   0.958   1.251   2.724  0.2340  0.5810 -0.2159
 2126SOL    HW118011   1.023   1.315   2.694  0.1340  1.6285  1.8214
 2126SOL    HW218012   0.967   1.190   2.650  0.2500  0.0774  0.2044
 2127SOL     OW18013   3.604   0.069   9.288  0.1837 -0.5503 -0.0079
 2127SOL    HW118014   3.650   0.122   9.352 -0.9915  0.1705  0.2300
 2127SOL    HW218015   3.671   0.001   9.279  0.3690 -0.4990  1.0328
 2128SOL     OW18016   1.891   3.519   3.755  0.3129 -0.1745 -0.1400
 2128SOL    HW118017   1.875   3.599   3.705 -2.8994 -0.5266  0.3388
 2128SOL    HW218018   1.828   3.452   3.727  0.8138 -0.7778  0.1764
 2129SOL     OW18019   0.118   4.677   2.407  0.4204 -0.2590 -0.1854
 2129SOL    HW118020   0.213   4.685   2.417  0.3431  0.5820 -0.1228
 2129SOL    HW218021   0.111   4.727   2.326  1.2364  1.9224  1.1098
 2130SOL     OW18022   4.003   3.456   7.966 -0.5509 -0.3089 -0.1082
 2130SOL    HW118023   4.024   3.526   8.028 -0.9281 -0.9069  0.6944
 2130SOL    HW218024   4.084   3.409   7.946 -0.8569 -0.1126 -1.7796
 2131SOL     OW18025   0.257   2.678   4.512  0.0138 -0.6306  0.2262
 2131SOL    HW118026   0.164   2.701   4.501  0.1723  1.0233  2.2470
 2131SOL    HW218027   0.284   2.662   4.422 -1.0260 -2.2621  0.2169
 2132SOL     OW18028   1.826   4.303   4.288  0.1406  0.3985  0.3207
 2132SOL    HW118029   1.766   4.228   4.289  1.2958 -0.5529 -2.1306
 2132SOL    HW218030   1.893   4.260   4.234 -0.5396 -1.4135  0.9121
 2133SOL     OW18031   1.074   4.731   5.905 -0.4849 -0.1374 -0.9013
 2133SOL    HW118032   1.006   0.023   5.844 -1.2884 -2.6128 -1.1100
 2133SOL    HW218033   1.143   4.704   5.845  0.6768 -0.3489  0.5317
 2134SOL     OW18034   0.608   1.618  13.866 -0.5000  0.3171  0.2460
 2134SOL    HW118035   0.703   1.605  13.861 -0.5010  0.8505 -1.1968
 2134SOL    HW218036   0.619   1.676  13.941  1.2423  1.6935 -1.0619
 2135SOL     OW18037   2.739   2.193   7.672 -0.0032 -0.0573  0.6735
 2135SOL    HW118038   2.726   2.126   7.605  1.3577  0.1452  0.1986
 2135SOL    HW218039   2.659   2.180   7.723  0.6172 -1.3352  1.3212
 2136SOL     OW18040   4.707   3.013  11.006  0.5164 -0.4542 -0.2956
 2136SOL    HW118041   0.038   3.040  11.070 -1.2388  0.0162  1.3441
 2136SOL    HW218042   4.633   3.003  11.066  0.9891 -0.5791  0.2739
 2137SOL     OW18043   2.648   2.958   7.386  0.2658  0.3383  0.2335
 2137SOL    HW118044   2.599   2.900   7.445  0.7772  1.3948  1.6782
 2137SOL    HW218045   2.595   3.037   7.380  0.0126  0.0991 -0.7019
 2138SOL     OW18046   0.700   3.623   3.373 -0.0160  0.6050 -0.6259
 2138SOL    HW118047   0.628   3.602   3.431  0.0767 -0.4266 -0.8781
 2138SOL    HW218048   0.704   3.719   3.374  0.4403  0.5840  0.2154
 2139SOL     OW18049   1.571   0.030   5.881  0.2691 -0.2057 -0.6714
 2139SOL    HW118050   1.563   0.007   5.974  2.6436  0.8074 -0.2235
 2139SOL    HW218051   1.654   0.078   5.885 -1.0957  2.0465  0.5221
 2140SOL     OW18052   4.540   2.546   0.775  0.5177 -0.3404  0.3788
 2140SOL    HW118053   4.446   2.532   0.787  0.5371  0.4765  1.5036
 2140SOL    HW218054   4.575   2.538   0.864  1.4607  0.3374  0.0591
 2141SOL     OW18055   0.744   4.678   3.022 -0.3081 -0.2703 -0.2532
 2141SOL    HW118056   0.662   4.727   3.011 -0.1773 -0.2144 -0.9677
 2141SOL    HW218057   0.803   4.723   2.962  1.8890  0.9720  2.8110
 2142SOL     OW18058   3.973   2.864   6.463 -0.0848  0.4169  0.4980
 2142SOL    HW118059   4.024   2.791   6.429 -2.1607 -0.4529 -0.7887
 2142SOL    HW218060   3.976   2.923   6.388 -4.5471  1.7753  1.3393
 2143SOL     OW18061   3.862   2.274   1.058  0.4894 -0.3581  0.1737
 2143SOL    HW118062   3.793   2.233   1.006 -1.6814  0.8479  2.0849
 2143SOL    HW218063   3.834   2.267   1.150 -0.2300 -2.2290 -0.1853
 2144SOL     OW18064   1.615   2.486   5.623  0.3883 -0.2612  0.5163
 2144SOL    HW118065   1.562   2.555   5.663  0.2113 -0.0670 -0.0550
 2144SOL    HW218066   1.703   2.509   5.650  0.8487 -1.0886 -0.2681
 2145SOL     OW18067   0.517   4.081   5.057  0.3869  0.5722 -0.1479
 2145SOL    HW118068   0.528   4.100   5.150 -2.1855 -0.5701  0.3932
 2145SOL    HW218069   0.521   4.164   5.010 -2.0701  1.1285  0.6161
 2146SOL     OW18070   3.020   0.283   5.084  0.3926  0.3413  0.0938
 2146SOL    HW118071   3.094   0.336   5.054  1.6879 -2.2346 -1.1743
 2146SOL    HW218072   3.069   0.221   5.138  1.0944 -1.3797 -2.5726
 2147SOL     OW18073   4.524   4.460   3.129 -0.3226 -0.0063 -0.2314
 2147SOL    HW118074   4.519   4.457   3.034  0.9809  1.0693 -0.3343
 2147SOL    HW218075   4.473   4.381   3.150  2.2743 -1.8177 -0.8480
 2148SOL     OW18076   1.142   0.954   5.522  0.2774  0.2813  0.0789
 2148SOL    HW118077   1.120   0.873   5.477  0.4179  0.9621 -1.1896
 2148SOL    HW218078   1.185   0.922   5.602 -4.5827 -1.0284  2.2327
 2149SOL     OW18079   2.379   0.012  17.631 -0.2045 -0.1678 -0.1010
 2149SOL    HW118080   2.345   4.684  17.693 -0.1734 -0.4593 -0.3789
 2149SOL    HW218081   2.326   4.721  17.556  0.8246 -1.7511 -0.2736
 2150SOL     OW18082   1.523   4.118  13.045 -0.1136  0.1455  0.7221
 2150SOL    HW118083   1.477   4.073  13.115  2.0759 -0.7476  1.6022
 2150SOL    HW218084   1.467   4.190  13.016 -0.8908  0.0705  2.0473
 2151SOL     OW18085   1.358   0.434   9.635 -0.4139  0.4753  0.0469
 2151SOL    HW118086   1.368   0.358   9.578 -0.8778  1.9857 -2.0362
 2151SOL    HW218087   1.352   0.505   9.571  0.8193 -0.6911 -1.3516
 2152SOL     OW18088   3.677   2.914   9.272 -0.8752  0.5688 -0.2242
 2152SOL    HW118089   3.618   2.959   9.213  0.0343  1.6429 -0.3151
 2152SOL    HW218090   3.658   2.965   9.351  0.5651 -0.9414  1.0944
 2153SOL     OW18091   1.676   4.284   4.642 -0.6970  0.0313  0.7922
 2153SOL    HW118092   1.714   4.197   4.630 -0.8117  0.5203 -3.2875
 2153SOL    HW218093   1.747   4.348   4.635  0.9419 -2.1044 -2.2726
 2154SOL     OW18094   2.921   4.049  16.181 -0.7857 -0.0744  0.0342
 2154SOL    HW118095   2.894   3.976  16.236 -0.6520  0.2614  0.5476
 2154SOL    HW218096   2.837   4.075  16.144 -0.6759 -1.0091 -0.8671
 2155SOL     OW18097   3.034   4.606  15.188  0.2219 -0.1042 -0.1475
 2155SOL    HW118098   3.093   4.670  15.227 -1.5807 -0.5332  3.3436
 2155SOL    HW218099   3.094   4.532  15.181 -1.5710 -1.5418 -0.4485
 2156SOL     OW18100   3.011   1.617   3.757 -0.1233  0.7200 -0.3620
 2156SOL    HW118101   2.996   1.586   3.668  0.5343  1.6285 -0.7951
 2156SOL    HW218102   2.944   1.685   3.759 -0.7990  0.0951 -2.0056
 2157SOL     OW18103   4.189   1.608   7.919 -0.0339  0.8428  0.2368
 2157SOL    HW118104   4.106   1.653   7.933 -0.2301  1.5641 -3.1507
 2157SOL    HW218105   4.257   1.669   7.949 -0.3946  0.0201  2.6898
 2158SOL     OW18106   0.789   3.971   4.638  0.1180 -0.1139 -0.0629
 2158SOL    HW118107   0.695   3.990   4.643  0.2124  0.8614 -2.2030
 2158SOL    HW218108   0.809   3.958   4.731  0.4999 -0.7176 -0.2287
 2159SOL     OW18109   2.304   0.471   6.981  0.3326  0.4697 -0.3066
 2159SOL    HW118110   2.341   0.554   7.010  0.0277  1.5489 -3.0276
 2159SOL    HW218111   2.354   0.456   6.900  1.5831  0.6698  0.4260
 2160SOL     OW18112   2.452   2.900   2.085 -0.3309  0.1723  0.3392
 2160SOL    HW118113   2.453   2.901   2.180  0.7140  0.8361  0.3232
 2160SOL    HW218114   2.537   2.859   2.067  0.5278  1.1467  2.1503
 2161SOL     OW18115   2.632   4.004   7.312  0.2248  0.6276 -0.0143
 2161SOL    HW118116   2.610   4.071   7.377  2.8809  0.7091  0.7765
 2161SOL    HW218117   2.602   3.921   7.351 -0.9329  2.1304  2.3254
 2162SOL     OW18118   1.049   3.573   8.809 -0.6663  0.6080 -0.0150
 2162SOL    HW118119   1.129   3.620   8.784  1.2522 -1.4389  2.2510
 2162SOL    HW218120   1.086   3.489   8.837 -0.9600  0.2679 -0.6345
 2163SOL     OW18121   3.749   1.312  16.242  0.0041 -0.0764  0.0219
 2163SOL    HW118122   3.662   1.352  16.241  0.4113  0.7641 -0.9627
 2163SOL    HW218123   3.768   1.330  16.150  0.4051 -3.7298 -0.6140
 2164SOL     OW18124   2.140   0.591   3.921  0.3769 -0.6044 -0.3176
 2164SOL    HW118125   2.141   0.517   3.982  2.0348 -0.5564 -0.3015
 2164SOL    HW218126   2.134   0.551   3.835  0.2967 -0.1824 -0.5102
 2165SOL     OW18127   1.811   1.510   6.285  0.5959 -0.5164 -0.1601
 2165SOL    HW118128   1.764   1.431   6.259  0.0969 -0.2650 -0.0179
 2165SOL    HW218129   1.815   1.517   6.380 -2.0454 -2.4830  0.1000
 2166SOL     OW18130   1.256   3.756  12.336 -0.0560  0.4185  0.0591
 2166SOL    HW118131   1.256   3.663  12.314  0.4644  0.4518 -0.0929
 2166SOL    HW218132   1.216   3.806  12.264  2.0846 -1.4848 -2.4558
 2167SOL     OW18133   0.699   0.963  10.324  0.2082  0.0518 -0.8043
 2167SOL    HW118134   0.713   0.877  10.284 -1.8394  0.3711 -2.1790
 2167SOL    HW218135   0.624   0.949  10.382 -0.1424  1.7120 -0.8409
 2168SOL     OW18136   2.615   4.590   2.973  0.4412 -0.3304  0.3226
 2168SOL    HW118137   2.531   4.612   2.932  0.3859 -1.9078 -0.4251
 2168SOL    HW218138   2.653   4.676   2.989 -2.2093  0.9945 -0.4835
 2169SOL     OW18139   2.671   2.297   2.376 -0.3136  0.3145  0.1064
 2169SOL    HW118140   2.583   2.333   2.364 -0.0311  1.7962  2.3646
 2169SOL    HW218141   2.725   2.344   2.314 -0.7491  0.0870 -0.4464
 2170SOL     OW18142   0.530   0.351   4.240 -0.4754  0.1482 -0.1410
 2170SOL    HW118143   0.532   0.323   4.332 -0.5359 -0.4833 -0.3321
 2170SOL    HW218144   0.537   0.446   4.249  1.0842 -0.1115  1.4570
 2171SOL     OW18145   3.993   1.165  13.091  0.0800 -0.9246 -0.0456
 2171SOL    HW118146   4.047   1.241  13.112  0.5677 -0.9051 -1.3570
 2171SOL    HW218147   4.034   1.129  13.013  2.2685  0.3321  0.5400
 2172SOL     OW18148   1.552   4.609   9.058 -0.4888 -0.5170  0.0262
 2172SOL    HW118149   1.572   4.583   8.968 -1.6852 -1.9600  0.1824
 2172SOL    HW218150   1.601   4.539   9.100  0.3341  1.0297  1.6890
 2173SOL     OW18151   2.720   1.204   2.127  0.1653 -0.1783  0.1510
 2173SOL    HW118152   2.764   1.177   2.046 -1.9562  0.1547 -1.1388
 2173SOL    HW218153   2.725   1.299   2.124 -0.0950 -0.1008  2.5392
 2174SOL     OW18154   1.430   3.172   6.070 -0.1015 -0.3011  0.0644
 2174SOL    HW118155   1.435   3.082   6.103 -0.3013 -0.7253 -1.0642
 2174SOL    HW218156   1.523   3.196   6.071  0.1117 -1.2018  1.8336
 2175SOL     OW18157   0.663   3.643   5.673 -0.0427 -0.1402 -0.4699
 2175SOL    HW118158   0.646   3.661   5.766  0.2580  1.7360 -0.7739
 2175SOL    HW218159   0.606   3.568   5.654  0.6007 -0.9463  0.8022
 2176SOL     OW18160   1.275   2.604   4.469 -0.2516 -0.5438  0.3829
 2176SOL    HW118161   1.241   2.554   4.394 -0.5086  1.1644 -0.6351
 2176SOL    HW218162   1.326   2.537   4.514 -0.4671 -0.9344  0.0535
 2177SOL     OW18163   3.746   0.436   7.557 -0.6643  0.1157  0.2255
 2177SOL    HW118164   3.831   0.395   7.575 -0.4143 -0.3379 -1.9953
 2177SOL    HW218165   3.722   0.484   7.636 -3.1209  1.1697 -1.1648
 2178SOL     OW18166   2.953   1.943   7.649 -0.9622 -0.3135 -0.9203
 2178SOL    HW118167   2.860   1.962   7.638 -1.6286 -2.9513  0.4099
 2178SOL    HW218168   2.984   1.999   7.578 -0.4612  0.9674  0.3038
 2179SOL     OW18169   1.906   0.407   8.517  0.3811  0.3517 -0.0302
 2179SOL    HW118170   1.829   0.461   8.537  0.6064 -0.3871  2.7964
 2179SOL    HW218171   1.946   0.460   8.448  0.0984 -0.6599 -0.9801
 2180SOL     OW18172   0.806   4.124   6.575  0.0958  0.5308 -0.2980
 2180SOL    HW118173   0.755   4.158   6.649  0.1654 -2.1128  0.9854
 2180SOL    HW218174   0.800   4.030   6.595  1.0998  1.0018  2.1953
 2181SOL     OW18175   3.039   1.946   2.682 -0.2628 -0.3236  0.3692
 2181SOL    HW118176   3.104   1.976   2.746  0.1429  1.2923 -0.7808
 2181SOL    HW218177   2.986   1.898   2.745 -0.4026 -0.7924 -0.1074
 2182SOL     OW18178   0.343   3.107  11.119 -0.0547  0.2592 -0.0192
 2182SOL    HW118179   0.262   3.151  11.145 -1.0032 -1.3687 -0.2408
 2182SOL    HW218180   0.360   3.136  11.030 -1.4804 -0.9591 -0.6878
 2183SOL     OW18181   1.704   1.960   6.840 -0.6324 -0.1739  0.1413
 2183SOL    HW118182   1.782   2.015   6.828  0.6498 -1.7410  1.3613
 2183SOL    HW218183   1.694   1.927   6.750  2.5057 -0.3334 -0.1363
 2184SOL     OW18184   1.663   3.668   7.903 -0.1819  0.2597 -0.1472
 2184SOL    HW118185   1.613   3.597   7.863  2.2598 -0.3621 -2.0943
 2184SOL    HW218186   1.657   3.630   7.990 -2.7857 -1.1651 -0.9333
 2185SOL     OW18187   3.365   1.148   1.859  0.4222  0.1238 -0.2422
 2185SOL    HW118188   3.450   1.160   1.816  1.4511  0.8650  1.9882
 2185SOL    HW218189   3.389   1.189   1.942 -0.6351  0.1222  0.0588
 2186SOL     OW18190   3.329   0.172   4.771  0.0886 -0.0450 -0.3151
 2186SOL    HW118191   3.421   0.196   4.787  0.2338  0.3888 -1.8389
 2186SOL    HW218192   3.278   0.251   4.752  2.8975  1.6781 -0.8576
 2187SOL     OW18193   2.820   2.399   1.759 -0.4326  0.3008 -0.2583
 2187SOL    HW118194   2.743   2.354   1.794  0.5710 -1.9882 -1.0394
 2187SOL    HW218195   2.794   2.422   1.670  1.0886  0.7127 -0.5978
 2188SOL     OW18196   2.099   0.034   5.157  0.4550  0.4361  0.1290
 2188SOL    HW118197   2.180   0.032   5.209 -0.1100  1.8232  1.0801
 2188SOL    HW218198   2.046   0.066   5.230 -1.2573 -1.4006 -0.3162
 2189SOL     OW18199   4.092   4.436   4.499 -0.0657 -0.2917 -0.1275
 2189SOL    HW118200   4.123   4.510   4.446  0.6794 -1.9971 -2.0818
 2189SOL    HW218201   4.007   4.413   4.462  0.1966 -0.5698 -0.5522
 2190SOL     OW18202   2.270   2.105  17.259 -0.3838  0.0075 -0.0617
 2190SOL    HW118203   2.233   2.146  17.181 -0.1355  0.0750 -0.1435
 2190SOL    HW218204   2.208   2.139  17.324  3.6421  0.9284  3.3138
 2191SOL     OW18205   0.428   4.630   6.909  0.3909 -0.5051 -0.2537
 2191SOL    HW118206   0.402   4.552   6.958  0.0731 -1.2181 -1.5667
 2191SOL    HW218207   0.522   4.612   6.898  1.1211  1.9063  2.1324
 2192SOL     OW18208   2.825   3.538   6.991  0.2161  0.2438 -0.5671
 2192SOL    HW118209   2.793   3.556   6.903 -0.2406  0.4953 -0.3492
 2192SOL    HW218210   2.912   3.502   6.976  0.6479  1.0824 -0.0742
 2193SOL     OW18211   2.646   0.103   8.226  0.3162  0.2979 -0.2659
 2193SOL    HW118212   2.705   0.030   8.241 -1.6114 -1.0289  0.8563
 2193SOL    HW218213   2.708   0.174   8.248  1.2980 -0.0189 -2.0679
 2194SOL     OW18214   3.297   4.167   4.210  0.1560  0.3483 -0.2046
 2194SOL    HW118215   3.276   4.255   4.179  1.9962  0.8100 -0.1078
 2194SOL    HW218216   3.224   4.117   4.173  2.2375 -1.2981 -2.0594
 2195SOL     OW18217   1.794   4.169  12.987 -0.0709  0.7074 -0.1259
 2195SOL    HW118218   1.824   4.255  13.017  0.5546  0.2036  0.6976
 2195SOL    HW218219   1.702   4.180  13.012  0.1600 -1.5640  1.6961
 2196SOL     OW18220   1.045   4.013   8.896  0.4990  0.1512 -0.1914
 2196SOL    HW118221   1.082   4.092   8.856  0.7161 -0.1368 -0.5564
 2196SOL    HW218222   1.124   3.984   8.942  0.3545  0.0790  0.0146
 2197SOL     OW18223   2.842   2.234   1.399  0.0347  0.4819 -0.1174
 2197SOL    HW118224   2.770   2.294   1.383 -0.4349 -0.2998 -1.0043
 2197SOL    HW218225   2.832   2.183   1.318  1.3298  0.7812 -0.4748
 2198SOL     OW18226   0.255   2.831  12.972 -0.1827  0.4393  0.1782
 2198SOL    HW118227   0.210   2.805  12.891  2.0146 -1.3516 -0.4740
 2198SOL    HW218228   0.316   2.900  12.948  0.3401  0.4838  1.6204
 2199SOL     OW18229   3.022   3.492   8.833  0.2479  0.3573  0.3090
 2199SOL    HW118230   3.010   3.418   8.892  0.5398  0.2168  0.1914
 2199SOL    HW218231   2.939   3.490   8.785  1.2078 -1.2963 -1.2835
 2200SOL     OW18232   2.756   4.472   7.207  0.1491  0.1299  0.2782
 2200SOL    HW118233   2.701   4.478   7.284  0.9094 -0.5728  0.8816
 2200SOL    HW218234   2.732   4.384   7.177 -0.1103 -0.0539  1.0275
 2201SOL     OW18235   0.050   0.150   6.380  0.4810  0.0655  0.0296
 2201SOL    HW118236   0.026   0.226   6.327 -2.0069  0.1653  1.2749
 2201SOL    HW218237   4.701   0.109   6.399  1.2187 -1.1705  0.6459
 2202SOL     OW18238   3.076   4.235   6.573  0.2401 -0.0143  0.3910
 2202SOL    HW118239   3.044   4.178   6.644 -0.4491 -0.2540 -0.1159
 2202SOL    HW218240   3.002   4.243   6.513  1.0092 -1.6482 -0.7609
 2203SOL     OW18241   0.428   2.498   3.526 -0.0328  0.3033  0.4286
 2203SOL    HW118242   0.498   2.535   3.579 -0.1590  1.4617 -0.2061
 2203SOL    HW218243   0.485   2.481   3.451  1.0720 -1.3721  1.6597
 2204SOL     OW18244   0.311   1.399   3.866  0.0327 -0.1683 -0.3090
 2204SOL    HW118245   0.399   1.425   3.894 -1.4097  2.7386  1.4479
 2204SOL    HW218246   0.259   1.440   3.934  0.9533  3.6410 -1.8994
 2205SOL     OW18247   0.905   2.408   0.430 -0.0693  0.0471  0.2799
 2205SOL    HW118248   0.971   2.367   0.374 -1.1777 -0.0721 -0.9259
 2205SOL    HW218249   0.838   2.339   0.424 -0.6439  0.6274  0.0459
 2206SOL     OW18250   0.065   4.547   5.405 -0.4620 -0.5677 -0.0993
 2206SOL    HW118251   0.017   4.596   5.338 -3.3016 -0.9583  1.6848
 2206SOL    HW218252   0.157   4.572   5.394  0.1215 -2.0828  1.3923
 2207SOL     OW18253   1.416   3.314   2.279 -0.2205  0.8681 -0.3988
 2207SOL    HW118254   1.470   3.308   2.201  0.7468 -1.9671  0.5001
 2207SOL    HW218255   1.333   3.346   2.243 -0.8214  0.0006  0.2161
 2208SOL     OW18256   1.227   2.874   7.878 -0.0924 -0.4379 -0.3598
 2208SOL    HW118257   1.254   2.820   7.804  2.7390  1.3682 -0.6464
 2208SOL    HW218258   1.133   2.889   7.865  0.1253  2.0766  0.7769
 2209SOL     OW18259   2.676   4.255   9.107  0.5977  0.1064 -0.1162
 2209SOL    HW118260   2.765   4.220   9.102  2.2091  3.8334  2.8800
 2209SOL    HW218261   2.626   4.174   9.097 -1.7164  1.4173  0.9212
 2210SOL     OW18262   1.574   3.982   3.557  0.0193 -0.1363  0.4973
 2210SOL    HW118263   1.565   4.071   3.525 -0.2477 -0.2156  0.3562
 2210SOL    HW218264   1.534   3.988   3.644  0.2677 -2.2027  0.7717
 2211SOL     OW18265   0.218   2.340   8.485  0.4262  0.8692 -0.2995
 2211SOL    HW118266   0.202   2.340   8.579  1.7134 -2.2602 -0.0792
 2211SOL    HW218267   0.260   2.256   8.469  1.9339  1.8058 -1.3206
 2212SOL     OW18268   0.040   2.820   3.461  0.3173 -0.3956 -0.1212
 2212SOL    HW118269   0.008   2.825   3.551 -0.7031  2.2891 -0.6298
 2212SOL    HW218270   4.730   2.901   3.438  0.2032 -0.6451 -0.7648
 2213SOL     OW18271   3.579   1.287   1.745 -0.2701 -0.6247  0.2565
 2213SOL    HW118272   3.611   1.344   1.815 -1.7582 -0.2199  0.6260
 2213SOL    HW218273   3.651   1.287   1.683 -0.2511  1.6966  0.2853
 2214SOL     OW18274   0.993   1.994  14.923 -0.0763  0.1842 -0.0324
 2214SOL    HW118275   1.076   1.954  14.948 -0.1551  0.6414  0.9891
 2214SOL    HW218276   1.035   2.066  14.875 -2.3691  2.0622  0.7655
 2215SOL     OW18277   3.380   0.915   1.049  0.0853  0.3535  0.2821
 2215SOL    HW118278   3.329   0.995   1.045  0.0698  0.2354 -1.6066
 2215SOL    HW218279   3.321   0.853   1.092  0.6505 -0.2040  0.2599
 2216SOL     OW18280   1.628   3.621   4.510 -0.0927 -0.0673  0.1166
 2216SOL    HW118281   1.713   3.577   4.508  0.1595  0.4543 -0.5301
 2216SOL    HW218282   1.607   3.605   4.602 -0.9430  1.1888  0.1393
 2217SOL     OW18283   4.366   0.322   1.336 -0.5985  0.6146 -0.2919
 2217SOL    HW118284   4.433   0.347   1.400  0.3826 -1.5693 -0.4430
 2217SOL    HW218285   4.304   0.267   1.384 -0.9115  0.6352 -0.6821
 2218SOL     OW18286   2.048   1.172  11.163  0.1170 -0.2501  0.2517
 2218SOL    HW118287   2.029   1.108  11.094  2.6536  0.7803 -1.3982
 2218SOL    HW218288   2.141   1.156  11.174  0.7238  4.0584  1.0850
 2219SOL     OW18289   3.286   2.263   4.218 -0.5037  0.2841 -0.2194
 2219SOL    HW118290   3.256   2.350   4.246 -0.8990  0.1856 -0.3376
 2219SOL    HW218291   3.376   2.257   4.249 -0.6987  1.1741  0.5440
 2220SOL     OW18292   1.389   3.330   3.286 -0.0151  0.1464  0.5226
 2220SOL    HW118293   1.473   3.367   3.313 -0.8544  1.3708  1.4281
 2220SOL    HW218294   1.333   3.383   3.342 -0.5915 -1.0106  1.0501
 2221SOL     OW18295   4.363   4.595   4.637  0.6979 -0.2450 -0.3259
 2221SOL    HW118296   4.282   4.605   4.588  1.9514 -0.1354 -2.3608
 2221SOL    HW218297   4.383   4.503   4.623  2.5433  0.2892 -1.2284
 2222SOL     OW18298   2.761   1.668   8.394 -0.1776  0.3170  0.0721
 2222SOL    HW118299   2.774   1.763   8.400 -3.7506  0.5239  4.3988
 2222SOL    HW218300   2.804   1.645   8.476  0.7281 -1.1779 -0.8185
 2223SOL     OW18301   3.300   0.479  15.733  0.0290  0.1358 -0.0913
 2223SOL    HW118302   3.246   0.403  15.754 -1.4244  0.1663 -3.8024
 2223SOL    HW218303   3.377   0.471  15.789  0.1413 -1.1127 -0.4365
 2224SOL     OW18304   1.185   3.745   2.104 -0.7662 -0.3135 -0.0104
 2224SOL    HW118305   1.129   3.820   2.084  0.0230 -0.5537 -3.1899
 2224SOL    HW218306   1.270   3.766   2.064 -0.7491 -1.0083 -0.3491
 2225SOL     OW18307   0.916   3.935   4.420 -1.1219  0.3978  0.1315
 2225SOL    HW118308   0.897   3.842   4.410 -0.2828  0.3886 -1.4131
 2225SOL    HW218309   0.885   3.947   4.510  1.0575  1.6100  0.7242
 2226SOL     OW18310   0.807   3.841   2.346  0.7135  0.1887  0.1202
 2226SOL    HW118311   0.717   3.835   2.380  1.1860  1.1487  1.5275
 2226SOL    HW218312   0.866   3.812   2.415  1.2867  1.9407  0.3703
 2227SOL     OW18313   1.923   3.052   6.390 -0.1770 -0.1770  0.1495
 2227SOL    HW118314   1.954   3.135   6.356  0.3885 -1.3074 -2.0557
 2227SOL    HW218315   1.894   3.079   6.477  0.5478 -0.2238  0.4041
 2228SOL     OW18316   3.515   4.032   7.226 -0.5635 -0.1827 -0.2162
 2228SOL    HW118317   3.433   4.076   7.249  0.2324  1.3592 -0.3485
 2228SOL    HW218318   3.481   3.943   7.228 -2.1584  0.4672  1.2637
 2229SOL     OW18319   1.452   4.320   7.060  0.8029 -0.2425 -0.0480
 2229SOL    HW118320   1.473   4.274   6.980 -0.2774 -0.8454  0.0189
 2229SOL    HW218321   1.375   4.367   7.028  2.6644  2.3584 -0.7482
 2230SOL     OW18322   2.114   0.184   4.410 -0.6281 -0.2659 -0.2316
 2230SOL    HW118323   2.118   0.089   4.404 -2.9409 -0.3649  0.0090
 2230SOL    HW218324   2.076   0.196   4.323 -0.3008  1.1834 -0.1883
 2231SOL     OW18325   3.223   1.370   7.882  0.8215  0.1008 -0.1800
 2231SOL    HW118326   3.254   1.381   7.972  2.4098 -1.5255 -0.5206
 2231SOL    HW218327   3.242   1.454   7.841  1.8030 -0.4469 -0.8364
 2232SOL     OW18328   1.704   4.238   2.566  0.0786 -0.1874  0.0943
 2232SOL    HW118329   1.682   4.331   2.574  2.5818  0.5559 -1.7659
 2232SOL    HW218330   1.765   4.234   2.492  0.1235  0.3967  0.1004
 2233SOL     OW18331   0.052   2.205  11.017 -0.3066 -0.8962  0.1162
 2233SOL    HW118332   0.074   2.120  10.978  2.9025  0.7498 -1.6493
 2233SOL    HW218333   4.732   2.256  10.959  0.3514 -0.2687  0.0445
 2234SOL     OW18334   4.720   3.300   1.389  0.3688  0.7860 -0.3183
 2234SOL    HW118335   4.713   3.265   1.301 -1.4797  0.3646  0.0069
 2234SOL    HW218336   0.063   3.253   1.415 -0.1307 -1.3647 -2.8032
 2235SOL     OW18337   1.623   1.072   5.076  0.1916  0.1250  0.3064
 2235SOL    HW118338   1.670   1.072   5.160 -0.9116  0.7750  0.9128
 2235SOL    HW218339   1.536   1.054   5.110 -0.1335  2.5180  0.7501
 2236SOL     OW18340   4.247   2.313   5.047 -0.7088 -0.4119 -0.2986
 2236SOL    HW118341   4.153   2.301   5.061 -1.0148  2.0008 -0.2920
 2236SOL    HW218342   4.250   2.308   4.951  0.9440  2.7307 -0.4053
 2237SOL     OW18343   2.162   0.809  15.530  0.4887 -0.2075 -0.3184
 2237SOL    HW118344   2.233   0.748  15.509  0.5899 -0.6056  1.1781
 2237SOL    HW218345   2.188   0.876  15.467 -1.3912  1.2888  0.4949
 2238SOL     OW18346   0.384   0.940  14.977  0.2795 -0.0835  0.3755
 2238SOL    HW118347   0.424   0.893  15.051  0.7545 -2.0154 -1.0967
 2238SOL    HW218348   0.442   1.016  14.976  2.3757 -1.6879  0.5497
 2239SOL     OW18349   1.614   3.109   3.469 -0.3115 -0.0822 -0.3274
 2239SOL    HW118350   1.526   3.148   3.470 -0.5825 -0.7213  3.7936
 2239SOL    HW218351   1.637   3.119   3.377  1.0391  1.5170  0.1974
 2240SOL     OW18352   1.601   1.285  11.564  0.1601  0.3409 -0.3842
 2240SOL    HW118353   1.524   1.304  11.617 -0.0075 -0.5166 -0.3367
 2240SOL    HW218354   1.563   1.288  11.476 -0.2922  1.9870 -0.1472
 2241SOL     OW18355   0.702   2.189   5.364 -0.2209  0.1867 -0.0489
 2241SOL    HW118356   0.657   2.124   5.309 -0.7347  2.2510 -2.0946
 2241SOL    HW218357   0.784   2.208   5.319 -0.6344  0.5977 -0.6251
 2242SOL     OW18358   2.342   1.829  11.970 -0.0722 -0.0190  0.1193
 2242SOL    HW118359   2.334   1.778  12.050 -1.1876  2.1676  1.3856
 2242SOL    HW218360   2.412   1.889  11.996  0.6152 -0.5452 -0.4980
 2243SOL     OW18361   0.808   3.141   3.103  0.1798  0.0177 -0.3224
 2243SOL    HW118362   0.741   3.187   3.154 -0.3877  1.8866 -2.7526
 2243SOL    HW218363   0.821   3.060   3.153 -0.5007  0.2911  0.3098
 2244SOL     OW18364   1.408   1.808  14.656 -0.4521  0.2687  0.5800
 2244SOL    HW118365   1.472   1.756  14.703  0.3152  1.3040  0.6690
 2244SOL    HW218366   1.460   1.878  14.616  2.0811 -2.1392 -0.3366
 2245SOL     OW18367   2.325   3.095   7.752 -0.2681  0.1399 -0.3431
 2245SOL    HW118368   2.281   3.167   7.798  0.4766  1.7267 -2.1097
 2245SOL    HW218369   2.267   3.023   7.777 -0.3610 -0.1157 -1.2855
 2246SOL     OW18370   2.948   0.901  17.154 -0.1884  0.2240 -0.2828
 2246SOL    HW118371   3.013   0.949  17.102  1.5270 -1.4328  0.3191
 2246SOL    HW218372   2.953   0.812  17.120  0.6083 -0.9412  2.7997
 2247SOL     OW18373   0.765   2.608   2.245  0.2388 -0.1903 -0.0456
 2247SOL    HW118374   0.729   2.593   2.158 -1.0780  2.2226  0.0736
 2247SOL    HW218375   0.681   2.630   2.287 -0.9933 -1.1613 -2.0023
 2248SOL     OW18376   4.712   3.894   7.029 -0.4562 -0.0842 -0.6023
 2248SOL    HW118377   4.690   3.810   7.070 -0.7541 -0.5080 -1.6392
 2248SOL    HW218378   4.631   3.915   6.983 -0.2584  0.2640 -0.7927
 2249SOL     OW18379   1.947   1.983   3.620  0.2413  0.2150 -0.2070
 2249SOL    HW118380   1.907   2.069   3.626  0.8285  0.5992 -1.7229
 2249SOL    HW218381   1.875   1.927   3.649  1.5684 -1.1288  0.5405
 2250SOL     OW18382   2.944   3.849   0.389  0.3117  0.2234 -0.1601
 2250SOL    HW118383   3.002   3.894   0.450  0.6753 -2.0547  1.1788
 2250SOL    HW218384   2.938   3.911   0.317  3.5779  0.9686  0.2159
 2251SOL     OW18385   1.190   4.214   5.720  0.0924  0.0574 -0.5787
 2251SOL    HW118386   1.160   4.139   5.668  1.7955  0.4221 -2.0682
 2251SOL    HW218387   1.285   4.207   5.721 -0.3030 -5.1564  0.9834
 2252SOL     OW18388   0.955   3.277   7.891 -0.0245 -0.6345 -0.5374
 2252SOL    HW118389   1.006   3.314   7.818  1.3151  0.6044  1.0321
 2252SOL    HW218390   0.963   3.182   7.876 -0.6442 -0.2638 -3.3431
 2253SOL     OW18391   0.108   2.108  14.315  1.0212  0.6680 -1.1004
 2253SOL    HW118392   0.051   2.034  14.297  0.9092  0.0717  1.5786
 2253SOL    HW218393   0.193   2.065  14.302 -0.7137 -2.6885 -1.1437
 2254SOL     OW18394   4.361   3.384  13.907  0.0860 -0.2264 -0.1053
 2254SOL    HW118395   4.305   3.431  13.845  0.2310  0.9531  0.6472
 2254SOL    HW218396   4.391   3.324  13.839  3.3532  1.4396 -0.1538
 2255SOL     OW18397   1.268   2.480  10.427  0.0990 -0.1310  0.4901
 2255SOL    HW118398   1.353   2.464  10.387  0.1892 -1.6300  1.3058
 2255SOL    HW218399   1.299   2.553  10.482 -0.8175  0.4323  0.2637
 2256SOL     OW18400   3.815   3.111   5.519  0.2279 -0.2121 -0.0081
 2256SOL    HW118401   3.904   3.084   5.496  0.1042 -0.4439 -0.2156
 2256SOL    HW218402   3.780   3.026   5.546  0.3804  0.7126  3.1089
 2257SOL     OW18403   2.968   0.442   0.870  0.0121  0.1160  0.3993
 2257SOL    HW118404   3.050   0.473   0.832  1.3794 -1.4336  2.0594
 2257SOL    HW218405   3.003   0.378   0.933 -0.4530 -1.5235 -1.0076
 2258SOL     OW18406   2.410   1.117   9.672 -0.2230 -0.7365  0.5704
 2258SOL    HW118407   2.446   1.206   9.679  0.7486 -1.1928  1.2014
 2258SOL    HW218408   2.356   1.121   9.592 -1.2360  2.0708  1.3835
 2259SOL     OW18409   0.610   1.279   9.358 -0.1478  0.8711 -0.1206
 2259SOL    HW118410   0.580   1.241   9.440  0.5115  2.2639  0.7736
 2259SOL    HW218411   0.527   1.309   9.320 -0.2634  1.1287  0.3405
 2260SOL     OW18412   2.166   1.089   2.948 -0.0700 -1.0575  0.2428
 2260SOL    HW118413   2.107   1.144   2.897  1.6512  0.6291  0.0648
 2260SOL    HW218414   2.244   1.143   2.937 -0.7965  0.2664  1.6443
 2261SOL     OW18415   0.753   3.513  10.596  0.3245  0.0407 -0.0152
 2261SOL    HW118416   0.843   3.535  10.621  0.5998 -0.7796 -0.2794
 2261SOL    HW218417   0.722   3.593  10.554  0.1396 -1.0462 -1.9481
 2262SOL     OW18418   4.692   3.200   1.709  0.1614  0.7151  0.2057
 2262SOL    HW118419   4.631   3.217   1.637  0.9565 -0.4476 -0.7437
 2262SOL    HW218420   4.644   3.238   1.783 -2.4908  1.1058 -1.7100
 2263SOL     OW18421   2.737   4.374   6.657 -0.3298 -0.4531  0.5286
 2263SOL    HW118422   2.765   4.402   6.744  0.0795 -0.5785  0.4405
 2263SOL    HW218423   2.791   4.427   6.598  0.4340 -1.2350  0.5372
 2264SOL     OW18424   3.956   4.199  10.067 -0.3590 -0.3290  0.1745
 2264SOL    HW118425   3.895   4.269  10.090  0.2287  0.4464 -0.6782
 2264SOL    HW218426   3.983   4.237   9.984 -0.2864  0.1096  0.3949
 2265SOL     OW18427   2.081   4.124   5.028  0.3528 -0.4313  0.4744
 2265SOL    HW118428   2.099   4.146   4.936  0.8510 -0.4776  0.5592
 2265SOL    HW218429   2.062   4.206   5.073  0.8793 -1.2086  2.0990
 2266SOL     OW18430   0.242   3.885   7.799 -0.0303  0.5384  0.1199
 2266SOL    HW118431   0.307   3.865   7.732  2.5968  0.9042  2.5106
 2266SOL    HW218432   0.278   3.848   7.880 -1.9625 -1.7662 -0.0864
 2267SOL     OW18433   4.565   4.735   9.766  0.8111 -0.3573 -0.4137
 2267SOL    HW118434   4.532   4.650   9.796 -0.1311  0.6210  1.3507
 2267SOL    HW218435   4.490   0.052   9.739  0.4172 -0.5274  0.3436
 2268SOL     OW18436   1.500   3.875   7.583 -0.3724  0.6707 -0.3019
 2268SOL    HW118437   1.430   3.908   7.527 -0.7102  2.4740  1.2031
 2268SOL    HW218438   1.455   3.803   7.626 -0.0849  1.1423  0.7697
 2269SOL     OW18439   2.029   4.172   2.634  1.0189 -0.4401  0.4967
 2269SOL    HW118440   1.984   4.166   2.550  0.0294 -2.7321  1.1827
 2269SOL    HW218441   2.037   4.084   2.670  1.7753  0.5668  2.8141
 2270SOL     OW18442   3.371   4.656   6.584 -0.3153  0.0358  0.1903
 2270SOL    HW118443   3.401   4.714   6.654  0.9862  0.3683 -0.6346
 2270SOL    HW218444   3.422   4.576   6.593 -1.4019 -0.7586 -0.6888
 2271SOL     OW18445   2.846   0.275   8.362 -0.0949 -0.9465 -0.3575
 2271SOL    HW118446   2.924   0.311   8.320  0.3502 -1.0353  0.4128
 2271SOL    HW218447   2.800   0.357   8.378  2.3868 -0.0002  1.7859
 2272SOL     OW18448   0.116   3.106   0.366 -0.6184  0.1192 -0.1206
 2272SOL    HW118449   0.189   3.161   0.338  0.1261 -0.9735 -0.3184
 2272SOL    HW218450   0.137   3.025   0.320 -2.2300 -0.3853  0.0284
 2273SOL     OW18451   4.187   1.263  14.103 -0.4685 -0.2272  0.0224
 2273SOL    HW118452   4.232   1.211  14.169 -2.2399  0.2411  1.5817
 2273SOL    HW218453   4.250   1.245  14.033  1.6171  1.8264  1.4017
 2274SOL     OW18454   1.901   1.245   0.566  0.5283 -0.3900 -0.5142
 2274SOL    HW118455   1.842   1.296   0.621  0.3109 -2.5139  1.2386
 2274SOL    HW218456   1.841   1.222   0.496 -0.7248 -1.2145  0.8226
 2275SOL     OW18457   0.650   4.160   2.844 -0.2933  0.0358 -0.4333
 2275SOL    HW118458   0.696   4.177   2.762 -1.5183  1.5126 -0.8194
 2275SOL    HW218459   0.563   4.191   2.818  1.4937  0.9963 -5.3313
 2276SOL     OW18460   4.174   1.758  15.745 -0.3152  0.0453  0.0484
 2276SOL    HW118461   4.268   1.741  15.744 -0.1197  1.0136  1.2468
 2276SOL    HW218462   4.159   1.679  15.797 -0.7388 -1.2752 -2.0588
 2277SOL     OW18463   2.833   1.705   9.560 -0.0877  0.0967 -0.1402
 2277SOL    HW118464   2.865   1.767   9.625  2.5403 -0.9083 -0.4614
 2277SOL    HW218465   2.750   1.740   9.529 -0.0752 -0.8835 -1.3045
 2278SOL     OW18466   1.151   1.540   4.252 -0.2037 -0.7491 -0.3128
 2278SOL    HW118467   1.098   1.609   4.211  1.0298  1.4212  1.8107
 2278SOL    HW218468   1.240   1.575   4.250 -0.9768  1.1208 -1.9730
 2279SOL     OW18469   3.045   0.532  10.814 -0.3979 -0.2429  0.4970
 2279SOL    HW118470   3.001   0.455  10.779 -1.0391 -1.2414  3.4847
 2279SOL    HW218471   3.090   0.498  10.892 -0.7806  1.0114  1.2725
 2280SOL     OW18472   0.936   1.212   7.645  0.5979 -0.2643 -0.0298
 2280SOL    HW118473   0.962   1.252   7.728 -1.8026 -0.2955  0.7456
 2280SOL    HW218474   1.002   1.143   7.640 -0.6970 -1.4739 -0.7533
 2281SOL     OW18475   0.878   4.128   4.870 -0.0043  0.2179  0.2887
 2281SOL    HW118476   0.894   4.211   4.915  0.8982  0.2585 -0.1142
 2281SOL    HW218477   0.842   4.162   4.788 -0.6958 -1.8208 -0.2410
 2282SOL     OW18478   4.575   4.561   1.385  0.6503 -0.0689  0.7650
 2282SOL    HW118479   4.482   4.550   1.407  0.9696  0.4173  2.3962
 2282SOL    HW218480   4.574   4.652   1.356  1.5453 -0.0060  0.9465
 2283SOL     OW18481   3.152   0.040  15.955 -0.3767 -0.0397 -0.1372
 2283SOL    HW118482   3.169   0.104  16.023  0.5061  1.5303 -1.8289
 2283SOL    HW218483   3.187   4.690  15.982  1.5712  0.8525  0.1719
 2284SOL     OW18484   2.767   0.527   3.062 -0.2203  0.0972  0.2486
 2284SOL    HW118485   2.723   0.445   3.085  0.0925 -0.8316 -2.5848
 2284SOL    HW218486   2.857   0.519   3.091 -0.1390  0.3836  0.0768
 2285SOL     OW18487   2.617   0.989   0.320 -0.1312 -1.1018 -0.1465
 2285SOL    HW118488   2.570   1.056   0.271  0.9413  0.2926  0.7398
 2285SOL    HW218489   2.569   0.980   0.402  0.9847  0.3146  0.6690
 2286SOL     OW18490   3.710   0.010   4.257  0.1495 -0.1893 -0.1764
 2286SOL    HW118491   3.731   0.088   4.308 -1.6324  0.6009 -0.6620
 2286SOL    HW218492   3.640   0.042   4.200  0.9708  0.1013 -1.0256
 2287SOL     OW18493   2.915   0.874   9.125  0.0378  0.6682  0.0067
 2287SOL    HW118494   2.845   0.848   9.065  1.1332  3.0650 -2.3120
 2287SOL    HW218495   2.899   0.967   9.136 -1.1839  0.3008  1.3930
 2288SOL     OW18496   2.569   1.976   8.033  0.0786  0.1111 -0.0574
 2288SOL    HW118497   2.582   1.988   8.127 -0.9560 -0.9135  0.2199
 2288SOL    HW218498   2.595   1.885   8.025 -0.8785 -0.2145  0.5937
 2289SOL     OW18499   3.332   3.826   3.349  0.1501 -0.3048  0.1535
 2289SOL    HW118500   3.423   3.848   3.367  0.2226  0.4518 -1.1248
 2289SOL    HW218501   3.309   3.902   3.294  1.8027 -0.6754 -1.0580
 2290SOL     OW18502   2.827   1.799   3.712  0.2554  0.7094  0.4054
 2290SOL    HW118503   2.813   1.823   3.620 -0.4687  0.1098  0.3574
 2290SOL    HW218504   2.740   1.764   3.732  1.0448 -0.4816  1.7434
 2291SOL     OW18505   2.087   0.835   2.800  0.1396  0.7511  0.8053
 2291SOL    HW118506   2.093   0.910   2.859 -0.2765  0.3882  1.3023
 2291SOL    HW218507   2.056   0.883   2.723 -1.0709 -1.6120 -0.1667
 2292SOL     OW18508   1.019   2.591  17.658 -0.2434  0.1423  0.1831
 2292SOL    HW118509   0.941   2.638  17.630 -1.4475 -0.6373  2.2615
 2292SOL    HW218510   1.018   2.528  17.585  0.1044 -0.7703  0.9722
 2293SOL     OW18511   0.211   1.000   6.509  0.3216  0.2879  0.1037
 2293SOL    HW118512   0.286   1.048   6.475  0.9363 -1.3292 -0.8380
 2293SOL    HW218513   0.245   0.914   6.532 -0.5992 -0.2515 -0.5423
 2294SOL     OW18514   1.959   3.717  12.559 -0.0155  0.1503 -0.3054
 2294SOL    HW118515   2.017   3.788  12.587  0.1753 -0.3834  0.6562
 2294SOL    HW218516   1.995   3.680  12.479 -0.7417  0.2369 -0.6692
 2295SOL     OW18517   0.102   1.216   3.475 -0.4769  0.3471  0.0323
 2295SOL    HW118518   0.154   1.213   3.555  0.1372 -0.3615 -0.3919
 2295SOL    HW218519   0.104   1.309   3.451 -1.7391  0.0913 -1.0546
 2296SOL     OW18520   2.293   4.573   9.241 -0.7977 -0.4457  0.2568
 2296SOL    HW118521   2.336   4.520   9.175  0.9431 -1.5515  2.2692
 2296SOL    HW218522   2.263   4.651   9.194  0.2139 -0.9074 -1.1493
 2297SOL     OW18523   3.596   1.183  16.546 -0.3050 -0.4826 -0.2277
 2297SOL    HW118524   3.602   1.211  16.637 -0.8468  1.8923 -0.9275
 2297SOL    HW218525   3.662   1.114  16.551 -0.8665 -1.0601 -0.8129
 2298SOL     OW18526   1.773   3.478   8.417  0.5936  0.1037 -0.2492
 2298SOL    HW118527   1.703   3.445   8.473 -1.4458  0.3336 -2.6665
 2298SOL    HW218528   1.725   3.530   8.353 -0.3021  0.6342  0.8523
 2299SOL     OW18529   0.545   2.770   6.241 -0.1704 -0.0235 -0.1481
 2299SOL    HW118530   0.576   2.792   6.153  0.9721 -1.5269 -0.1186
 2299SOL    HW218531   0.628   2.743   6.280  0.6200 -0.5239 -2.1549
 2300SOL     OW18532   2.278   3.321   3.759 -0.3247  0.3358  0.2297
 2300SOL    HW118533   2.196   3.285   3.793 -1.2633  0.6150 -1.7484
 2300SOL    HW218534   2.250   3.334   3.668 -0.5375 -0.2388  0.2139
 2301SOL     OW18535   1.927   3.766   8.789 -0.2000 -0.5681 -0.2542
 2301SOL    HW118536   1.956   3.857   8.796  0.4619 -0.9814  2.2114
 2301SOL    HW218537   1.856   3.768   8.724  0.3448 -3.8058 -0.9578
 2302SOL     OW18538   4.690   0.202   5.962  0.2494 -0.2387 -0.1520
 2302SOL    HW118539   4.634   0.207   5.885 -1.8002 -1.2666  1.2507
 2302SOL    HW218540   4.623   0.224   6.027 -0.3271 -0.2297 -0.7555
 2303SOL     OW18541   2.468   2.341   5.938  0.4715  0.2747 -0.6155
 2303SOL    HW118542   2.519   2.406   5.986 -0.5177  0.8334 -0.3330
 2303SOL    HW218543   2.388   2.355   5.988  0.4865 -1.1164 -0.2036
 2304SOL     OW18544   1.894   2.353   5.111  0.0742 -0.2672  0.0681
 2304SOL    HW118545   1.938   2.273   5.141  0.5104 -0.3727 -0.8631
 2304SOL    HW218546   1.910   2.347   5.017 -0.4511 -1.9110  0.0829
 2305SOL     OW18547   0.705   0.916   6.489  0.0310  0.3918  0.1830
 2305SOL    HW118548   0.689   1.003   6.452 -0.7116 -0.0317 -0.4958
 2305SOL    HW218549   0.772   0.884   6.429  1.8097  0.6519  2.0488
 2306SOL     OW18550   3.682   4.519   7.574  0.5965 -0.3071 -0.1615
 2306SOL    HW118551   3.693   4.542   7.666  0.0105 -0.9262  0.0633
 2306SOL    HW218552   3.656   4.429   7.595  1.4316 -0.7170 -0.9056
 2307SOL     OW18553   4.013   4.329   6.458  0.3527  0.0681  0.3460
 2307SOL    HW118554   4.090   4.386   6.454  0.7681 -0.6806 -2.4809
 2307SOL    HW218555   3.986   4.360   6.544  2.7847 -1.3503  1.6323
 2308SOL     OW18556   4.271   4.332   8.497  0.3019  0.6812  0.4865
 2308SOL    HW118557   4.273   4.280   8.417 -0.5597  1.1821  0.1500
 2308SOL    HW218558   4.241   4.261   8.555 -0.8795  0.1958 -0.7195
 2309SOL     OW18559   3.796   4.417   9.828 -0.2866 -0.1262  0.2017
 2309SOL    HW118560   3.795   4.409   9.924 -0.2837  0.1817  0.2277
 2309SOL    HW218561   3.871   4.360   9.808  0.0862  0.4819 -0.1409
 2310SOL     OW18562   1.129   2.299   7.496  0.0606 -0.2306  0.5538
 2310SOL    HW118563   1.034   2.307   7.505 -0.0101  0.9189 -1.2237
 2310SOL    HW218564   1.147   2.370   7.435 -3.4344  1.4190  1.4221
 2311SOL     OW18565   1.538   3.885   6.571  0.1115 -0.1412 -0.6794
 2311SOL    HW118566   1.463   3.909   6.517  0.1366 -0.1856 -0.7344
 2311SOL    HW218567   1.585   3.845   6.498 -0.5293  0.6810 -1.5447
 2312SOL     OW18568   0.166   2.146  15.727 -0.1553 -0.4756 -0.0020
 2312SOL    HW118569   0.098   2.194  15.776 -0.6350 -1.1462 -0.0139
 2312SOL    HW218570   0.163   2.057  15.761 -2.7570 -1.0976 -1.8475
 2313SOL     OW18571   3.240   3.871   5.728  0.0400 -0.1722 -0.3037
 2313SOL    HW118572   3.300   3.830   5.666  0.1566  2.5406 -1.9675
 2313SOL    HW218573   3.295   3.876   5.806  1.4411 -0.7925 -1.2647
 2314SOL     OW18574   4.117   0.252  12.454 -0.0813 -0.9726 -0.1482
 2314SOL    HW118575   4.209   0.271  12.472 -0.8118  1.9908  0.4475
 2314SOL    HW218576   4.104   0.300  12.373 -0.8894  0.5792  0.8852
 2315SOL     OW18577   1.861   0.620   3.894 -0.3168  0.2207 -0.5373
 2315SOL    HW118578   1.952   0.638   3.871  0.0719 -0.2369  0.6163
 2315SOL    HW218579   1.867   0.525   3.899  1.7059  0.3801  0.0529
 2316SOL     OW18580   3.397   1.025   4.080  0.5875 -0.1025  0.1134
 2316SOL    HW118581   3.312   0.985   4.098 -0.8489  3.0985  0.4806
 2316SOL    HW218582   3.393   1.028   3.985 -0.4027  0.7817  0.1917
 2317SOL     OW18583   3.876   0.197   5.286  0.6338 -0.3569 -0.1488
 2317SOL    HW118584   3.916   0.221   5.202  1.2117 -0.9471 -0.0471
 2317SOL    HW218585   3.951   0.199   5.345  3.1907  2.0079 -3.5216
 2318SOL     OW18586   4.631   1.968  15.707  0.2124 -0.0364  0.2303
 2318SOL    HW118587   4.603   1.970  15.798 -2.4773  0.2138 -0.5861
 2318SOL    HW218588   4.725   1.969  15.725 -0.0035 -0.0861  1.3096
 2319SOL     OW18589   2.040   1.702   2.317  0.4080 -0.1896 -0.0249
 2319SOL    HW118590   2.039   1.664   2.229  0.1119 -1.0021  0.3301
 2319SOL    HW218591   1.998   1.631   2.365  2.5677 -0.3226  1.6922
 2320SOL     OW18592   1.897   2.165   2.045  0.2876 -0.7620  0.1992
 2320SOL    HW118593   1.873   2.231   1.980  1.2511 -1.9284 -1.3362
 2320SOL    HW218594   1.816   2.163   2.096  0.3995  0.6129  0.4187
 2321SOL     OW18595   3.355   1.311   8.155  0.4536 -0.0233 -0.7509
 2321SOL    HW118596   3.297   1.308   8.230  0.0427  0.6261 -1.0364
 2321SOL    HW218597   3.333   1.227   8.116  0.2349  0.2380 -1.1997
 2322SOL     OW18598   4.566   3.844  13.192  0.3098  0.2647  0.3784
 2322SOL    HW118599   4.483   3.809  13.160 -0.1621 -1.1285  3.1541
 2322SOL    HW218600   4.606   3.871  13.109  1.4156 -0.6832  0.6008
 2323SOL     OW18601   0.494   4.136   9.082  0.3566  0.2869  0.3529
 2323SOL    HW118602   0.510   4.054   9.128 -0.5446 -0.4154 -0.5946
 2323SOL    HW218603   0.574   4.186   9.100  1.8999 -2.0479 -0.0671
 2324SOL     OW18604   2.991   1.839  16.433  0.1248 -0.0144 -0.2225
 2324SOL    HW118605   2.954   1.926  16.444  1.1614  0.1168  2.3418
 2324SOL    HW218606   2.926   1.784  16.477 -0.7969  0.6944 -0.7018
 2325SOL     OW18607   4.095   3.088   5.455 -0.0951  0.0171 -0.7063
 2325SOL    HW118608   4.136   3.049   5.533 -0.1306  1.0786 -0.1672
 2325SOL    HW218609   4.169   3.110   5.399  1.1205 -0.1051  0.8379
 2326SOL     OW18610   1.910   0.059   3.673 -0.4504  0.0758 -0.3855
 2326SOL    HW118611   1.914   4.711   3.626 -2.1615 -0.7642  0.9574
 2326SOL    HW218612   1.852   0.026   3.742 -1.3278  0.8550 -0.7555
 2327SOL     OW18613   3.114   1.514  15.406 -0.2067  0.0962  0.7175
 2327SOL    HW118614   3.156   1.465  15.335 -1.5619 -1.2652  0.8597
 2327SOL    HW218615   3.074   1.451  15.466  0.5584  1.6768  2.8945
 2328SOL     OW18616   4.192   1.248   4.160  0.0664 -0.3352 -0.2880
 2328SOL    HW118617   4.116   1.306   4.164  0.2845  0.0527 -1.8207
 2328SOL    HW218618   4.170   1.197   4.082 -0.1756  1.1844 -1.1971
 2329SOL     OW18619   4.655   3.984   6.451 -0.0438  0.0562 -0.3617
 2329SOL    HW118620   4.621   3.894   6.443  2.1012 -0.9779  1.7978
 2329SOL    HW218621   4.627   4.018   6.366  2.1522  0.8742 -0.7506
 2330SOL     OW18622   2.430   3.709   3.970  0.0796 -0.3551  0.1548
 2330SOL    HW118623   2.387   3.698   3.886 -0.7264  0.9324  0.4001
 2330SOL    HW218624   2.515   3.739   3.937 -0.6984 -0.4002 -1.8790
 2331SOL     OW18625   4.165   1.662   3.607  0.0956 -0.4256 -0.4366
 2331SOL    HW118626   4.132   1.712   3.532  3.9069  1.3776 -0.9297
 2331SOL    HW218627   4.163   1.572   3.574  0.7417  0.2089 -2.1964
 2332SOL     OW18628   3.965   0.659   6.596 -0.2754 -0.5236  0.1610
 2332SOL    HW118629   3.923   0.731   6.550 -0.7751 -1.0977 -0.2775
 2332SOL    HW218630   4.035   0.705   6.642 -0.2920  0.5312 -0.8781
 2333SOL     OW18631   0.174   2.104  14.623 -0.1764  0.4419 -0.1966
 2333SOL    HW118632   0.198   2.013  14.605  0.0333  0.2198  1.2609
 2333SOL    HW218633   0.079   2.093  14.629  0.1345 -2.5605 -0.6932
 2334SOL     OW18634   0.919   3.631   2.695 -0.1515 -0.0605  0.1181
 2334SOL    HW118635   0.951   3.685   2.767  0.6566 -0.7218  0.2508
 2334SOL    HW218636   0.967   3.674   2.625 -0.3882  2.7218  1.6709
 2335SOL     OW18637   0.515   4.074   0.121  0.0272 -0.8073 -0.0240
 2335SOL    HW118638   0.598   4.082   0.166 -0.2564 -0.6088  0.4564
 2335SOL    HW218639   0.472   4.025   0.191  1.1266 -0.7859  0.6700
 2336SOL     OW18640   0.901   2.073   8.555 -0.5989 -0.4524  0.8395
 2336SOL    HW118641   0.993   2.049   8.562 -0.2190  0.9383  0.5109
 2336SOL    HW218642   0.878   1.987   8.590  1.8455 -1.8773 -1.0726
 2337SOL     OW18643   0.357   2.829   1.472  0.6040 -0.5602 -0.0196
 2337SOL    HW118644   0.393   2.905   1.519  1.4333 -2.0229  1.6963
 2337SOL    HW218645   0.350   2.863   1.383 -1.9040  1.4786  0.9460
 2338SOL     OW18646   4.688   2.407  13.404 -0.2928 -0.1413 -0.0686
 2338SOL    HW118647   4.614   2.460  13.375 -0.1538  0.7908  1.2635
 2338SOL    HW218648   4.646   2.331  13.444  0.1322 -0.0133  0.6318
 2339SOL     OW18649   2.181   4.136   7.599  0.0143 -0.7633 -0.4020
 2339SOL    HW118650   2.149   4.048   7.577  1.1005 -1.2236 -0.1215
 2339SOL    HW218651   2.137   4.186   7.530 -2.2346 -2.0558  0.0965
 2340SOL     OW18652   3.791   1.831  16.463 -0.1467 -0.2355  0.2242
 2340SOL    HW118653   3.704   1.799  16.437  0.2776 -1.6380  0.5284
 2340SOL    HW218654   3.778   1.879  16.545 -0.5484 -2.7726  1.6537
 2341SOL     OW18655   1.185   3.963   3.627 -0.1111 -0.5006 -0.0874
 2341SOL    HW118656   1.130   3.980   3.703  1.4092 -1.9114  1.3487
 2341SOL    HW218657   1.246   4.036   3.637  0.8146 -1.0488 -1.5770
 2342SOL     OW18658   1.549   0.687   7.430  0.7045  0.5566 -0.4587
 2342SOL    HW118659   1.619   0.743   7.461  0.8863  0.9020 -1.4908
 2342SOL    HW218660   1.548   0.629   7.506  0.0481  1.1644 -0.0014
 2343SOL     OW18661   1.594   2.602   4.184  0.5697 -0.9036 -0.2275
 2343SOL    HW118662   1.658   2.603   4.113  0.1509 -3.0764 -0.6435
 2343SOL    HW218663   1.613   2.518   4.227  0.7648 -0.1490  1.1721
 2344SOL     OW18664   0.829   2.012   3.617  0.3673 -0.2041  0.1670
 2344SOL    HW118665   0.829   1.918   3.602  1.1628  0.1103 -1.7786
 2344SOL    HW218666   0.895   2.035   3.552  1.4799  1.6737  1.9585
 2345SOL     OW18667   3.646   3.158   8.881  0.3095 -0.3462  0.0986
 2345SOL    HW118668   3.639   3.242   8.835 -1.3728  0.1518  1.2720
 2345SOL    HW218669   3.717   3.177   8.942 -0.4067 -0.1087  0.8572
 2346SOL     OW18670   3.119   2.839  13.409 -0.1262 -0.2139  0.3342
 2346SOL    HW118671   3.201   2.853  13.361 -0.2651 -0.6051 -0.0171
 2346SOL    HW218672   3.150   2.780  13.478 -1.2569 -0.8908  0.2760
 2347SOL     OW18673   0.111   2.220   4.235 -0.4586  0.6330  0.5625
 2347SOL    HW118674   0.103   2.241   4.328  0.3054 -0.0325  0.7776
 2347SOL    HW218675   0.196   2.175   4.240 -0.8645 -0.3209 -1.0352
 2348SOL     OW18676   2.474   3.630   7.772 -0.1168 -0.2006  0.0159
 2348SOL    HW118677   2.450   3.714   7.811 -0.6031 -0.5103  0.3698
 2348SOL    HW218678   2.459   3.570   7.844 -3.4534  2.6997  1.7066
 2349SOL     OW18679   1.613   3.287   5.059  0.1144 -0.2370 -0.3525
 2349SOL    HW118680   1.677   3.308   4.991 -0.5053  2.9360  0.0378
 2349SOL    HW218681   1.674   3.291   5.132 -0.3381  0.3759 -0.0034
 2350SOL     OW18682   0.184   4.553  11.174 -0.0735 -0.3925 -0.5095
 2350SOL    HW118683   0.261   4.580  11.124  0.1781 -0.3412 -0.0897
 2350SOL    HW218684   0.122   4.624  11.156  0.5964  0.2715 -0.1835
 2351SOL     OW18685   4.292   0.286  11.395 -0.1349  0.6153 -0.5358
 2351SOL    HW118686   4.301   0.348  11.323 -0.2132  2.5453  1.1434
 2351SOL    HW218687   4.294   0.346  11.469  0.4792 -1.9300  1.5275
 2352SOL     OW18688   3.925   0.655   6.232 -0.0820 -0.4792  0.7617
 2352SOL    HW118689   3.913   0.712   6.308  0.9665 -0.3898  0.8593
 2352SOL    HW218690   3.849   0.598   6.246 -0.4165  0.3286  2.3235
 2353SOL     OW18691   2.620   0.672   1.767 -0.4389  0.0703 -0.6107
 2353SOL    HW118692   2.633   0.580   1.788  1.1962  0.8761  1.8943
 2353SOL    HW218693   2.636   0.707   1.855 -0.1254  0.1516 -0.7019
 2354SOL     OW18694   3.302   1.315   2.840 -0.0036 -0.3035  0.0698
 2354SOL    HW118695   3.320   1.393   2.892 -4.6564  1.1359 -0.4702
 2354SOL    HW218696   3.334   1.238   2.887 -0.1969  0.9667  2.2757
 2355SOL     OW18697   2.276   0.014   6.866 -0.3459  0.0586  0.4065
 2355SOL    HW118698   2.348   0.059   6.823 -1.8062  0.8035 -1.2836
 2355SOL    HW218699   2.274   0.043   6.957 -0.1426 -0.6364  0.6354
 2356SOL     OW18700   1.407   0.356   0.581 -0.1169 -0.1430  0.5420
 2356SOL    HW118701   1.405   0.282   0.520 -1.0359  0.3330 -0.0137
 2356SOL    HW218702   1.332   0.339   0.638  1.3338 -0.1706  2.4154
 2357SOL     OW18703   4.497   3.742   5.306  0.8170  0.4688  0.0322
 2357SOL    HW118704   4.477   3.836   5.302 -0.2380  0.3305  2.0888
 2357SOL    HW218705   4.515   3.722   5.215 -0.1364  2.6898 -0.6498
 2358SOL     OW18706   1.320   3.197   4.838 -0.1664  0.4054 -0.3477
 2358SOL    HW118707   1.409   3.163   4.843 -0.8535 -1.0362  2.2914
 2358SOL    HW218708   1.324   3.284   4.877 -1.4145  0.5971 -0.6485
 2359SOL     OW18709   1.996   2.889  11.841  0.2917  0.0840 -0.3391
 2359SOL    HW118710   2.066   2.826  11.825  0.8951  0.4345  0.9289
 2359SOL    HW218711   1.986   2.942  11.762  0.5352 -0.7317 -0.9210
 2360SOL     OW18712   0.651   4.274   4.666 -0.2944  0.0512  0.3261
 2360SOL    HW118713   0.572   4.327   4.668 -0.2552  0.0695  1.2452
 2360SOL    HW218714   0.633   4.193   4.618  1.4346  0.7023 -1.4345
 2361SOL     OW18715   3.651   0.920   7.161 -0.0647  0.0055  0.1038
 2361SOL    HW118716   3.655   0.874   7.077 -1.1636 -0.2213  0.1809
 2361SOL    HW218717   3.725   0.879   7.207 -0.0276  1.3306  1.2352
 2362SOL     OW18718   4.113   4.240   8.017 -0.3223  0.1368  0.0391
 2362SOL    HW118719   4.031   4.204   7.983 -0.0863  1.9756 -2.4481
 2362SOL    HW218720   4.176   4.173   7.989 -0.2736  0.6449 -1.0586
 2363SOL     OW18721   3.213   1.806   7.811  0.0145 -0.4194 -0.4135
 2363SOL    HW118722   3.276   1.739   7.839  1.2610  1.1538  0.5513
 2363SOL    HW218723   3.275   1.878   7.806 -0.7829  0.4564  1.9426
 2364SOL     OW18724   2.521   0.797   9.233 -0.3074  0.3056  0.0612
 2364SOL    HW118725   2.587   0.777   9.167 -1.0886  2.0762 -1.2565
 2364SOL    HW218726   2.499   0.708   9.260  1.1028 -0.5787 -1.7498
 2365SOL     OW18727   4.460   4.540  14.007 -0.1229 -0.3644 -0.4238
 2365SOL    HW118728   4.535   4.529  13.949 -0.8447  2.0998 -1.7871
 2365SOL    HW218729   4.405   4.478  13.958  2.5010 -3.5194  0.6203
 2366SOL     OW18730   4.062   0.234  17.345  0.0573 -0.1494 -0.6411
 2366SOL    HW118731   4.135   0.291  17.321  2.0301 -2.3250  0.2032
 2366SOL    HW218732   3.997   0.295  17.309  0.1308  0.3489  0.0564
 2367SOL     OW18733   4.636   0.269   6.896 -0.4976 -0.0120  0.4815
 2367SOL    HW118734   4.722   0.287   6.932 -0.0750 -0.4789 -0.3020
 2367SOL    HW218735   4.599   0.204   6.956  0.7193  0.8502  2.1486
 2368SOL     OW18736   2.304   0.339   7.650  0.3488 -0.2470 -0.4476
 2368SOL    HW118737   2.360   0.325   7.573 -1.7998 -2.9249 -1.5338
 2368SOL    HW218738   2.251   0.414   7.625  1.7380  0.4673 -1.2889
 2369SOL     OW18739   3.917   3.604   3.718 -0.1644  0.2025 -0.4124
 2369SOL    HW118740   3.927   3.533   3.781 -0.8713 -0.3007 -0.8645
 2369SOL    HW218741   3.828   3.631   3.740  0.0812 -1.4873  2.5919
 2370SOL     OW18742   0.946   3.674   3.723 -0.2309 -0.1311  0.7180
 2370SOL    HW118743   0.868   3.623   3.747 -1.1143  1.0030  0.2596
 2370SOL    HW218744   0.961   3.712   3.810 -1.0980  0.0863  0.7709
 2371SOL     OW18745   3.082   3.257   4.596 -0.3861  0.2984  0.6943
 2371SOL    HW118746   3.069   3.187   4.659  0.4369 -0.3188  0.1780
 2371SOL    HW218747   3.116   3.328   4.650 -0.4919 -0.1818  1.3801
 2372SOL     OW18748   2.143   0.157   3.995  0.2834  0.1133  0.0818
 2372SOL    HW118749   2.123   0.095   4.065 -2.2539  1.5157  0.6051
 2372SOL    HW218750   2.238   0.161   3.998  0.2924 -0.9754  1.0782
 2373SOL     OW18751   0.749   0.617   6.674 -0.6926 -0.8441 -0.2368
 2373SOL    HW118752   0.746   0.618   6.770  2.2438 -0.2156 -0.1504
 2373SOL    HW218753   0.721   0.703   6.643  0.4129 -0.3872  0.0217
 2374SOL     OW18754   4.216   1.279   9.805 -0.5415  0.4935 -0.6380
 2374SOL    HW118755   4.215   1.234   9.721 -0.7802 -1.9490  0.6842
 2374SOL    HW218756   4.304   1.258   9.838 -1.6958 -3.9615 -0.4326
 2375SOL     OW18757   2.800   2.857   3.447 -0.7847  0.1732  0.3176
 2375SOL    HW118758   2.802   2.839   3.541  1.7971  0.8898  0.4201
 2375SOL    HW218759   2.745   2.935   3.439 -1.3316 -0.4050 -1.5425
 2376SOL     OW18760   0.693   0.967  12.614 -0.2071  0.8115 -0.4187
 2376SOL    HW118761   0.722   1.051  12.649  0.0918  0.1002  1.0308
 2376SOL    HW218762   0.604   0.985  12.585 -0.3027  1.2895  0.1730
 2377SOL     OW18763   2.828   3.183   7.018 -0.1558  0.0232 -0.2499
 2377SOL    HW118764   2.797   3.106   6.970  0.7749 -0.4955 -0.0102
 2377SOL    HW218765   2.803   3.256   6.961 -1.3575 -0.9966 -1.0390
 2378SOL     OW18766   4.163   1.345  12.745  0.7421  0.1706  0.8155
 2378SOL    HW118767   4.248   1.377  12.714  0.7848  1.2223  1.9953
 2378SOL    HW218768   4.148   1.412  12.812  2.0884  1.3453 -0.0481
 2379SOL     OW18769   2.835   1.086   3.927  0.3649 -0.0789 -0.0083
 2379SOL    HW118770   2.929   1.086   3.911  0.7440  0.8153  2.1355
 2379SOL    HW218771   2.811   1.029   3.854 -1.2026 -1.3795  1.5270
 2380SOL     OW18772   2.617   4.419   3.775 -0.1861  0.1822 -0.3181
 2380SOL    HW118773   2.557   4.467   3.717  0.9199 -0.4853 -2.0117
 2380SOL    HW218774   2.619   4.338   3.724 -1.1338  0.7630 -1.2864
 2381SOL     OW18775   3.619   3.030   2.325  0.0136 -0.7864  0.2597
 2381SOL    HW118776   3.552   3.072   2.377  0.2872  0.0526 -0.0657
 2381SOL    HW218777   3.698   3.060   2.371  0.4773  0.3897 -1.2683
 2382SOL     OW18778   2.940   1.282  12.147  0.1168 -0.5326 -0.5295
 2382SOL    HW118779   3.011   1.343  12.127 -0.4465 -0.9091 -3.7429
 2382SOL    HW218780   2.922   1.284  12.240 -0.4194  2.1878 -0.7007
 2383SOL     OW18781   1.307   0.903  14.642  0.2842  0.2808  0.0339
 2383SOL    HW118782   1.382   0.960  14.655  1.4648 -1.6290  1.5335
 2383SOL    HW218783   1.259   0.944  14.570 -0.0631  0.7819  0.5468
 2384SOL     OW18784   4.521   1.935  16.524  0.0806 -0.2793  0.4804
 2384SOL    HW118785   4.571   1.986  16.460  1.6554  1.0758  2.7885
 2384SOL    HW218786   4.430   1.963  16.518  0.5647  0.5890 -2.8594
 2385SOL     OW18787   1.794   2.448  15.301  0.1654 -0.8314 -0.6979
 2385SOL    HW118788   1.778   2.435  15.395  0.7432 -0.7142 -0.5871
 2385SOL    HW218789   1.708   2.475  15.269 -0.3348  0.2171  1.4662
 2386SOL     OW18790   1.258   3.405  10.606  0.4366 -0.5032 -0.2364
 2386SOL    HW118791   1.238   3.459  10.529  0.3628  0.7247  0.6440
 2386SOL    HW218792   1.279   3.316  10.579  2.5173 -0.5063  1.4258
 2387SOL     OW18793   0.022   1.008  10.845  0.1798 -0.1845  0.0591
 2387SOL    HW118794   0.114   1.021  10.826 -0.4167  1.6829 -1.4948
 2387SOL    HW218795   0.020   0.961  10.929 -1.4676 -0.4490 -0.1224
 2388SOL     OW18796   3.843   4.638   9.650  0.2813  0.2472  0.3420
 2388SOL    HW118797   3.805   4.569   9.704  0.2514 -0.9380 -1.1919
 2388SOL    HW218798   3.929   4.668   9.682  0.3401  2.9117 -2.3573
 2389SOL     OW18799   2.375   2.752  11.620  0.0716  0.0473 -0.0157
 2389SOL    HW118800   2.422   2.765  11.702  0.3388  0.0124 -0.1618
 2389SOL    HW218801   2.401   2.659  11.618 -0.3662 -0.0834  0.6274
 2390SOL     OW18802   0.837   2.771   4.513 -0.4502 -0.1105 -0.3384
 2390SOL    HW118803   0.846   2.711   4.439 -1.2340  1.8049 -1.9944
 2390SOL    HW218804   0.743   2.788   4.511 -0.6809 -1.1907  1.9341
 2391SOL     OW18805   0.253   1.541   9.608 -0.1879  0.0689 -0.7682
 2391SOL    HW118806   0.306   1.471   9.647 -0.5460  0.3882  0.2887
 2391SOL    HW218807   0.328   1.600   9.604  0.3749 -0.6142 -0.3264
 2392SOL     OW18808   2.574   2.024   2.773 -0.4547 -0.4293  0.1886
 2392SOL    HW118809   2.620   2.045   2.691 -0.5647 -0.2925  0.1617
 2392SOL    HW218810   2.635   2.058   2.838 -2.1941  0.7986  1.1917
 2393SOL     OW18811   1.373   2.487   2.951 -0.2170  0.1175 -0.6103
 2393SOL    HW118812   1.297   2.536   2.983  0.1916  0.8531 -0.7693
 2393SOL    HW218813   1.444   2.548   2.972  1.5202 -2.4046  0.8927
 2394SOL     OW18814   0.295   1.367   2.313  0.4211 -0.6891  0.5191
 2394SOL    HW118815   0.303   1.272   2.314 -0.4830 -0.8066 -3.8321
 2394SOL    HW218816   0.257   1.376   2.401 -3.0706  3.8621 -1.4315
 2395SOL     OW18817   1.165   4.009   4.477 -0.2907  0.3438  0.3421
 2395SOL    HW118818   1.178   3.956   4.555 -0.7538 -0.7911 -0.3436
 2395SOL    HW218819   1.074   3.995   4.450  0.0597  0.9781 -1.2236
 2396SOL     OW18820   2.495   0.025   9.066  0.5129 -0.0689 -0.4083
 2396SOL    HW118821   2.411   0.060   9.098  1.0609  0.6286  0.2686
 2396SOL    HW218822   2.560   0.073   9.118 -0.2514 -0.8203  1.2572
 2397SOL     OW18823   4.086   3.713   6.519  0.1399 -0.3625 -0.2120
 2397SOL    HW118824   4.083   3.658   6.440 -2.0910  0.0142 -0.4028
 2397SOL    HW218825   3.997   3.693   6.549 -0.2320 -0.0154 -1.0880
 2398SOL     OW18826   4.305   1.923   2.377 -0.1047 -0.6128  0.0485
 2398SOL    HW118827   4.341   1.987   2.438  1.7971 -1.8516  0.2149
 2398SOL    HW218828   4.379   1.887   2.328  0.4531  0.0619  0.3936
 2399SOL     OW18829   4.718   4.253  16.717  0.6810 -0.0397  0.5168
 2399SOL    HW118830   4.629   4.288  16.718  0.5961 -0.2698  2.0352
 2399SOL    HW218831   4.698   4.161  16.698 -1.2849  0.1534  1.6059
 2400SOL     OW18832   2.766   0.895   8.820  0.3940 -0.3448  0.4913
 2400SOL    HW118833   2.827   0.831   8.784  1.3921 -0.4205  2.2949
 2400SOL    HW218834   2.739   0.954   8.750 -0.3098 -1.3737 -0.0996
 2401SOL     OW18835   3.196   3.583   9.699 -0.4132  0.2834 -0.3688
 2401SOL    HW118836   3.175   3.560   9.790  0.3382  0.5796 -0.1248
 2401SOL    HW218837   3.115   3.577   9.647  0.9476 -1.1984 -2.3103
 2402SOL     OW18838   2.705   2.475   5.191 -0.5676  0.2747  0.9198
 2402SOL    HW118839   2.704   2.560   5.148  0.4278 -0.4597 -0.5782
 2402SOL    HW218840   2.613   2.464   5.214 -0.5820 -0.6008  0.4717
 2403SOL     OW18841   4.436   1.069   5.585 -0.6677 -0.8346 -0.0727
 2403SOL    HW118842   4.376   1.068   5.511  0.0931 -0.1499 -0.7030
 2403SOL    HW218843   4.497   1.001   5.559  2.2121  1.8980 -0.5047
 2404SOL     OW18844   0.013   1.384   5.113  0.6604 -0.3662  0.0145
 2404SOL    HW118845   0.066   1.460   5.090 -0.0558 -0.2545 -1.1963
 2404SOL    HW218846   0.076   1.345   5.175  0.3277 -1.9672 -0.6529
 2405SOL     OW18847   1.740   1.829   7.218 -0.1185 -0.2921 -0.2630
 2405SOL    HW118848   1.712   1.890   7.151 -2.2581 -1.5229 -0.4892
 2405SOL    HW218849   1.829   1.862   7.223 -0.4844  0.8763 -1.7344
 2406SOL     OW18850   0.033   2.212   1.267  0.2522  0.2924  0.0190
 2406SOL    HW118851   0.020   2.152   1.340 -0.3408  2.0023  1.2970
 2406SOL    HW218852   4.717   2.290   1.287  0.1137  0.7795 -2.2536
 2407SOL     OW18853   3.203   0.322   9.650 -0.5176 -0.0259  0.0957
 2407SOL    HW118854   3.272   0.350   9.590 -1.0250  1.3645  0.1793
 2407SOL    HW218855   3.172   0.409   9.673 -2.2705 -1.6010  3.7535
 2408SOL     OW18856   2.925   1.155   8.680  0.1663  0.0100 -0.7830
 2408SOL    HW118857   2.831   1.139   8.674  0.1896 -0.0917 -0.8770
 2408SOL    HW218858   2.953   1.099   8.608  0.2263 -2.1312  0.9079
 2409SOL     OW18859   4.458   3.808  17.003  0.3946  0.0528 -0.0211
 2409SOL    HW118860   4.411   3.727  16.984  0.2665  0.1917 -0.3011
 2409SOL    HW218861   4.487   3.827  16.913  0.5017  1.7869  0.3731
 2410SOL     OW18862   2.733   0.686  16.008  0.3077 -0.1275 -0.0053
 2410SOL    HW118863   2.741   0.728  15.923 -0.4690 -0.9888 -0.5000
 2410SOL    HW218864   2.672   0.750  16.045 -0.0269  0.8276 -2.2422
 2411SOL     OW18865   4.131   1.656   5.511 -1.0324 -0.3033  0.0160
 2411SOL    HW118866   4.167   1.614   5.589 -0.6268 -0.4658 -0.2554
 2411SOL    HW218867   4.205   1.711   5.489  0.1191 -1.4331  1.1090
 2412SOL     OW18868   3.169   2.475   8.684  0.1453  0.1549 -0.1098
 2412SOL    HW118869   3.131   2.387   8.682 -0.7310  0.5260  0.1270
 2412SOL    HW218870   3.259   2.452   8.707 -0.4300 -1.7412  0.2625
 2413SOL     OW18871   2.090   2.485  13.680  0.0539  0.2238  0.5307
 2413SOL    HW118872   2.161   2.510  13.620  1.4424 -0.6507  1.8083
 2413SOL    HW218873   2.123   2.408  13.727  0.4471 -0.6942 -1.2294
 2414SOL     OW18874   2.015   3.703   8.011  0.0907  0.1986 -0.0810
 2414SOL    HW118875   1.966   3.781   8.037 -0.4841 -0.7056  1.5323
 2414SOL    HW218876   1.991   3.697   7.918  0.4563 -2.1699 -0.0204
 2415SOL     OW18877   3.209   0.842   3.311  0.0641  0.1639 -0.3065
 2415SOL    HW118878   3.218   0.748   3.327 -1.1578 -0.2690 -2.1697
 2415SOL    HW218879   3.199   0.850   3.217 -2.7397  0.2422  0.0185
 2416SOL     OW18880   1.397   0.910   3.264  0.0969 -0.1230 -0.0896
 2416SOL    HW118881   1.488   0.902   3.290  0.0240  0.7747  0.4339
 2416SOL    HW218882   1.361   0.985   3.312 -0.3711  0.3918 -1.2439
 2417SOL     OW18883   4.462   0.157   9.444  0.7484 -0.0594  0.1151
 2417SOL    HW118884   4.468   0.214   9.368  0.9410 -1.0692 -0.6174
 2417SOL    HW218885   4.553   0.170   9.473  1.0944 -1.9579 -0.1442
 2418SOL     OW18886   2.166   3.623   4.690  0.3527 -0.5121 -0.5445
 2418SOL    HW118887   2.152   3.590   4.601 -1.2851 -0.0037 -0.4712
 2418SOL    HW218888   2.247   3.672   4.679  0.7298 -0.9643  0.1789
 2419SOL     OW18889   3.359   4.033   4.841 -0.6167 -0.0221 -0.5851
 2419SOL    HW118890   3.350   4.075   4.927  2.9804 -0.6574  0.0807
 2419SOL    HW218891   3.306   3.954   4.852  2.3774 -1.7601  1.5356
 2420SOL     OW18892   0.239   2.785   1.919  0.2451 -0.0304 -0.3347
 2420SOL    HW118893   0.186   2.841   1.862 -1.2634  0.6485  1.7386
 2420SOL    HW218894   0.245   2.834   2.001 -1.4394 -0.1885 -0.1105
 2421SOL     OW18895   4.225   1.274   3.022 -0.6023 -0.2880  0.0307
 2421SOL    HW118896   4.217   1.249   2.930 -1.6828  1.4422 -0.3486
 2421SOL    HW218897   4.220   1.188   3.063 -2.1629  1.5664  3.7465
 2422SOL     OW18898   4.669   3.964   4.685 -0.2801  0.6420  0.2747
 2422SOL    HW118899   4.623   3.891   4.644  1.0927 -0.3579  0.4963
 2422SOL    HW218900   4.699   4.011   4.607  2.0662 -1.6003 -0.1853
 2423SOL     OW18901   1.558   1.080   6.355  0.1410  0.3626  0.0698
 2423SOL    HW118902   1.503   1.098   6.432 -1.3712 -0.3437 -0.8415
 2423SOL    HW218903   1.639   1.112   6.394 -0.5519  1.7606  0.3334
 2424SOL     OW18904   1.407   0.514   4.319  0.3723  0.0233  0.3822
 2424SOL    HW118905   1.401   0.459   4.241  2.6763 -1.2924  1.1522
 2424SOL    HW218906   1.329   0.567   4.300 -1.0305 -1.5080  1.7984
 2425SOL     OW18907   0.965   3.772   3.974 -0.9703 -0.5338  0.2734
 2425SOL    HW118908   1.000   3.754   4.062 -1.5047 -1.2464  0.3417
 2425SOL    HW218909   0.958   3.868   3.976 -0.6297 -0.5066  0.0966
 2426SOL     OW18910   0.563   2.611   1.471 -0.8229  0.2163  0.2350
 2426SOL    HW118911   0.635   2.666   1.501 -0.7158 -0.7334  1.7229
 2426SOL    HW218912   0.492   2.671   1.450  0.0610  0.9777 -0.6025
 2427SOL     OW18913   3.598   3.747  14.304 -0.1038 -0.2064  0.6986
 2427SOL    HW118914   3.662   3.805  14.345 -0.7241  0.2631  1.0102
 2427SOL    HW218915   3.640   3.664  14.283 -0.4812 -0.0319 -0.7728
 2428SOL     OW18916   0.567   0.091  13.373 -0.5193 -0.0684  0.5478
 2428SOL    HW118917   0.613   0.015  13.337 -1.0013 -1.2480  2.4179
 2428SOL    HW218918   0.645   0.132  13.410 -0.3969 -0.7517  1.0434
 2429SOL     OW18919   2.433   3.349   5.251  0.5020  0.2670 -0.0837
 2429SOL    HW118920   2.497   3.344   5.322  0.8481  0.9854 -0.3357
 2429SOL    HW218921   2.476   3.415   5.195  3.2400  0.0554  1.7421
 2430SOL     OW18922   2.393   4.427   6.118 -0.0711  0.4626  0.3320
 2430SOL    HW118923   2.341   4.351   6.093  1.2063 -0.5318  0.6540
 2430SOL    HW218924   2.482   4.397   6.098 -1.0304 -2.1945  0.0868
 2431SOL     OW18925   0.643   0.247   6.058  0.0394  0.1084 -0.5412
 2431SOL    HW118926   0.617   0.307   6.128 -2.2393 -1.3810 -0.1222
 2431SOL    HW218927   0.630   0.157   6.087 -1.6555  0.7770  0.7618
 2432SOL     OW18928   0.671   2.179   1.434  0.2056 -0.4399  0.3357
 2432SOL    HW118929   0.732   2.128   1.381 -1.5247 -2.0918 -0.0469
 2432SOL    HW218930   0.730   2.197   1.507  1.3936  0.3922 -0.8344
 2433SOL     OW18931   0.767   2.912   4.089  0.6021  0.2265 -0.1490
 2433SOL    HW118932   0.833   2.930   4.156  1.0354 -3.0502  0.3247
 2433SOL    HW218933   0.687   2.943   4.132  0.9292  0.6088  0.1768
 2434SOL     OW18934   2.505   2.106   6.106  0.1953  0.4129  0.5169
 2434SOL    HW118935   2.410   2.107   6.121 -0.4083 -1.7817 -3.1128
 2434SOL    HW218936   2.508   2.189   6.058 -0.4252  0.7020  0.9670
 2435SOL     OW18937   2.058   2.243   0.209 -0.5065 -0.0102  0.1787
 2435SOL    HW118938   1.982   2.213   0.159 -0.5715  0.9444 -0.3046
 2435SOL    HW218939   2.116   2.171   0.184  0.2189  0.0722  1.5995
 2436SOL     OW18940   4.616   2.793  12.694 -0.2122 -0.1894  0.6007
 2436SOL    HW118941   4.693   2.736  12.702 -1.1891 -1.7395 -1.0982
 2436SOL    HW218942   4.654   2.870  12.738  2.2713 -0.3939 -1.1995
 2437SOL     OW18943   2.039   0.150  17.288  0.4694 -0.0470  0.5282
 2437SOL    HW118944   1.987   0.209  17.234 -0.6705 -3.4861 -2.0816
 2437SOL    HW218945   2.106   0.112  17.230 -0.3273 -0.4894 -0.0955
 2438SOL     OW18946   0.519   1.794   1.546 -0.1151 -0.0157 -0.0052
 2438SOL    HW118947   0.487   1.881   1.522 -1.1314 -0.9237 -1.9480
 2438SOL    HW218948   0.485   1.788   1.635 -2.0656 -1.6502 -0.8704
 2439SOL     OW18949   1.482   0.321   2.639  0.2623 -0.3833 -0.0714
 2439SOL    HW118950   1.577   0.327   2.650  0.3149 -0.6594 -0.4013
 2439SOL    HW218951   1.452   0.232   2.626  2.5773 -1.3177  0.9727
 2440SOL     OW18952   3.266   3.814   4.167 -0.7175 -0.6333  0.2016
 2440SOL    HW118953   3.190   3.866   4.195  0.2497 -0.1627  1.9630
 2440SOL    HW218954   3.268   3.840   4.075  2.2862 -2.2632 -0.1724
 2441SOL     OW18955   1.865   4.376  11.830  0.7602 -0.4116 -0.4455
 2441SOL    HW118956   1.916   4.406  11.906 -0.4632  1.4312 -0.3509
 2441SOL    HW218957   1.933   4.386  11.764  0.6256 -0.1235 -0.5417
 2442SOL     OW18958   4.032   3.364  11.083  0.1656 -0.6156 -0.3791
 2442SOL    HW118959   3.996   3.414  11.009  1.0680 -0.7600 -0.9168
 2442SOL    HW218960   4.045   3.420  11.159 -2.9926 -0.0585 -0.2227
 2443SOL     OW18961   3.317   0.478   3.696 -0.6476  0.4715 -0.5178
 2443SOL    HW118962   3.280   0.566   3.686 -0.1614  0.6934 -0.3403
 2443SOL    HW218963   3.342   0.464   3.605 -0.1622  1.5332 -0.5407
 2444SOL     OW18964   3.756   2.335   4.075 -0.7726 -0.0041  0.6031
 2444SOL    HW118965   3.823   2.267   4.076  2.4339  3.1601  0.7273
 2444SOL    HW218966   3.683   2.294   4.122 -0.0639 -1.7600  0.1882
 2445SOL     OW18967   0.512   3.802  14.020 -0.2471  0.6059  0.1523
 2445SOL    HW118968   0.438   3.744  14.037 -1.8274  2.3024 -1.0766
 2445SOL    HW218969   0.570   3.773  13.950 -1.0570  0.9263 -0.6350
 2446SOL     OW18970   0.767   4.476   1.265  0.0863 -0.3955 -0.5939
 2446SOL    HW118971   0.792   4.424   1.341  0.1816  1.8275  0.8866
 2446SOL    HW218972   0.849   4.520   1.242 -0.9664  2.3489  0.8447
 2447SOL     OW18973   1.633   0.969   6.011  0.0280 -0.4006 -0.4036
 2447SOL    HW118974   1.626   0.944   5.919  1.4212 -1.6563 -0.1666
 2447SOL    HW218975   1.588   1.052   5.996 -1.2383 -0.8956  0.6897
 2448SOL     OW18976   2.284   0.471  10.365  0.3039 -0.5700 -0.4129
 2448SOL    HW118977   2.377   0.482  10.346  0.7596 -2.3901  0.7265
 2448SOL    HW218978   2.290   0.432  10.452  0.4567 -0.3420 -0.3227
 2449SOL     OW18979   1.566   3.321   4.274  0.3361  0.3016  0.2069
 2449SOL    HW118980   1.503   3.388   4.245  0.1013  0.4013  0.9373
 2449SOL    HW218981   1.550   3.251   4.212 -3.4636  1.3029  0.0110
 2450SOL     OW18982   2.487   2.662   9.943  0.1729  0.0537  0.6155
 2450SOL    HW118983   2.426   2.618   9.884  0.7064 -1.4391  1.1638
 2450SOL    HW218984   2.567   2.610   9.934  1.8290  2.2765  2.2759
 2451SOL     OW18985   1.282   2.234   7.947  0.2010  0.2045 -0.3429
 2451SOL    HW118986   1.229   2.183   7.886  0.2137  1.8337 -1.7427
 2451SOL    HW218987   1.251   2.180   8.020  1.4004  0.0620  0.0574
 2452SOL     OW18988   2.253   0.971  12.070  0.0590  0.0015  0.0154
 2452SOL    HW118989   2.261   1.047  12.128  1.8305  1.3209 -1.9204
 2452SOL    HW218990   2.340   0.967  12.030  0.6153  1.2840  1.0909
 2453SOL     OW18991   1.616   4.273   6.072 -0.4135 -0.1817 -0.0577
 2453SOL    HW118992   1.578   4.206   6.014  1.1821  0.3826 -1.7897
 2453SOL    HW218993   1.582   4.351   6.029  2.2039  0.9790 -0.0420
 2454SOL     OW18994   4.713   2.352   2.137  0.2453 -0.0959  0.3869
 2454SOL    HW118995   0.072   2.336   2.141  0.0122 -1.1480  1.6423
 2454SOL    HW218996   4.686   2.267   2.104  0.8801  0.2209 -0.9577
 2455SOL     OW18997   0.668   3.747  10.481 -0.4096  0.4801  0.1647
 2455SOL    HW118998   0.713   3.830  10.493  0.0996 -0.0701  2.0252
 2455SOL    HW218999   0.607   3.760  10.554  0.8339  2.3957  0.8395
 2456SOL     OW19000   0.036   1.171   5.466 -0.4092  0.6024 -0.1710
 2456SOL    HW119001   0.120   1.140   5.433 -1.3717 -0.2931 -1.7947
 2456SOL    HW219002   4.720   1.162   5.385  0.6093 -0.4333 -0.7141
 2457SOL     OW19003   4.100   1.740   2.144 -0.3634 -0.5537  0.0934
 2457SOL    HW119004   4.037   1.668   2.139  0.4846 -1.1622 -1.7054
 2457SOL    HW219005   4.178   1.699   2.107  1.7781  1.4077  2.4425
 2458SOL     OW19006   3.573   1.072   5.326 -0.2432  0.2412 -0.2241
 2458SOL    HW119007   3.626   1.121   5.388  1.4554  1.5070 -2.6642
 2458SOL    HW219008   3.524   1.144   5.285 -0.0623  0.1997 -0.5165
 2459SOL     OW19009   3.105   1.662   6.862  0.2163 -0.4962 -0.0430
 2459SOL    HW119010   3.095   1.710   6.780  0.5496 -1.9517 -0.9481
 2459SOL    HW219011   3.163   1.718   6.914  0.6950 -1.9709  1.0185
 2460SOL     OW19012   1.959   4.051   3.561 -0.0040 -0.3959  0.5545
 2460SOL    HW119013   1.963   3.989   3.488  0.7967  1.8786 -1.3028
 2460SOL    HW219014   1.914   3.992   3.623 -0.5823 -1.0993 -0.5228
 2461SOL     OW19015   3.771   4.536   9.413 -0.6613  0.2677 -0.7952
 2461SOL    HW119016   3.794   4.579   9.331 -3.6749  1.3923 -1.0468
 2461SOL    HW219017   3.813   4.589   9.482 -0.7200  2.0218 -2.0982
 2462SOL     OW19018   2.150   0.244   2.557  0.5908  0.2502 -0.0222
 2462SOL    HW119019   2.178   0.330   2.525  0.3462 -0.2908 -1.6701
 2462SOL    HW219020   2.072   0.229   2.504  0.2762  2.1568 -0.0907
 2463SOL     OW19021   1.513   2.917   6.138  0.1334  0.3155 -0.6522
 2463SOL    HW119022   1.536   2.900   6.229 -0.9721  2.1291 -0.0386
 2463SOL    HW219023   1.541   2.835   6.098  1.2484  0.4319 -0.0934
 2464SOL     OW19024   1.257   2.943   5.778 -0.5851  0.0291  0.3640
 2464SOL    HW119025   1.347   2.915   5.764 -0.3769  0.7250  0.3352
 2464SOL    HW219026   1.229   2.867   5.829  0.5486 -0.2174  0.6176
 2465SOL     OW19027   2.488   0.381   4.180  0.2854 -0.1814 -0.4034
 2465SOL    HW119028   2.453   0.470   4.191  2.4139  0.9409 -2.8343
 2465SOL    HW219029   2.493   0.346   4.269 -1.9256  0.9425  0.1878
 2466SOL     OW19030   1.497   1.870   4.891 -0.0651 -0.0434 -0.1534
 2466SOL    HW119031   1.498   1.956   4.934  1.5368  0.6167 -1.5399
 2466SOL    HW219032   1.583   1.839   4.917 -1.6246 -0.7139  4.1786
 2467SOL     OW19033   3.755   3.294   8.183  0.0128 -0.1792  0.1902
 2467SOL    HW119034   3.716   3.315   8.098 -1.5446  1.2134  1.2401
 2467SOL    HW219035   3.847   3.282   8.160  0.2745  0.1072  1.0984
 2468SOL     OW19036   4.074   3.108   5.128  0.0321 -0.0417  0.4127
 2468SOL    HW119037   4.157   3.149   5.154  1.4143 -2.4814 -0.1745
 2468SOL    HW219038   4.118   3.042   5.075 -0.8556 -2.2097  2.3411
 2469SOL     OW19039   2.491   0.402   6.806 -0.2848 -0.3273 -0.3149
 2469SOL    HW119040   2.529   0.341   6.743  1.8245  0.1188  0.5085
 2469SOL    HW219041   2.567   0.446   6.844 -1.5254  0.1605  1.5721
 2470SOL     OW19042   0.171   2.709   8.708 -0.1060  0.0751 -0.3492
 2470SOL    HW119043   0.242   2.664   8.662 -1.2079 -2.0647  0.0705
 2470SOL    HW219044   0.123   2.638   8.750 -0.5012  1.6821  1.9635
 2471SOL     OW19045   1.829   0.975   2.774  0.1988 -0.1972  0.3546
 2471SOL    HW119046   1.833   1.069   2.755  0.3210  0.1865  2.1976
 2471SOL    HW219047   1.765   0.984   2.845  0.9907  0.9457  0.9238
 2472SOL     OW19048   1.340   4.408   0.536  0.1162  0.1320  0.1445
 2472SOL    HW119049   1.415   4.402   0.596  1.3972 -0.7056 -1.5267
 2472SOL    HW219050   1.277   4.354   0.584 -0.5620  1.1630  0.4079
 2473SOL     OW19051   3.321   2.317   9.029  0.1388  0.4096 -0.1530
 2473SOL    HW119052   3.365   2.388   8.982  0.3236  0.1147 -0.4311
 2473SOL    HW219053   3.308   2.336   9.121  2.5639 -0.1884  0.3287
 2474SOL     OW19054   4.029   2.411  13.719  0.2599 -1.1966 -0.8914
 2474SOL    HW119055   4.103   2.448  13.671 -1.2589  2.7382 -0.2514
 2474SOL    HW219056   4.040   2.456  13.802 -0.7097 -0.9141 -0.9075
 2475SOL     OW19057   0.434   1.578   4.920  0.1787  0.7631  0.5969
 2475SOL    HW119058   0.483   1.660   4.934 -0.2548  1.2453 -0.6892
 2475SOL    HW219059   0.436   1.575   4.824 -1.0005 -1.8233  0.6668
 2476SOL     OW19060   4.020   3.397   3.891  0.0415 -0.1108  0.0073
 2476SOL    HW119061   3.977   3.337   3.952 -0.5138  0.5577  0.2740
 2476SOL    HW219062   4.099   3.352   3.861 -0.5523 -1.9673  1.2487
 2477SOL     OW19063   1.336   2.344   8.376 -0.5171  0.8060  0.7328
 2477SOL    HW119064   1.302   2.381   8.457 -0.3682  1.4331  0.5031
 2477SOL    HW219065   1.390   2.275   8.413 -1.6219 -1.3182 -1.5872
 2478SOL     OW19066   0.226   2.212   2.266  0.0413 -0.2909  0.0284
 2478SOL    HW119067   0.283   2.136   2.251  0.7230 -0.0035  1.1170
 2478SOL    HW219068   0.173   2.209   2.346  0.3246 -0.1771  0.2197
 2479SOL     OW19069   1.722   3.367  15.681 -0.2230  0.5338 -0.1524
 2479SOL    HW119070   1.642   3.354  15.629 -1.0024  0.5581  1.0509
 2479SOL    HW219071   1.750   3.451  15.644 -1.3431  0.0729 -2.0991
 2480SOL     OW19072   1.617   0.497  17.041  0.3672  0.3630 -0.0917
 2480SOL    HW119073   1.637   0.505  17.134  0.9831  1.9573 -0.3566
 2480SOL    HW219074   1.559   0.422  17.025  3.6543 -2.0769 -0.4961
 2481SOL     OW19075   1.981   3.022  13.899 -0.6955 -0.9167 -0.4297
 2481SOL    HW119076   1.887   3.035  13.908 -0.6405 -0.1733 -0.9493
 2481SOL    HW219077   2.015   3.110  13.915  0.2296 -0.6774 -3.6958
 2482SOL     OW19078   2.917   4.626  11.534  0.2111  0.1317  0.7674
 2482SOL    HW119079   2.934   4.544  11.487  0.6196 -0.0140  1.1710
 2482SOL    HW219080   3.006   4.660  11.540  0.3313  0.3145 -1.9985
 2483SOL     OW19081   4.503   2.516  16.366  0.2918  0.2090  0.8033
 2483SOL    HW119082   4.483   2.571  16.442  2.8299  2.0080  0.1800
 2483SOL    HW219083   4.504   2.586  16.301 -1.2818 -1.9439 -1.5417
 2484SOL     OW19084   2.608   0.895   7.286  0.4931 -0.7607  0.4623
 2484SOL    HW119085   2.570   0.978   7.255 -1.7072 -2.8274 -2.3732
 2484SOL    HW219086   2.557   0.873   7.364  0.2646  0.5171  0.6846
 2485SOL     OW19087   1.078   3.734  10.241 -0.7245  0.1517  0.0120
 2485SOL    HW119088   1.087   3.802  10.308  1.9208 -0.9389  0.7893
 2485SOL    HW219089   1.113   3.660  10.291  2.0582  0.7489 -1.0287
 2486SOL     OW19090   0.369   2.903   6.005 -0.2208 -0.1762 -0.0883
 2486SOL    HW119091   0.321   2.902   6.087 -0.9292 -0.4046 -0.4995
 2486SOL    HW219092   0.462   2.910   6.026 -0.1901 -2.5184  0.5269
 2487SOL     OW19093   1.539   3.913   9.597  0.2511 -0.0063 -0.2647
 2487SOL    HW119094   1.468   3.975   9.614  1.0426  0.8580 -0.1057
 2487SOL    HW219095   1.479   3.863   9.541  0.4511  0.6089 -1.0412
 2488SOL     OW19096   3.070   3.788  17.320  0.2272 -0.4371  0.3243
 2488SOL    HW119097   3.126   3.847  17.269  0.2600  2.6090  3.9632
 2488SOL    HW219098   3.125   3.730  17.372 -0.5023 -3.0037 -1.7424
 2489SOL     OW19099   3.760   0.885   7.523 -1.2459  0.6907 -0.5702
 2489SOL    HW119100   3.764   0.971   7.481  1.4790  0.8785  0.0291
 2489SOL    HW219101   3.818   0.837   7.463 -0.6726 -1.3309  1.6011
 2490SOL     OW19102   3.678   1.318   3.183 -0.7344  0.4807 -0.8867
 2490SOL    HW119103   3.769   1.348   3.190 -0.6200  0.3392 -1.8207
 2490SOL    HW219104   3.649   1.289   3.270 -1.0254 -0.9789 -1.4823
 2491SOL     OW19105   3.806   0.560  17.420 -0.1748 -0.0560 -0.0574
 2491SOL    HW119106   3.850   0.548  17.504 -1.8754 -2.3725  0.5048
 2491SOL    HW219107   3.761   0.643  17.435 -0.7181 -0.6116  1.3264
 2492SOL     OW19108   2.411   1.914   3.560  0.1631 -0.2821 -0.1445
 2492SOL    HW119109   2.316   1.911   3.574  0.3490 -0.3365  1.0595
 2492SOL    HW219110   2.428   2.008   3.562  1.6260 -0.5913  1.6379
 2493SOL     OW19111   0.378   4.513   5.007  0.7520 -0.2098  0.3921
 2493SOL    HW119112   0.426   4.587   4.970 -0.8526  1.6609  2.0782
 2493SOL    HW219113   0.444   4.444   5.018 -0.4249 -1.6686 -1.9509
 2494SOL     OW19114   0.884   1.705  10.956 -0.3259  0.1066  0.5823
 2494SOL    HW119115   0.964   1.732  11.000  1.3490 -3.6836 -0.1665
 2494SOL    HW219116   0.886   1.767  10.883 -0.3543 -2.3618 -1.5145
 2495SOL     OW19117   3.396   3.798  10.645 -0.1955  0.1662  0.4348
 2495SOL    HW119118   3.414   3.708  10.674  0.1885  0.6411  1.6548
 2495SOL    HW219119   3.330   3.784  10.577  0.4077 -2.6648  0.4387
 2496SOL     OW19120   2.568   3.223   7.693  0.0573  0.1039 -0.3973
 2496SOL    HW119121   2.538   3.308   7.661  1.0117  1.0180  1.1719
 2496SOL    HW219122   2.480   3.188   7.707 -0.0763  0.5857 -0.0646
 2497SOL     OW19123   4.417   4.113   2.039  0.2285  0.0751  0.4635
 2497SOL    HW119124   4.331   4.114   1.997  1.2234  0.3192 -1.5332
 2497SOL    HW219125   4.396   4.177   2.107  0.5263 -1.6816  2.1976
 2498SOL     OW19126   2.045   1.525   2.884 -0.1819 -0.7685  0.2841
 2498SOL    HW119127   2.039   1.535   2.979 -4.0261 -2.1380  0.1856
 2498SOL    HW219128   2.127   1.564   2.856 -1.1078  0.3237 -0.8862
 2499SOL     OW19129   1.543   2.724   3.161 -0.0200 -0.3618 -0.0856
 2499SOL    HW119130   1.572   2.726   3.070 -1.4463 -2.1891 -0.5948
 2499SOL    HW219131   1.539   2.817   3.181 -1.2103 -0.4874  0.2779
 2500SOL     OW19132   3.202   1.020  11.793 -0.0454  0.1957 -0.2313
 2500SOL    HW119133   3.214   0.933  11.832 -0.1696  0.5213  0.5215
 2500SOL    HW219134   3.159   1.004  11.709  1.2253 -0.5797 -0.7377
 2501SOL     OW19135   2.570   1.370   6.706 -0.6428 -0.1835  0.5073
 2501SOL    HW119136   2.629   1.340   6.775  1.0418  1.9732  0.0152
 2501SOL    HW219137   2.635   1.403   6.643 -1.4416  0.6001  0.0860
 2502SOL     OW19138   2.540   2.985   4.463  0.0208  0.0326 -0.4125
 2502SOL    HW119139   2.466   2.951   4.414 -0.3060 -2.2037  1.6617
 2502SOL    HW219140   2.506   3.068   4.495  1.2653  0.2855  0.2697
 2503SOL     OW19141   1.433   0.012   5.325  0.0319 -0.1872  0.2891
 2503SOL    HW119142   1.386   0.020   5.241  2.8075  0.7896 -1.1703
 2503SOL    HW219143   1.516   0.054   5.301 -1.6158  2.5731 -0.5658
 2504SOL     OW19144   3.975   1.872  15.881 -0.4318  0.4367 -0.0323
 2504SOL    HW119145   4.058   1.874  15.834  0.5950  0.0019  1.7544
 2504SOL    HW219146   3.947   1.789  15.843  1.5858 -0.2612  0.0050
 2505SOL     OW19147   0.264   2.151   5.070  0.0657 -0.4403  0.5983
 2505SOL    HW119148   0.208   2.075   5.087 -0.0773 -0.3337  0.6025
 2505SOL    HW219149   0.328   2.127   5.137 -0.3104 -1.6560  0.5246
 2506SOL     OW19150   3.023   2.684   8.700  0.1719  0.7809 -0.0691
 2506SOL    HW119151   2.979   2.668   8.784  1.5359  0.1764  0.5354
 2506SOL    HW219152   3.089   2.615   8.702 -4.1096 -3.3187 -0.5942
 2507SOL     OW19153   2.473   4.008  17.184 -0.4483 -0.6800 -0.5221
 2507SOL    HW119154   2.556   3.987  17.226 -0.8393  1.9774  1.5975
 2507SOL    HW219155   2.467   4.103  17.198  1.5684 -0.8917  1.6668
 2508SOL     OW19156   0.264   0.803  16.808  0.0165 -0.2215 -0.4409
 2508SOL    HW119157   0.222   0.737  16.753  0.1674  1.5690 -2.6874
 2508SOL    HW219158   0.221   0.886  16.789 -2.5529 -1.5298 -0.2883
 2509SOL     OW19159   2.583   0.543  16.309  0.2252  0.1944  0.1190
 2509SOL    HW119160   2.520   0.533  16.380 -2.4964  1.7716 -2.0790
 2509SOL    HW219161   2.650   0.580  16.366  1.1499  2.7276 -2.5838
 2510SOL     OW19162   2.814   4.692  15.397  0.3728  0.2021  0.1101
 2510SOL    HW119163   2.860   4.718  15.317  1.4315  0.8628  0.9275
 2510SOL    HW219164   2.746   0.023  15.399 -0.0386 -0.2554  1.6468
 2511SOL     OW19165   4.206   4.207  16.807 -0.1874 -0.1404 -0.9755
 2511SOL    HW119166   4.230   4.186  16.897 -0.2506 -0.9094 -1.1381
 2511SOL    HW219167   4.161   4.125  16.786  1.2075 -0.9218 -0.9093
 2512SOL     OW19168   0.208   0.445  15.078 -0.8597  0.0200  0.0350
 2512SOL    HW119169   0.268   0.392  15.025  0.2319  1.9352 -0.6638
 2512SOL    HW219170   0.143   0.381  15.107 -1.0992  0.4622  0.4743
 2513SOL     OW19171   1.250   3.412   1.831  0.3707  0.0743  0.6235
 2513SOL    HW119172   1.315   3.429   1.763 -1.0880 -1.5201 -1.2140
 2513SOL    HW219173   1.186   3.479   1.808 -1.0095 -1.6539 -0.6200
 2514SOL     OW19174   0.655   3.711   7.512  0.1102 -0.8101  0.3707
 2514SOL    HW119175   0.620   3.800   7.507  1.8577 -0.1434 -0.1209
 2514SOL    HW219176   0.687   3.705   7.422  2.2174  3.2898  0.8452
 2515SOL     OW19177   3.125   0.974   6.204 -0.1279 -0.1797 -0.8455
 2515SOL    HW119178   3.197   0.974   6.140 -0.3822 -0.3532 -1.1295
 2515SOL    HW219179   3.172   0.959   6.286 -0.3117 -1.7515 -1.0369
 2516SOL     OW19180   1.927   3.514   9.723  0.4894 -0.0348  0.2003
 2516SOL    HW119181   1.981   3.562   9.660  2.1421 -1.6351  0.3948
 2516SOL    HW219182   1.952   3.558   9.804  1.0516 -0.9598  0.5305
 2517SOL     OW19183   3.155   3.767  10.483  0.2116  0.1572 -0.6053
 2517SOL    HW119184   3.128   3.763  10.391  1.8225 -0.2238 -1.0627
 2517SOL    HW219185   3.116   3.848  10.516  1.5809  0.2755  0.7098
 2518SOL     OW19186   2.794   1.126   1.883  0.1013  0.0652  1.2398
 2518SOL    HW119187   2.728   1.182   1.844 -0.3358 -0.6592  0.9412
 2518SOL    HW219188   2.814   1.074   1.805  2.5845  1.9766  0.5863
 2519SOL     OW19189   0.161   3.542   6.427  0.4128 -0.0727 -0.2626
 2519SOL    HW119190   0.163   3.487   6.505 -0.7761  0.5922  0.2318
 2519SOL    HW219191   0.156   3.631   6.464 -0.1791 -0.7587  1.2880
 2520SOL     OW19192   3.225   0.459  13.428  0.2117  0.1528  0.8588
 2520SOL    HW119193   3.195   0.549  13.438  0.8994  0.5871 -1.1076
 2520SOL    HW219194   3.320   0.463  13.423  0.1636 -0.4509 -0.4034
 2521SOL     OW19195   2.423   0.765   7.446  0.2509 -0.1182 -0.3603
 2521SOL    HW119196   2.427   0.684   7.395 -0.6168 -0.0960 -0.4596
 2521SOL    HW219197   2.374   0.732   7.521  1.7781  1.6061  1.3800
 2522SOL     OW19198   0.241   0.970   2.791  0.0551 -0.1235 -0.5049
 2522SOL    HW119199   0.176   0.935   2.852 -1.0281 -1.9885 -2.7487
 2522SOL    HW219200   0.201   0.956   2.706 -0.6703 -0.3022 -0.1370
 2523SOL     OW19201   3.387   0.898   1.720 -0.5709 -0.0729  0.4558
 2523SOL    HW119202   3.474   0.866   1.743 -0.8953 -0.6346  0.8800
 2523SOL    HW219203   3.413   0.987   1.693 -0.3153  0.1624  1.4904
 2524SOL     OW19204   0.034   1.111   6.282 -0.4166  0.3004 -0.2610
 2524SOL    HW119205   0.080   1.052   6.341 -0.5177 -0.2834 -0.7756
 2524SOL    HW219206   4.709   1.139   6.350 -1.8111 -0.1148 -1.3241
 2525SOL     OW19207   1.817   2.143   2.452  0.5887 -0.2595 -0.0058
 2525SOL    HW119208   1.860   2.061   2.475  1.3501 -0.2595 -1.4486
 2525SOL    HW219209   1.791   2.164   2.542  1.6270  0.0451  0.2243
 2526SOL     OW19210   4.115   2.055   5.324 -0.5030 -0.9609  0.5869
 2526SOL    HW119211   4.054   2.086   5.258 -1.1640  0.0634  1.6860
 2526SOL    HW219212   4.176   2.129   5.330 -1.3481 -0.1326 -1.1916
 2527SOL     OW19213   1.260   2.774   5.406 -0.4951  0.0148 -0.4049
 2527SOL    HW119214   1.229   2.864   5.408 -0.6321 -0.0703  1.5077
 2527SOL    HW219215   1.243   2.738   5.493 -1.0111  0.3735 -0.3551
 2528SOL     OW19216   3.438   4.415   0.559  0.3877 -1.0516  0.1114
 2528SOL    HW119217   3.353   4.402   0.603 -1.0747  3.5500 -1.3220
 2528SOL    HW219218   3.432   4.509   0.574 -0.7689 -1.3014  1.2565
 2529SOL     OW19219   1.711   4.382   6.509  0.2804 -0.0679 -0.1572
 2529SOL    HW119220   1.625   4.415   6.484  0.6988  1.4386  0.3832
 2529SOL    HW219221   1.759   4.463   6.525 -0.7981  1.0363 -2.5759
 2530SOL     OW19222   1.083   1.898   1.518  0.1884 -0.0935 -0.0632
 2530SOL    HW119223   1.069   1.992   1.505 -0.4149 -0.0477  0.8600
 2530SOL    HW219224   1.001   1.862   1.553 -0.8395  0.2017 -2.1531
 2531SOL     OW19225   0.461   3.005  15.814 -0.4206 -0.0837 -0.0796
 2531SOL    HW119226   0.381   3.024  15.765 -0.7935 -2.4691 -0.4173
 2531SOL    HW219227   0.531   3.042  15.761  1.0907 -0.5062  1.6280
 2532SOL     OW19228   3.120   1.741   4.977 -0.1014 -0.4146  0.7427
 2532SOL    HW119229   3.034   1.738   5.020 -1.0978 -0.5740 -1.2943
 2532SOL    HW219230   3.159   1.819   5.017 -0.0428  0.3020 -0.7243
 2533SOL     OW19231   1.950   4.049   6.179  0.2623  0.4520  0.1697
 2533SOL    HW119232   2.027   4.101   6.157  0.3444  0.2822  0.0582
 2533SOL    HW219233   1.986   3.987   6.242  0.9316  1.0112  0.3365
 2534SOL     OW19234   0.547   0.783  16.822  0.2424  0.1291 -0.0445
 2534SOL    HW119235   0.457   0.805  16.800 -0.0663 -0.3901  0.7100
 2534SOL    HW219236   0.545   0.687  16.826  0.2245  0.1507  0.4550
 2535SOL     OW19237   1.355   1.431   6.039  0.7402  0.0807 -0.3295
 2535SOL    HW119238   1.311   1.488   5.976  1.6083 -0.2876 -1.2615
 2535SOL    HW219239   1.400   1.500   6.088 -1.5773 -0.4110  2.4779
 2536SOL     OW19240   2.706   3.874   4.779  0.9290 -0.0651 -0.0724
 2536SOL    HW119241   2.726   3.949   4.836  1.2924 -0.2189 -0.0026
 2536SOL    HW219242   2.755   3.801   4.816 -0.3750  0.2883  2.3510
 2537SOL     OW19243   1.409   3.997   4.974  0.1691  0.4791 -0.6892
 2537SOL    HW119244   1.443   3.968   5.058 -2.0940  0.0441  0.0720
 2537SOL    HW219245   1.321   4.010   5.007 -0.7503 -1.3644 -2.4512
 2538SOL     OW19246   0.734   0.947   0.431  0.6712  0.1627 -0.3344
 2538SOL    HW119247   0.692   0.925   0.348  0.2229 -1.3308  0.2830
 2538SOL    HW219248   0.783   1.022   0.397  0.3697 -0.8994 -3.1433
 2539SOL     OW19249   1.227   2.247   1.838  0.0434 -0.2887  0.3204
 2539SOL    HW119250   1.276   2.207   1.766  1.2374 -0.8580  1.4736
 2539SOL    HW219251   1.232   2.342   1.829 -0.0162 -0.1403  1.8923
 2540SOL     OW19252   0.114   1.658   5.759 -0.4033  0.2328  0.0522
 2540SOL    HW119253   0.164   1.680   5.838 -0.7725  2.1149 -0.2520
 2540SOL    HW219254   0.143   1.567   5.753  2.8771  1.2090  0.9627
 2541SOL     OW19255   2.813   1.459   2.121  0.0950  0.2506 -0.5458
 2541SOL    HW119256   2.756   1.503   2.059  1.0549 -0.0767 -1.6596
 2541SOL    HW219257   2.879   1.529   2.124  0.3738 -0.0291 -0.2123
 2542SOL     OW19258   4.034   2.898   4.241  0.2820 -0.3773 -1.1484
 2542SOL    HW119259   4.011   2.931   4.154 -2.4063  0.6446 -0.0499
 2542SOL    HW219260   4.115   2.850   4.222  0.1839  0.0307 -2.5984
 2543SOL     OW19261   0.075   3.795   7.526  0.6520  0.0463  0.2503
 2543SOL    HW119262   0.036   3.737   7.461  0.0223  0.9709 -0.1959
 2543SOL    HW219263   0.106   3.856   7.459 -0.9494  0.5296 -0.0432
 2544SOL     OW19264   2.606   1.263  14.554  0.3110 -0.6638  0.2335
 2544SOL    HW119265   2.693   1.226  14.539  0.3572  0.9498 -3.6437
 2544SOL    HW219266   2.594   1.246  14.647 -0.7292  2.8655  0.7476
 2545SOL     OW19267   1.764   0.812   4.062  0.0974 -0.1482  0.1677
 2545SOL    HW119268   1.786   0.786   4.152 -1.8456  2.0258  1.2746
 2545SOL    HW219269   1.805   0.742   4.011 -0.9904  0.5143 -1.5899
 2546SOL     OW19270   3.657   4.717   3.715 -0.0077 -0.0059  0.2293
 2546SOL    HW119271   3.752   4.714   3.711  0.0092 -0.0371  0.6401
 2546SOL    HW219272   3.638   4.647   3.652 -2.4099 -0.1222  1.0674
 2547SOL     OW19273   1.913   2.716   6.313 -1.1064 -0.2192 -0.0258
 2547SOL    HW119274   1.833   2.748   6.355 -1.9746 -0.5220 -1.4451
 2547SOL    HW219275   1.897   2.744   6.222  1.0708 -0.3483 -0.4541
 2548SOL     OW19276   3.008   1.794   2.415 -0.3560  0.1478  0.3343
 2548SOL    HW119277   3.098   1.762   2.420 -0.7740 -0.8500  1.4996
 2548SOL    HW219278   2.976   1.767   2.502  3.4255  0.4229  1.8178
 2549SOL     OW19279   1.455   4.320   8.149 -0.1506  0.1045 -0.2303
 2549SOL    HW119280   1.493   4.239   8.114  0.0091 -0.5334  1.4444
 2549SOL    HW219281   1.442   4.377   8.073  0.0152  0.4317 -0.0129
 2550SOL     OW19282   4.309   2.459   1.648  0.2259  0.2931 -0.4894
 2550SOL    HW119283   4.250   2.534   1.643  1.3800  1.4106  2.7289
 2550SOL    HW219284   4.270   2.401   1.582 -2.8678  1.5036  0.2731
 2551SOL     OW19285   0.379   3.576   7.683  0.5271  0.3284 -0.2060
 2551SOL    HW119286   0.424   3.507   7.731 -1.0458 -0.3838  0.2617
 2551SOL    HW219287   0.358   3.522   7.607 -0.4120  1.3664 -0.6875
 2552SOL     OW19288   4.294   0.285  10.076  0.0027 -0.2736  0.2576
 2552SOL    HW119289   4.370   0.296  10.019  1.2484  1.1664  2.1852
 2552SOL    HW219290   4.270   0.193  10.080 -1.1774  0.0948  1.6910
 2553SOL     OW19291   3.424   0.267   9.465  0.4448 -0.2879  0.1060
 2553SOL    HW119292   3.510   0.279   9.506  1.1800 -0.3356 -1.4461
 2553SOL    HW219293   3.450   0.276   9.374 -2.7859  1.8345 -0.6058
 2554SOL     OW19294   2.052   3.133   8.089  1.0919 -0.5519  0.3164
 2554SOL    HW119295   1.968   3.135   8.135  1.0334 -1.6683  0.2619
 2554SOL    HW219296   2.112   3.119   8.163 -0.3260  0.0371  1.5905
 2555SOL     OW19297   4.535   1.189  13.398  0.7497  0.0195 -0.1571
 2555SOL    HW119298   4.589   1.126  13.445  0.5142  0.5384  0.8202
 2555SOL    HW219299   4.474   1.138  13.345  1.7136  1.4030 -2.5913
 2556SOL     OW19300   1.126   3.095   7.314 -0.0030  0.1060 -0.3111
 2556SOL    HW119301   1.086   3.175   7.349  1.3807  0.8497 -0.4190
 2556SOL    HW219302   1.105   3.030   7.381 -2.1226 -0.2160 -1.2826
 2557SOL     OW19303   2.936   1.632   4.745 -0.2541 -0.0128  0.2076
 2557SOL    HW119304   2.920   1.724   4.725  1.9342 -0.2171 -2.4564
 2557SOL    HW219305   2.950   1.643   4.839 -2.1509 -2.2781  0.7790
 2558SOL     OW19306   2.159   3.636   3.454  0.2968 -0.3640 -0.0741
 2558SOL    HW119307   2.103   3.659   3.380  0.4589  0.1807 -0.0325
 2558SOL    HW219308   2.234   3.697   3.448 -0.4729  0.4600 -1.3475
 2559SOL     OW19309   2.904   3.134   2.944 -0.2418  0.6778 -0.3612
 2559SOL    HW119310   2.986   3.131   2.992  0.3906  1.3852 -1.4044
 2559SOL    HW219311   2.887   3.040   2.941  0.8608  0.4747 -0.2232
 2560SOL     OW19312   4.040   3.164   6.307  0.2875 -0.4040 -0.4445
 2560SOL    HW119313   3.968   3.130   6.253 -1.2340  0.4216  1.0845
 2560SOL    HW219314   4.109   3.169   6.240 -1.4318 -1.6560 -2.3107
 2561SOL     OW19315   2.798   2.074   6.246 -0.7553  0.0552 -0.2997
 2561SOL    HW119316   2.886   2.056   6.211  0.4038  2.6984  1.2171
 2561SOL    HW219317   2.817   2.092   6.338  1.3071 -3.9568  0.0627
 2562SOL     OW19318   0.392   4.433   4.664  0.1553 -0.2208  0.2116
 2562SOL    HW119319   0.445   4.505   4.699 -0.0526 -0.0203  0.1201
 2562SOL    HW219320   0.304   4.463   4.688 -0.5475 -2.6965  0.6996
 2563SOL     OW19321   3.423   1.068   3.515 -0.1234 -0.1999  0.3417
 2563SOL    HW119322   3.331   1.054   3.490 -0.2619  0.3263  0.5538
 2563SOL    HW219323   3.470   1.036   3.438 -0.1449 -0.1494  0.3081
 2564SOL     OW19324   3.762   3.368   5.360  0.1368 -0.3298  0.2189
 2564SOL    HW119325   3.767   3.293   5.419 -1.0084 -0.1355  0.5737
 2564SOL    HW219326   3.771   3.315   5.281 -0.3670 -0.4404  0.2343
 2565SOL     OW19327   3.002   4.039   7.585 -0.2514 -0.2456 -0.1710
 2565SOL    HW119328   2.952   3.957   7.579 -0.1824 -0.1372 -2.3671
 2565SOL    HW219329   3.083   3.995   7.557 -1.1496 -1.5696 -0.7120
 2566SOL     OW19330   0.876   4.109   5.702 -0.2412 -0.7596 -0.1969
 2566SOL    HW119331   0.807   4.048   5.674  0.3281 -1.2230 -0.5993
 2566SOL    HW219332   0.904   4.080   5.789 -0.7716 -0.9015 -0.0785
 2567SOL     OW19333   3.842   1.163   7.553  0.1784  0.3988 -0.4895
 2567SOL    HW119334   3.928   1.140   7.587 -0.8441  1.1064  2.5698
 2567SOL    HW219335   3.864   1.175   7.461 -1.9690 -0.9056 -1.1875
 2568SOL     OW19336   4.008   0.105  11.361  0.3741  0.2781  0.2576
 2568SOL    HW119337   4.080   0.042  11.358 -1.1852 -1.5157  0.4385
 2568SOL    HW219338   3.970   0.081  11.277 -1.1615  0.1775  0.9870
 2569SOL     OW19339   2.137   0.680   7.294 -0.2324 -0.2586 -0.1018
 2569SOL    HW119340   2.189   0.634   7.360 -1.5892 -0.1223  1.0687
 2569SOL    HW219341   2.048   0.645   7.307 -0.3875  0.2252  0.1438
 2570SOL     OW19342   2.353   0.158  16.608 -0.0173  0.0809  0.7598
 2570SOL    HW119343   2.417   0.229  16.615  0.0496  0.0431  0.5090
 2570SOL    HW219344   2.385   0.108  16.534  0.1814  0.2216  0.7517
 2571SOL     OW19345   2.877   1.626   2.645  0.2817  0.5294 -0.1501
 2571SOL    HW119346   2.959   1.584   2.671 -0.0445  0.4980  0.8143
 2571SOL    HW219347   2.862   1.570   2.569 -0.9010  0.4143  0.1602
 2572SOL     OW19348   0.444   3.519   6.703  0.6223  0.4981 -0.1616
 2572SOL    HW119349   0.443   3.535   6.797 -2.3052 -1.4578  0.1218
 2572SOL    HW219350   0.358   3.478   6.697  1.2150 -0.7166 -0.5855
 2573SOL     OW19351   0.086   2.314   6.199 -0.0726 -0.3679  0.1303
 2573SOL    HW119352   0.045   2.354   6.275  1.9605 -0.9075  1.4983
 2573SOL    HW219353   0.036   2.340   6.121 -0.8016 -0.8924  0.4227
 2574SOL     OW19354   0.067   4.615  10.884 -0.1848 -0.0316  0.1030
 2574SOL    HW119355   0.140   4.677  10.884 -1.3179  1.3140  2.3394
 2574SOL    HW219356   0.083   4.564  10.804 -0.3789 -1.6920  1.1141
 2575SOL     OW19357   0.141   0.314  16.420  0.4091 -0.1790  0.5910
 2575SOL    HW119358   0.119   0.307  16.512 -3.6701 -1.3029 -0.4791
 2575SOL    HW219359   0.235   0.297  16.420  0.5470  0.5459  0.6149
 2576SOL     OW19360   3.215   4.437   6.742  0.1545 -0.3775  0.8863
 2576SOL    HW119361   3.171   4.434   6.827  1.4366 -3.0152  1.4636
 2576SOL    HW219362   3.170   4.373   6.688 -0.6918  3.3948 -2.8664
 2577SOL     OW19363   4.213   3.679   9.362  0.0555 -0.2512  0.9383
 2577SOL    HW119364   4.221   3.683   9.267  1.3919 -1.5959  0.9836
 2577SOL    HW219365   4.307   3.685   9.383  0.6135 -1.1749 -1.2287
 2578SOL     OW19366   0.990   2.641   0.561  0.0852 -0.1397 -0.4156
 2578SOL    HW119367   0.947   2.630   0.646  0.9149 -0.1047  0.0120
 2578SOL    HW219368   0.964   2.564   0.511  0.5207 -0.0014 -0.8637
 2579SOL     OW19369   0.006   1.663   9.693 -0.3935  0.0232  0.2076
 2579SOL    HW119370   0.096   1.637   9.674 -0.5713 -0.7423  0.4263
 2579SOL    HW219371   0.015   1.694   9.784 -0.7428 -0.7802  0.5110
 2580SOL     OW19372   2.904   3.043   6.287 -0.3432 -0.4424  0.0415
 2580SOL    HW119373   2.836   3.100   6.324 -0.7061 -0.5698 -0.4349
 2580SOL    HW219374   2.865   2.956   6.297  1.4928 -1.1123  1.4380
 2581SOL     OW19375   3.801   3.443   5.890 -0.1185 -0.7210  0.6934
 2581SOL    HW119376   3.877   3.386   5.881  0.2941 -0.2630  1.3816
 2581SOL    HW219377   3.847   3.526   5.897  1.4315 -1.5243  0.1663
 2582SOL     OW19378   0.399   3.507   2.606 -0.4854  0.0420  0.3901
 2582SOL    HW119379   0.484   3.539   2.633 -1.2889  1.6713  0.9742
 2582SOL    HW219380   0.421   3.468   2.521  0.8818 -0.0962  0.8197
 2583SOL     OW19381   1.455   3.233   8.365 -0.5305  0.1036  0.2266
 2583SOL    HW119382   1.428   3.271   8.449  0.7090  0.1303  0.6204
 2583SOL    HW219383   1.418   3.291   8.299  1.1002  1.0140  0.1312
 2584SOL     OW19384   1.909   0.448  11.699 -0.1561  0.1814  0.9117
 2584SOL    HW119385   1.967   0.481  11.768 -2.1510  1.7289  1.8634
 2584SOL    HW219386   1.827   0.490  11.726 -0.2814  0.1177  0.6279
 2585SOL     OW19387   4.229   2.880   3.766 -0.6606  0.1998  0.2653
 2585SOL    HW119388   4.136   2.883   3.743 -0.5928 -1.0435 -0.1779
 2585SOL    HW219389   4.270   2.905   3.683  0.3779  1.9124  1.3105
 2586SOL     OW19390   3.791   1.958   2.692  0.0818 -0.2451  0.2194
 2586SOL    HW119391   3.721   2.019   2.716  0.2174  1.2096 -3.1717
 2586SOL    HW219392   3.747   1.873   2.697  1.4344 -0.9593 -0.3361
 2587SOL     OW19393   3.984   4.426   7.540  0.2893  0.0427  0.0550
 2587SOL    HW119394   3.897   4.434   7.500  0.7780 -0.4149 -1.1159
 2587SOL    HW219395   4.043   4.388   7.475 -0.0291 -1.6687  0.7857
 2588SOL     OW19396   3.714   3.963  16.212  0.4976 -0.0111  0.8509
 2588SOL    HW119397   3.676   3.908  16.280 -2.0019 -0.5590 -0.9746
 2588SOL    HW219398   3.799   3.924  16.227 -1.0965 -2.7218  2.7056
 2589SOL     OW19399   4.068   3.407   8.850  0.3014 -0.1153  0.3456
 2589SOL    HW119400   4.139   3.362   8.804  0.5749  0.1166  0.5441
 2589SOL    HW219401   4.049   3.340   8.915  1.3307 -2.4429 -1.7682
 2590SOL     OW19402   0.598   2.625   5.666 -0.1509  0.9849  0.0189
 2590SOL    HW119403   0.615   2.614   5.572 -1.7145  0.7874 -0.2346
 2590SOL    HW219404   0.583   2.719   5.676 -0.8675  0.7771  0.8325
 2591SOL     OW19405   3.782   1.123   0.471  0.4284 -0.1480 -0.2309
 2591SOL    HW119406   3.840   1.168   0.532 -1.5352  1.3591  0.5245
 2591SOL    HW219407   3.709   1.183   0.481 -0.4924 -1.3831  0.4439
 2592SOL     OW19408   4.638   0.398   6.393  0.1937 -0.3126  0.2988
 2592SOL    HW119409   4.646   0.338   6.468 -0.3940  0.0272  0.6303
 2592SOL    HW219410   4.704   0.463   6.420 -0.8387  0.6032  0.6181
 2593SOL     OW19411   0.729   3.265   5.246 -0.3657  0.0867  0.4324
 2593SOL    HW119412   0.778   3.277   5.165 -1.3626 -0.8963 -0.3258
 2593SOL    HW219413   0.773   3.331   5.298  0.6824 -1.7814  1.8837
 2594SOL     OW19414   2.688   2.848   5.607  0.1150 -0.0742  0.7354
 2594SOL    HW119415   2.738   2.843   5.688  1.2119  0.8514  0.1107
 2594SOL    HW219416   2.687   2.941   5.584  1.6870 -0.4518 -0.8208
 2595SOL     OW19417   1.753   2.970  14.718  0.2593 -0.4025  0.4416
 2595SOL    HW119418   1.837   2.924  14.726  0.1937 -0.9970 -2.0555
 2595SOL    HW219419   1.787   3.060  14.715 -0.0570 -0.3710 -2.4589
 2596SOL     OW19420   4.563   3.678   8.916  0.2751  0.5537  0.2465
 2596SOL    HW119421   4.641   3.721   8.952  0.7817  0.6944 -1.0060
 2596SOL    HW219422   4.538   3.748   8.855  2.3300  1.1239  0.0306
 2597SOL     OW19423   1.831   0.617   8.933 -0.0516  0.1738  0.5804
 2597SOL    HW119424   1.800   0.649   9.018  2.7380 -0.9793  2.0238
 2597SOL    HW219425   1.898   0.682   8.913 -0.8495  0.6081 -0.7072
 2598SOL     OW19426   0.131   1.394  10.699 -0.4195  0.2798  0.1693
 2598SOL    HW119427   0.049   1.346  10.689  0.4616 -1.4517  1.1072
 2598SOL    HW219428   0.187   1.318  10.717  0.0441  0.4376 -0.6483
 2599SOL     OW19429   3.102   1.464  17.335  0.0952 -0.3443 -0.0547
 2599SOL    HW119430   3.075   1.536  17.391  0.6931 -0.2169  0.0755
 2599SOL    HW219431   3.018   1.441  17.295 -0.1726 -2.4789  1.6939
 2600SOL     OW19432   2.776   3.438   2.729  0.7306  0.3827 -0.2451
 2600SOL    HW119433   2.745   3.512   2.782 -1.4408  0.1715 -1.2072
 2600SOL    HW219434   2.747   3.362   2.779  0.7030  1.3166  1.1458
 2601SOL     OW19435   2.983   0.166   2.289  0.2269 -0.5152 -0.0223
 2601SOL    HW119436   2.901   0.215   2.276  0.0463 -1.0018 -0.6913
 2601SOL    HW219437   3.034   0.200   2.216  0.8037 -1.9809 -0.2950
 2602SOL     OW19438   0.581   0.550  10.302 -0.2967  0.6865  0.0248
 2602SOL    HW119439   0.555   0.572  10.391 -0.6857  0.6717 -0.0837
 2602SOL    HW219440   0.533   0.470  10.278  0.4332 -0.1702  1.4256
 2603SOL     OW19441   4.365   1.139   8.277 -0.3433 -0.2766 -0.6011
 2603SOL    HW119442   4.427   1.130   8.205 -2.0587 -1.4892 -1.9384
 2603SOL    HW219443   4.410   1.098   8.351 -1.5335 -0.9811 -0.2560
 2604SOL     OW19444   2.815   4.207   0.001  0.1568 -0.1495 -0.0644
 2604SOL    HW119445   2.736   4.170  17.704 -1.5899  1.8419  1.6039
 2604SOL    HW219446   2.883   4.147  17.711  0.2965 -0.0034 -0.0424
 2605SOL     OW19447   1.398   0.467  15.383  0.5705 -0.0252 -0.1338
 2605SOL    HW119448   1.321   0.456  15.438 -0.0941 -1.0375 -1.2676
 2605SOL    HW219449   1.352   0.469  15.299  0.1898 -2.2438  0.0285
 2606SOL     OW19450   2.973   0.492   7.252 -0.0165 -0.0718 -0.5994
 2606SOL    HW119451   3.034   0.554   7.291  0.7730  0.7781 -3.1701
 2606SOL    HW219452   3.041   0.447   7.200 -0.7456 -1.2210 -0.5679
 2607SOL     OW19453   2.440   1.104   8.825  0.0650  0.2105 -0.6004
 2607SOL    HW119454   2.441   1.041   8.753 -1.0968  0.1825 -0.5816
 2607SOL    HW219455   2.452   1.044   8.898 -2.9958  0.1044 -0.1811
 2608SOL     OW19456   2.621   3.684   7.538 -0.7516 -0.0181  0.0202
 2608SOL    HW119457   2.608   3.591   7.556  2.6960 -0.3045  0.9559
 2608SOL    HW219458   2.554   3.729   7.591 -0.1568  0.6389  0.2233
 2609SOL     OW19459   2.851   2.209   3.824  0.2097  0.3008  0.0187
 2609SOL    HW119460   2.919   2.159   3.778  1.8048  0.2725  2.3720
 2609SOL    HW219461   2.840   2.155   3.903  1.7706 -0.6704 -0.4249
 2610SOL     OW19462   1.504   2.252   6.674 -0.3998  0.1152 -0.4951
 2610SOL    HW119463   1.519   2.253   6.769 -0.5409 -0.5452 -0.4647
 2610SOL    HW219464   1.595   2.257   6.643 -0.1730  1.1420  0.3252
 2611SOL     OW19465   0.649   0.368   6.643 -0.3129 -0.1577 -0.2928
 2611SOL    HW119466   0.720   0.304   6.648 -0.6805 -0.5353  0.0726
 2611SOL    HW219467   0.704   0.446   6.638  0.0880 -0.5557 -1.9814
 2612SOL     OW19468   1.173   2.486   8.636  1.1486  0.5216  0.0482
 2612SOL    HW119469   1.144   2.532   8.557 -1.1229  0.0412  0.6181
 2612SOL    HW219470   1.217   2.559   8.678  0.8960 -1.4752  3.7710
 2613SOL     OW19471   0.233   1.649   9.339  0.1038  0.4218  1.0444
 2613SOL    HW119472   0.230   1.597   9.419  0.3022  2.0908  2.1200
 2613SOL    HW219473   0.138   1.658   9.330  0.5721  2.2888 -2.0419
 2614SOL     OW19474   4.372   4.424   6.625 -0.1620  0.1402  0.2000
 2614SOL    HW119475   4.350   4.461   6.540  1.1530 -1.6863 -0.9270
 2614SOL    HW219476   4.385   4.330   6.613  3.7390  0.4879  1.7715
 2615SOL     OW19477   4.210   3.151   3.362  0.2809  0.6768 -0.1961
 2615SOL    HW119478   4.270   3.115   3.426  0.5858 -1.0637 -1.4683
 2615SOL    HW219479   4.175   3.218   3.421  0.2237  1.3729 -1.0105
 2616SOL     OW19480   0.683   3.692   7.251  0.6364 -0.6864 -0.6394
 2616SOL    HW119481   0.678   3.619   7.189 -0.7940 -2.1827  1.2317
 2616SOL    HW219482   0.737   3.760   7.211 -1.3524  0.2156 -1.7784
 2617SOL     OW19483   1.281   0.943   6.371 -0.5525  0.1280  0.4016
 2617SOL    HW119484   1.260   0.912   6.283  2.9280  2.2871 -1.1882
 2617SOL    HW219485   1.287   0.856   6.412 -1.6594 -1.4875 -2.7995
 2618SOL     OW19486   1.615   2.509  12.017  0.0561 -0.0657  0.1517
 2618SOL    HW119487   1.556   2.560  12.072 -1.2795 -1.1075 -0.3017
 2618SOL    HW219488   1.682   2.477  12.077  1.0524  0.3851 -0.7180
 2619SOL     OW19489   4.305   3.595   3.906  0.6227  0.1004 -0.0639
 2619SOL    HW119490   4.217   3.630   3.919  0.6860  0.0428  0.5100
 2619SOL    HW219491   4.364   3.670   3.907 -1.5715  1.8171 -0.1586
 2620SOL     OW19492   4.063   1.324   6.090  0.0102  0.3080  0.0752
 2620SOL    HW119493   4.154   1.331   6.061 -0.3424 -1.4264 -1.4453
 2620SOL    HW219494   4.018   1.334   6.006 -1.0154  0.5034  0.6444
 2621SOL     OW19495   0.670   1.055  11.675 -0.6510 -0.0069  0.0675
 2621SOL    HW119496   0.673   1.061  11.579 -0.6481  3.3042  0.3027
 2621SOL    HW219497   0.646   1.143  11.701 -1.2530  0.7958 -3.2364
 2622SOL     OW19498   3.919   2.455   3.658 -0.5161  0.2753  0.4780
 2622SOL    HW119499   3.835   2.498   3.639 -0.9745 -0.9029 -0.1588
 2622SOL    HW219500   3.915   2.467   3.753  0.7204 -0.5558  0.6268
 2623SOL     OW19501   2.091   1.490   6.182 -0.9192 -0.1601  0.4650
 2623SOL    HW119502   2.085   1.425   6.112 -1.4342  0.8844 -0.4523
 2623SOL    HW219503   2.002   1.476   6.216 -1.5624 -0.7874 -1.5185
 2624SOL     OW19504   2.032   2.431   1.343 -0.2124 -0.0988 -0.6740
 2624SOL    HW119505   2.090   2.360   1.314 -0.5810 -0.8347  0.4043
 2624SOL    HW219506   1.962   2.429   1.278 -1.2147  0.8116  0.3814
 2625SOL     OW19507   2.797   0.633   0.809 -0.2347  0.1099  0.5748
 2625SOL    HW119508   2.860   0.567   0.838 -0.5424  0.4755  2.0634
 2625SOL    HW219509   2.857   0.707   0.818  1.6826 -1.3865  0.1195
 2626SOL     OW19510   3.569   1.060   9.960  0.2145  0.0593 -0.4693
 2626SOL    HW119511   3.588   1.053  10.053 -0.4995 -2.4540 -0.5211
 2626SOL    HW219512   3.650   1.030   9.918  0.1575  0.3297 -0.7741
 2627SOL     OW19513   3.069   4.647   5.974 -0.0857 -0.6419 -0.1928
 2627SOL    HW119514   3.069   0.004   5.953 -1.3564 -0.5497  0.2067
 2627SOL    HW219515   3.108   4.615   5.893 -2.0827 -2.5854 -0.3853
 2628SOL     OW19516   0.939   2.246   8.151  0.0608 -0.3298 -0.0984
 2628SOL    HW119517   0.939   2.230   8.056  2.9353  0.7437 -0.2870
 2628SOL    HW219518   1.014   2.189   8.169  0.9011  0.8560  0.1212
 2629SOL     OW19519   2.292   1.401   2.618  0.4820  0.0604 -0.4502
 2629SOL    HW119520   2.361   1.428   2.557  0.6680  0.0985 -0.2235
 2629SOL    HW219521   2.246   1.333   2.568  1.0532 -0.1784 -0.6568
 2630SOL     OW19522   2.822   1.041   3.032 -0.0036 -0.1126  0.2358
 2630SOL    HW119523   2.842   0.961   3.080 -0.2676 -0.3927 -0.1189
 2630SOL    HW219524   2.867   1.106   3.086 -0.3138  0.6752 -0.4488
 2631SOL     OW19525   3.854   1.002   5.644  0.1310  0.3043 -0.2607
 2631SOL    HW119526   3.907   1.027   5.568 -1.3689 -0.7256 -1.6637
 2631SOL    HW219527   3.903   0.926   5.675  1.0717  0.9941 -0.0884
 2632SOL     OW19528   0.952   4.604   9.616  0.0392  0.3301 -0.2314
 2632SOL    HW119529   0.894   4.568   9.683  0.9277  2.1754  1.5134
 2632SOL    HW219530   0.886   4.658   9.570  0.6785  0.8195 -0.5747
 2633SOL     OW19531   3.962   3.862   9.400 -0.0355 -0.0644  0.6472
 2633SOL    HW119532   4.009   3.942   9.377 -1.3510  1.1815  2.3395
 2633SOL    HW219533   3.972   3.798   9.329  0.6746  0.3770  0.3506
 2634SOL     OW19534   2.691   0.501   1.259  0.4657  0.2519  0.1869
 2634SOL    HW119535   2.608   0.529   1.298 -0.4408 -1.9711 -0.1137
 2634SOL    HW219536   2.716   0.445   1.333  1.4275  0.5305  0.0737
 2635SOL     OW19537   2.353   3.609   8.778 -0.5665  0.0834  0.1162
 2635SOL    HW119538   2.304   3.632   8.857 -1.1793  0.7963 -0.4728
 2635SOL    HW219539   2.443   3.611   8.811 -0.4825  1.2120 -0.1993
 2636SOL     OW19540   4.020   3.121   8.607  0.9113  0.0872 -0.5621
 2636SOL    HW119541   4.025   3.110   8.702 -0.7790  0.8077 -0.3854
 2636SOL    HW219542   3.939   3.171   8.616  1.5644  1.3367 -1.6174
 2637SOL     OW19543   1.962   1.118   5.955  0.2293  0.2132  0.5886
 2637SOL    HW119544   2.008   1.035   5.940 -1.0299 -0.4131  0.1741
 2637SOL    HW219545   1.889   1.088   6.009 -0.2331  1.7200  0.7978
 2638SOL     OW19546   1.701   4.401   9.128  0.3187  1.0177 -0.1620
 2638SOL    HW119547   1.726   4.389   9.220  0.4249 -1.8926 -0.5737
 2638SOL    HW219548   1.768   4.352   9.081 -0.2326 -1.3325  1.4619
 2639SOL     OW19549   0.060   0.681   8.679 -0.3881  0.1045 -0.6619
 2639SOL    HW119550   0.021   0.729   8.606 -2.4816  0.4555  0.7100
 2639SOL    HW219551   0.023   0.720   8.758  0.7373 -0.2363  0.0451
 2640SOL     OW19552   2.377   0.910   9.015 -0.1448 -0.4264  1.0002
 2640SOL    HW119553   2.432   0.868   9.081 -0.8631 -0.9670  1.2615
 2640SOL    HW219554   2.300   0.938   9.065  0.0043 -1.1822  1.6516
 2641SOL     OW19555   4.300   1.813   2.695 -0.7100 -0.1355  0.1802
 2641SOL    HW119556   4.252   1.836   2.615  1.9193  1.1625 -1.0445
 2641SOL    HW219557   4.239   1.769   2.754 -0.0655 -1.5922 -0.2402
 2642SOL     OW19558   0.618   0.669   3.480  0.0594  0.3073 -0.2678
 2642SOL    HW119559   0.542   0.611   3.474  0.1131  0.0805  1.1412
 2642SOL    HW219560   0.582   0.758   3.491  2.8564  1.4234 -0.2392
 2643SOL     OW19561   2.985   2.140   8.437  0.0522 -0.6207  0.2573
 2643SOL    HW119562   2.971   2.234   8.422 -1.5518 -1.2088 -1.8395
 2643SOL    HW219563   3.071   2.145   8.479 -0.3006  0.0916  0.9087
 2644SOL     OW19564   0.395   0.425   6.573  0.1548  0.6128 -0.5572
 2644SOL    HW119565   0.489   0.434   6.590 -0.1136  2.0722  0.1372
 2644SOL    HW219566   0.375   0.401   6.663 -3.2697  0.4724 -1.3867
 2645SOL     OW19567   1.267   2.355   9.104  0.2826  0.2069  0.5185
 2645SOL    HW119568   1.193   2.411   9.126  0.0899  0.5468 -0.9468
 2645SOL    HW219569   1.270   2.271   9.150  1.2736  0.3907  0.7895
 2646SOL     OW19570   0.115   3.272  12.485 -0.9193 -0.0427  0.0914
 2646SOL    HW119571   0.195   3.304  12.526  0.4618 -0.9865 -1.8547
 2646SOL    HW219572   0.094   3.347  12.430  0.1390  1.2346  1.4410
 2647SOL     OW19573   3.063   1.017   8.482  0.3609 -0.4028 -0.2536
 2647SOL    HW119574   3.147   0.988   8.518 -0.4487 -2.1866  0.2069
 2647SOL    HW219575   3.036   0.933   8.445 -1.0317 -0.0066 -0.1155
 2648SOL     OW19576   2.257   1.617   3.276 -0.8935 -0.5962 -0.1979
 2648SOL    HW119577   2.288   1.555   3.210  2.1178  0.2475  0.4335
 2648SOL    HW219578   2.173   1.636   3.235 -1.2378 -1.6622  0.0247
 2649SOL     OW19579   3.947   3.683   5.899 -0.3926 -0.2199  0.1486
 2649SOL    HW119580   3.920   3.762   5.852  3.0147 -0.0251 -1.5185
 2649SOL    HW219581   3.991   3.722   5.975  0.9997 -1.3187 -0.0808
 2650SOL     OW19582   0.487   3.438   5.666 -0.6211  0.1984 -0.0683
 2650SOL    HW119583   0.546   3.410   5.736 -1.0636 -1.7933 -0.5091
 2650SOL    HW219584   0.439   3.362   5.633 -1.5376 -0.6206  3.1273
 2651SOL     OW19585   2.422   0.236   7.392  0.1383  0.6769 -0.1016
 2651SOL    HW119586   2.347   0.180   7.408 -0.9184  1.9718 -0.4539
 2651SOL    HW219587   2.472   0.186   7.327  2.3263 -3.8711  5.1184
 2652SOL     OW19588   4.517   4.246   9.944 -0.3590  0.1716 -0.2637
 2652SOL    HW119589   4.561   4.196   9.875  0.6343 -0.5773  0.9140
 2652SOL    HW219590   4.450   4.178   9.950 -0.8572  0.6119 -0.8134
 2653SOL     OW19591   3.334   1.126  17.266 -0.4530 -0.3624  0.2849
 2653SOL    HW119592   3.325   1.099  17.357 -1.1019 -0.7341  0.1093
 2653SOL    HW219593   3.333   1.221  17.279  0.5709 -0.2803 -0.2235
 2654SOL     OW19594   1.152   3.474   3.801  0.1314 -0.2783 -0.4310
 2654SOL    HW119595   1.078   3.520   3.760 -0.5396 -1.5529 -0.6616
 2654SOL    HW219596   1.088   3.422   3.850 -0.2416  1.7171  1.1727
 2655SOL     OW19597   3.342   4.255   8.164 -0.2205  0.0410 -0.0780
 2655SOL    HW119598   3.381   4.245   8.251  1.0045  2.2041 -0.3768
 2655SOL    HW219599   3.397   4.326   8.129 -2.0141  0.7320 -1.4761
 2656SOL     OW19600   4.258   4.488   2.749 -0.0890  0.3847  0.6691
 2656SOL    HW119601   4.293   4.482   2.660  1.3071  2.3720  1.0993
 2656SOL    HW219602   4.169   4.523   2.739  0.0939  0.4976 -0.6197
 2657SOL     OW19603   2.261   0.476   5.877  0.2412 -0.1909  0.1375
 2657SOL    HW119604   2.330   0.524   5.924  0.7455 -1.1468  0.3663
 2657SOL    HW219605   2.259   0.387   5.913  0.1506  0.3466  1.4862
 2658SOL     OW19606   1.249   1.137  10.961  0.2241  0.1531 -0.0409
 2658SOL    HW119607   1.290   1.053  10.940 -1.0115 -0.9096  1.8103
 2658SOL    HW219608   1.166   1.117  11.005 -0.0259  2.1047  0.3706
 2659SOL     OW19609   1.831   2.188   7.317  0.1776 -0.1901  0.3763
 2659SOL    HW119610   1.852   2.115   7.259 -0.4215  0.6006 -0.8263
 2659SOL    HW219611   1.749   2.215   7.275  0.4748 -0.7263 -0.5269
 2660SOL     OW19612   0.185   0.541   2.562  0.5988 -0.8134 -0.3377
 2660SOL    HW119613   0.109   0.488   2.538 -0.5647 -0.1782  1.9858
 2660SOL    HW219614   0.220   0.554   2.474  0.6825  0.1325 -0.1628
 2661SOL     OW19615   2.135   3.682  10.496  0.2047 -0.2417  0.7135
 2661SOL    HW119616   2.225   3.672  10.526  0.7014 -1.4224 -1.1867
 2661SOL    HW219617   2.110   3.591  10.512  1.2733 -0.6261  0.2301
 2662SOL     OW19618   3.271   2.655   9.184 -0.1603  0.1326  0.0314
 2662SOL    HW119619   3.313   2.708   9.117  0.0404 -1.4410 -1.0980
 2662SOL    HW219620   3.181   2.684   9.167  0.2175  0.9592 -0.5366
 2663SOL     OW19621   3.640   2.452   0.854 -0.0472 -0.0769 -0.1926
 2663SOL    HW119622   3.647   2.518   0.923  1.6054 -0.8663  0.3902
 2663SOL    HW219623   3.672   2.374   0.900 -0.7114 -0.2974 -0.1101
 2664SOL     OW19624   3.957   2.373   6.666 -0.0428 -0.0437 -0.3487
 2664SOL    HW119625   3.904   2.327   6.731  1.4001  0.9740  1.5668
 2664SOL    HW219626   3.957   2.454   6.717 -1.1160 -1.3471  1.6784
 2665SOL     OW19627   2.186   1.810  12.644 -0.3276 -0.4528 -0.1082
 2665SOL    HW119628   2.189   1.742  12.577 -1.0478 -0.9146  0.3338
 2665SOL    HW219629   2.275   1.834  12.671  0.2449  1.1318 -3.3998
 2666SOL     OW19630   2.459   3.863   7.018  0.0832 -0.5081 -0.1817
 2666SOL    HW119631   2.400   3.913   7.075 -0.7514 -2.2158  0.4589
 2666SOL    HW219632   2.495   3.793   7.073  1.5601  1.0161  0.7958
 2667SOL     OW19633   3.172   1.982   1.923 -0.6933 -0.1436  0.4321
 2667SOL    HW119634   3.219   2.065   1.928  0.1582 -0.6160  0.2636
 2667SOL    HW219635   3.080   2.007   1.920 -1.0709 -1.2562  2.6250
 2668SOL     OW19636   2.037   3.713   5.011 -0.3927 -0.1834  0.0609
 2668SOL    HW119637   2.072   3.802   5.006 -1.2761  0.0964 -1.0998
 2668SOL    HW219638   2.101   3.664   5.064  0.4750 -0.6228 -1.3886
 2669SOL     OW19639   0.099   2.036   3.485  0.3285  0.5374 -0.1052
 2669SOL    HW119640   0.171   2.031   3.423  2.3544  1.1581  2.2036
 2669SOL    HW219641   0.087   1.943   3.507  1.0220  0.4990  0.1132
 2670SOL     OW19642   3.231   4.129  16.219 -0.2347  0.4744 -0.2261
 2670SOL    HW119643   3.180   4.077  16.157 -0.3462 -1.0761  1.1761
 2670SOL    HW219644   3.320   4.124  16.185 -0.5020 -1.9956 -0.5431
 2671SOL     OW19645   3.783   0.905   2.741 -0.0016  0.0055 -0.2604
 2671SOL    HW119646   3.760   0.985   2.788 -0.6391  0.9786 -2.2192
 2671SOL    HW219647   3.777   0.938   2.651 -0.9197 -0.5369 -0.3976
 2672SOL     OW19648   2.784   3.255   6.490 -0.6497  0.9892  0.2601
 2672SOL    HW119649   2.758   3.295   6.407  1.9083 -0.9398 -1.4880
 2672SOL    HW219650   2.860   3.309   6.514  0.5670 -0.7708  0.4335
 2673SOL     OW19651   3.989   4.346   0.222  0.4730 -0.1334  0.5334
 2673SOL    HW119652   3.901   4.322   0.195  0.4102  0.5223  0.1609
 2673SOL    HW219653   3.981   4.417   0.286 -0.0872  0.0655  0.2387
 2674SOL     OW19654   4.642   1.890   7.703 -0.1445  0.1303  0.2095
 2674SOL    HW119655   4.726   1.926   7.730 -0.7891  2.8785 -1.4894
 2674SOL    HW219656   4.653   1.798   7.678  0.6113  0.2412  0.1459
 2675SOL     OW19657   2.838   2.361   6.839 -0.3017  0.2451  0.4313
 2675SOL    HW119658   2.902   2.337   6.773 -0.8326  0.9362 -0.3371
 2675SOL    HW219659   2.835   2.457   6.834 -1.1672  0.2834  1.7044
 2676SOL     OW19660   3.097   2.758  17.069 -0.1279 -0.1598 -0.4356
 2676SOL    HW119661   3.013   2.715  17.052 -0.4139  0.0983  0.3781
 2676SOL    HW219662   3.074   2.842  17.031 -2.4344 -0.7075 -0.2219
 2677SOL     OW19663   3.982   0.557   9.444  0.1684 -0.1036 -0.1842
 2677SOL    HW119664   3.952   0.620   9.378  2.2681  2.0892  0.9324
 2677SOL    HW219665   4.057   0.604   9.480  0.2942  0.5160 -1.2417
 2678SOL     OW19666   2.777   3.039   8.322  0.3103  0.6453 -0.5639
 2678SOL    HW119667   2.870   3.043   8.343 -0.0707  0.0487  1.2096
 2678SOL    HW219668   2.770   3.111   8.260 -2.8716 -1.3021 -2.4824
 2679SOL     OW19669   3.576   0.392   3.253 -0.2500  0.5434 -0.3070
 2679SOL    HW119670   3.487   0.406   3.219 -0.6496 -0.6365  0.2589
 2679SOL    HW219671   3.581   0.302   3.219 -0.5979  0.0952  0.8257
 2680SOL     OW19672   0.185   3.702  10.517  0.0213  0.5386  0.0431
 2680SOL    HW119673   0.133   3.777  10.488 -0.4499 -0.6590 -2.1729
 2680SOL    HW219674   0.158   3.712  10.608 -1.2324 -1.4196 -0.1404
 2681SOL     OW19675   3.619   4.084   3.890  0.2838 -0.3325 -0.2407
 2681SOL    HW119676   3.555   4.090   3.819  0.1451  0.7148 -0.0290
 2681SOL    HW219677   3.602   4.155   3.951 -0.3940  0.3410 -1.2106
 2682SOL     OW19678   1.703   2.191   6.106  0.5026 -0.1207 -0.2740
 2682SOL    HW119679   1.725   2.269   6.056 -1.5315 -0.0317 -1.0266
 2682SOL    HW219680   1.790   2.158   6.128  1.0343 -0.4987 -2.9918
 2683SOL     OW19681   0.354   2.325   6.210 -0.0413  0.4823  0.2400
 2683SOL    HW119682   0.374   2.246   6.260  1.4188 -0.1245 -1.3085
 2683SOL    HW219683   0.258   2.321   6.203 -0.1240 -0.2581  1.7846
 2684SOL     OW19684   0.897   0.241   6.620  0.2881 -0.3608  0.1754
 2684SOL    HW119685   0.957   0.316   6.624 -0.9436  0.5442  1.7122
 2684SOL    HW219686   0.909   0.205   6.533 -1.4589 -1.0376  0.2211
 2685SOL     OW19687   3.207   3.122  11.591  0.2753  0.2477  0.5270
 2685SOL    HW119688   3.138   3.140  11.527  0.3427 -0.9955  0.0914
 2685SOL    HW219689   3.285   3.158  11.549 -0.3709  0.5654 -0.4082
 2686SOL     OW19690   4.590   1.912   6.862  0.1374 -0.1913 -1.0675
 2686SOL    HW119691   4.614   1.842   6.801 -0.1444 -1.6358  0.4846
 2686SOL    HW219692   4.655   1.981   6.852  0.0473 -0.2837 -2.3630
 2687SOL     OW19693   2.042   2.364   8.934  0.2822 -0.2344  0.4541
 2687SOL    HW119694   2.021   2.270   8.931 -0.5641 -0.1321  2.4970
 2687SOL    HW219695   1.950   2.390   8.943 -0.1026 -1.5191  0.3406
 2688SOL     OW19696   0.507   2.170   9.828 -0.3313 -0.2449  0.5501
 2688SOL    HW119697   0.595   2.197   9.854 -0.3718  0.7598 -0.3683
 2688SOL    HW219698   0.526   2.077   9.845  0.7455 -0.4854 -1.9409
 2689SOL     OW19699   4.005   3.861   4.692  0.2787  0.2048 -0.0319
 2689SOL    HW119700   4.023   3.830   4.603  0.8672 -0.8302  0.4507
 2689SOL    HW219701   4.072   3.929   4.698 -0.6786  1.0331  1.3197
 2690SOL     OW19702   3.037   0.607   5.608  0.3635  0.2895 -0.6796
 2690SOL    HW119703   3.050   0.614   5.703  1.4668 -1.7360 -0.6989
 2690SOL    HW219704   2.944   0.626   5.594  0.4185  0.2495 -1.0971
 2691SOL     OW19705   2.573   2.541   6.106  0.0126 -0.4447  0.4992
 2691SOL    HW119706   2.598   2.534   6.198 -0.5070 -0.5182  0.6387
 2691SOL    HW219707   2.502   2.605   6.109 -0.3087 -0.7160 -0.9982
 2692SOL     OW19708   3.080   2.632   6.575  0.9658  0.1691 -0.7516
 2692SOL    HW119709   2.991   2.652   6.547  0.4803 -0.1725  0.5447
 2692SOL    HW219710   3.131   2.611   6.496  0.6811  0.0996 -0.9155
 2693SOL     OW19711   0.616   0.166   7.226 -0.4084  0.0546 -0.4476
 2693SOL    HW119712   0.561   0.187   7.151 -2.1716 -2.4228  0.1527
 2693SOL    HW219713   0.700   0.151   7.181 -0.7237 -1.0646 -0.6560
 2694SOL     OW19714   0.449   0.261  15.225  0.1474  0.2067 -0.0597
 2694SOL    HW119715   0.539   0.291  15.235 -0.6673  2.1437  1.2583
 2694SOL    HW219716   0.451   0.169  15.253 -0.8186 -0.0164 -0.7103
 2695SOL     OW19717   0.791   0.341   1.841 -0.7908 -0.0402 -0.5060
 2695SOL    HW119718   0.816   0.427   1.876  0.7809 -0.7255  0.0447
 2695SOL    HW219719   0.729   0.370   1.774 -1.1005  0.3352 -0.0590
 2696SOL     OW19720   4.680   1.724   9.061  0.1181 -0.0824  0.2183
 2696SOL    HW119721   4.708   1.634   9.076  0.5249  0.5384  3.2041
 2696SOL    HW219722   4.629   1.744   9.140 -1.4390 -2.5152 -0.1657
 2697SOL     OW19723   3.010   3.573   9.498 -0.2467  0.5895 -0.6246
 2697SOL    HW119724   2.973   3.489   9.522  1.5604  0.2182  0.8991
 2697SOL    HW219725   3.045   3.562   9.410  2.6425 -0.4091  0.6231
 2698SOL     OW19726   2.356   4.266   8.082  0.0771 -0.7038 -0.3806
 2698SOL    HW119727   2.344   4.217   8.001  0.6302  1.7965 -1.9641
 2698SOL    HW219728   2.267   4.285   8.112  0.6742  1.4085  0.0202
 2699SOL     OW19729   3.585   0.957   9.620 -0.3584  0.6835  0.0511
 2699SOL    HW119730   3.553   0.867   9.616  1.0435  0.2622 -1.9292
 2699SOL    HW219731   3.514   1.012   9.651 -2.0191 -1.3783 -0.0895
 2700SOL     OW19732   3.037   2.124   9.888 -0.0401 -0.2487 -0.1138
 2700SOL    HW119733   3.115   2.168   9.853  0.2285 -1.8987 -1.5999
 2700SOL    HW219734   3.079   2.077   9.960 -0.6615  0.5491  0.7615
 2701SOL     OW19735   4.587   2.217  17.386 -0.1736  0.1958  0.6356
 2701SOL    HW119736   4.585   2.232  17.292  0.3764  0.2667  0.6309
 2701SOL    HW219737   4.645   2.141  17.383 -1.0531 -0.4068 -0.6069
 2702SOL     OW19738   3.923   1.788   6.545  0.4089  0.7002 -0.4827
 2702SOL    HW119739   3.876   1.862   6.507  1.2538  0.9070 -1.1113
 2702SOL    HW219740   3.974   1.753   6.472  0.1179  0.5313 -0.6072
 2703SOL     OW19741   0.517   3.502   8.796  0.3489 -0.4588 -0.5401
 2703SOL    HW119742   0.610   3.482   8.783  0.4645  0.8825 -1.7254
 2703SOL    HW219743   0.488   3.415   8.767  0.4737 -0.0855 -1.7967
 2704SOL     OW19744   3.269   0.360   2.591  1.3781  0.2614 -0.3751
 2704SOL    HW119745   3.203   0.306   2.548  0.0393  1.0292  0.7142
 2704SOL    HW219746   3.320   0.378   2.512  0.3308 -0.1314 -1.1301
 2705SOL     OW19747   4.377   1.611   5.406  0.4618 -0.4932 -0.2711
 2705SOL    HW119748   4.381   1.587   5.498  0.4876 -1.0710 -0.4210
 2705SOL    HW219749   4.438   1.546   5.370  2.3210 -0.0380  2.1057
 2706SOL     OW19750   0.498   3.870   1.714 -0.0296 -0.3327 -0.6006
 2706SOL    HW119751   0.505   3.818   1.635 -1.4026 -0.8780 -0.3579
 2706SOL    HW219752   0.567   3.837   1.772 -0.5135 -1.7164 -0.8288
 2707SOL     OW19753   1.054   2.915   1.119  0.0361  0.2056 -0.6784
 2707SOL    HW119754   1.075   2.925   1.026 -1.4722  0.2997 -1.0142
 2707SOL    HW219755   1.000   2.837   1.112 -0.3532  0.6085 -2.2822
 2708SOL     OW19756   3.891   0.453  10.940  0.3289 -0.1024  0.0641
 2708SOL    HW119757   3.841   0.410  11.010 -0.9195  1.5962  0.2118
 2708SOL    HW219758   3.979   0.423  10.960 -0.4784 -2.0040  0.8228
 2709SOL     OW19759   0.472   4.530   2.472  0.0211  0.3262 -0.1890
 2709SOL    HW119760   0.560   4.537   2.434 -0.0913 -1.2994 -0.7317
 2709SOL    HW219761   0.433   4.596   2.415  0.2671 -0.4003 -1.1948
 2710SOL     OW19762   2.225   2.952   3.316 -0.1802 -0.3447  0.4943
 2710SOL    HW119763   2.210   3.032   3.364  0.3589  1.5207 -2.4093
 2710SOL    HW219764   2.321   2.946   3.318 -0.1367 -0.6662 -1.6125
 2711SOL     OW19765   1.038   0.342   2.275 -0.2642 -0.2122  0.1055
 2711SOL    HW119766   1.092   0.421   2.283 -0.3906 -0.4372  3.1675
 2711SOL    HW219767   1.103   0.288   2.231 -0.3391  1.9139 -2.6344
 2712SOL     OW19768   4.734   1.787   1.540 -0.1731 -0.2820  0.2912
 2712SOL    HW119769   0.011   1.876   1.573 -2.1578  0.4643 -0.9570
 2712SOL    HW219770   4.718   1.738   1.621  2.6854  0.3699  1.2688
 2713SOL     OW19771   0.596   0.559   7.976  0.4336  0.1298  0.0777
 2713SOL    HW119772   0.530   0.620   7.944  1.3614  1.6689  1.0981
 2713SOL    HW219773   0.593   0.495   7.905 -1.0666  0.7585 -0.4393
 2714SOL     OW19774   4.006   1.088   5.453 -0.1898  0.0156 -0.1601
 2714SOL    HW119775   4.101   1.079   5.450 -0.2607 -1.5114  2.5282
 2714SOL    HW219776   4.001   1.183   5.443 -1.6220 -0.0874 -0.3468
 2715SOL     OW19777   4.054   0.201   9.412  0.4236 -0.2806 -0.4658
 2715SOL    HW119778   4.027   0.212   9.504 -0.8402  2.6713 -1.1895
 2715SOL    HW219779   4.027   0.278   9.363 -1.0278 -0.6148 -0.1983
 2716SOL     OW19780   1.748   0.606   4.415 -0.1034  0.2110 -0.7056
 2716SOL    HW119781   1.735   0.578   4.324 -1.9218 -3.8472  0.7784
 2716SOL    HW219782   1.764   0.699   4.404 -0.8797  0.3785 -0.4160
 2717SOL     OW19783   4.078   1.240   8.761  0.2161  0.0802  0.0037
 2717SOL    HW119784   4.126   1.283   8.691  1.9167 -1.4492  0.2473
 2717SOL    HW219785   4.029   1.181   8.703  0.0679 -0.6093  0.8361
 2718SOL     OW19786   0.312   3.058  17.358  0.3020 -0.4190 -0.4308
 2718SOL    HW119787   0.341   3.117  17.288 -0.3166  2.3953  1.7053
 2718SOL    HW219788   0.359   2.979  17.332  0.4568 -0.4124 -0.1663
 2719SOL     OW19789   1.216   0.527   8.455 -0.2078  0.2743  0.4886
 2719SOL    HW119790   1.283   0.590   8.484  1.1481 -0.5739 -0.7902
 2719SOL    HW219791   1.133   0.573   8.461 -0.6145 -0.4552  0.4174
 2720SOL     OW19792   1.885   1.359   5.772  0.4807  0.0613 -0.1659
 2720SOL    HW119793   1.805   1.400   5.806  0.6067  1.9443 -2.1481
 2720SOL    HW219794   1.912   1.297   5.841 -0.4320 -0.4969 -0.2993
 2721SOL     OW19795   1.833   0.140   2.669 -0.1109  0.1277 -0.0831
 2721SOL    HW119796   1.741   0.142   2.695  0.0136  0.0183  0.3639
 2721SOL    HW219797   1.846   0.045   2.667  2.7056  0.5274 -1.0532
 2722SOL     OW19798   0.447   4.539  10.000  0.3357  0.1486 -0.2008
 2722SOL    HW119799   0.466   4.633  10.004 -1.0442  0.4306 -0.4776
 2722SOL    HW219800   0.409   4.534  10.088 -1.2497  0.4270 -0.8761
 2723SOL     OW19801   0.765   1.390   4.523  0.6245 -0.1694  0.3238
 2723SOL    HW119802   0.841   1.383   4.466  0.5627 -3.2693  0.6431
 2723SOL    HW219803   0.726   1.304   4.509 -2.3996  0.9718  1.6825
 2724SOL     OW19804   0.342   3.209   2.975 -0.4116  0.6404  0.0544
 2724SOL    HW119805   0.370   3.139   2.916  0.6655  0.2529  1.0285
 2724SOL    HW219806   0.247   3.199   2.970 -0.4014 -0.7194  2.4002
 2725SOL     OW19807   0.109   0.282   1.168 -0.0409 -0.2904  0.1571
 2725SOL    HW119808   0.199   0.282   1.135 -1.3451  0.6211 -3.3561
 2725SOL    HW219809   0.127   0.278   1.262 -0.0563 -1.0734  0.1261
 2726SOL     OW19810   2.738   1.529   6.530  0.5411 -0.7772  0.2448
 2726SOL    HW119811   2.760   1.612   6.487 -0.9964 -0.8822 -0.7445
 2726SOL    HW219812   2.724   1.477   6.452  1.2933 -0.6684  0.0362
 2727SOL     OW19813   2.384   2.596   3.912  0.3902  0.1973  0.2034
 2727SOL    HW119814   2.387   2.530   3.982  1.0085 -0.1071 -0.1125
 2727SOL    HW219815   2.304   2.565   3.871  1.1671 -1.4780 -0.0740
 2728SOL     OW19816   1.701   2.358   8.093 -0.6545 -0.0089  0.4063
 2728SOL    HW119817   1.636   2.415   8.134 -0.6918 -0.2686  0.7109
 2728SOL    HW219818   1.776   2.418   8.102 -0.6245 -0.1090  0.8499
 2729SOL     OW19819   1.846   1.857   4.526 -0.3808 -0.1945 -0.0177
 2729SOL    HW119820   1.875   1.806   4.451  2.9319  3.6670 -1.3667
 2729SOL    HW219821   1.776   1.806   4.567 -0.9421  0.2812 -0.3705
 2730SOL     OW19822   3.840   3.668   8.918 -0.1502  0.5464  0.1110
 2730SOL    HW119823   3.914   3.705   8.870  0.5986  0.1053  0.9222
 2730SOL    HW219824   3.784   3.644   8.844 -1.2756 -1.3084  1.5683
 2731SOL     OW19825   3.748   1.140   6.523 -0.1585  1.2755  0.7981
 2731SOL    HW119826   3.751   1.217   6.579  1.8742  0.9298  1.1575
 2731SOL    HW219827   3.680   1.092   6.568 -1.9845  0.8609 -2.3673
 2732SOL     OW19828   4.582   2.375   1.586 -0.4119 -0.6660 -0.3611
 2732SOL    HW119829   4.510   2.426   1.623 -1.2307 -2.7271  0.8319
 2732SOL    HW219830   4.546   2.287   1.592  0.6469 -1.2154 -1.9359
 2733SOL     OW19831   3.035   4.463   3.234  0.3345  0.7569 -0.2058
 2733SOL    HW119832   2.984   4.452   3.314  0.1089  2.5386 -0.0892
 2733SOL    HW219833   3.023   4.376   3.198 -0.6750  0.3708  1.0595
 2734SOL     OW19834   4.195   4.186  12.717  0.6440 -0.0353  0.1830
 2734SOL    HW119835   4.255   4.236  12.662 -3.5959  2.8622 -1.7564
 2734SOL    HW219836   4.172   4.119  12.654 -2.1964  1.8289 -0.7565
 2735SOL     OW19837   1.811   2.711   0.001 -0.1369 -0.6351  0.2490
 2735SOL    HW119838   1.826   2.674   0.088  0.3658 -2.0548 -0.4378
 2735SOL    HW219839   1.832   2.805  17.739  0.2566 -0.7244  0.2028
 2736SOL     OW19840   2.669   4.432   6.139  0.1121 -0.1546  0.6406
 2736SOL    HW119841   2.760   4.418   6.113 -0.4262 -1.2073 -0.7083
 2736SOL    HW219842   2.671   4.522   6.104  0.1359 -0.7023 -0.7633
 2737SOL     OW19843   2.493   1.183   0.142 -0.8305 -0.8654  0.9289
 2737SOL    HW119844   2.458   1.267   0.112 -1.9322 -1.6972 -0.1027
 2737SOL    HW219845   2.476   1.134   0.062 -0.4092 -3.3247  2.3299
 2738SOL     OW19846   3.755   1.990   7.366 -0.5215 -0.6092  0.6666
 2738SOL    HW119847   3.794   1.937   7.435  1.0389 -2.6190 -1.7389
 2738SOL    HW219848   3.789   1.940   7.291 -0.2773  0.1642  0.2541
 2739SOL     OW19849   3.846   2.533   3.920 -0.0980  0.7784 -0.1691
 2739SOL    HW119850   3.783   2.604   3.928  0.1879  0.9939  0.1743
 2739SOL    HW219851   3.795   2.460   3.957  0.1019  0.2763 -0.8768
 2740SOL     OW19852   3.029   0.764   1.510  0.3860 -0.3769  0.0646
 2740SOL    HW119853   3.017   0.859   1.505 -1.9993 -0.7148 -0.4352
 2740SOL    HW219854   3.121   0.748   1.489  1.0249  1.4167  1.4560
 2741SOL     OW19855   3.487   1.777   3.498  0.8985 -0.6580  0.2944
 2741SOL    HW119856   3.523   1.695   3.465  0.2370 -0.7709 -0.1617
 2741SOL    HW219857   3.544   1.795   3.572 -1.5824  2.3340  1.4612
 2742SOL     OW19858   0.336   3.498   3.051 -0.2744 -0.0732  0.2278
 2742SOL    HW119859   0.308   3.411   3.023 -2.4826  0.8985 -0.5968
 2742SOL    HW219860   0.410   3.473   3.106  0.0387  0.4385  0.0391
 2743SOL     OW19861   3.901   0.888   5.290 -0.1238 -0.3443  0.1943
 2743SOL    HW119862   3.895   0.817   5.354 -1.5510  0.9215  1.4465
 2743SOL    HW219863   3.960   0.944   5.339  3.5364 -2.6109 -1.5605
 2744SOL     OW19864   3.625   4.489   8.573  0.3795  0.1746  0.0461
 2744SOL    HW119865   3.714   4.455   8.566  0.1218 -0.4105 -0.4288
 2744SOL    HW219866   3.607   4.522   8.485 -0.8771 -0.2365  0.1411
 2745SOL     OW19867   3.713   1.566   5.269  0.2944 -0.3428 -0.1290
 2745SOL    HW119868   3.808   1.555   5.267  0.1955 -0.9400 -1.9046
 2745SOL    HW219869   3.703   1.652   5.309  0.2553  1.2374 -3.5247
 2746SOL     OW19870   2.349   3.540   1.825 -0.0651 -0.2540  0.4541
 2746SOL    HW119871   2.297   3.613   1.789  0.0264  0.4499  1.7720
 2746SOL    HW219872   2.432   3.557   1.781 -0.3847 -0.2351 -0.1461
 2747SOL     OW19873   4.284   3.102   0.180  0.5667  0.4538 -0.3228
 2747SOL    HW119874   4.263   3.147   0.261  0.6600  0.4288 -0.2850
 2747SOL    HW219875   4.251   3.016   0.204  0.0984  1.0537  1.1463
 2748SOL     OW19876   1.352   0.325   8.114 -0.7883 -0.1708 -0.1021
 2748SOL    HW119877   1.344   0.252   8.054 -0.4696 -0.6929  0.4872
 2748SOL    HW219878   1.268   0.324   8.160 -0.8388  0.1960 -0.1818
 2749SOL     OW19879   4.258   0.726   3.164 -0.2651 -0.5151  0.4322
 2749SOL    HW119880   4.250   0.810   3.208  0.5669  0.0382 -0.4786
 2749SOL    HW219881   4.340   0.685   3.192 -0.3999 -0.3633  1.0434
 2750SOL     OW19882   2.989   3.295   2.100 -0.3765 -0.1007  0.2098
 2750SOL    HW119883   3.011   3.288   2.007  2.4114 -0.7218  0.8988
 2750SOL    HW219884   2.949   3.382   2.106 -2.1477 -0.8558 -0.7955
 2751SOL     OW19885   0.591   3.634  12.283  0.2026 -0.0845 -0.0475
 2751SOL    HW119886   0.583   3.587  12.365  0.6065 -0.8372 -0.4461
 2751SOL    HW219887   0.667   3.585  12.252 -2.2815 -3.7482 -0.2449
 2752SOL     OW19888   4.068   1.164   1.819 -0.1871 -1.0571 -0.3740
 2752SOL    HW119889   4.163   1.153   1.829 -0.4564 -1.5673  1.5075
 2752SOL    HW219890   4.035   1.075   1.831  1.2575 -1.5607 -0.1562
 2753SOL     OW19891   0.261   2.064  10.194  0.1771  0.7884  0.0180
 2753SOL    HW119892   0.266   1.969  10.198  0.0031  0.7421 -0.8339
 2753SOL    HW219893   0.243   2.090  10.104  0.9793  2.6702  0.3835
 2754SOL     OW19894   1.008   0.771   3.120 -0.5946 -0.5936 -0.5008
 2754SOL    HW119895   1.036   0.688   3.082 -1.0406  0.0944 -2.3520
 2754SOL    HW219896   1.075   0.825   3.078 -1.8322  1.9495  0.7777
 2755SOL     OW19897   4.278   3.399  11.476  0.3099 -0.4479  0.4019
 2755SOL    HW119898   4.328   3.471  11.438  1.7684 -0.4716  2.2401
 2755SOL    HW219899   4.340   3.327  11.461 -0.0677 -1.0252  1.6083
 2756SOL     OW19900   0.047   1.354  16.903 -0.1970  0.0277  0.6319
 2756SOL    HW119901   0.041   1.294  16.829  0.5436  0.1605  0.4721
 2756SOL    HW219902   4.721   1.418  16.868 -0.0989  0.0335  0.4744
 2757SOL     OW19903   2.382   0.398  10.607 -0.4520  0.1754  0.4249
 2757SOL    HW119904   2.332   0.409  10.687 -0.7623  3.3942 -0.2095
 2757SOL    HW219905   2.409   0.307  10.612  2.1487  1.0210  1.7109
 2758SOL     OW19906   1.900   4.419   6.283 -0.4981 -0.6139 -0.1707
 2758SOL    HW119907   1.946   4.469   6.350 -0.2733 -1.9518  0.6817
 2758SOL    HW219908   1.811   4.413   6.316 -0.6418 -0.3881 -0.5267
 2759SOL     OW19909   3.543   3.559   1.104  0.3427  0.7172 -0.3328
 2759SOL    HW119910   3.612   3.609   1.146  0.6464 -0.5357  0.6646
 2759SOL    HW219911   3.564   3.568   1.011 -2.2110 -1.1819 -1.1181
 2760SOL     OW19912   4.067   0.567   4.189  0.5276 -0.1494  0.2676
 2760SOL    HW119913   4.062   0.650   4.143 -1.0741  0.3926  1.4133
 2760SOL    HW219914   4.130   0.529   4.129  0.9054 -0.1048  0.6345
 2761SOL     OW19915   4.690   3.957   1.285  0.1403 -0.4120 -0.5878
 2761SOL    HW119916   4.711   3.927   1.197  0.6183 -0.1129 -0.5793
 2761SOL    HW219917   0.043   3.986   1.309 -0.0079 -0.5932  0.1724
 2762SOL     OW19918   1.336   2.453  17.132  0.7072 -0.6155  0.0243
 2762SOL    HW119919   1.298   2.409  17.208 -1.8565  0.5287 -0.5777
 2762SOL    HW219920   1.345   2.545  17.158 -1.6424 -0.3479 -0.0492
 2763SOL     OW19921   0.403   4.173  11.728  0.5620 -0.6917  0.3416
 2763SOL    HW119922   0.471   4.224  11.773  1.6287 -1.0970 -0.8162
 2763SOL    HW219923   0.445   4.087  11.731  2.2802  0.2062  2.6092
 2764SOL     OW19924   0.147   1.589   4.570  0.2453  0.4325 -0.0387
 2764SOL    HW119925   0.091   1.605   4.494  0.9991  1.2539 -0.4312
 2764SOL    HW219926   0.079   1.571   4.635 -0.0106 -2.0771 -1.0071
 2765SOL     OW19927   3.690   2.437   1.864  0.1785 -0.0631  0.3947
 2765SOL    HW119928   3.765   2.495   1.869 -0.6326  1.1212 -1.3640
 2765SOL    HW219929   3.640   2.463   1.942  0.8945 -0.3730  0.9571
 2766SOL     OW19930   4.506   0.672   1.873  0.2872 -0.0807  0.9696
 2766SOL    HW119931   4.581   0.613   1.877  0.7843  0.4100 -0.9381
 2766SOL    HW219932   4.428   0.617   1.873  0.3516 -0.1761 -0.5320
 2767SOL     OW19933   0.995   0.410  11.157 -0.2585 -0.2345 -0.3368
 2767SOL    HW119934   0.997   0.385  11.249 -0.3876 -0.7781 -0.4826
 2767SOL    HW219935   0.981   0.324  11.118  0.9061 -0.6513  0.1745
 2768SOL     OW19936   2.525   0.317   8.690 -0.0587 -0.5037 -0.8209
 2768SOL    HW119937   2.543   0.360   8.606  0.1188 -1.5899 -1.3354
 2768SOL    HW219938   2.618   0.307   8.714  0.1126 -0.6764 -1.5508
 2769SOL     OW19939   2.495   4.684   6.636 -0.0106 -0.0008  0.1625
 2769SOL    HW119940   2.521   4.618   6.571 -3.4167  0.2034 -1.3956
 2769SOL    HW219941   2.509   4.634   6.717  2.3906 -0.5652 -0.5901
 2770SOL     OW19942   3.350   0.344   3.431 -0.1529 -0.2106  0.2429
 2770SOL    HW119943   3.316   0.256   3.412  0.2641 -0.5820  1.2494
 2770SOL    HW219944   3.437   0.317   3.460  0.2946 -1.6040 -2.3185
 2771SOL     OW19945   1.383   2.059   6.557 -0.4615  0.2678 -0.8006
 2771SOL    HW119946   1.433   2.129   6.600 -1.0146 -1.8284  3.1773
 2771SOL    HW219947   1.334   2.024   6.631 -2.0609  2.9796 -0.5580
 2772SOL     OW19948   2.837   2.205   7.061  0.4580 -0.2976  0.1540
 2772SOL    HW119949   2.748   2.181   7.036  1.2948 -2.5545 -0.7114
 2772SOL    HW219950   2.861   2.268   6.993 -0.7962 -0.5627 -0.5303
 2773SOL     OW19951   4.179   3.552  12.948  0.1013 -0.4699  0.0613
 2773SOL    HW119952   4.114   3.582  12.884 -2.4395 -3.4529  1.2320
 2773SOL    HW219953   4.257   3.558  12.893  0.5061 -3.6104  0.3010
 2774SOL     OW19954   0.223   2.297   5.888 -0.2094 -0.5442 -0.0253
 2774SOL    HW119955   0.284   2.245   5.836  1.5768 -1.1434  2.6936
 2774SOL    HW219956   0.265   2.306   5.974 -0.7967  1.3813  0.0669
 2775SOL     OW19957   1.359   4.645  17.337 -0.2959 -0.0015  0.0962
 2775SOL    HW119958   1.393   4.734  17.325  0.5405 -0.2560  0.5710
 2775SOL    HW219959   1.265   4.661  17.345 -0.0139  1.7813 -0.0215
 2776SOL     OW19960   1.298   1.508   2.281 -0.0051  0.0316 -0.1437
 2776SOL    HW119961   1.330   1.446   2.216 -1.9041  0.2515 -1.2938
 2776SOL    HW219962   1.323   1.458   2.359  1.7538  1.7090  0.3696
 2777SOL     OW19963   1.780   1.494  11.403 -0.3382  0.0070 -0.5775
 2777SOL    HW119964   1.769   1.560  11.335  0.4691 -0.0999 -0.8163
 2777SOL    HW219965   1.710   1.431  11.389 -0.7398 -0.2729  2.6042
 2778SOL     OW19966   0.409   2.685  16.921  0.1306 -0.3120  0.2604
 2778SOL    HW119967   0.447   2.618  16.864 -1.4804 -0.8114 -0.2320
 2778SOL    HW219968   0.459   2.668  17.001 -0.3751  2.9658  1.2752
 2779SOL     OW19969   1.879   0.866   2.108  0.4634  0.4931 -0.2034
 2779SOL    HW119970   1.920   0.830   2.029  1.9649 -1.8096  1.6436
 2779SOL    HW219971   1.831   0.788   2.136  2.8719 -0.6124  0.8426
 2780SOL     OW19972   3.399   2.202   1.984  0.4155  0.0108  0.0628
 2780SOL    HW119973   3.486   2.164   1.981 -0.0018 -0.7635 -3.1040
 2780SOL    HW219974   3.407   2.281   2.038 -0.5948 -0.0484  0.3020
 2781SOL     OW19975   4.381   2.154   8.903 -0.4077 -0.1346 -1.3741
 2781SOL    HW119976   4.408   2.231   8.953  0.6831 -0.8280 -0.9000
 2781SOL    HW219977   4.446   2.147   8.834 -1.1414 -0.9482 -1.9776
 2782SOL     OW19978   2.060   1.918  16.220  0.9077  0.1804 -0.2835
 2782SOL    HW119979   2.108   1.859  16.161 -0.7186 -3.0102  1.6170
 2782SOL    HW219980   1.997   1.953  16.157  3.6327  2.1663 -1.9368
 2783SOL     OW19981   0.940   0.578   1.983 -0.0802  0.4767  0.4938
 2783SOL    HW119982   1.029   0.612   1.988  0.9427 -1.9878 -0.8304
 2783SOL    HW219983   0.923   0.548   2.073  0.0798 -1.4111 -0.0992
 2784SOL     OW19984   0.140   1.052  16.851  0.2265  0.2361 -0.0346
 2784SOL    HW119985   0.087   1.062  16.930  0.0510  3.2511 -0.5184
 2784SOL    HW219986   0.086   1.103  16.790 -1.0519 -2.2566 -0.9868
 2785SOL     OW19987   1.350   3.267   7.840 -0.3105  0.2373  0.2343
 2785SOL    HW119988   1.398   3.325   7.899 -0.6855  0.4735  0.3085
 2785SOL    HW219989   1.351   3.184   7.888 -0.0386 -0.5700 -1.1862
 2786SOL     OW19990   1.977   2.329  10.118 -0.3477 -0.3202 -0.2525
 2786SOL    HW119991   1.973   2.424  10.133  0.9596 -0.6256  1.9955
 2786SOL    HW219992   1.888   2.297  10.133  0.4396 -1.9627  0.8403
 2787SOL     OW19993   0.384   1.486   1.564 -0.1551  0.2889  0.8602
 2787SOL    HW119994   0.358   1.511   1.653 -1.4697 -1.5123  0.9753
 2787SOL    HW219995   0.412   1.574   1.537 -2.3334  1.0659  1.1220
 2788SOL     OW19996   1.544   3.895  12.890  0.0063  0.6507  0.7141
 2788SOL    HW119997   1.631   3.859  12.908  0.0332  0.2873 -0.1022
 2788SOL    HW219998   1.538   3.972  12.946 -1.9112 -1.6445  3.6578
 2789SOL     OW19999   0.212   3.569   9.194  0.1318 -0.2036 -0.1095
 2789SOL    HW120000   0.178   3.587   9.281 -1.4180  2.2767 -1.2065
 2789SOL    HW220001   0.304   3.548   9.210  0.0487  0.7122  1.5135
 2790SOL     OW20002   3.546   2.649   4.922 -0.0284  0.2040  0.2136
 2790SOL    HW120003   3.601   2.680   4.850  0.6711 -2.1731 -0.2686
 2790SOL    HW220004   3.587   2.689   4.999  3.1474 -0.0938 -1.3152
 2791SOL     OW20005   0.529   1.107   7.520 -0.5855 -0.0434  0.0831
 2791SOL    HW120006   0.588   1.160   7.574  1.0751 -0.8690 -0.9423
 2791SOL    HW220007   0.458   1.172   7.523  0.4433  1.1441 -1.4648
 2792SOL     OW20008   3.974   0.712   3.248 -0.2605  0.2749  0.1350
 2792SOL    HW120009   4.063   0.708   3.212  0.7210 -0.3531  2.5782
 2792SOL    HW220010   3.958   0.639   3.308 -0.2812  0.2185  0.0611
 2793SOL     OW20011   3.529   3.532   7.279  0.0903  0.1327  0.8200
 2793SOL    HW120012   3.455   3.483   7.244  1.3217 -0.7797 -0.5099
 2793SOL    HW220013   3.586   3.458   7.299 -0.9105 -0.9900 -0.4847
 2794SOL     OW20014   0.613   1.112   7.940 -0.2514  0.2317 -0.3481
 2794SOL    HW120015   0.673   1.066   7.881 -1.7412  1.0271 -2.4832
 2794SOL    HW220016   0.560   1.033   7.954 -1.1216  1.1027  1.3351
 2795SOL     OW20017   1.449   3.022   7.272 -0.0672  0.0559 -0.1389
 2795SOL    HW120018   1.495   2.968   7.208  0.2090  0.3760 -0.2126
 2795SOL    HW220019   1.437   3.106   7.228 -0.5208 -0.8757 -1.7999
 2796SOL     OW20020   0.458   3.195   6.910  0.2703 -0.4638 -0.3007
 2796SOL    HW120021   0.448   3.238   6.995  1.8959  0.1704 -0.4346
 2796SOL    HW220022   0.494   3.108   6.925  3.4918  1.3197  2.2289
 2797SOL     OW20023   4.608   0.138   1.051  0.0976 -0.1488 -0.3722
 2797SOL    HW120024   4.563   0.148   0.967  1.5766 -0.0703 -1.1403
 2797SOL    HW220025   4.647   0.224   1.064  2.7306 -0.6084 -5.1938
 2798SOL     OW20026   0.516   0.774   2.001  0.2842  0.3120  0.5119
 2798SOL    HW120027   0.525   0.811   2.089  0.8287 -1.0196  1.0135
 2798SOL    HW220028   0.515   0.854   1.948 -0.2104 -0.6069 -0.8680
 2799SOL     OW20029   2.377   0.647   3.122 -0.1671 -0.2650 -0.0189
 2799SOL    HW120030   2.374   0.653   3.027 -0.1780  0.6161  0.0330
 2799SOL    HW220031   2.356   0.737   3.148  0.0231  0.3042 -1.8399
 2800SOL     OW20032   4.160   1.845   4.796  0.1973  0.1425  0.1426
 2800SOL    HW120033   4.103   1.860   4.871 -0.6853 -1.0250 -0.2881
 2800SOL    HW220034   4.231   1.794   4.836 -0.3453 -0.2337  0.6323
 2801SOL     OW20035   3.338   4.607   3.654  0.6111  0.6553  0.0171
 2801SOL    HW120036   3.379   4.555   3.585 -0.2041 -1.3569  1.0507
 2801SOL    HW220037   3.251   4.621   3.616  0.0263 -0.4325  0.9562
 2802SOL     OW20038   2.741   0.286   0.786 -0.0453  1.0603  0.2534
 2802SOL    HW120039   2.809   0.354   0.779  1.6852 -0.7899 -1.0117
 2802SOL    HW220040   2.725   0.279   0.880  0.1578 -0.4389  0.1708
 2803SOL     OW20041   0.100   1.761   8.479  0.5358  0.7642  0.8887
 2803SOL    HW120042   0.048   1.840   8.463 -0.7869 -0.5115 -1.1743
 2803SOL    HW220043   0.159   1.768   8.403 -0.3652  0.1653  0.1382
 2804SOL     OW20044   4.396   0.901  10.973 -0.0890 -0.0449  0.0512
 2804SOL    HW120045   4.317   0.896  11.026  0.4095  1.8919  0.9827
 2804SOL    HW220046   4.442   0.966  11.027  0.2060 -0.1968 -0.0182
 2805SOL     OW20047   3.793   3.537   9.341 -0.0615 -0.1009  0.4930
 2805SOL    HW120048   3.787   3.574   9.429 -0.5171 -0.2814  0.5362
 2805SOL    HW220049   3.719   3.580   9.297  0.0589  0.3075  0.6852
 2806SOL     OW20050   1.514   0.203   4.623  0.4184 -0.5991 -0.8987
 2806SOL    HW120051   1.550   0.209   4.712 -2.5549 -0.7091  0.3029
 2806SOL    HW220052   1.447   0.271   4.619  0.7624 -0.3038 -1.6723
 2807SOL     OW20053   2.901   4.563  10.605  0.7524 -0.2530 -0.4936
 2807SOL    HW120054   2.808   4.552  10.586  0.0120  1.6724  2.0083
 2807SOL    HW220055   2.929   4.619  10.533 -1.1893  0.0732 -1.0098
 2808SOL     OW20056   3.900   3.799  16.732  0.1838  0.0515  0.3592
 2808SOL    HW120057   3.831   3.857  16.765 -0.5902 -1.4340  1.3514
 2808SOL    HW220058   3.848   3.721  16.718 -0.2696  0.1654  1.4181
 2809SOL     OW20059   4.732   4.082   4.455 -0.0846  0.1645 -0.0055
 2809SOL    HW120060   4.720   4.050   4.366  0.8831  0.8983 -0.4047
 2809SOL    HW220061   0.044   4.163   4.436  1.6988 -0.3689  2.1513
 2810SOL     OW20062   1.556   1.512  14.410  0.1963  0.5684  0.0670
 2810SOL    HW120063   1.534   1.448  14.341  2.1028 -0.3116  0.2718
 2810SOL    HW220064   1.516   1.589  14.370 -1.2593 -1.0849 -1.7153
 2811SOL     OW20065   1.057   1.188   3.355 -0.2379  0.7617  0.0194
 2811SOL    HW120066   1.021   1.139   3.429 -0.5361  1.2126  0.1713
 2811SOL    HW220067   1.151   1.195   3.373 -0.0475  0.0031 -0.6625
 2812SOL     OW20068   3.478   4.097  15.157  0.4879 -0.0914 -0.2334
 2812SOL    HW120069   3.384   4.112  15.165  0.9510  2.5789  0.2715
 2812SOL    HW220070   3.505   4.189  15.165  2.3601 -0.7184  0.5888
 2813SOL     OW20071   4.556   4.581  10.658 -0.1729  0.1775 -0.0478
 2813SOL    HW120072   4.626   4.555  10.598 -0.0971 -0.9720  0.5446
 2813SOL    HW220073   4.479   4.536  10.622 -0.4240  0.9568 -0.5074
 2814SOL     OW20074   2.045   2.831   8.136  0.1574  0.3958  0.0693
 2814SOL    HW120075   2.040   2.912   8.186  1.0115  0.5494 -0.0966
 2814SOL    HW220076   1.989   2.852   8.061  1.1553 -0.0943 -0.8065
 2815SOL     OW20077   2.385   0.379   1.646  0.0239  0.6778  0.2620
 2815SOL    HW120078   2.293   0.399   1.664 -0.4881  0.1460 -1.7273
 2815SOL    HW220079   2.417   0.436   1.576  0.9038 -0.8211 -0.5736
 2816SOL     OW20080   3.765   3.431   7.106 -0.2462 -0.3939  0.2012
 2816SOL    HW120081   3.729   3.353   7.148  2.3257 -0.3971  2.3892
 2816SOL    HW220082   3.753   3.415   7.013 -0.1542 -1.1751  0.3285
 2817SOL     OW20083   0.825   1.175   1.502 -0.0664  0.3170 -0.1243
 2817SOL    HW120084   0.842   1.168   1.596 -0.6856  1.0501  0.0473
 2817SOL    HW220085   0.910   1.195   1.464  0.6438 -2.1069  0.2076
 2818SOL     OW20086   2.949   1.045   4.304  0.1656 -0.5588  0.0235
 2818SOL    HW120087   2.981   1.097   4.377 -0.6815  1.5081 -1.0862
 2818SOL    HW220088   2.971   1.101   4.230  0.8557  0.7974  1.2638
 2819SOL     OW20089   0.708   2.395   6.609 -0.2529  0.5941 -0.3538
 2819SOL    HW120090   0.676   2.366   6.694  3.1474 -0.6155  0.5010
 2819SOL    HW220091   0.628   2.437   6.576  0.4919  0.5338 -2.2737
 2820SOL     OW20092   4.688   1.540  14.645 -0.5991 -0.2705  0.6559
 2820SOL    HW120093   4.656   1.451  14.634 -1.0235  0.2810 -2.5804
 2820SOL    HW220094   0.037   1.520  14.686  1.0309 -0.1599 -2.6693
 2821SOL     OW20095   4.075   0.006   8.796 -0.0589  0.0307 -0.9820
 2821SOL    HW120096   4.071   4.705   8.708 -2.3977  1.0345 -1.2964
 2821SOL    HW220097   4.154   0.061   8.787 -0.0143  0.1413  0.0048
 2822SOL     OW20098   3.271   1.815   3.731 -0.4701 -0.2515  0.0842
 2822SOL    HW120099   3.311   1.798   3.646  1.4269 -0.5936  1.0519
 2822SOL    HW220100   3.198   1.753   3.732 -1.6317  1.0954 -1.2005
 2823SOL     OW20101   4.628   4.249   7.084 -0.1765 -0.3703 -0.4350
 2823SOL    HW120102   4.556   4.292   7.129  0.6186 -0.6037  1.0562
 2823SOL    HW220103   4.614   4.155   7.099  0.2644  0.0444  2.5599
 2824SOL     OW20104   1.239   2.563   7.841  0.2041  0.7509  0.3019
 2824SOL    HW120105   1.322   2.588   7.882 -0.5334  1.2996  1.4511
 2824SOL    HW220106   1.270   2.478   7.810  2.1958  1.8486 -0.7567
 2825SOL     OW20107   0.220   1.157  10.249  0.1209  0.4412 -0.0801
 2825SOL    HW120108   0.179   1.106  10.319  1.0540 -1.3155 -0.8210
 2825SOL    HW220109   0.281   1.206  10.305 -1.4190  1.5852  0.5907
 2826SOL     OW20110   0.628   2.462   7.545  0.1905  0.3978 -0.1871
 2826SOL    HW120111   0.584   2.377   7.545  0.9592  0.0018  1.9461
 2826SOL    HW220112   0.659   2.465   7.455  0.2410 -1.6127 -0.2279
 2827SOL     OW20113   3.269   1.416   3.505 -0.0845 -0.4382  0.2400
 2827SOL    HW120114   3.337   1.382   3.562 -1.3155 -0.0900  1.9020
 2827SOL    HW220115   3.198   1.438   3.564  1.4639  2.4682  1.0300
 2828SOL     OW20116   1.084   2.703   4.637 -0.5107 -0.5331 -0.7245
 2828SOL    HW120117   1.006   2.731   4.588  0.1747  0.2056 -1.4004
 2828SOL    HW220118   1.138   2.652   4.577  0.3204  0.4509 -0.8158
 2829SOL     OW20119   0.802   4.568   5.512  0.2927 -0.5629  0.1723
 2829SOL    HW120120   0.789   4.544   5.603  0.1259  0.6819  0.4753
 2829SOL    HW220121   0.839   4.486   5.478  1.1986 -0.1438  0.1610
 2830SOL     OW20122   1.420   3.792  13.365  0.0809  0.2568  0.4324
 2830SOL    HW120123   1.438   3.715  13.312 -0.6452 -1.0042  2.0447
 2830SOL    HW220124   1.385   3.748  13.442 -1.3044 -1.4589 -1.1927
 2831SOL     OW20125   2.015   1.743   7.688  0.4605 -0.4786  0.0567
 2831SOL    HW120126   2.067   1.781   7.617  2.5143 -1.2048  1.1381
 2831SOL    HW220127   2.021   1.652   7.658 -0.6511 -0.0023 -1.6165
 2832SOL     OW20128   0.463   0.856   6.850 -0.0995  0.4657  0.0698
 2832SOL    HW120129   0.401   0.795   6.890  3.5266 -2.7534  0.8415
 2832SOL    HW220130   0.401   0.926   6.829 -1.5328 -0.3624  1.5483
 2833SOL     OW20131   4.731   3.630  11.531  0.5649  0.5134  0.0210
 2833SOL    HW120132   0.081   3.667  11.554 -0.1703  2.2504 -0.0240
 2833SOL    HW220133   4.712   3.554  11.586 -1.5969 -0.5061 -2.1376
 2834SOL     OW20134   3.391   0.444   8.285 -0.3919 -0.0519  0.1214
 2834SOL    HW120135   3.424   0.518   8.233 -0.8399 -0.2825 -0.4939
 2834SOL    HW220136   3.437   0.368   8.248 -0.1150 -0.2880  0.9599
 2835SOL     OW20137   1.287   4.433   4.814  0.2250  0.1218 -0.3197
 2835SOL    HW120138   1.196   4.441   4.786  0.5961 -4.7997 -2.9002
 2835SOL    HW220139   1.328   4.369   4.755  1.7780 -0.7730  1.7559
 2836SOL     OW20140   4.252   2.063  16.601  0.0121 -0.3655  0.2073
 2836SOL    HW120141   4.286   2.067  16.690 -0.3659 -4.0014  0.5094
 2836SOL    HW220142   4.282   2.148  16.569  0.8531 -0.7344  0.0401
 2837SOL     OW20143   4.315   1.050   8.899  0.0653 -0.0548 -0.1441
 2837SOL    HW120144   4.240   1.049   8.958  1.0829 -1.6028  1.1145
 2837SOL    HW220145   4.296   1.117   8.833  1.2140 -1.0147 -1.4467
 2838SOL     OW20146   1.394   2.652   8.037 -0.1911  0.6217 -0.1503
 2838SOL    HW120147   1.309   2.680   8.070 -1.3090  0.0460 -2.5165
 2838SOL    HW220148   1.437   2.614   8.113  1.0830 -0.8670 -1.6156
 2839SOL     OW20149   3.725   3.441   6.280 -0.2624  0.6742  0.6147
 2839SOL    HW120150   3.654   3.489   6.323 -0.2403  0.9765  0.3200
 2839SOL    HW220151   3.680   3.357   6.271  1.2368 -0.0265 -0.2138
 2840SOL     OW20152   1.736   3.993   4.653  0.0799 -0.0922 -0.2064
 2840SOL    HW120153   1.670   3.926   4.671  0.3617 -1.0314 -2.6393
 2840SOL    HW220154   1.790   3.975   4.730  0.0269 -0.8853 -0.3580
 2841SOL     OW20155   3.321   3.778  11.946  0.1076  0.4965  0.6436
 2841SOL    HW120156   3.301   3.751  12.035  4.4666 -1.9633  0.8623
 2841SOL    HW220157   3.338   3.698  11.896 -0.6962  1.8523 -1.8156
 2842SOL     OW20158   3.277   2.739   7.403  0.2188  0.4881 -0.1277
 2842SOL    HW120159   3.283   2.762   7.310  1.4682 -1.3217 -0.5045
 2842SOL    HW220160   3.369   2.716   7.419 -0.2678 -0.9336  0.6392
 2843SOL     OW20161   3.207   2.924   5.100  0.0646 -0.3969 -0.0222
 2843SOL    HW120162   3.135   2.863   5.119 -1.3041  0.8792 -1.0304
 2843SOL    HW220163   3.248   2.922   5.186  1.6635  0.1625 -0.7852
 2844SOL     OW20164   3.640   3.609   4.408 -0.4151 -0.0608 -0.4141
 2844SOL    HW120165   3.574   3.611   4.477  0.4586  0.1192  0.4189
 2844SOL    HW220166   3.618   3.532   4.355  0.7804 -0.9996  0.4390
 2845SOL     OW20167   4.150   4.478   7.896 -0.6390 -0.0843 -0.5053
 2845SOL    HW120168   4.141   4.385   7.918  0.0291 -0.3447 -1.3763
 2845SOL    HW220169   4.078   4.514   7.949  0.0612  1.5645 -0.6656
 2846SOL     OW20170   3.424   4.198  10.378  0.6449 -0.3489  0.4280
 2846SOL    HW120171   3.336   4.216  10.413  0.3753 -1.8179  0.4873
 2846SOL    HW220172   3.465   4.159  10.456  0.1809  1.5349  1.6223
 2847SOL     OW20173   4.521   0.751   1.526 -0.1889 -0.1370 -0.2473
 2847SOL    HW120174   4.578   0.678   1.549  0.2711  0.4310  0.4231
 2847SOL    HW220175   4.575   0.807   1.469  0.5933 -0.8189 -0.1734
 2848SOL     OW20176   3.661   1.034   4.152  0.4348 -0.2293  0.5187
 2848SOL    HW120177   3.565   1.029   4.149  0.4041  1.2199 -0.9826
 2848SOL    HW220178   3.685   0.941   4.157 -0.5121 -0.6465 -3.0507
 2849SOL     OW20179   2.809   3.176   6.012 -0.4185 -0.1889 -0.1462
 2849SOL    HW120180   2.866   3.107   6.046 -0.4387  1.0212  2.2936
 2849SOL    HW220181   2.784   3.217   6.094 -2.6689 -1.4614 -0.1970
 2850SOL     OW20182   0.661   2.775   6.003  0.3213  0.6500  0.6556
 2850SOL    HW120183   0.709   2.788   5.921 -0.4107 -1.1357 -0.0629
 2850SOL    HW220184   0.645   2.681   5.995 -1.2048  0.9866 -0.4160
 2851SOL     OW20185   2.641   3.330   8.468  0.1973 -0.1449 -0.4763
 2851SOL    HW120186   2.625   3.252   8.520 -0.3350  0.8960  0.9099
 2851SOL    HW220187   2.573   3.386   8.505  0.8092 -0.5193  1.1848
 2852SOL     OW20188   0.949   3.874   5.402 -0.5002  0.2384  1.0282
 2852SOL    HW120189   0.859   3.862   5.434 -0.2940 -0.8997  1.2160
 2852SOL    HW220190   0.943   3.826   5.319 -0.0967  0.2717  0.9811
 2853SOL     OW20191   1.350   2.985   0.771 -0.0533 -0.1890 -0.1862
 2853SOL    HW120192   1.353   3.080   0.757  1.9544 -0.2121  0.1564
 2853SOL    HW220193   1.428   2.968   0.719 -0.5000  0.0482 -0.9278
 2854SOL     OW20194   3.573   4.515   1.684 -0.2170 -0.2699 -0.2073
 2854SOL    HW120195   3.607   4.601   1.709  1.4697 -1.2734  0.9563
 2854SOL    HW220196   3.589   4.457   1.758 -0.0980  0.3378  0.2472
 2855SOL     OW20197   2.382   2.678  15.720  0.1850 -0.4169 -0.0663
 2855SOL    HW120198   2.319   2.709  15.785 -1.1487 -2.4177 -0.4006
 2855SOL    HW220199   2.443   2.639  15.781 -1.2200 -0.6136  1.2145
 2856SOL     OW20200   2.831   3.403  11.141  0.7647 -0.1844  0.3912
 2856SOL    HW120201   2.874   3.455  11.208  1.5117 -0.2087 -0.0705
 2856SOL    HW220202   2.761   3.363  11.192  0.2156  1.5929  1.0238
 2857SOL     OW20203   3.829   2.787   2.633  0.1342  0.4084  0.1170
 2857SOL    HW120204   3.835   2.882   2.640  1.2619  0.2384  1.4282
 2857SOL    HW220205   3.913   2.762   2.671 -0.2131 -2.2530 -0.8696
 2858SOL     OW20206   0.602   1.986   8.685 -0.2957 -0.1938  0.3417
 2858SOL    HW120207   0.621   2.064   8.632  1.1381 -0.9760 -0.2921
 2858SOL    HW220208   0.573   1.915   8.627  0.5961 -0.9366  0.8151
 2859SOL     OW20209   2.781   0.337   7.673  0.3809  1.0886 -0.2006
 2859SOL    HW120210   2.763   0.402   7.605  1.9318 -0.8840 -2.5049
 2859SOL    HW220211   2.861   0.365   7.717  0.4943  1.6777 -0.7851
 2860SOL     OW20212   1.642   1.700  14.774 -0.0026  0.0268  0.3534
 2860SOL    HW120213   1.695   1.771  14.812 -0.2977 -0.6451  2.0510
 2860SOL    HW220214   1.707   1.665  14.713 -0.4245  1.3189 -0.8103
 2861SOL     OW20215   0.427   3.234  10.425 -0.9511 -0.1194  0.1878
 2861SOL    HW120216   0.371   3.288  10.482 -2.3058 -0.4744 -0.8138
 2861SOL    HW220217   0.383   3.149  10.431  0.4185 -0.7735  0.9017
 2862SOL     OW20218   0.295   1.846   1.802  0.2108  0.3258  0.1269
 2862SOL    HW120219   0.238   1.905   1.852 -1.2062 -0.4833 -0.5462
 2862SOL    HW220220   0.376   1.896   1.812  0.3930 -0.3227  1.8281
 2863SOL     OW20221   1.476   3.677   4.292  0.0373  0.4400 -0.6137
 2863SOL    HW120222   1.528   3.638   4.362 -0.0386  2.9801  0.8569
 2863SOL    HW220223   1.410   3.607   4.288  1.2148 -0.6973 -0.4569
 2864SOL     OW20224   0.061   0.063  11.159 -0.8806 -0.0032  0.0008
 2864SOL    HW120225   0.078   0.156  11.146  0.5095 -0.1713  0.5976
 2864SOL    HW220226   4.707   0.061  11.127 -0.3845 -0.9486 -1.3452
 2865SOL     OW20227   0.902   1.200  12.783  0.2942 -0.1162  0.3458
 2865SOL    HW120228   0.965   1.128  12.783 -1.9190 -2.0441 -1.1437
 2865SOL    HW220229   0.822   1.151  12.804 -0.7222  1.1950 -0.4520
 2866SOL     OW20230   0.388   0.674  10.661  0.3164 -0.2510 -0.4514
 2866SOL    HW120231   0.301   0.672  10.700 -0.0989  1.4537 -1.3046
 2866SOL    HW220232   0.368   0.675  10.568 -2.6265  1.8858  0.2140
 2867SOL     OW20233   1.759   3.236   2.477 -0.1132  0.0659  0.6795
 2867SOL    HW120234   1.784   3.283   2.397  1.1810 -3.1675 -0.8364
 2867SOL    HW220235   1.683   3.293   2.491 -0.7013 -0.3080 -0.9123
 2868SOL     OW20236   3.640   1.207  11.979  0.8436 -0.0719  0.2309
 2868SOL    HW120237   3.671   1.286  12.022 -0.3512  1.5573 -1.9118
 2868SOL    HW220238   3.587   1.175  12.051 -1.4772 -0.1489 -1.5263
 2869SOL     OW20239   1.373   2.005   7.632  0.9148  0.4155 -0.9114
 2869SOL    HW120240   1.346   1.939   7.569 -0.7765 -2.6301  2.9494
 2869SOL    HW220241   1.389   1.953   7.711  0.6344 -1.5079 -2.1093
 2870SOL     OW20242   1.468   4.703  12.345  0.5056  0.3405  0.3771
 2870SOL    HW120243   1.530   0.035  12.315 -0.5696  0.8183 -0.7570
 2870SOL    HW220244   1.520   4.665  12.415 -2.4293 -0.3452  2.1670
 2871SOL     OW20245   2.249   1.630   1.711 -0.0283  0.0833  0.8459
 2871SOL    HW120246   2.154   1.618   1.702 -0.2108  1.0806  1.5253
 2871SOL    HW220247   2.271   1.566   1.643  0.1663  0.2405  0.7595
 2872SOL     OW20248   3.550   0.194   3.586 -1.1228 -0.5184 -0.0349
 2872SOL    HW120249   3.591   0.119   3.628  0.8832 -0.2292 -1.4666
 2872SOL    HW220250   3.628   0.249   3.590 -0.1426 -1.8263 -0.9637
 2873SOL     OW20251   2.581   1.165   3.749  0.2212  0.4730  0.5405
 2873SOL    HW120252   2.653   1.196   3.694 -0.2617 -1.7274 -1.3404
 2873SOL    HW220253   2.510   1.195   3.693 -0.1316 -2.6277 -0.6694
 2874SOL     OW20254   3.405   1.109  16.372  0.4174 -0.3068 -0.1155
 2874SOL    HW120255   3.405   1.174  16.302  2.1471  0.9405  1.0480
 2874SOL    HW220256   3.477   1.140  16.426 -0.4889 -2.5314  2.3565
 2875SOL     OW20257   4.535   1.532   8.033 -0.5491  0.4561  0.1358
 2875SOL    HW120258   4.479   1.598   7.993 -0.7830  1.2976  1.8458
 2875SOL    HW220259   4.619   1.576   8.047 -1.8201  2.0847  2.6112
 2876SOL     OW20260   2.852   2.936   6.870  0.0574  0.1732 -0.1879
 2876SOL    HW120261   2.772   2.905   6.912 -0.2648 -0.4023 -1.2161
 2876SOL    HW220262   2.902   2.857   6.852 -1.4864 -0.7544 -0.4264
 2877SOL     OW20263   4.191   2.148   9.278  0.1675  0.2014 -0.0816
 2877SOL    HW120264   4.248   2.177   9.207 -2.0141  0.5046 -1.7028
 2877SOL    HW220265   4.117   2.122   9.223 -0.2194 -0.2975  0.6716
 2878SOL     OW20266   0.841   2.883  17.149  0.0834 -0.1543  0.2595
 2878SOL    HW120267   0.912   2.947  17.150  0.8020 -0.9371 -1.0545
 2878SOL    HW220268   0.798   2.918  17.228  2.0307  0.4405  1.0725
 2879SOL     OW20269   2.462   0.358   2.415 -0.1911  0.6468 -0.2823
 2879SOL    HW120270   2.492   0.368   2.325 -1.9642  0.4349 -0.9032
 2879SOL    HW220271   2.531   0.406   2.460 -0.6461  0.9032  0.1407
 2880SOL     OW20272   1.564   2.214   1.240  0.6016  0.2065 -0.9746
 2880SOL    HW120273   1.620   2.292   1.244  0.0209  0.5904 -0.4034
 2880SOL    HW220274   1.484   2.266   1.235  0.7846  0.4864 -0.9945
 2881SOL     OW20275   2.309   2.637  13.558 -0.8252  0.3984  0.2062
 2881SOL    HW120276   2.344   2.703  13.619  0.0894  1.5616 -1.5839
 2881SOL    HW220277   2.390   2.621  13.509 -0.0699 -2.4251  2.3326
 2882SOL     OW20278   3.056   1.679   2.968  0.6694 -0.7208  0.3376
 2882SOL    HW120279   3.138   1.653   3.011 -0.7028 -2.3614  2.0069
 2882SOL    HW220280   3.064   1.624   2.890 -0.9406 -0.3543 -0.0691
 2883SOL     OW20281   1.191   0.676   8.899  0.0086  0.1334  0.0067
 2883SOL    HW120282   1.270   0.623   8.911 -0.7950 -1.1392 -0.2862
 2883SOL    HW220283   1.215   0.751   8.845 -2.1904 -0.0434 -1.2075
 2884SOL     OW20284   0.229   4.508   0.501  0.0152 -0.3132 -0.0729
 2884SOL    HW120285   0.287   4.581   0.481 -0.7433  0.6846  1.3384
 2884SOL    HW220286   0.206   4.478   0.413 -0.1056 -1.6372  0.3954
 2885SOL     OW20287   2.071   4.011  13.431 -0.1856 -0.1864  0.6262
 2885SOL    HW120288   2.030   4.008  13.344 -1.2700  2.4775  1.0279
 2885SOL    HW220289   2.007   4.074  13.465 -1.4744 -0.9394 -0.3841
 2886SOL     OW20290   4.663   1.747  11.806 -0.6393 -0.2740  0.3026
 2886SOL    HW120291   4.689   1.832  11.840 -0.2983  0.4972 -1.8880
 2886SOL    HW220292   4.583   1.726  11.855 -1.5075 -0.9317 -1.3754
 2887SOL     OW20293   3.756   3.904   8.504  0.3687  0.0740 -0.3851
 2887SOL    HW120294   3.726   3.916   8.594  1.1148 -1.3840  0.0608
 2887SOL    HW220295   3.705   3.825   8.484  0.4660 -0.5311  1.7946
 2888SOL     OW20296   0.107   1.323   7.481 -0.0330  0.1538  0.2137
 2888SOL    HW120297   0.091   1.275   7.562 -0.7994  0.1454  0.0630
 2888SOL    HW220298   0.179   1.379   7.511  1.2302 -1.0739 -0.5232
 2889SOL     OW20299   2.570   2.190   3.491 -0.1357 -0.2639 -0.5485
 2889SOL    HW120300   2.616   2.131   3.431  0.9750 -0.8520  0.8797
 2889SOL    HW220301   2.517   2.240   3.429 -0.6891  0.5128  0.5611
 2890SOL     OW20302   0.970   0.850   8.733 -0.2236 -0.1498  0.4762
 2890SOL    HW120303   0.956   0.756   8.731  3.5026 -0.6859  0.3715
 2890SOL    HW220304   1.066   0.858   8.733 -0.2569  0.2917 -0.5909
 2891SOL     OW20305   2.080   3.357   2.200  0.0919 -0.3506 -0.4392
 2891SOL    HW120306   2.047   3.444   2.181  1.7141  0.3235 -0.1649
 2891SOL    HW220307   2.117   3.331   2.115  0.0183  0.7349 -0.8029
 2892SOL     OW20308   2.282   1.836  17.237  0.1217  0.1663 -0.8059
 2892SOL    HW120309   2.277   1.931  17.249  1.1557  0.0602  0.4326
 2892SOL    HW220310   2.323   1.812  17.320 -0.7310 -0.5280 -0.5892
 2893SOL     OW20311   4.173   3.332   3.542 -0.1790 -0.0359  0.1855
 2893SOL    HW120312   4.234   3.389   3.590 -0.5564  1.0201 -0.5920
 2893SOL    HW220313   4.091   3.380   3.529  1.1287  1.8535 -1.0341
 2894SOL     OW20314   4.416   2.211   4.148 -0.2283  0.0117  0.0872
 2894SOL    HW120315   4.499   2.201   4.101 -1.1775 -2.2640 -1.1118
 2894SOL    HW220316   4.385   2.295   4.114 -1.7659 -0.2143  0.9384
 2895SOL     OW20317   1.592   2.000   1.999 -0.1192 -0.0510 -0.4133
 2895SOL    HW120318   1.499   1.987   2.021  0.5656 -2.0199  1.2149
 2895SOL    HW220319   1.618   2.073   2.056  1.4502  0.6186 -2.0212
 2896SOL     OW20320   2.834   1.825   2.048  0.0571  0.4312  0.6340
 2896SOL    HW120321   2.765   1.794   1.988  0.7235 -0.6421  0.4086
 2896SOL    HW220322   2.852   1.909   2.007  0.7115  0.5304  1.1237
 2897SOL     OW20323   2.305   1.837   2.295  0.1984  0.1165  0.4567
 2897SOL    HW120324   2.218   1.814   2.326  0.4653 -0.3201  0.8859
 2897SOL    HW220325   2.308   1.932   2.286  2.1232  0.0314  0.1830
 2898SOL     OW20326   1.466   0.342   2.217  0.3210 -0.1975  0.3871
 2898SOL    HW120327   1.414   0.356   2.295 -0.8430  0.3437 -0.4970
 2898SOL    HW220328   1.432   0.411   2.160 -0.4716 -0.2164  0.8477
 2899SOL     OW20329   4.534   3.705   7.122 -0.5318  0.8932 -0.2190
 2899SOL    HW120330   4.448   3.733   7.091 -0.2369  1.0665 -0.8731
 2899SOL    HW220331   4.508   3.657   7.201  0.3138  0.0872 -0.4259
 2900SOL     OW20332   3.245   1.646  15.614 -0.2924 -0.1358  0.0181
 2900SOL    HW120333   3.186   1.644  15.539  0.3182 -2.6984 -0.3956
 2900SOL    HW220334   3.222   1.556  15.638  0.5515 -0.8492 -1.9205
 2901SOL     OW20335   4.260   1.989  10.605  0.0002 -0.5716 -0.1519
 2901SOL    HW120336   4.168   1.982  10.582  0.0116 -0.3411 -0.2652
 2901SOL    HW220337   4.307   1.996  10.522  1.2099  0.4073  0.6208
 2902SOL     OW20338   1.308   4.474   5.804  0.2095  0.2494 -0.0259
 2902SOL    HW120339   1.239   4.413   5.778  0.0082 -0.0909  1.2768
 2902SOL    HW220340   1.311   4.535   5.731  3.4416  0.5075  0.3076
 2903SOL     OW20341   4.259   2.498   2.497  0.6012  0.1320 -0.0195
 2903SOL    HW120342   4.304   2.414   2.507  0.3626  0.1689  1.3705
 2903SOL    HW220343   4.195   2.478   2.430  1.1925 -1.1978 -0.1950
 2904SOL     OW20344   0.892   2.912   0.460  0.6084  0.4374  0.1539
 2904SOL    HW120345   0.981   2.906   0.426  1.1658  1.6519  1.3706
 2904SOL    HW220346   0.890   2.841   0.525 -0.6024  1.9359  1.7718
 2905SOL     OW20347   3.727   2.167  11.464  0.1239  0.0581  0.6422
 2905SOL    HW120348   3.647   2.164  11.412  1.9583  2.4229 -2.2715
 2905SOL    HW220349   3.717   2.258  11.492  0.2723  0.2990 -0.0981
 2906SOL     OW20350   4.595   4.358  11.211 -0.0097  0.0165  0.2789
 2906SOL    HW120351   4.681   4.344  11.171 -0.0197  2.2814 -0.5218
 2906SOL    HW220352   4.606   4.311  11.294 -0.0658  0.7391  0.6891
 2907SOL     OW20353   3.057   1.153  17.209  0.0515 -0.4396  0.5068
 2907SOL    HW120354   3.150   1.167  17.193 -0.5668 -0.4583 -3.3050
 2907SOL    HW220355   3.019   1.209  17.141  2.6943  0.5801 -0.1233
 2908SOL     OW20356   2.722   0.402   3.919  0.3263 -0.3022  0.2485
 2908SOL    HW120357   2.634   0.437   3.907 -0.3680 -1.6389  1.4744
 2908SOL    HW220358   2.755   0.437   4.002  1.5763 -1.2831  0.1773
 2909SOL     OW20359   2.415   0.159   4.043 -0.3687  0.7589  0.2646
 2909SOL    HW120360   2.459   0.196   3.967  1.2665  0.2825  0.9733
 2909SOL    HW220361   2.469   0.202   4.109 -0.2860  0.8991  0.1035
 2910SOL     OW20362   2.656   4.669   8.559  0.7220  0.4517 -0.5526
 2910SOL    HW120363   2.747   4.694   8.577 -0.3998  0.5009  5.1787
 2910SOL    HW220364   2.662   4.627   8.473  1.0437  0.1152 -0.3656
 2911SOL     OW20365   1.402   3.204   3.637 -0.2013  0.2393  0.0377
 2911SOL    HW120366   1.433   3.294   3.650 -2.1590  0.6896  1.6137
 2911SOL    HW220367   1.448   3.167   3.713 -0.0067  0.4427  0.0206
 2912SOL     OW20368   2.462   0.500   3.894 -0.2735  0.5914 -0.7137
 2912SOL    HW120369   2.439   0.496   3.987 -1.3260  1.3412 -0.9311
 2912SOL    HW220370   2.381   0.486   3.845  0.6458 -1.0005 -1.7627
 2913SOL     OW20371   0.530   2.328   5.194  0.0103 -0.0427 -0.2728
 2913SOL    HW120372   0.536   2.419   5.223 -0.6983 -0.9667  2.6773
 2913SOL    HW220373   0.576   2.285   5.266  0.2879  2.0490  0.7921
 2914SOL     OW20374   3.507   4.503   1.437 -0.6598  0.2989  0.2049
 2914SOL    HW120375   3.521   4.502   1.532  1.5586  0.6521 -0.1086
 2914SOL    HW220376   3.497   4.409   1.423  2.8243 -0.1254  0.3969
 2915SOL     OW20377   1.457   2.511   1.576  0.0740 -0.3424  0.2799
 2915SOL    HW120378   1.480   2.429   1.621 -0.6122 -1.5686 -1.5883
 2915SOL    HW220379   1.375   2.542   1.614  1.0739  1.6445  0.8168
 2916SOL     OW20380   4.320   4.439  10.609  0.4846  0.4027  0.4114
 2916SOL    HW120381   4.286   4.473  10.691 -0.6701  2.4820 -0.9159
 2916SOL    HW220382   4.263   4.365  10.585 -0.1362  0.9249  0.2765
 2917SOL     OW20383   2.079   1.836  16.500 -0.1436 -0.1074  0.4504
 2917SOL    HW120384   2.039   1.853  16.415  0.2618  0.6454  0.4099
 2917SOL    HW220385   2.039   1.893  16.566  1.2986 -1.3868  2.4414
 2918SOL     OW20386   4.055   4.225   7.731 -0.3452 -0.2144 -0.1680
 2918SOL    HW120387   4.149   4.238   7.718 -0.4976  0.3085 -0.7673
 2918SOL    HW220388   4.022   4.289   7.667 -0.8779  1.4396  1.7712
 2919SOL     OW20389   3.969   4.510   6.695 -0.2010 -0.3778 -0.0096
 2919SOL    HW120390   3.986   4.563   6.774 -1.1615 -0.9090  0.5525
 2919SOL    HW220391   3.903   4.452   6.732 -0.1846  0.1059  0.7787
 2920SOL     OW20392   4.347   0.805   0.196  0.0519 -0.5906  0.1195
 2920SOL    HW120393   4.327   0.714   0.219 -0.9372 -0.2226  0.7278
 2920SOL    HW220394   4.414   0.827   0.260 -0.0488  0.8474 -0.2694
 2921SOL     OW20395   2.620   2.047   8.299  0.7312  0.1051 -0.4016
 2921SOL    HW120396   2.704   2.051   8.345  0.6011 -3.8744  0.1845
 2921SOL    HW220397   2.589   1.968   8.345  0.7648 -0.2345 -0.9670
 2922SOL     OW20398   4.731   4.485   8.427  0.4151  0.5082 -0.4429
 2922SOL    HW120399   0.038   4.399   8.417  0.8324  0.8205 -1.3113
 2922SOL    HW220400   0.029   4.532   8.351  1.1912  0.6946  0.0184
 2923SOL     OW20401   1.571   4.285   0.678  0.1980 -0.0071  0.6172
 2923SOL    HW120402   1.666   4.290   0.675  0.1125  0.5728 -0.9145
 2923SOL    HW220403   1.563   4.190   0.671  3.1046 -0.1678 -0.3185
 2924SOL     OW20404   1.652   1.302  14.567  0.0086  0.3929  0.4036
 2924SOL    HW120405   1.648   1.388  14.525  0.0198  1.1222  1.8819
 2924SOL    HW220406   1.674   1.244  14.495 -1.3513  2.3293 -1.5425
 2925SOL     OW20407   1.662   0.524   6.747 -1.0950 -0.4143 -0.4247
 2925SOL    HW120408   1.732   0.579   6.782 -0.6152 -0.9752 -0.4997
 2925SOL    HW220409   1.630   0.569   6.669  0.3704  1.0384 -0.1761
 2926SOL     OW20410   3.379   3.006   4.238  0.3683 -0.5306  0.2921
 2926SOL    HW120411   3.376   3.042   4.327 -1.1767 -0.4505  0.2086
 2926SOL    HW220412   3.469   3.031   4.217  0.2589  1.4436  2.2084
 2927SOL     OW20413   2.313   2.327   8.277 -0.2130 -0.5635  0.2618
 2927SOL    HW120414   2.320   2.408   8.328  0.3728  1.6355 -3.3727
 2927SOL    HW220415   2.218   2.334   8.269 -0.0177  1.9652  0.1170
 2928SOL     OW20416   4.527   0.341  17.154 -0.0650  0.4414 -0.3596
 2928SOL    HW120417   4.450   0.354  17.209  0.6374 -3.0289  1.4594
 2928SOL    HW220418   4.484   0.365  17.072 -0.8483  1.6948  0.4050
 2929SOL     OW20419   1.008   3.398   8.195 -0.4292 -1.2072  0.2486
 2929SOL    HW120420   0.971   3.468   8.141 -1.5789 -1.4610  0.7183
 2929SOL    HW220421   0.931   3.343   8.202  1.3088 -3.1833  3.8663
 2930SOL     OW20422   0.809   0.966   7.013  0.4587  0.5420  0.0062
 2930SOL    HW120423   0.782   0.988   6.924  1.0076  0.5098 -0.1697
 2930SOL    HW220424   0.878   1.027   7.038  1.3879 -1.8814  3.4280
 2931SOL     OW20425   1.414   2.142  14.069 -0.3662  0.3270 -0.3416
 2931SOL    HW120426   1.349   2.084  14.029  1.8119 -3.1973  1.2296
 2931SOL    HW220427   1.461   2.080  14.125 -0.5711 -0.1984 -0.7587
 2932SOL     OW20428   4.244   3.860   2.483  0.0497  0.3321  0.1558
 2932SOL    HW120429   4.186   3.829   2.554 -0.9863 -0.0730 -0.8586
 2932SOL    HW220430   4.222   3.952   2.474  1.1522  0.5438 -0.3310
 2933SOL     OW20431   3.232   0.553  16.996 -0.6560  0.4890  0.5884
 2933SOL    HW120432   3.174   0.629  16.995 -1.5393 -0.2091 -2.0456
 2933SOL    HW220433   3.173   0.481  16.974  1.9934 -1.4005 -0.3371
 2934SOL     OW20434   0.217   4.063  16.106 -0.3332  0.2221  0.2343
 2934SOL    HW120435   0.225   4.057  16.011  1.2766  0.5466  0.3451
 2934SOL    HW220436   0.297   4.114  16.121  0.8702 -1.9746  1.3138
 2935SOL     OW20437   3.102   4.318   7.620  0.0935  0.1697 -0.3167
 2935SOL    HW120438   3.148   4.299   7.702  0.3363 -2.8597 -1.1602
 2935SOL    HW220439   3.065   4.233   7.596  2.0469 -0.4670 -1.0403
 2936SOL     OW20440   1.734   2.493   2.045  0.2360  0.2588  0.1658
 2936SOL    HW120441   1.717   2.549   1.970 -0.2622 -0.3000 -0.1351
 2936SOL    HW220442   1.823   2.521   2.067  1.6597 -1.3707 -3.4798
 2937SOL     OW20443   0.463   1.353   5.062  0.2367  0.2510 -0.2762
 2937SOL    HW120444   0.461   1.424   4.998 -0.1133  0.3098 -0.1987
 2937SOL    HW220445   0.557   1.360   5.079  0.0632  1.3617  0.2311
 2938SOL     OW20446   1.315   3.429   4.239  0.2404  0.6122 -0.2091
 2938SOL    HW120447   1.305   3.418   4.144  0.5042 -0.6145 -0.0946
 2938SOL    HW220448   1.299   3.343   4.277  1.1694  0.5502  0.0264
 2939SOL     OW20449   4.389   4.599   7.432  0.0143  0.1963  0.7228
 2939SOL    HW120450   4.474   4.637   7.456  1.8349 -3.2347 -0.1964
 2939SOL    HW220451   4.383   4.542   7.509 -0.8304  1.2747  1.4532
 2940SOL     OW20452   4.481   4.549   0.334 -0.1863 -0.2412 -0.0163
 2940SOL    HW120453   4.552   4.486   0.341 -0.2322 -0.1838  1.0281
 2940SOL    HW220454   4.449   4.531   0.422  1.4966 -2.4669  0.1308
 2941SOL     OW20455   1.943   0.149   8.614  0.1226 -0.0807  0.6939
 2941SOL    HW120456   1.911   0.090   8.545 -0.8365 -1.0014  1.9387
 2941SOL    HW220457   1.935   0.236   8.573 -0.7946 -0.7336 -0.5171
 2942SOL     OW20458   3.789   3.904  17.127 -0.1112 -0.2222  0.6731
 2942SOL    HW120459   3.868   3.850  17.133 -1.5490 -2.1304  2.3348
 2942SOL    HW220460   3.811   3.974  17.188 -3.3636  1.7155 -0.4164
 2943SOL     OW20461   3.558   0.528   9.167 -0.4326 -0.4123 -0.5339
 2943SOL    HW120462   3.527   0.575   9.244  2.5074  0.6187  0.0240
 2943SOL    HW220463   3.626   0.477   9.210  0.0769 -1.1489 -2.2241
 2944SOL     OW20464   0.170   3.671   2.875  0.0582 -0.1517  0.0791
 2944SOL    HW120465   0.105   3.685   2.945 -1.2235 -1.4573 -0.8468
 2944SOL    HW220466   0.234   3.628   2.931  1.3220  1.3332 -0.2292
 2945SOL     OW20467   2.464   2.022   3.180 -0.0724  0.3816  0.0452
 2945SOL    HW120468   2.484   1.945   3.233  1.4540  1.7156  1.4224
 2945SOL    HW220469   2.383   2.003   3.132 -0.1993  0.5394  0.1982
 2946SOL     OW20470   1.496   3.576   5.356 -0.1635 -0.1332 -0.3021
 2946SOL    HW120471   1.479   3.509   5.422  1.8719 -0.5678 -0.2065
 2946SOL    HW220472   1.582   3.555   5.320 -0.3881 -2.1551  0.3663
 2947SOL     OW20473   0.728   3.472  15.066 -0.2673  0.2061 -0.6454
 2947SOL    HW120474   0.750   3.379  15.062 -2.5330 -0.4331  1.7446
 2947SOL    HW220475   0.639   3.460  15.035 -0.8245 -0.3679  1.1775
 2948SOL     OW20476   0.927   0.213   2.742 -0.1885 -0.2479 -0.0647
 2948SOL    HW120477   0.950   0.141   2.684  1.1161 -0.8619  1.2374
 2948SOL    HW220478   0.922   0.287   2.681  1.9462 -0.1108 -0.0679
 2949SOL     OW20479   1.462   2.450   0.352  0.0183 -0.0539  0.0303
 2949SOL    HW120480   1.520   2.511   0.307 -1.1413  0.7131 -0.4248
 2949SOL    HW220481   1.394   2.516   0.367 -0.4498 -0.7662  1.0841
 2950SOL     OW20482   3.948   2.476  14.230 -0.2940  0.0790 -0.6471
 2950SOL    HW120483   4.006   2.532  14.282 -0.9307  0.6587 -0.5652
 2950SOL    HW220484   3.955   2.393  14.277  0.6167  1.8260  2.2874
 2951SOL     OW20485   0.591   0.503   3.806 -0.5575  0.0311  0.1609
 2951SOL    HW120486   0.547   0.421   3.831 -0.6304  0.3753  1.1731
 2951SOL    HW220487   0.562   0.511   3.715  1.7379  0.7424 -0.5065
 2952SOL     OW20488   1.607   3.043   5.331  0.1628  0.5588 -0.3343
 2952SOL    HW120489   1.683   3.101   5.324  0.7698 -0.0676  1.0841
 2952SOL    HW220490   1.652   2.961   5.349 -1.5947  0.0112  1.5712
 2953SOL     OW20491   3.414   4.221   9.342 -0.2969 -0.1841  0.5067
 2953SOL    HW120492   3.468   4.178   9.276 -0.8791  1.6107 -1.1365
 2953SOL    HW220493   3.434   4.311   9.316  0.7788 -1.2576 -2.3338
 2954SOL     OW20494   0.717   3.401   9.039 -0.1199 -0.2450  0.2613
 2954SOL    HW120495   0.708   3.316   9.082 -1.8564 -1.0222 -1.5924
 2954SOL    HW220496   0.661   3.386   8.962  0.9952 -1.9437 -0.2051
 2955SOL     OW20497   2.226   2.724  11.878 -0.3364 -0.2520  0.0956
 2955SOL    HW120498   2.224   2.711  11.973 -1.9564  0.2423  0.1205
 2955SOL    HW220499   2.304   2.780  11.869 -1.7839  2.1310  2.4865
 2956SOL     OW20500   4.400   1.952  10.820 -0.5722 -0.1053  0.4499
 2956SOL    HW120501   4.371   1.863  10.840  0.4888 -0.3424  0.9181
 2956SOL    HW220502   4.350   1.962  10.739  0.6237  1.6306 -0.0791
 2957SOL     OW20503   3.193   1.822  13.184 -0.2102  0.2080 -0.4606
 2957SOL    HW120504   3.240   1.796  13.104  1.1964  0.4427  0.2875
 2957SOL    HW220505   3.246   1.893  13.221 -2.5856  2.5462 -1.5640
 2958SOL     OW20506   3.205   0.609  14.731 -0.3026  0.5770  0.4074
 2958SOL    HW120507   3.246   0.524  14.715 -0.7618  0.1573  1.4676
 2958SOL    HW220508   3.267   0.651  14.791 -0.1042  0.8069  0.0461
 2959SOL     OW20509   0.541   3.163  14.936  0.0739 -0.2545 -0.0667
 2959SOL    HW120510   0.466   3.147  14.994 -1.6762  1.8840 -1.7365
 2959SOL    HW220511   0.525   3.257  14.931  0.9289 -0.0677  0.7486
 2960SOL     OW20512   0.692   0.164   2.872  0.2289  0.3565 -0.0178
 2960SOL    HW120513   0.758   0.193   2.809 -1.3163  0.7439 -1.4259
 2960SOL    HW220514   0.668   0.245   2.916 -1.1953 -1.3251  2.2659
 2961SOL     OW20515   0.625   2.973  15.165 -0.7024  0.0206  0.8597
 2961SOL    HW120516   0.652   2.893  15.210  1.1073  1.1619  1.7737
 2961SOL    HW220517   0.649   2.949  15.075 -0.7352  0.4574  0.7334
 2962SOL     OW20518   4.590   1.441   5.337  0.0162 -0.3878 -0.2255
 2962SOL    HW120519   4.610   1.437   5.243 -2.5838  0.2756 -0.8159
 2962SOL    HW220520   4.647   1.510   5.370 -0.9055  0.6095 -0.7217
 2963SOL     OW20521   2.991   3.030   2.173  0.3742 -0.1464 -0.2409
 2963SOL    HW120522   2.907   3.007   2.133  0.1384 -2.0417  1.3667
 2963SOL    HW220523   2.989   3.126   2.177  0.6940 -0.0786 -1.6685
 2964SOL     OW20524   2.318   2.861   2.579 -0.3550  0.4798  0.1461
 2964SOL    HW120525   2.327   2.801   2.653  1.4363  1.0808  0.4088
 2964SOL    HW220526   2.372   2.820   2.511 -0.4600 -0.6656  0.7540
 2965SOL     OW20527   0.268   3.636  15.124  0.1281 -0.5051 -0.3862
 2965SOL    HW120528   0.328   3.645  15.050  1.3424 -1.3092  0.5003
 2965SOL    HW220529   0.180   3.654  15.090 -0.4805 -0.7775  1.0535
 2966SOL     OW20530   4.709   1.489  13.025 -0.0971  0.2303  0.1445
 2966SOL    HW120531   4.687   1.436  12.948  1.2496  1.6584 -1.2153
 2966SOL    HW220532   4.648   1.558  12.998 -0.0006 -0.5570 -2.1128
 2967SOL     OW20533   1.810   1.232   9.519  0.0020  0.1222  0.4433
 2967SOL    HW120534   1.771   1.146   9.532  0.0330  0.3998  2.3179
 2967SOL    HW220535   1.835   1.221   9.427 -0.2040  1.3140  0.2384
 2968SOL     OW20536   0.253   3.697  17.414 -0.6261  0.0190 -0.8160
 2968SOL    HW120537   0.234   3.605  17.396  2.9067 -1.4121  2.9731
 2968SOL    HW220538   0.302   3.715  17.334 -2.5570  2.4521 -1.4669
 2969SOL     OW20539   0.085   4.326  11.020 -0.0388  0.7124  0.4190
 2969SOL    HW120540   0.067   4.380  10.943 -0.5660 -1.7000 -1.1588
 2969SOL    HW220541   0.128   4.380  11.087 -0.9822  1.3598  0.4997
 2970SOL     OW20542   4.105   1.124   8.248  0.2630 -0.6488 -0.3575
 2970SOL    HW120543   4.193   1.138   8.285  0.8829 -3.2339 -0.8809
 2970SOL    HW220544   4.114   1.183   8.173 -0.0599 -1.6824 -1.2071
 2971SOL     OW20545   0.178   4.395   1.194  0.1359  0.2120 -0.5055
 2971SOL    HW120546   0.233   4.347   1.132  1.2965 -0.6081  1.1740
 2971SOL    HW220547   0.112   4.442   1.142  0.9167  3.1258  1.1716
 2972SOL     OW20548   2.693   4.387   4.490 -0.3218  0.6173  0.0325
 2972SOL    HW120549   2.710   4.384   4.584  0.2707  0.5879 -0.0758
 2972SOL    HW220550   2.712   4.479   4.471 -0.3679  0.2326 -1.8785
 2973SOL     OW20551   2.164   4.042  11.581 -0.6215 -0.0744 -0.5034
 2973SOL    HW120552   2.103   3.969  11.566 -1.0120  0.4881 -1.6256
 2973SOL    HW220553   2.245   4.000  11.610 -1.7637 -2.2221 -0.4287
 2974SOL     OW20554   2.620   1.348   0.347 -0.3904 -0.2654  0.4203
 2974SOL    HW120555   2.617   1.300   0.264  0.3541 -0.6539  0.6147
 2974SOL    HW220556   2.577   1.287   0.407  0.6502 -3.0377 -1.6656
 2975SOL     OW20557   3.413   3.680   5.271 -1.0703 -0.6393  0.1596
 2975SOL    HW120558   3.331   3.675   5.222 -0.4369 -0.0682 -0.9578
 2975SOL    HW220559   3.402   3.633   5.353  1.6557 -1.2218  0.1743
 2976SOL     OW20560   3.706   0.925   2.460 -0.9523 -0.3179  0.0770
 2976SOL    HW120561   3.637   0.976   2.418 -0.2539  0.7089  0.1777
 2976SOL    HW220562   3.745   0.903   2.375 -1.8806  1.6714 -0.8624
 2977SOL     OW20563   1.203   3.945  12.521  0.1940  0.2620  0.0110
 2977SOL    HW120564   1.242   3.888  12.455  1.1110 -0.6318  1.3299
 2977SOL    HW220565   1.134   3.886  12.551 -0.9427  1.5290 -0.0911
 2978SOL     OW20566   2.905   3.316  15.896  0.0445  0.4113  0.2179
 2978SOL    HW120567   2.817   3.347  15.873  0.2233 -1.0633 -2.4712
 2978SOL    HW220568   2.942   3.396  15.933  0.5480 -0.3577  1.3955
 2979SOL     OW20569   2.849   0.120  11.682  0.1252 -0.2524 -0.2053
 2979SOL    HW120570   2.886   0.043  11.639  1.9274  1.1468 -1.2007
 2979SOL    HW220571   2.816   0.159  11.601  0.0928  1.5171  0.6524
 2980SOL     OW20572   1.593   3.250   2.753 -0.4024 -0.7663  0.3982
 2980SOL    HW120573   1.517   3.248   2.695  0.1287  0.8282 -0.3644
 2980SOL    HW220574   1.547   3.273   2.834 -1.1315  0.3317 -0.3204
 2981SOL     OW20575   2.144   4.258   6.029  0.0051  0.3260 -0.1251
 2981SOL    HW120576   2.049   4.253   6.017 -0.0742 -0.4798  0.8370
 2981SOL    HW220577   2.156   4.263   5.934  0.5264  1.3904  0.0026
 2982SOL     OW20578   2.240   3.653   6.914  1.0704 -0.4511  0.4899
 2982SOL    HW120579   2.199   3.689   6.835 -0.7002  0.5728  1.8647
 2982SOL    HW220580   2.263   3.729   6.966 -0.2342 -2.0494  3.4135
 2983SOL     OW20581   1.911   1.112   6.977  0.4907 -0.0332  0.3460
 2983SOL    HW120582   1.980   1.103   7.043  3.1143  1.6558 -2.1372
 2983SOL    HW220583   1.830   1.115   7.028  0.2142  0.1290 -0.1021
 2984SOL     OW20584   2.073   4.599  16.994 -0.1627  0.1600 -0.8511
 2984SOL    HW120585   2.115   4.673  17.037 -0.7193 -1.1749  1.9794
 2984SOL    HW220586   2.002   4.643  16.947  0.1756  0.2600 -1.2662
 2985SOL     OW20587   4.426   0.816   8.445 -0.5834 -0.6692  0.1893
 2985SOL    HW120588   4.520   0.826   8.429 -0.8001  1.4916  0.2307
 2985SOL    HW220589   4.415   0.887   8.508 -1.1381 -1.6588  1.2081
 2986SOL     OW20590   3.011   3.543   8.126 -0.2773 -0.0344 -0.6113
 2986SOL    HW120591   3.002   3.460   8.079  1.7846 -0.8956  0.5034
 2986SOL    HW220592   2.938   3.548   8.188  0.5840  2.1152  0.2266
 2987SOL     OW20593   0.368   2.829  11.132 -0.5736  0.0066 -0.4926
 2987SOL    HW120594   0.350   2.863  11.220 -2.3477 -0.0553 -0.8401
 2987SOL    HW220595   0.395   2.907  11.084 -1.1626  0.3615 -0.2441
 2988SOL     OW20596   3.644   1.306   8.861 -0.5010 -0.1207 -0.5555
 2988SOL    HW120597   3.605   1.241   8.802  0.6158  0.9471 -2.5078
 2988SOL    HW220598   3.569   1.346   8.905 -0.4300  0.3689 -0.8789
 2989SOL     OW20599   4.579   3.845  16.742 -0.1349 -0.3914 -0.7632
 2989SOL    HW120600   4.658   3.841  16.688  1.1203  0.7672  1.0161
 2989SOL    HW220601   4.536   3.917  16.696 -1.3636 -0.5667  0.1156
 2990SOL     OW20602   2.562   1.043   5.192 -0.9436  0.0749 -0.1504
 2990SOL    HW120603   2.524   1.047   5.280  2.4135  3.6318  1.1003
 2990SOL    HW220604   2.582   1.136   5.183 -1.4845  0.2126  0.0203
 2991SOL     OW20605   4.513   3.910   8.320  0.2225  0.2653  0.2396
 2991SOL    HW120606   4.596   3.862   8.323 -0.5319 -1.1404 -2.0000
 2991SOL    HW220607   4.448   3.841   8.325 -0.5987  1.0885  0.9481
 2992SOL     OW20608   2.309   1.708   2.993  0.0354  0.1388 -0.4532
 2992SOL    HW120609   2.383   1.647   2.989  1.0607  1.3349  0.1667
 2992SOL    HW220610   2.297   1.740   2.904 -0.6069  1.1497 -0.0118
 2993SOL     OW20611   2.891   0.142  16.955  0.1793  0.5043 -0.0984
 2993SOL    HW120612   2.833   0.122  17.028  3.6522 -2.8638  1.7154
 2993SOL    HW220613   2.965   0.090  16.987  0.5984  0.4585 -1.1487
 2994SOL     OW20614   3.112   1.061   0.808 -0.8226 -0.0071  0.0532
 2994SOL    HW120615   3.047   1.121   0.844 -0.0457  0.9489 -0.1399
 2994SOL    HW220616   3.155   1.130   0.758 -0.5960  1.4305  2.2091
 2995SOL     OW20617   0.534   3.051   1.524  0.4123  0.1122  0.2201
 2995SOL    HW120618   0.588   3.021   1.597 -2.3061 -1.1165  1.7110
 2995SOL    HW220619   0.598   3.080   1.459 -0.8097 -2.1561 -1.9590
 2996SOL     OW20620   4.416   1.073  13.186 -0.1131  0.2442  0.4190
 2996SOL    HW120621   4.361   1.004  13.150  0.8685  0.0392 -0.6989
 2996SOL    HW220622   4.439   1.139  13.120 -0.4555 -1.3412 -1.3053
 2997SOL     OW20623   1.072   2.491  12.472 -0.1227  0.4311  0.1070
 2997SOL    HW120624   1.103   2.502  12.381  1.0652 -2.9112  0.1288
 2997SOL    HW220625   1.136   2.429  12.506 -0.5529  1.1635  2.2059
 2998SOL     OW20626   1.996   4.471   9.281 -0.8651  0.3761 -0.6610
 2998SOL    HW120627   1.939   4.394   9.275 -1.4860  0.5579  3.0484
 2998SOL    HW220628   2.008   4.484   9.375 -1.1398 -2.3321 -0.2446
 2999SOL     OW20629   1.689   3.845  17.328  0.1883 -0.1908  0.5535
 2999SOL    HW120630   1.736   3.814  17.405 -1.8538  0.9625  2.2246
 2999SOL    HW220631   1.607   3.879  17.364  0.7992  0.7561  1.0561
 3000SOL     OW20632   3.973   1.232   2.630 -0.6383  0.2031 -0.5013
 3000SOL    HW120633   3.942   1.314   2.669 -0.8136 -0.3191  0.4479
 3000SOL    HW220634   4.065   1.222   2.656 -0.0083  2.9146 -1.6011
 3001SOL     OW20635   4.021   3.306   7.167  0.2768 -0.4502 -0.3447
 3001SOL    HW120636   3.939   3.354   7.156  1.4626  1.5791 -0.2710
 3001SOL    HW220637   3.998   3.214   7.175  1.3139 -0.6293  0.6158
 3002SOL     OW20638   0.235   0.147   4.294  0.1169  0.2861  0.0065
 3002SOL    HW120639   0.217   0.210   4.364  0.6337 -0.3695  0.7242
 3002SOL    HW220640   0.174   0.180   4.227 -1.3985 -1.8967  0.3102
 3003SOL     OW20641   4.271   2.144  15.748 -0.1595 -1.0844 -0.0184
 3003SOL    HW120642   4.215   2.208  15.704  1.1038 -0.4459 -0.7138
 3003SOL    HW220643   4.235   2.136  15.837 -1.0522 -0.7961 -0.3551
 3004SOL     OW20644   1.342   3.352  13.857  0.1075 -0.1016  0.6440
 3004SOL    HW120645   1.265   3.407  13.873  0.0025  1.1609 -4.0735
 3004SOL    HW220646   1.385   3.409  13.793  0.4818 -0.5898  0.4654
 3005SOL     OW20647   2.727   1.928   5.597  0.5778 -0.0074  0.0033
 3005SOL    HW120648   2.780   1.849   5.599  2.6686  1.4237  1.1655
 3005SOL    HW220649   2.744   1.973   5.680 -0.3656  0.3095  0.0271
 3006SOL     OW20650   4.721   3.995  16.962  0.4340 -0.1977  0.0349
 3006SOL    HW120651   4.652   3.947  16.916  0.6190  0.1662 -0.6188
 3006SOL    HW220652   4.656   4.028  17.023  1.1468 -0.7851  1.1086
 3007SOL     OW20653   2.469   1.486  10.516 -0.3747  0.1825  0.0361
 3007SOL    HW120654   2.555   1.447  10.501  0.8879  1.8994  2.7743
 3007SOL    HW220655   2.434   1.504  10.429  1.3115 -1.6220 -1.0140
 3008SOL     OW20656   4.605   2.699   4.805 -0.0630 -0.0884  0.1930
 3008SOL    HW120657   4.671   2.713   4.873  2.6850 -3.1579 -1.8004
 3008SOL    HW220658   4.613   2.777   4.752 -1.8594 -0.4357 -0.5849
 3009SOL     OW20659   4.664   2.601   4.412  0.0993 -0.2971  0.1103
 3009SOL    HW120660   4.586   2.552   4.440  0.3802  0.2321  1.8017
 3009SOL    HW220661   4.611   2.680   4.403  2.3024  1.4250  2.4634
 3010SOL     OW20662   0.955   2.163   7.894 -0.1196 -0.7431  0.6813
 3010SOL    HW120663   0.869   2.150   7.855 -0.7031  0.6929  1.5141
 3010SOL    HW220664   1.021   2.115   7.844 -0.5759  0.9160 -1.5433
 3011SOL     OW20665   3.811   2.042   4.711  0.0318 -0.2847  0.0300
 3011SOL    HW120666   3.811   1.994   4.793  0.7098  0.2031  0.3100
 3011SOL    HW220667   3.722   2.024   4.680 -0.0965  0.8980 -0.2771
 3012SOL     OW20668   3.888   1.365  12.663  0.1455 -0.1771 -0.6355
 3012SOL    HW120669   3.914   1.428  12.596  0.4606  1.7178  1.2496
 3012SOL    HW220670   3.979   1.346  12.687  0.9184  0.3447 -3.1817
 3013SOL     OW20671   2.519   0.861  14.191 -0.4682 -0.0131 -0.0470
 3013SOL    HW120672   2.504   0.904  14.275  0.7065  3.3860 -1.5669
 3013SOL    HW220673   2.602   0.816  14.210 -0.4254  0.1553  0.1656
 3014SOL     OW20674   2.112   4.375  12.899  0.0224 -0.0491 -0.4038
 3014SOL    HW120675   2.111   4.292  12.852  2.3766 -1.1918  1.5269
 3014SOL    HW220676   2.043   4.366  12.965 -0.1304  0.9724 -0.4317
 3015SOL     OW20677   4.023   4.269  16.225 -0.1433  0.6626 -0.2533
 3015SOL    HW120678   3.977   4.344  16.188  1.9689  2.1951  0.1924
 3015SOL    HW220679   4.029   4.222  16.142  2.0323  0.0869  0.2319
 3016SOL     OW20680   0.376   0.696  15.512 -0.7438  0.0336 -0.2040
 3016SOL    HW120681   0.286   0.717  15.483  0.2573  1.6693 -2.2120
 3016SOL    HW220682   0.378   0.603  15.491 -1.7471  0.4084 -1.9949
 3017SOL     OW20683   1.871   2.664   3.415 -0.7087  1.0952 -0.2644
 3017SOL    HW120684   1.966   2.672   3.420 -0.6386 -0.5774  1.2078
 3017SOL    HW220685   1.852   2.747   3.373 -0.8857  0.1528 -2.0407
 3018SOL     OW20686   1.417   4.503   7.950 -0.1355  0.4092 -0.0590
 3018SOL    HW120687   1.501   4.548   7.959 -0.3311  0.1863  2.7878
 3018SOL    HW220688   1.437   4.448   7.874  0.4615  0.9724 -0.3153
 3019SOL     OW20689   2.327   2.244   5.113  0.1415 -0.3836  0.4471
 3019SOL    HW120690   2.264   2.184   5.075  1.8489 -1.6803 -0.3614
 3019SOL    HW220691   2.320   2.223   5.206 -0.6621 -0.8203  0.2831
 3020SOL     OW20692   2.156   1.192   0.491 -0.3249  0.1028  0.5533
 3020SOL    HW120693   2.188   1.251   0.424  0.4379  1.3003  1.9660
 3020SOL    HW220694   2.062   1.212   0.485  0.2483  2.7258  0.4392
 3021SOL     OW20695   0.464   3.566   9.336 -0.0533  0.0512  0.5051
 3021SOL    HW120696   0.547   3.614   9.331 -0.3377  0.3026 -1.9313
 3021SOL    HW220697   0.491   3.474   9.336 -1.6852 -0.4189 -0.0934
 3022SOL     OW20698   3.173   1.148   3.048  0.4891  0.1227  0.7240
 3022SOL    HW120699   3.220   1.217   3.095  1.3125  0.7585 -1.0094
 3022SOL    HW220700   3.102   1.134   3.110 -2.9247  0.6568 -3.0808
 3023SOL     OW20701   2.310   1.169   9.398 -0.0381  0.0706 -0.3931
 3023SOL    HW120702   2.281   1.255   9.426 -2.4261 -1.3522  1.4722
 3023SOL    HW220703   2.238   1.149   9.338 -0.8727  0.5130  0.4795
 3024SOL     OW20704   3.484   1.830   6.540 -0.0632 -0.6863 -0.1118
 3024SOL    HW120705   3.565   1.871   6.509  1.7722 -3.9152  0.4471
 3024SOL    HW220706   3.511   1.814   6.630 -1.1869  0.8683  0.4888
 3025SOL     OW20707   4.680   3.368   6.357  1.0704  0.2352  0.1487
 3025SOL    HW120708   0.009   3.439   6.362  0.0792  1.1208  0.6748
 3025SOL    HW220709   4.594   3.409   6.368  0.9826  0.3627 -1.0395
 3026SOL     OW20710   0.086   4.136   9.127 -0.3075 -0.1280  0.0849
 3026SOL    HW120711   0.130   4.054   9.146  0.0816  0.0172 -0.1820
 3026SOL    HW220712   0.005   4.109   9.170 -0.1053  0.4101  0.7955
 3027SOL     OW20713   3.473   0.860  13.446 -0.1511 -0.4160 -0.1756
 3027SOL    HW120714   3.460   0.831  13.355  0.8632 -0.1867 -0.3922
 3027SOL    HW220715   3.550   0.916  13.438 -1.9768  2.0410 -0.3783
 3028SOL     OW20716   2.473   0.076  15.037 -0.1705  0.2435 -1.1249
 3028SOL    HW120717   2.452   0.147  14.976  0.0260  1.1495 -0.1380
 3028SOL    HW220718   2.433   0.125  15.109  0.8368 -2.2003  1.1223
 3029SOL     OW20719   0.809   0.396  17.191 -0.1806 -0.8436 -0.5516
 3029SOL    HW120720   0.896   0.378  17.227 -0.5404  2.7212  2.0885
 3029SOL    HW220721   0.783   0.473  17.241 -0.8358 -1.5947  0.2588
 3030SOL     OW20722   0.236   2.687  15.474  0.0659 -0.4204 -0.5165
 3030SOL    HW120723   0.331   2.686  15.487 -0.1325 -1.2542  0.8107
 3030SOL    HW220724   0.215   2.638  15.554 -0.6600  0.7915  0.0312
 3031SOL     OW20725   1.848   2.794  12.584  0.5643 -0.1544  0.2570
 3031SOL    HW120726   1.916   2.732  12.610 -0.4062 -0.8525  1.0965
 3031SOL    HW220727   1.766   2.747  12.568 -0.2049  1.1383  0.3806
 3032SOL     OW20728   3.623   3.820   2.696  0.1446 -0.1456 -1.1167
 3032SOL    HW120729   3.585   3.751   2.642 -0.7313  0.8489 -1.7557
 3032SOL    HW220730   3.629   3.899   2.642 -1.7054  0.6781 -0.0989
 3033SOL     OW20731   2.813   1.724   4.436 -0.4886  0.0818  0.1183
 3033SOL    HW120732   2.878   1.727   4.507  1.2070 -1.0927 -1.3583
 3033SOL    HW220733   2.850   1.681   4.359 -1.2876  0.8378 -0.6671
 3034SOL     OW20734   3.913   4.492   8.331  1.0934  0.0819  0.2170
 3034SOL    HW120735   3.876   4.408   8.300  3.1342 -0.1410 -1.6312
 3034SOL    HW220736   3.958   4.461   8.409  1.0727 -0.2391  0.1028
 3035SOL     OW20737   1.929   0.568   5.996  0.6659  0.1939  0.3129
 3035SOL    HW120738   2.006   0.626   5.996  1.0034 -0.2290 -1.4527
 3035SOL    HW220739   1.856   0.628   5.982  1.2296  0.5151 -1.3367
 3036SOL     OW20740   1.988   4.102   2.963  0.3758  0.2846 -0.0874
 3036SOL    HW120741   1.986   4.009   2.941 -1.9116  0.0604  1.1071
 3036SOL    HW220742   2.083   4.105   2.973  0.5882 -0.5680 -1.9219
 3037SOL     OW20743   2.699   3.805  12.783 -0.0536  0.4746 -0.3153
 3037SOL    HW120744   2.704   3.805  12.878 -2.0731 -1.4547 -0.2007
 3037SOL    HW220745   2.644   3.726  12.776 -1.3302  1.4152 -0.8476
 3038SOL     OW20746   1.166   3.350   2.148 -0.3892  0.4529 -0.2605
 3038SOL    HW120747   1.078   3.312   2.157 -0.1573 -0.5255 -2.1457
 3038SOL    HW220748   1.175   3.356   2.053 -0.6637 -0.7096 -0.3606
 3039SOL     OW20749   2.188   4.539   8.855 -0.3010 -0.3647 -0.0541
 3039SOL    HW120750   2.229   4.584   8.928 -0.7252  0.5781 -0.3934
 3039SOL    HW220751   2.213   4.607   8.792  0.7044 -1.4429 -0.8075
 3040SOL     OW20752   1.488   0.055   3.260 -0.3564 -0.0033  0.0883
 3040SOL    HW120753   1.497   0.051   3.356 -0.1545 -0.5455  0.0515
 3040SOL    HW220754   1.502   0.147   3.240  2.1270 -0.4727 -0.3761
 3041SOL     OW20755   2.542   1.752   5.250 -0.9110 -0.1360 -0.8111
 3041SOL    HW120756   2.598   1.825   5.223 -0.1450 -0.2530  0.4306
 3041SOL    HW220757   2.601   1.686   5.288  1.3694  2.7785  0.6871
 3042SOL     OW20758   3.144   0.548   1.185  0.1366 -0.0270  0.3969
 3042SOL    HW120759   3.170   0.490   1.112  0.4209 -0.4773  0.8532
 3042SOL    HW220760   3.054   0.570   1.164  0.6373  1.7045  0.0908
 3043SOL     OW20761   1.003   3.324   7.451  0.4008 -0.4836  0.0457
 3043SOL    HW120762   1.018   3.363   7.537  0.6475  0.4429 -0.4169
 3043SOL    HW220763   1.027   3.390   7.386  0.2174 -1.2017 -0.7383
 3044SOL     OW20764   1.948   2.344   4.844 -0.3395  0.1889 -0.1531
 3044SOL    HW120765   1.976   2.434   4.826 -0.6399  0.3133 -0.0052
 3044SOL    HW220766   2.008   2.297   4.787 -0.3378  0.5398 -0.4436
 3045SOL     OW20767   1.321   0.352  11.775  0.5668  0.2025 -0.7108
 3045SOL    HW120768   1.229   0.365  11.752  0.5486 -0.2543 -0.8871
 3045SOL    HW220769   1.369   0.381  11.698 -0.9229 -2.6788 -2.7485
 3046SOL     OW20770   4.001   3.551   2.490  0.3618 -0.0660 -0.1550
 3046SOL    HW120771   4.016   3.646   2.494 -1.1890  0.2214 -1.0760
 3046SOL    HW220772   3.933   3.542   2.557 -1.4385  1.2594 -1.7792
 3047SOL     OW20773   0.633   1.626   4.496 -0.0126 -0.2057 -0.5155
 3047SOL    HW120774   0.659   1.534   4.493 -0.6521 -0.4410  0.7564
 3047SOL    HW220775   0.538   1.619   4.505 -0.0189  0.8185  0.2820
 3048SOL     OW20776   3.886   4.528   6.139  0.3489  0.1426 -0.2000
 3048SOL    HW120777   3.797   4.492   6.140 -0.4074  2.0716  0.3684
 3048SOL    HW220778   3.869   4.594   6.072  0.5186  0.5042  0.1178
 3049SOL     OW20779   2.622   4.640  16.103 -0.1257 -0.1550  0.0405
 3049SOL    HW120780   2.713   4.659  16.124 -0.3483  1.6701 -0.6858
 3049SOL    HW220781   2.601   4.704  16.035  2.3121  1.0517  0.4311
 3050SOL     OW20782   2.329   0.607   4.250 -0.4380 -0.0766 -0.0226
 3050SOL    HW120783   2.330   0.589   4.344 -0.0885 -1.5442 -0.3031
 3050SOL    HW220784   2.274   0.533   4.223 -1.5939  1.2307 -1.2906
 3051SOL     OW20785   1.098   1.206   6.134 -0.3868  0.2404 -0.2155
 3051SOL    HW120786   1.176   1.253   6.167 -0.2808 -0.1533  0.0902
 3051SOL    HW220787   1.122   1.117   6.157  1.8207  1.2252  1.3451
 3052SOL     OW20788   3.665   1.164  11.697 -0.2649  0.2860  0.6883
 3052SOL    HW120789   3.661   1.069  11.703 -0.0456  0.2505  0.2348
 3052SOL    HW220790   3.672   1.185  11.790  2.4259  1.5989  0.1893
 3053SOL     OW20791   2.349   1.008   2.586  0.3338 -0.6597 -0.2411
 3053SOL    HW120792   2.403   1.035   2.660  0.2187 -1.4917  0.1476
 3053SOL    HW220793   2.258   1.027   2.608 -0.0102 -1.3493 -1.0523
 3054SOL     OW20794   0.407   4.586   7.563 -0.4531 -0.0191  0.0522
 3054SOL    HW120795   0.429   4.604   7.472 -2.0549  0.5266 -0.2331
 3054SOL    HW220796   0.459   4.507   7.573  0.7241  0.6911 -0.5432
 3055SOL     OW20797   1.701   3.677  13.310  0.4153  0.1320 -0.2783
 3055SOL    HW120798   1.616   3.636  13.294 -1.3197  2.3264  3.3096
 3055SOL    HW220799   1.709   3.670  13.405 -0.0628 -3.6911 -0.4935
 3056SOL     OW20800   1.733   3.652  13.582  0.0032 -0.1506 -0.5298
 3056SOL    HW120801   1.784   3.571  13.589 -0.4037 -0.5627 -2.3925
 3056SOL    HW220802   1.803   3.713  13.605  1.3699 -0.9440 -2.5153
 3057SOL     OW20803   1.180   2.153   8.216  0.2253 -0.1600 -0.3707
 3057SOL    HW120804   1.212   2.224   8.272 -2.3839 -1.1617  2.4229
 3057SOL    HW220805   1.237   2.081   8.245 -1.0463 -1.4043 -0.9981
 3058SOL     OW20806   2.570   4.472   8.816  0.5487 -0.4735  0.3912
 3058SOL    HW120807   2.584   4.547   8.759 -1.9289 -0.3400 -0.0345
 3058SOL    HW220808   2.662   4.450   8.832  1.2464  1.3455 -1.1720
 3059SOL     OW20809   0.361   4.017  17.635 -0.1033  0.6926  0.6767
 3059SOL    HW120810   0.358   4.112  17.619  1.7482  0.4158 -1.2426
 3059SOL    HW220811   0.424   4.018  17.707  1.0873  0.5412 -0.3742
 3060SOL     OW20812   3.141   3.426   2.989 -0.1673  0.5026  0.1649
 3060SOL    HW120813   3.196   3.416   3.067  0.3777  1.3235 -0.1213
 3060SOL    HW220814   3.055   3.402   3.025 -0.3451  1.7540  0.5679
 3061SOL     OW20815   0.185   4.155   7.764 -0.7601 -0.1328 -0.1608
 3061SOL    HW120816   0.202   4.119   7.677  0.3182  0.2057 -0.0885
 3061SOL    HW220817   0.186   4.079   7.822 -1.4505  0.5635  0.7540
 3062SOL     OW20818   0.712   1.353   8.023 -0.2422 -0.7802 -0.3486
 3062SOL    HW120819   0.642   1.342   8.087 -1.1386  0.1428 -1.1756
 3062SOL    HW220820   0.721   1.261   8.001  1.5171 -0.4143 -1.1516
 3063SOL     OW20821   3.548   4.671   5.458 -0.4244 -0.1821 -0.5155
 3063SOL    HW120822   3.490   0.004   5.425  0.1056  0.9695  0.9699
 3063SOL    HW220823   3.634   4.710   5.474 -1.4908  0.9849  2.3269
 3064SOL     OW20824   0.074   3.217  11.200 -0.6388  0.1490  0.1689
 3064SOL    HW120825   4.715   3.225  11.191 -0.4920  1.9438  0.1735
 3064SOL    HW220826   0.091   3.287  11.262  0.1211 -0.1836  0.3343
 3065SOL     OW20827   2.187   4.530   3.924  0.6262 -0.1099  0.4137
 3065SOL    HW120828   2.168   4.582   3.846  3.7403 -1.1771 -1.0861
 3065SOL    HW220829   2.156   4.590   3.992 -0.2317 -1.0208  0.8289
 3066SOL     OW20830   2.983   1.771  15.591 -0.2045 -0.3843  0.4162
 3066SOL    HW120831   2.905   1.824  15.606  1.9830  2.5620  1.3909
 3066SOL    HW220832   2.933   1.690  15.579  1.6659 -1.3946 -0.5594
 3067SOL     OW20833   2.978   3.209   1.826  0.3150 -0.5552 -0.1751
 3067SOL    HW120834   3.029   3.138   1.865  4.2204  3.0354  1.3166
 3067SOL    HW220835   2.999   3.199   1.733  2.7544  1.8049  0.1091
 3068SOL     OW20836   2.383   0.847   6.664 -0.1503  0.0451 -0.8229
 3068SOL    HW120837   2.295   0.862   6.697  1.1928 -0.7895  3.0777
 3068SOL    HW220838   2.417   0.936   6.666  2.3610 -0.8814 -1.9654
 3069SOL     OW20839   2.807   2.445  17.584 -0.3507  0.1857 -0.0644
 3069SOL    HW120840   2.853   2.499  17.519 -2.3409  0.7473 -1.0058
 3069SOL    HW220841   2.718   2.481  17.574  0.5520  2.5103  0.1832
 3070SOL     OW20842   4.276   2.330  11.920  0.0989 -0.7002  0.4847
 3070SOL    HW120843   4.229   2.249  11.941  0.3865 -1.0871 -0.3694
 3070SOL    HW220844   4.239   2.383  11.991 -2.6309  0.5024 -1.8151
 3071SOL     OW20845   2.929   4.129   5.837 -0.1284  0.4457 -0.1292
 3071SOL    HW120846   2.991   4.135   5.910 -0.4883  2.3197  0.0253
 3071SOL    HW220847   2.947   4.209   5.789  1.1167  1.5855  2.2467
 3072SOL     OW20848   2.108   1.059  11.757 -0.0894 -0.5268 -0.5883
 3072SOL    HW120849   2.105   0.967  11.730  1.7697 -0.4689 -1.0615
 3072SOL    HW220850   2.068   1.051  11.843  1.3735  1.5149  0.2640
 3073SOL     OW20851   4.418   2.483  11.749  0.3785  0.2407  0.1049
 3073SOL    HW120852   4.495   2.506  11.801  0.2299 -1.2460  0.9965
 3073SOL    HW220853   4.378   2.421  11.810 -0.8523  2.2056  1.2876
 3074SOL     OW20854   0.352   2.869   8.842  0.0338  0.3523  0.0005
 3074SOL    HW120855   0.303   2.924   8.904  0.7176  0.7754  0.1622
 3074SOL    HW220856   0.278   2.836   8.790 -0.5176  1.7778 -0.1242
 3075SOL     OW20857   0.160   0.908  10.360  0.4025 -0.0038  0.7919
 3075SOL    HW120858   0.128   0.910  10.270  0.1349  3.2539  0.9617
 3075SOL    HW220859   0.087   0.944  10.411  0.6698  1.8309 -0.1356
 3076SOL     OW20860   1.460   3.233  10.069 -0.2149 -0.5428 -0.2859
 3076SOL    HW120861   1.535   3.181  10.097 -0.5729 -0.1220  1.4887
 3076SOL    HW220862   1.478   3.264   9.980 -2.6715 -2.2545 -1.3790
 3077SOL     OW20863   3.546   4.443  14.872 -0.7294 -0.2895  0.3538
 3077SOL    HW120864   3.554   4.438  14.968 -2.1170 -2.2413  0.3838
 3077SOL    HW220865   3.465   4.398  14.850 -0.9072  0.2362 -0.0473
 3078SOL     OW20866   2.060   1.128   1.501  0.3249 -0.3517 -0.1746
 3078SOL    HW120867   2.033   1.044   1.537  0.3214 -0.5296 -0.5897
 3078SOL    HW220868   2.053   1.119   1.406 -4.2502 -0.2238  0.1927
 3079SOL     OW20869   0.827   1.616   4.273  0.6332  0.1235  0.3501
 3079SOL    HW120870   0.762   1.645   4.337 -0.8330 -0.3595 -0.9405
 3079SOL    HW220871   0.872   1.544   4.318  1.7989  0.0352 -0.9495
 3080SOL     OW20872   1.721   0.817   4.900  0.2932 -0.0790  0.0110
 3080SOL    HW120873   1.672   0.877   4.957 -0.2884 -0.0689 -0.4948
 3080SOL    HW220874   1.744   0.753   4.968  1.2074  0.2823  0.0461
 3081SOL     OW20875   1.296   0.385   4.893 -0.4010  0.0582 -0.2457
 3081SOL    HW120876   1.349   0.433   4.956  0.2414 -1.7131  0.5600
 3081SOL    HW220877   1.300   0.447   4.820  3.4280  1.0835  0.8635
 3082SOL     OW20878   2.997   3.898   3.495 -0.0570  0.0522  0.1851
 3082SOL    HW120879   3.042   3.870   3.416  0.8303 -1.6428  1.2850
 3082SOL    HW220880   3.067   3.905   3.559  2.2738 -0.9675 -2.2809
 3083SOL     OW20881   0.028   2.968   4.288 -0.0050 -0.7127  0.0394
 3083SOL    HW120882   0.079   2.897   4.247 -1.0287 -1.1397 -0.4929
 3083SOL    HW220883   0.047   3.042   4.230 -1.3867 -0.7779 -0.5060
 3084SOL     OW20884   0.670   3.740  17.606  0.0714 -0.1328 -0.5803
 3084SOL    HW120885   0.588   3.727  17.654  1.0262 -1.3100  0.7436
 3084SOL    HW220886   0.645   3.692  17.527 -2.1449  0.3228 -0.1679
 3085SOL     OW20887   1.974   2.334   7.494  0.0062  0.3225 -0.2543
 3085SOL    HW120888   1.922   2.283   7.432  0.1663 -0.3222  0.1355
 3085SOL    HW220889   1.963   2.288   7.577  1.0559  0.7067  0.0991
 3086SOL     OW20890   2.264   3.375   3.162 -0.3354 -0.1557 -0.1236
 3086SOL    HW120891   2.182   3.331   3.183 -0.6907  0.6960  0.2714
 3086SOL    HW220892   2.221   3.450   3.122 -1.2786 -0.9195 -0.5284
 3087SOL     OW20893   3.407   3.679   3.636 -0.2978 -0.3333  0.3425
 3087SOL    HW120894   3.365   3.595   3.648  0.0627 -0.7310 -1.2013
 3087SOL    HW220895   3.438   3.679   3.545 -0.0533  1.8426  0.4234
 3088SOL     OW20896   0.324   1.306  17.422  0.5133  0.5498  0.2379
 3088SOL    HW120897   0.299   1.228  17.373  1.1139  0.0551  0.7192
 3088SOL    HW220898   0.237   1.340  17.441 -0.0146  0.1914 -1.6062
 3089SOL     OW20899   4.574   0.214  10.204 -0.4737 -0.2260  0.1186
 3089SOL    HW120900   4.486   0.188  10.232 -1.0230  1.1094 -0.3614
 3089SOL    HW220901   4.613   0.237  10.288  1.4593 -0.2851 -0.7568
 3090SOL     OW20902   2.537   3.274  11.328  0.4378 -0.3567  0.1386
 3090SOL    HW120903   2.443   3.275  11.310  0.6679 -1.3460 -1.1568
 3090SOL    HW220904   2.524   3.308  11.416 -0.5529  1.3085 -0.6596
 3091SOL     OW20905   2.695   4.083  16.906  0.3346  0.1700 -0.4370
 3091SOL    HW120906   2.714   4.147  16.974 -0.2371  1.2695 -1.3061
 3091SOL    HW220907   2.706   4.136  16.827 -0.8993 -0.5132 -1.0599
 3092SOL     OW20908   1.320   0.933   7.356  0.2603  0.1663 -0.0168
 3092SOL    HW120909   1.374   0.870   7.307 -1.5141 -0.0405 -1.7252
 3092SOL    HW220910   1.343   0.928   7.449  1.5375  0.4777 -0.3158
 3093SOL     OW20911   2.884   2.958  14.044  0.8209 -0.2935  0.5482
 3093SOL    HW120912   2.919   2.879  14.084 -0.0666 -0.6049  0.7230
 3093SOL    HW220913   2.964   3.006  14.027  1.1984 -1.0254  0.2716
 3094SOL     OW20914   2.193   1.199   6.420 -0.0806 -0.7285 -0.1481
 3094SOL    HW120915   2.151   1.149   6.490 -0.3842  1.0745  0.9854
 3094SOL    HW220916   2.121   1.179   6.360  0.6649  1.0071 -1.6089
 3095SOL     OW20917   4.573   1.259  10.145 -0.0808  0.0672 -0.0142
 3095SOL    HW120918   4.585   1.268  10.051 -2.7839  0.0010 -0.3759
 3095SOL    HW220919   4.483   1.292  10.151  0.4594  1.4879  0.2518
 3096SOL     OW20920   1.849   4.539   0.849  0.0351 -0.0934  0.1196
 3096SOL    HW120921   1.826   4.582   0.766 -1.9957 -1.5632 -0.1023
 3096SOL    HW220922   1.762   4.502   0.865  0.7858 -1.4583  1.0356
 3097SOL     OW20923   1.998   2.165   5.307  1.0904  0.4774 -0.3388
 3097SOL    HW120924   1.975   2.084   5.261 -0.3792 -0.8331  2.7578
 3097SOL    HW220925   1.965   2.151   5.395  0.7759 -3.1468 -1.0533
 3098SOL     OW20926   1.114   1.373  16.042  0.6750 -0.4286 -0.2128
 3098SOL    HW120927   1.039   1.318  16.019  1.2068 -0.2373 -2.3581
 3098SOL    HW220928   1.086   1.461  16.020 -3.4649 -1.4231  1.0289
 3099SOL     OW20929   3.489   3.680   2.472 -0.3080 -0.1838  0.2228
 3099SOL    HW120930   3.497   3.588   2.448 -1.0920 -0.0560 -0.5396
 3099SOL    HW220931   3.501   3.709   2.382  1.5618 -1.9206 -0.0885
 3100SOL     OW20932   2.739   3.024   6.639  0.1952  0.1317 -0.2175
 3100SOL    HW120933   2.785   3.021   6.722 -0.7565 -0.5476  0.2834
 3100SOL    HW220934   2.759   3.109   6.599  1.2904 -0.0906 -0.1253
 3101SOL     OW20935   0.780   1.068   2.499  0.6401 -0.0045 -0.2527
 3101SOL    HW120936   0.699   1.017   2.501  0.1065  0.9188  2.0964
 3101SOL    HW220937   0.743   1.155   2.512 -0.5360 -0.1096 -2.7731
 3102SOL     OW20938   4.494   4.522   2.110  0.0382  0.2574  0.0589
 3102SOL    HW120939   4.567   4.459   2.108  0.4188  0.6973 -0.0022
 3102SOL    HW220940   4.434   4.471   2.163 -0.8176  1.6987  0.4713
 3103SOL     OW20941   1.097   3.002   5.399 -0.0662  0.4029 -0.4371
 3103SOL    HW120942   1.152   3.074   5.429 -0.4722  0.3598  0.4081
 3103SOL    HW220943   1.097   3.013   5.304  0.7939 -1.0132 -0.5971
 3104SOL     OW20944   2.862   1.206  12.577  0.2191 -0.1804  0.2184
 3104SOL    HW120945   2.806   1.157  12.636 -0.1842 -1.3536 -1.1465
 3104SOL    HW220946   2.810   1.277  12.539 -1.2274 -1.9904 -1.1427
 3105SOL     OW20947   2.401   3.014   4.048  0.0935  0.0443 -0.4517
 3105SOL    HW120948   2.384   3.030   3.955 -1.0405  0.5921 -0.1464
 3105SOL    HW220949   2.442   3.098   4.072 -0.8710  0.8737 -1.7249
 3106SOL     OW20950   2.629   4.007   2.009  0.1167 -0.4045  0.5214
 3106SOL    HW120951   2.581   3.927   2.034 -0.4038 -0.2549 -0.0048
 3106SOL    HW220952   2.584   4.037   1.930 -2.5777 -1.5372  1.6050
 3107SOL     OW20953   3.195   1.913   3.966  0.2798  0.1570  0.2781
 3107SOL    HW120954   3.231   1.887   3.881 -1.7701  0.4624 -0.6903
 3107SOL    HW220955   3.128   1.848   3.983 -0.0279  0.0850 -1.1750
 3108SOL     OW20956   2.298   1.667   2.708 -0.0601 -0.2096 -0.4099
 3108SOL    HW120957   2.278   1.585   2.663 -2.2547  0.2120 -0.2126
 3108SOL    HW220958   2.388   1.681   2.680 -0.5641  0.6779 -1.5754
 3109SOL     OW20959   4.663   3.851   3.869 -0.1576  0.1412  0.7485
 3109SOL    HW120960   0.013   3.843   3.826 -1.9631  0.7161 -2.9876
 3109SOL    HW220961   4.667   3.788   3.941 -2.0675 -2.0228 -1.0645
 3110SOL     OW20962   3.891   4.703   1.653  0.4351  0.1317 -0.2393
 3110SOL    HW120963   3.844   0.005   1.578  0.0177 -0.1741 -0.1303
 3110SOL    HW220964   3.817   4.686   1.711  0.1285  0.8448 -0.4229
 3111SOL     OW20965   0.071   0.690  11.199  0.3417 -0.2353 -0.1851
 3111SOL    HW120966   4.727   0.714  11.152  0.5333  2.5659  0.9350
 3111SOL    HW220967   0.126   0.759  11.162  0.3867 -0.6785 -0.9360
 3112SOL     OW20968   3.501   3.558  16.791 -0.0447 -0.1000 -0.4731
 3112SOL    HW120969   3.523   3.549  16.698 -2.0804 -1.8189 -0.7797
 3112SOL    HW220970   3.559   3.488  16.824 -0.3276 -1.1865 -2.3011
 3113SOL     OW20971   1.737   0.141   3.975 -0.2644 -0.1024 -0.0760
 3113SOL    HW120972   1.748   0.061   3.924 -1.1928 -0.4042  0.2050
 3113SOL    HW220973   1.643   0.147   3.987 -0.4368 -2.2504 -0.3901
 3114SOL     OW20974   1.819   1.817   8.597 -0.2215  0.1361 -0.4409
 3114SOL    HW120975   1.835   1.881   8.666  0.7827  0.3710 -0.8733
 3114SOL    HW220976   1.748   1.861   8.551 -0.3990  0.5330  0.2115
 3115SOL     OW20977   4.029   3.643   7.367 -0.2313 -0.3194  0.3347
 3115SOL    HW120978   4.001   3.574   7.427 -1.7723  0.5765  0.6281
 3115SOL    HW220979   3.951   3.698   7.370 -0.8103 -1.1418  0.3049
 3116SOL     OW20980   0.640   3.606   1.263  0.3108 -0.8496 -0.1028
 3116SOL    HW120981   0.704   3.659   1.310 -1.5898  0.5844  0.8166
 3116SOL    HW220982   0.639   3.527   1.317  0.6520 -1.0575 -0.3949
 3117SOL     OW20983   1.374   0.961   8.419 -0.0799 -0.4559  0.5683
 3117SOL    HW120984   1.310   1.016   8.463 -0.0154  0.2233 -0.1710
 3117SOL    HW220985   1.350   0.988   8.330  0.4546 -1.3148  0.1567
 3118SOL     OW20986   2.500   1.044   5.523 -0.3849 -0.0570  1.0254
 3118SOL    HW120987   2.495   1.061   5.617  0.0226 -2.8281  1.5325
 3118SOL    HW220988   2.428   0.983   5.509 -0.1897  0.2182 -1.2108
 3119SOL     OW20989   2.116   4.524   0.759 -0.1890  0.1739  0.6653
 3119SOL    HW120990   2.119   4.429   0.751 -0.5954  0.0895  1.4730
 3119SOL    HW220991   2.038   4.543   0.811 -1.2001 -2.3455  0.0760
 3120SOL     OW20992   1.458   0.398  10.572  0.0801  0.4437  0.2205
 3120SOL    HW120993   1.443   0.304  10.576  1.0156  0.3023  0.2292
 3120SOL    HW220994   1.488   0.404  10.482 -0.4584  0.3098  0.0303
 3121SOL     OW20995   3.467   3.203   2.951 -0.1228  0.8626 -0.0169
 3121SOL    HW120996   3.504   3.240   2.870  2.6529 -0.9579  0.4126
 3121SOL    HW220997   3.400   3.146   2.913  0.0176  0.6080  0.1221
 3122SOL     OW20998   1.162   0.300  15.518 -0.3214 -0.6394  0.4014
 3122SOL    HW120999   1.231   0.243  15.552  1.3789 -0.4304 -2.6507
 3122SOL    HW221000   1.158   0.353  15.598  0.6674 -0.1690  0.1470
 3123SOL     OW21001   4.503   1.748  14.781  0.5450 -0.3590  0.0778
 3123SOL    HW121002   4.501   1.653  14.786  0.5019 -0.1230  4.1488
 3123SOL    HW221003   4.462   1.775  14.863 -0.5031 -2.3570  0.2072
 3124SOL     OW21004   1.622   2.620   1.800 -0.3418 -0.3708 -0.1460
 3124SOL    HW121005   1.591   2.530   1.798  0.2341 -0.5815  0.6020
 3124SOL    HW221006   1.613   2.640   1.707  0.7536 -0.2313 -0.2199
 3125SOL     OW21007   1.570   2.424   2.257  0.1558 -0.5223 -0.3765
 3125SOL    HW121008   1.603   2.432   2.167  0.1779 -1.2232 -0.4321
 3125SOL    HW221009   1.598   2.509   2.290  0.1388 -0.1076 -1.4209
 3126SOL     OW21010   1.073   1.605   2.090 -0.3097  0.3676 -0.3845
 3126SOL    HW121011   1.004   1.547   2.059 -0.4654  0.3778 -0.0556
 3126SOL    HW221012   1.144   1.548   2.120 -1.0010 -1.5997 -2.5094
 3127SOL     OW21013   1.076   3.502   6.476 -0.3308 -0.3153 -0.1907
 3127SOL    HW121014   1.044   3.544   6.555 -2.3699  0.5225 -1.4707
 3127SOL    HW221015   1.169   3.498   6.497  0.1370  1.1543 -2.0491
 3128SOL     OW21016   4.725   0.032   4.785  0.3933  0.0439 -0.1404
 3128SOL    HW121017   4.731   0.112   4.732  0.2576 -0.0019 -0.2236
 3128SOL    HW221018   0.058   4.717   4.741  1.4345  0.3054  1.1762
 3129SOL     OW21019   4.550   0.091  11.056  0.4083  0.5456 -0.2537
 3129SOL    HW121020   4.462   0.104  11.091  0.5221 -0.2240  0.3079
 3129SOL    HW221021   4.541   0.001  11.023  1.5716 -0.7538  2.9269
 3130SOL     OW21022   2.076   3.911  10.671  1.3384  0.2373 -0.8559
 3130SOL    HW121023   2.025   3.881  10.747 -0.5717  1.3275 -1.7115
 3130SOL    HW221024   2.052   3.842  10.609 -1.4360 -0.0470  0.5199
 3131SOL     OW21025   1.186   4.699   6.636  0.2027  0.1125  0.0432
 3131SOL    HW121026   1.183   4.604   6.622 -0.0227 -0.0370  1.0660
 3131SOL    HW221027   1.093   4.717   6.650 -0.5847 -3.5804 -0.4268
 3132SOL     OW21028   4.482   0.787  15.155 -0.0853  0.3108  0.3717
 3132SOL    HW121029   4.572   0.771  15.184 -0.7968 -2.1881  1.2233
 3132SOL    HW221030   4.438   0.704  15.171 -1.0750  0.3609 -2.1705
 3133SOL     OW21031   2.089   2.077  13.429 -0.1160 -0.3593 -0.4618
 3133SOL    HW121032   2.078   1.984  13.447 -1.8640  0.0136  0.4187
 3133SOL    HW221033   2.140   2.105  13.505 -1.5385  1.0968 -0.0229
 3134SOL     OW21034   2.385   0.934   6.953 -1.0689  0.4520 -0.0282
 3134SOL    HW121035   2.311   0.920   7.013  0.6073 -1.1183  1.6872
 3134SOL    HW221036   2.439   0.855   6.953 -3.0195 -0.9033  0.4745
 3135SOL     OW21037   0.719   0.278  11.825 -0.1430  0.5962 -0.2546
 3135SOL    HW121038   0.794   0.318  11.781  0.8130 -0.9805 -0.0725
 3135SOL    HW221039   0.747   0.287  11.916  1.2229 -1.8958 -0.4182
 3136SOL     OW21040   1.801   3.020   4.701  1.2016 -0.6916  0.4162
 3136SOL    HW121041   1.848   3.088   4.652  0.7705 -0.6601  0.0474
 3136SOL    HW221042   1.852   2.944   4.672  0.1889 -1.1011 -0.2885
 3137SOL     OW21043   2.404   2.818   2.993 -0.3370  0.3944 -0.3607
 3137SOL    HW121044   2.406   2.724   2.973  1.3997  0.2089  0.7716
 3137SOL    HW221045   2.310   2.836   3.001 -0.6657 -0.9203 -1.1815
 3138SOL     OW21046   2.120   0.502   0.154  0.1042 -0.6752  0.8948
 3138SOL    HW121047   2.044   0.541   0.111  1.5280  0.5922 -0.4599
 3138SOL    HW221048   2.191   0.554   0.119 -1.5508  1.2133  0.3189
 3139SOL     OW21049   3.459   1.695  16.244  0.0420 -0.2285  0.0789
 3139SOL    HW121050   3.403   1.757  16.291  0.4366  1.0239 -1.1106
 3139SOL    HW221051   3.460   1.735  16.157  0.5119 -0.2452  0.0759
 3140SOL     OW21052   3.903   0.634   5.450  0.4456 -0.1299 -0.3656
 3140SOL    HW121053   3.835   0.606   5.389  0.0638 -1.4080  0.6571
 3140SOL    HW221054   3.872   0.587   5.528  1.6493 -2.7383 -1.4554
 3141SOL     OW21055   1.875   0.836  10.773  0.0878 -0.4074  0.3806
 3141SOL    HW121056   1.950   0.823  10.832  1.2014 -1.3623 -1.2486
 3141SOL    HW221057   1.822   0.756  10.779 -0.7016  0.2545  2.3419
 3142SOL     OW21058   2.579   0.564  12.830 -0.1299 -0.1451  0.1918
 3142SOL    HW121059   2.522   0.554  12.754  0.8899  0.9966 -0.7341
 3142SOL    HW221060   2.640   0.491  12.824 -0.5446 -0.5406  0.7980
 3143SOL     OW21061   1.805   0.201  15.288 -0.1891 -0.5307 -0.3182
 3143SOL    HW121062   1.793   0.215  15.194  0.4906 -4.0340 -0.9402
 3143SOL    HW221063   1.764   0.279  15.324  3.6182  0.4137  1.9297
 3144SOL     OW21064   0.769   0.274   8.000 -0.1975  0.1785  0.4115
 3144SOL    HW121065   0.691   0.262   8.054  0.5699  2.6238  2.0526
 3144SOL    HW221066   0.718   0.291   7.920 -1.0960  1.1435  1.1887
 3145SOL     OW21067   1.827   2.686  17.469 -0.3937 -0.2736  0.3449
 3145SOL    HW121068   1.808   2.695  17.562  1.1111 -1.6718  0.7914
 3145SOL    HW221069   1.845   2.778  17.451  4.5629 -1.1734  0.6510
 3146SOL     OW21070   3.349   2.857   2.246  0.2918  0.1216 -0.8056
 3146SOL    HW121071   3.365   2.940   2.290 -1.5483 -0.8834  1.7806
 3146SOL    HW221072   3.435   2.817   2.231  0.0231 -0.0087 -2.0283
 3147SOL     OW21073   0.266   1.036   9.875  0.0132 -0.1825  0.3284
 3147SOL    HW121074   0.233   1.011   9.789 -0.0464  1.3926 -0.1076
 3147SOL    HW221075   0.237   1.128   9.873 -1.8867 -0.8586 -3.6071
 3148SOL     OW21076   2.956   1.010   5.904  0.0952  0.2066  0.1846
 3148SOL    HW121077   3.009   0.990   5.826 -3.1796 -1.4918 -1.5953
 3148SOL    HW221078   3.023   1.065   5.944 -0.4766  1.0698 -0.0498
 3149SOL     OW21079   3.436   1.423  13.964 -0.2007  0.2759 -0.1377
 3149SOL    HW121080   3.396   1.398  14.048 -1.6039  1.3430 -0.4855
 3149SOL    HW221081   3.402   1.352  13.910  1.5659 -1.4702  1.0847
 3150SOL     OW21082   0.570   1.501   5.685 -0.0278 -0.0033 -0.0825
 3150SOL    HW121083   0.648   1.487   5.738  0.7136  0.6536 -1.0004
 3150SOL    HW221084   0.513   1.558   5.737  0.8716  0.0666  0.8201
 3151SOL     OW21085   3.145   3.747   7.183 -0.4110 -0.0916 -0.0236
 3151SOL    HW121086   3.050   3.747   7.197 -0.3737  1.3491  0.2774
 3151SOL    HW221087   3.159   3.797   7.103  2.5301 -1.8337 -0.5946
 3152SOL     OW21088   4.655   4.005   4.218 -1.0290  0.2130  0.1181
 3152SOL    HW121089   4.562   3.983   4.224 -1.0606  0.6230  0.9794
 3152SOL    HW221090   4.645   4.055   4.137 -1.7353  1.8503  1.2384
 3153SOL     OW21091   0.485   1.634   5.457  0.2633 -0.0960 -0.3744
 3153SOL    HW121092   0.489   1.575   5.532  0.3395 -2.1153 -1.9694
 3153SOL    HW221093   0.543   1.701   5.492  1.4588 -0.9582 -0.6957
 3154SOL     OW21094   0.339   0.969   8.261 -0.4466  0.1659  0.6428
 3154SOL    HW121095   0.333   0.912   8.339  2.1474 -2.1028 -0.8010
 3154SOL    HW221096   0.336   1.056   8.301 -1.7750  1.0159 -1.3392
 3155SOL     OW21097   3.978   4.553   7.184  0.3054  0.3629  0.4642
 3155SOL    HW121098   3.898   4.562   7.236 -1.1174 -0.3116 -1.5713
 3155SOL    HW221099   4.031   4.623   7.221  0.0302  0.8760 -0.1153
 3156SOL     OW21100   1.846   3.287   4.577  0.5322 -0.0139  0.1985
 3156SOL    HW121101   1.924   3.255   4.623  1.4061  1.8634  0.0104
 3156SOL    HW221102   1.873   3.366   4.530  0.0125  0.6329  0.9802
 3157SOL     OW21103   3.875   1.868   7.142  0.0506 -0.1620 -0.4134
 3157SOL    HW121104   3.870   1.797   7.206  1.0877 -0.1090 -0.2794
 3157SOL    HW221105   3.963   1.902   7.157 -0.2030 -0.4883  1.8452
 3158SOL     OW21106   4.544   2.073   6.509 -0.0453 -0.3415 -0.2871
 3158SOL    HW121107   4.605   2.127   6.560  1.5242 -1.6622 -0.7631
 3158SOL    HW221108   4.606   2.004   6.486 -0.5243 -0.5790 -0.8708
 3159SOL     OW21109   1.706   3.551   9.536  0.5122  0.3390  0.1903
 3159SOL    HW121110   1.671   3.603   9.608 -1.1556  0.3486 -0.6419
 3159SOL    HW221111   1.787   3.520   9.578  2.2806  2.1949 -1.8702
 3160SOL     OW21112   3.622   3.605   0.847 -0.1615 -0.1227  0.1420
 3160SOL    HW121113   3.709   3.630   0.816 -0.6540  0.2684 -0.9223
 3160SOL    HW221114   3.587   3.586   0.760  1.9480  2.9087 -1.3703
 3161SOL     OW21115   4.574   0.837   5.226  0.5894 -0.3400  0.7865
 3161SOL    HW121116   4.620   0.807   5.148 -1.8292 -0.8510 -0.4672
 3161SOL    HW221117   4.495   0.864   5.178 -0.9254 -1.4839  2.6183
 3162SOL     OW21118   2.764   0.810  10.586 -0.5433  0.3534  0.6520
 3162SOL    HW121119   2.754   0.721  10.553 -1.2392 -0.3989  2.8566
 3162SOL    HW221120   2.857   0.813  10.605 -0.3331  0.1867 -0.3458
 3163SOL     OW21121   3.560   2.592  14.411  0.2586 -0.7224  0.6368
 3163SOL    HW121122   3.549   2.544  14.493  2.9506 -2.3740  0.0365
 3163SOL    HW221123   3.481   2.574  14.360  0.8191 -2.7067  0.4758
 3164SOL     OW21124   3.345   3.096   2.417 -0.0829  0.1048  0.3496
 3164SOL    HW121125   3.287   3.048   2.476  1.9109 -2.5805  0.1414
 3164SOL    HW221126   3.283   3.162   2.386  1.6115  1.2089 -0.6742
 3165SOL     OW21127   3.089   2.057   7.896 -0.4741  0.5059 -0.7212
 3165SOL    HW121128   3.107   1.977   7.847 -1.9893 -0.2902  0.0214
 3165SOL    HW221129   3.001   2.080   7.866 -0.7530  1.0386  0.5141
 3166SOL     OW21130   3.590   1.527  11.000  0.6026  0.2268 -0.4186
 3166SOL    HW121131   3.623   1.569  10.920  0.8727 -0.2140 -0.5368
 3166SOL    HW221132   3.508   1.577  11.002 -0.2176 -1.1875  1.0020
 3167SOL     OW21133   3.917   0.599  11.414  0.3445  0.0113  0.4310
 3167SOL    HW121134   3.949   0.609  11.503  0.0072 -1.3705  0.7052
 3167SOL    HW221135   3.996   0.629  11.368 -0.1728  1.5508  0.5543
 3168SOL     OW21136   0.520   1.741   8.274  0.5656 -0.6262  0.1293
 3168SOL    HW121137   0.597   1.684   8.279  0.2807 -1.1279 -1.0317
 3168SOL    HW221138   0.463   1.694   8.334 -2.1132  1.6286 -0.6514
 3169SOL     OW21139   1.986   0.863   9.406  0.8718 -0.4323  0.5841
 3169SOL    HW121140   1.960   0.955   9.399 -0.5950 -0.8383  0.7329
 3169SOL    HW221141   1.946   0.844   9.491 -0.9429  3.2848  0.5549
 3170SOL     OW21142   0.404   0.304   2.642  0.5986 -0.4024 -0.1421
 3170SOL    HW121143   0.491   0.342   2.629  0.8890 -0.9687  0.1567
 3170SOL    HW221144   0.369   0.347   2.720  0.5062  1.3891 -1.1709
 3171SOL     OW21145   0.405   0.491  16.503 -0.0632 -0.1900 -0.3878
 3171SOL    HW121146   0.408   0.405  16.462 -0.6078 -0.2135 -0.3876
 3171SOL    HW221147   0.496   0.521  16.502 -0.6134  1.4685 -1.0506
 3172SOL     OW21148   1.966   0.234   7.986  0.1256 -0.2239 -0.2519
 3172SOL    HW121149   1.931   0.232   7.897 -0.1349 -1.2180 -0.1348
 3172SOL    HW221150   2.060   0.226   7.969  0.4094  1.5881  0.4224
 3173SOL     OW21151   0.433   3.809  10.603  0.0797 -0.0923 -0.0539
 3173SOL    HW121152   0.411   3.897  10.632 -0.4332 -0.0948 -0.4407
 3173SOL    HW221153   0.353   3.764  10.577  0.2727  0.2727 -1.2757
 3174SOL     OW21154   0.293   1.269   8.408 -0.5685  0.4241 -0.3023
 3174SOL    HW121155   0.238   1.263   8.486 -1.2604  2.6388 -0.5927
 3174SOL    HW221156   0.233   1.278   8.334 -1.8929  0.0792  0.7306
 3175SOL     OW21157   0.491   4.576   4.210 -0.2825 -0.1439 -0.3370
 3175SOL    HW121158   0.539   4.499   4.238  0.1407 -0.6993 -2.5894
 3175SOL    HW221159   0.448   4.602   4.291  1.4024 -1.7334  1.0445
 3176SOL     OW21160   3.045   0.626   8.508  0.1031  0.0206 -0.1137
 3176SOL    HW121161   3.134   0.619   8.474 -1.3418 -0.8277 -3.6849
 3176SOL    HW221162   3.057   0.673   8.591 -0.2913  0.4171 -0.2782
 3177SOL     OW21163   3.420   4.040   8.589  0.4044  0.1873 -0.4108
 3177SOL    HW121164   3.461   4.042   8.502  0.2291 -2.1977 -0.5362
 3177SOL    HW221165   3.382   4.127   8.574 -1.1985 -0.5854 -0.7202
 3178SOL     OW21166   0.709   1.424  10.253 -0.8335 -0.1828 -0.6120
 3178SOL    HW121167   0.678   1.513  10.269  0.3896  0.4399 -1.7517
 3178SOL    HW221168   0.689   1.389  10.340 -0.3333  0.2321 -0.3284
 3179SOL     OW21169   2.731   1.725  15.436  0.0397  0.1324 -0.4273
 3179SOL    HW121170   2.649   1.773  15.428  0.2514  0.2392 -1.9274
 3179SOL    HW221171   2.760   1.748  15.348  0.8878  2.2693  0.4070
 3180SOL     OW21172   0.314   1.330   6.643  0.0147  0.4591  0.3579
 3180SOL    HW121173   0.303   1.384   6.721  2.4887 -1.5476  2.0862
 3180SOL    HW221174   0.355   1.251   6.678 -2.3764 -0.2451  1.5894
 3181SOL     OW21175   4.276   1.115  11.097 -0.4951 -0.3297 -0.0021
 3181SOL    HW121176   4.249   1.030  11.132  1.1070 -0.8472 -0.0434
 3181SOL    HW221177   4.281   1.178  11.170 -3.6240 -2.0059  1.6680
 3182SOL     OW21178   2.399   3.567   5.924 -0.1875  0.0718 -0.7963
 3182SOL    HW121179   2.453   3.642   5.945 -1.3131  1.1340 -1.6562
 3182SOL    HW221180   2.375   3.583   5.832  2.0191 -0.0865 -1.3957
 3183SOL     OW21181   0.722   4.722   5.059 -0.3569 -0.1504  0.3457
 3183SOL    HW121182   0.770   0.048   5.115  1.4693 -0.2663 -1.0729
 3183SOL    HW221183   0.659   4.683   5.119 -0.0256 -0.9134  0.2020
 3184SOL     OW21184   2.873   4.562   6.526  0.3177 -0.0341 -0.1427
 3184SOL    HW121185   2.819   4.572   6.605 -0.5444  0.7419 -0.8257
 3184SOL    HW221186   2.937   4.630   6.547  0.3745  0.0827 -0.6895
 3185SOL     OW21187   2.018   3.720   6.047  0.1664 -0.4195 -0.0363
 3185SOL    HW121188   1.949   3.674   6.095  0.6536 -2.6359 -1.4383
 3185SOL    HW221189   1.965   3.797   6.029 -0.4869 -1.2235 -1.5457
 3186SOL     OW21190   1.736   0.420   1.754 -0.0636 -0.1035  0.0786
 3186SOL    HW121191   1.680   0.354   1.713 -2.5610  3.9616 -3.0789
 3186SOL    HW221192   1.823   0.390   1.726  0.6083  3.0849 -1.3782
 3187SOL     OW21193   3.338   1.591   8.415 -0.0820  0.0135 -0.7427
 3187SOL    HW121194   3.410   1.549   8.462 -1.1607 -0.3896  0.5624
 3187SOL    HW221195   3.339   1.541   8.334  0.6299  1.0563 -1.3824
 3188SOL     OW21196   0.167   1.576   2.998  0.3195 -0.3635 -0.0598
 3188SOL    HW121197   0.201   1.507   3.055 -1.7297 -1.3316 -0.0393
 3188SOL    HW221198   0.076   1.589   3.023  0.3956 -1.0466  0.5786
 3189SOL     OW21199   0.477   1.483   4.234  0.5591 -0.1610 -0.2144
 3189SOL    HW121200   0.509   1.395   4.218  0.1356  0.2038 -3.0622
 3189SOL    HW221201   0.479   1.490   4.330 -0.1384  3.5789 -0.4840
 3190SOL     OW21202   1.583   2.092  17.101 -0.6593 -0.1559 -0.0661
 3190SOL    HW121203   1.588   2.012  17.154 -4.0295 -0.3419  0.0179
 3190SOL    HW221204   1.605   2.155  17.169  1.9830  0.0983 -1.1829
 3191SOL     OW21205   1.707   3.911   5.111  0.0681 -0.1124  0.2917
 3191SOL    HW121206   1.643   3.962   5.161 -0.1220  0.4153 -0.5009
 3191SOL    HW221207   1.788   3.926   5.160 -0.9041  1.9307  1.2833
 3192SOL     OW21208   1.528   0.163   3.544 -0.2989  0.5980  0.2428
 3192SOL    HW121209   1.617   0.195   3.555  0.5670 -1.3239 -1.1903
 3192SOL    HW221210   1.518   0.192   3.453  2.1114 -2.1596 -0.8843
 3193SOL     OW21211   0.962   3.107   0.107  0.0552 -0.4753  0.4295
 3193SOL    HW121212   0.999   3.024   0.137  0.8338  0.4437  2.0495
 3193SOL    HW221213   0.931   3.088   0.018  3.9576 -0.8776 -0.8476
 3194SOL     OW21214   0.813   0.908   3.947  0.0128  0.1319 -0.1557
 3194SOL    HW121215   0.761   0.828   3.956  0.0708  0.1188  0.0636
 3194SOL    HW221216   0.881   0.873   3.889 -0.8869 -0.5032 -0.8291
 3195SOL     OW21217   0.705   0.205  16.239 -0.0604  0.8037 -0.2602
 3195SOL    HW121218   0.711   0.148  16.316 -2.0564 -0.7237 -1.2299
 3195SOL    HW221219   0.688   0.139  16.172  0.6762 -0.3618  0.7111
 3196SOL     OW21220   1.354   1.070   8.164  0.5647  0.3131 -0.4809
 3196SOL    HW121221   1.399   1.154   8.157 -1.3369  1.5289  1.7548
 3196SOL    HW221222   1.270   1.114   8.155  0.7785  1.0774  1.2581
 3197SOL     OW21223   2.788   1.678   7.246  0.0845  0.0278  0.2368
 3197SOL    HW121224   2.721   1.610   7.251  1.0360 -0.7252  2.7655
 3197SOL    HW221225   2.829   1.660   7.161 -2.0893 -3.2297 -0.1218
 3198SOL     OW21226   0.750   1.227   6.756 -0.0653 -0.3730 -0.3140
 3198SOL    HW121227   0.734   1.248   6.664 -2.6172  1.1898  0.4836
 3198SOL    HW221228   0.698   1.148   6.766  0.2023 -0.8753 -2.8248
 3199SOL     OW21229   1.193   3.302  11.672 -0.2995 -0.6699  0.1364
 3199SOL    HW121230   1.241   3.284  11.591 -3.3773  2.2019 -2.3220
 3199SOL    HW221231   1.131   3.230  11.659  0.2241 -0.7164 -2.0827
 3200SOL     OW21232   0.722   3.914   5.009  0.3650 -0.6616  0.3984
 3200SOL    HW121233   0.784   3.971   4.962  0.8106 -2.0187 -0.6910
 3200SOL    HW221234   0.651   3.977   5.018  0.7575 -0.1959  0.2309
 3201SOL     OW21235   0.897   1.047   9.582 -0.1319 -0.2465  0.0750
 3201SOL    HW121236   0.967   1.091   9.629 -0.2276  0.4951 -0.4602
 3201SOL    HW221237   0.823   1.094   9.621 -1.0613 -0.0322 -1.9141
 3202SOL     OW21238   0.987   1.861   2.155 -0.5327  0.3523 -0.7752
 3202SOL    HW121239   0.989   1.851   2.250 -3.3934 -3.1954 -1.0613
 3202SOL    HW221240   1.016   1.776   2.121 -0.5537 -0.3478  0.9720
 3203SOL     OW21241   0.233   3.614   1.694 -0.3847  0.5745  0.3920
 3203SOL    HW121242   0.205   3.523   1.683  0.3051  0.2647  1.1971
 3203SOL    HW221243   0.164   3.645   1.753  0.7544  1.4508  1.2533
 3204SOL     OW21244   1.393   1.221   2.700  0.7438  0.2792 -0.6238
 3204SOL    HW121245   1.417   1.130   2.681  0.0435  0.0502 -0.4218
 3204SOL    HW221246   1.418   1.232   2.792  1.6475 -0.7213 -0.7530
 3205SOL     OW21247   2.071   0.306  15.627  0.0494 -1.0584 -0.2286
 3205SOL    HW121248   2.065   0.211  15.637  0.0121 -0.7109  3.1873
 3205SOL    HW221249   2.151   0.325  15.676 -1.5044  0.3362  1.8007
 3206SOL     OW21250   0.692   3.872   1.931  0.2033  0.0760  0.1635
 3206SOL    HW121251   0.769   3.846   1.982  0.9192  1.4021 -0.2366
 3206SOL    HW221252   0.655   3.944   1.983  3.6046 -0.0321  2.8064
 3207SOL     OW21253   2.789   1.996   0.485 -0.1897  0.5736  0.0980
 3207SOL    HW121254   2.700   1.964   0.472  0.5953 -0.9063 -1.7833
 3207SOL    HW221255   2.837   1.974   0.404  1.8507  2.2073  0.8487
 3208SOL     OW21256   0.560   2.734   0.393 -0.9201 -0.0391  0.3235
 3208SOL    HW121257   0.625   2.739   0.463 -0.1943  0.0616 -0.3465
 3208SOL    HW221258   0.532   2.825   0.399  0.1132  0.4958 -2.8104
 3209SOL     OW21259   4.453   3.358   4.411 -0.1214  0.1195 -0.0730
 3209SOL    HW121260   4.398   3.294   4.367  0.6267  0.1994 -1.1297
 3209SOL    HW221261   4.500   3.402   4.340  0.3164 -0.4584 -0.1457
 3210SOL     OW21262   0.702   0.366   5.815  0.1895 -0.3577 -0.0275
 3210SOL    HW121263   0.668   0.311   5.885  0.0702  0.1944  0.3496
 3210SOL    HW221264   0.678   0.453   5.847  0.4008  0.2951 -1.6354
 3211SOL     OW21265   4.261   0.946   5.381  0.3838 -0.3995  0.1969
 3211SOL    HW121266   4.244   0.868   5.434  2.3541  0.1679  1.6684
 3211SOL    HW221267   4.263   0.914   5.291  0.0579  0.1183  0.0025
 3212SOL     OW21268   1.682   2.290   0.170  0.7071 -0.0489  0.3939
 3212SOL    HW121269   1.599   2.318   0.208  0.0310  0.4624 -1.4563
 3212SOL    HW221270   1.672   2.334   0.086 -1.5784 -1.0501  0.1417
 3213SOL     OW21271   1.852   4.732   8.384 -1.4326 -0.2089  0.1396
 3213SOL    HW121272   1.766   0.010   8.345 -1.0505 -0.6133 -0.8379
 3213SOL    HW221273   1.916   4.734   8.313 -1.0393 -0.1773  0.4984
 3214SOL     OW21274   0.540   0.771   1.608  0.1990  0.2138 -0.1479
 3214SOL    HW121275   0.570   0.856   1.639 -0.4184  0.6163 -0.6721
 3214SOL    HW221276   0.475   0.780   1.538 -0.1908  0.9348  0.3063
 3215SOL     OW21277   1.073   2.569   1.984  0.2863  0.0456  0.3429
 3215SOL    HW121278   1.096   2.662   1.990 -0.1956  0.2851 -1.6437
 3215SOL    HW221279   1.159   2.528   1.986  0.5456  0.5785  0.2901
 3216SOL     OW21280   3.306   3.950   9.411 -0.0477 -0.1892  0.2090
 3216SOL    HW121281   3.358   4.031   9.407  2.2165 -1.5566  1.9039
 3216SOL    HW221282   3.364   3.886   9.451 -0.0408  1.0818  2.2181
 3217SOL     OW21283   0.587   4.116   6.349  0.0775  0.6912 -0.1026
 3217SOL    HW121284   0.618   4.147   6.264  0.7182  2.0360  0.6251
 3217SOL    HW221285   0.652   4.137   6.416 -0.0535  0.6052  0.0527
 3218SOL     OW21286   4.654   1.269   7.890 -0.1513  0.2686  0.1498
 3218SOL    HW121287   4.667   1.199   7.953 -1.8155  1.3813  1.7191
 3218SOL    HW221288   4.599   1.328   7.941 -0.8068  0.4453 -0.7544
 3219SOL     OW21289   3.885   4.005  16.001 -0.5167 -0.1658 -0.0608
 3219SOL    HW121290   3.856   3.915  16.010  0.3144 -0.3047  1.2671
 3219SOL    HW221291   3.801   4.052  16.009 -1.3825 -2.1355  2.4909
 3220SOL     OW21292   3.456   4.580   8.963 -0.1433  0.0280  0.0914
 3220SOL    HW121293   3.426   4.532   9.040  3.1935 -0.5486  1.0211
 3220SOL    HW221294   3.458   4.674   8.983  2.5260 -0.1354  0.5668
 3221SOL     OW21295   1.349   3.699  13.631  0.3598  1.2019  0.1995
 3221SOL    HW121296   1.272   3.669  13.679 -0.1452  1.1957 -0.6230
 3221SOL    HW221297   1.384   3.767  13.689  1.8179  0.2525  0.4112
 3222SOL     OW21298   1.690   0.507  17.291 -0.5776  0.7456 -0.0471
 3222SOL    HW121299   1.669   0.573  17.358  0.6832  0.6194  0.4602
 3222SOL    HW221300   1.680   0.430  17.346 -1.8442 -1.1366 -2.9127
 3223SOL     OW21301   1.902   0.487   1.447  0.2224 -0.1204  0.1234
 3223SOL    HW121302   1.940   0.437   1.520  0.2280  1.7648  1.3977
 3223SOL    HW221303   1.810   0.465   1.461  0.6692 -1.4476  1.0153
 3224SOL     OW21304   4.140   2.562  12.738 -0.4829 -0.1177  0.5909
 3224SOL    HW121305   4.138   2.485  12.681 -0.7784  1.6032 -1.7006
 3224SOL    HW221306   4.233   2.573  12.760 -0.7844  1.6195  1.0084
 3225SOL     OW21307   3.209   0.222  16.207  0.6745 -0.2399 -0.2809
 3225SOL    HW121308   3.263   0.255  16.279  1.0672  0.7455 -1.0264
 3225SOL    HW221309   3.156   0.152  16.246 -1.2673  2.1253  1.2770
 3226SOL     OW21310   2.965   3.941   4.969  0.0716  0.5929  0.1317
 3226SOL    HW121311   2.925   3.866   5.014  3.2825 -2.1208 -1.5291
 3226SOL    HW221312   2.985   3.904   4.883 -0.6489 -1.1992  0.7305
 3227SOL     OW21313   1.120   3.997   8.486 -0.0814  0.0834 -0.0614
 3227SOL    HW121314   1.146   4.047   8.409 -1.1267  1.5639  0.5565
 3227SOL    HW221315   1.140   4.064   8.551 -0.2517 -1.4418  1.5582
 3228SOL     OW21316   4.025   2.692   7.688 -0.0278 -0.3084  0.0160
 3228SOL    HW121317   3.965   2.718   7.618  0.9902  1.2525 -0.2582
 3228SOL    HW221318   4.078   2.628   7.641  0.5955 -1.5583  2.3734
 3229SOL     OW21319   0.366   2.927   9.533 -0.3736 -0.1239  0.1578
 3229SOL    HW121320   0.308   2.859   9.500  0.0191  0.7352 -2.3268
 3229SOL    HW221321   0.389   2.888   9.617  0.6274 -1.9330 -0.9827
 3230SOL     OW21322   4.342   4.687   5.305  0.4316 -0.7839 -0.2508
 3230SOL    HW121323   4.391   0.002   5.370 -2.6595 -0.0131  1.4536
 3230SOL    HW221324   4.296   4.629   5.365  0.0236  1.6210  1.7233
 3231SOL     OW21325   1.572   0.294   9.521  0.0161  0.3614  0.0545
 3231SOL    HW121326   1.599   0.283   9.612  0.2901 -0.5729 -0.1421
 3231SOL    HW221327   1.508   0.224   9.511  0.9698 -0.3990 -0.7544
 3232SOL     OW21328   2.774   1.417   8.931  0.6665  0.2080  0.4622
 3232SOL    HW121329   2.705   1.434   8.868  1.0453  0.7179  0.1904
 3232SOL    HW221330   2.725   1.399   9.012  2.7333  2.1949  2.1522
 3233SOL     OW21331   4.555   2.215   7.155  0.0451 -0.2884  0.8294
 3233SOL    HW121332   4.486   2.156   7.185 -1.6753  0.7176 -1.1854
 3233SOL    HW221333   4.525   2.247   7.070  3.4551  1.5753  0.3261
 3234SOL     OW21334   0.485   1.724  13.653  0.6131 -0.1900  0.6653
 3234SOL    HW121335   0.501   1.678  13.735  0.9592 -0.8286  0.2345
 3234SOL    HW221336   0.555   1.788  13.667  1.1937 -1.0350  1.6560
 3235SOL     OW21337   4.407   3.842   3.849  0.0839 -0.1754 -0.5824
 3235SOL    HW121338   4.399   3.903   3.777  1.6889  3.0101  1.9229
 3235SOL    HW221339   4.502   3.852   3.863  0.0659  0.9917 -1.3066
 3236SOL     OW21340   2.062   3.522   8.328 -0.3872  0.1499  0.0123
 3236SOL    HW121341   2.048   3.612   8.358  1.1217  0.2400  0.4352
 3236SOL    HW221342   1.973   3.487   8.335 -1.0545  1.4927 -1.7499
 3237SOL     OW21343   2.033   3.914   3.941 -0.1933 -0.3133 -0.0776
 3237SOL    HW121344   2.042   3.982   4.007  0.1275 -2.0302  1.6588
 3237SOL    HW221345   1.943   3.931   3.911 -0.3646  0.2682  0.7806
 3238SOL     OW21346   2.556   2.869  11.388 -0.7323 -0.8164 -0.1708
 3238SOL    HW121347   2.629   2.866  11.451 -0.3799  1.0396 -0.4778
 3238SOL    HW221348   2.595   2.835  11.308 -0.7710  0.8160 -0.8849
 3239SOL     OW21349   3.880   3.633   4.813  0.4095  0.6357 -0.1484
 3239SOL    HW121350   3.950   3.576   4.845  0.1138  0.2210 -0.2402
 3239SOL    HW221351   3.933   3.704   4.777  0.9059  0.1446 -0.3960
 3240SOL     OW21352   4.678   2.682  14.565 -0.0439 -1.0235 -0.1116
 3240SOL    HW121353   4.604   2.724  14.522 -0.1723 -0.0285  1.0594
 3240SOL    HW221354   4.702   2.619  14.497 -2.5492  1.3747 -3.2195
 3241SOL     OW21355   2.911   0.137   4.183 -0.6753 -0.2443 -0.1489
 3241SOL    HW121356   2.865   0.197   4.125 -1.2958  0.9966  1.6329
 3241SOL    HW221357   2.990   0.125   4.129  0.9836 -2.5623  2.7626
 3242SOL     OW21358   2.276   3.981  15.908 -0.1301  0.4949  0.7932
 3242SOL    HW121359   2.200   3.986  15.850 -0.6429  2.0896  1.6000
 3242SOL    HW221360   2.353   4.012  15.858  0.0746 -1.2757  0.0137
 3243SOL     OW21361   0.105   2.381   4.459  0.1500 -0.4400  0.3575
 3243SOL    HW121362   0.058   2.464   4.463  2.3261  0.7936  0.6622
 3243SOL    HW221363   0.091   2.344   4.546  3.4580 -1.3972  0.4885
 3244SOL     OW21364   3.953   4.093   8.430 -0.4628  0.0523 -0.3940
 3244SOL    HW121365   4.020   4.034   8.397  2.9697  0.4213  5.9009
 3244SOL    HW221366   3.886   4.027   8.450  0.0367 -0.3347  0.0028
 3245SOL     OW21367   1.507   0.828   6.221  0.2399 -0.7317 -0.3644
 3245SOL    HW121368   1.559   0.892   6.174  2.4146 -1.6667  0.7513
 3245SOL    HW221369   1.495   0.873   6.305 -0.8517  1.3023 -1.6273
 3246SOL     OW21370   0.353   2.942   1.210  0.1678 -0.2658  0.4064
 3246SOL    HW121371   0.311   2.922   1.127  2.2731 -0.6384 -0.5535
 3246SOL    HW221372   0.364   3.035   1.193 -1.1251 -0.3693 -0.9740
 3247SOL     OW21373   4.535   0.281  12.752  0.2618 -0.2455  0.0425
 3247SOL    HW121374   4.609   0.239  12.795 -0.2300 -1.2793 -0.1302
 3247SOL    HW221375   4.572   0.369  12.743  0.2526 -0.2317  0.1401
 3248SOL     OW21376   0.460   2.359   1.425 -0.0185  1.0443 -0.5774
 3248SOL    HW121377   0.503   2.445   1.433 -1.5007  1.7040  0.1815
 3248SOL    HW221378   0.537   2.303   1.417  1.3329  2.6583  0.8678
 3249SOL     OW21379   4.368   4.338  12.567  0.2177  0.1961 -0.0866
 3249SOL    HW121380   4.353   4.432  12.577 -0.6911  0.0762 -0.3793
 3249SOL    HW221381   4.463   4.340  12.556  0.4186 -0.1984  1.5531
 3250SOL     OW21382   3.173   4.144  15.203  0.7648 -0.0561 -0.1826
 3250SOL    HW121383   3.099   4.144  15.265  1.7459 -1.3540  0.9823
 3250SOL    HW221384   3.141   4.096  15.127  1.1858 -1.1640  0.3367
 3251SOL     OW21385   3.499   3.174   9.129  0.3022 -0.1871  0.4828
 3251SOL    HW121386   3.405   3.184   9.144  0.1495  0.7337 -1.0931
 3251SOL    HW221387   3.496   3.199   9.037  0.7156 -0.0519  0.5057
 3252SOL     OW21388   3.398   4.015  11.862  0.0256 -0.0448  0.3467
 3252SOL    HW121389   3.338   3.953  11.903  0.1835  0.2549  1.0401
 3252SOL    HW221390   3.394   3.991  11.770 -0.4954  0.0833  0.3393
 3253SOL     OW21391   1.137   2.925   0.294  0.1937 -0.1160 -0.3679
 3253SOL    HW121392   1.196   2.897   0.224 -0.5867 -0.4025 -0.8968
 3253SOL    HW221393   1.177   3.007   0.324 -0.0054  0.7106 -2.3753
 3254SOL     OW21394   2.528   2.168   4.600 -0.5587 -0.2647 -0.2171
 3254SOL    HW121395   2.580   2.099   4.642  0.5379  0.4833 -0.3469
 3254SOL    HW221396   2.474   2.191   4.675  0.1866 -0.9061  0.5075
 3255SOL     OW21397   1.444   0.498  14.192 -0.2115  0.2087 -0.0790
 3255SOL    HW121398   1.394   0.423  14.162  0.6796 -1.3678  2.3544
 3255SOL    HW221399   1.451   0.549  14.111  1.2357 -1.1310 -0.7848
 3256SOL     OW21400   2.606   1.463   4.336 -0.2820  0.4898 -0.1013
 3256SOL    HW121401   2.667   1.480   4.408  0.9764 -0.2119 -1.0075
 3256SOL    HW221402   2.626   1.375   4.304  0.4171  0.1558  1.2400
 3257SOL     OW21403   0.123   3.606   4.497 -0.4534  0.3831  0.5257
 3257SOL    HW121404   0.138   3.685   4.549 -0.4017  0.1712  0.8301
 3257SOL    HW221405   0.029   3.594   4.488 -0.3968  0.6415 -0.3663
 3258SOL     OW21406   1.787   3.462  17.335 -0.3576 -0.1289  0.2190
 3258SOL    HW121407   1.754   3.436  17.249  1.0519 -0.8351 -0.1121
 3258SOL    HW221408   1.882   3.453  17.324 -0.2909  0.1448  0.5468
 3259SOL     OW21409   0.939   1.992   5.940  0.0943 -0.1297 -0.0823
 3259SOL    HW121410   1.034   1.997   5.940  0.2142 -2.4296  1.2894
 3259SOL    HW221411   0.906   2.082   5.946  1.4220  0.4150 -0.9372
 3260SOL     OW21412   1.376   1.659   7.324  0.3820  0.5060 -0.2201
 3260SOL    HW121413   1.395   1.744   7.284 -0.3204  0.9381  0.3644
 3260SOL    HW221414   1.301   1.634   7.270  1.2803  0.3194 -1.3722
 3261SOL     OW21415   1.776   1.347   3.934 -0.2647  0.3819  0.2223
 3261SOL    HW121416   1.827   1.268   3.950 -1.0985 -0.8718 -3.2127
 3261SOL    HW221417   1.785   1.345   3.839 -1.2514  0.0503  0.1298
 3262SOL     OW21418   1.498   2.748  17.006 -0.0855 -0.5517 -0.0262
 3262SOL    HW121419   1.590   2.772  17.002 -0.5869  1.1944 -0.9675
 3262SOL    HW221420   1.463   2.806  17.074  1.2624 -0.5026  0.6141
 3263SOL     OW21421   4.107   4.000  15.861  0.2946 -0.8306 -0.1169
 3263SOL    HW121422   4.104   3.912  15.822 -0.2243 -1.0518  0.4246
 3263SOL    HW221423   4.027   4.000  15.913  0.0256 -0.3365 -0.5352
 3264SOL     OW21424   3.387   4.643   4.674 -0.2451 -0.5394  0.1543
 3264SOL    HW121425   3.340   4.618   4.594 -1.3216  2.5565 -0.2181
 3264SOL    HW221426   3.326   4.690   4.731 -0.1685 -0.5382  0.2354
 3265SOL     OW21427   4.194   4.033   3.305 -0.3062  0.4261 -0.1208
 3265SOL    HW121428   4.107   3.996   3.296  0.6052 -1.6877 -0.2652
 3265SOL    HW221429   4.245   3.952   3.303  0.5310  1.0188 -2.7453
 3266SOL     OW21430   4.076   3.185  14.021  0.0740 -0.1339 -0.2253
 3266SOL    HW121431   4.002   3.142  13.978 -0.0872  0.3244 -0.3948
 3266SOL    HW221432   4.147   3.120  14.027  0.1148  0.0554  1.2616
 3267SOL     OW21433   0.724   4.132   2.297 -0.0540 -0.7140 -1.0136
 3267SOL    HW121434   0.772   4.197   2.246 -0.8148 -1.0242 -2.1334
 3267SOL    HW221435   0.713   4.065   2.229  3.2321 -1.2271 -1.0200
 3268SOL     OW21436   3.730   1.975   6.166  0.1354  0.9070 -0.2082
 3268SOL    HW121437   3.763   1.946   6.081 -1.0271  0.2934 -0.4551
 3268SOL    HW221438   3.662   2.036   6.139 -0.7437  0.1897  0.3508
 3269SOL     OW21439   4.584   2.234   4.649  0.0590  0.6270 -0.2801
 3269SOL    HW121440   4.496   2.219   4.615 -0.6616  0.0219  1.8639
 3269SOL    HW221441   4.602   2.141   4.663  0.6105  0.6549 -0.7855
 3270SOL     OW21442   3.086   4.103  10.937 -0.5975 -0.1927  0.0144
 3270SOL    HW121443   2.998   4.073  10.915 -0.8425  0.5118  0.0493
 3270SOL    HW221444   3.098   4.060  11.022 -1.2568 -0.6461 -0.1272
 3271SOL     OW21445   3.846   4.276   9.398  0.7591 -0.0348  0.3794
 3271SOL    HW121446   3.814   4.237   9.480 -0.6690 -2.8985 -1.5437
 3271SOL    HW221447   3.815   4.367   9.403  0.5861 -0.1790  2.0737
 3272SOL     OW21448   3.686   3.934   1.137 -0.0430 -0.1989  0.5305
 3272SOL    HW121449   3.700   4.026   1.162 -1.8947 -0.0129  0.8635
 3272SOL    HW221450   3.636   3.953   1.058  0.7626  1.0534  0.3158
 3273SOL     OW21451   3.257   0.099   2.044  0.0493 -0.1045  0.0140
 3273SOL    HW121452   3.320   0.145   1.987 -0.7434  2.2951  1.0667
 3273SOL    HW221453   3.320   0.034   2.076  2.3909  1.1300 -1.9998
 3274SOL     OW21454   3.249   1.826   6.400  0.2470 -0.4894 -0.2708
 3274SOL    HW121455   3.295   1.847   6.319  0.5546 -0.1518 -0.0083
 3274SOL    HW221456   3.332   1.838   6.445  0.7763 -0.0540 -1.3553
 3275SOL     OW21457   1.027   3.962  15.749  0.1757  0.5075 -0.0040
 3275SOL    HW121458   1.009   3.876  15.787  0.3028  0.2037 -0.6293
 3275SOL    HW221459   1.063   4.006  15.826  0.0626 -0.9163  0.8496
 3276SOL     OW21460   4.016   1.022   8.556 -0.3946 -0.1622 -0.7301
 3276SOL    HW121461   3.922   1.019   8.536 -0.7895  0.2893  1.0303
 3276SOL    HW221462   4.045   1.058   8.473  2.6337 -0.6914  0.0994
 3277SOL     OW21463   1.299   3.808  12.772  0.0167  0.4266  0.4469
 3277SOL    HW121464   1.319   3.751  12.697 -1.4324 -0.5746  0.8236
 3277SOL    HW221465   1.384   3.837  12.806  0.1810 -0.6580  0.9673
 3278SOL     OW21466   0.650   0.050   2.609  0.1623 -0.7328  0.0032
 3278SOL    HW121467   0.720   0.029   2.548  0.4327  1.0434 -0.2834
 3278SOL    HW221468   0.690   0.066   2.695  2.6332  1.1912 -1.5245
 3279SOL     OW21469   3.551   2.073   3.981  0.0528  0.2927  0.1173
 3279SOL    HW121470   3.494   2.150   3.975 -1.3878 -0.9687 -2.3056
 3279SOL    HW221471   3.613   2.107   3.917 -0.5770  1.4282  0.1056
 3280SOL     OW21472   1.189   2.552   7.313  0.4479  0.1266 -0.0669
 3280SOL    HW121473   1.193   2.565   7.407  1.7654 -0.7902  0.0119
 3280SOL    HW221474   1.275   2.571   7.274  0.5869  0.1986  0.2782
 3281SOL     OW21475   3.986   4.027   8.764 -0.4506 -0.3211 -0.4909
 3281SOL    HW121476   3.901   4.050   8.727  0.1618  0.2273 -1.5629
 3281SOL    HW221477   3.954   3.985   8.843  3.3930 -0.6632  0.8731
 3282SOL     OW21478   0.682   3.705   9.325  0.3551  0.8386  0.0480
 3282SOL    HW121479   0.753   3.663   9.276  1.0951 -0.4652  2.2369
 3282SOL    HW221480   0.723   3.719   9.411  3.1271  0.6813 -1.2639
 3283SOL     OW21481   3.319   4.729   4.973 -0.4333  0.0572  0.5128
 3283SOL    HW121482   3.360   0.027   5.053  2.5124  0.5686 -1.2303
 3283SOL    HW221483   3.332   0.065   4.911  0.8643  0.2562  1.0104
 3284SOL     OW21484   0.436   0.360  10.142  0.0031 -0.2848 -0.2323
 3284SOL    HW121485   0.352   0.407  10.138 -0.0986 -0.4963 -0.5890
 3284SOL    HW221486   0.397   0.276  10.167  2.9189 -0.2081  4.5617
 3285SOL     OW21487   3.801   2.901   2.965  0.2500  0.4345 -0.0133
 3285SOL    HW121488   3.709   2.927   2.955 -0.1638 -1.3007 -0.7975
 3285SOL    HW221489   3.832   2.888   2.876  1.5870 -0.6170  0.5999
 3286SOL     OW21490   2.202   3.528   0.413 -0.7448  0.7372  0.2503
 3286SOL    HW121491   2.137   3.469   0.452  0.5516 -1.8295 -1.4406
 3286SOL    HW221492   2.208   3.586   0.488  0.4278 -0.6417  1.2315
 3287SOL     OW21493   3.679   4.180  11.324 -0.1275  0.0119  0.3739
 3287SOL    HW121494   3.718   4.121  11.259  0.2075  0.0458  0.5450
 3287SOL    HW221495   3.587   4.155  11.323 -0.1379  0.1261 -0.9047
 3288SOL     OW21496   4.053   2.050  16.897  0.5349 -0.3595  0.3014
 3288SOL    HW121497   4.025   1.958  16.906  0.0667 -0.3011 -0.5697
 3288SOL    HW221498   4.148   2.041  16.894  0.4685 -1.0541  0.0837
 3289SOL     OW21499   2.270   2.893   3.662 -0.2022 -0.4792  0.7517
 3289SOL    HW121500   2.321   2.973   3.671  0.9932 -0.9196 -1.8993
 3289SOL    HW221501   2.316   2.828   3.715  2.4313  0.6988 -0.0938
 3290SOL     OW21502   2.648   1.050  12.323  0.2758 -0.1454 -0.3890
 3290SOL    HW121503   2.673   1.133  12.282  1.1333  1.0615  2.6303
 3290SOL    HW221504   2.682   0.994  12.253 -1.1531 -1.0397 -0.3883
 3291SOL     OW21505   0.181   1.158  12.787 -0.1453  0.1324  0.1941
 3291SOL    HW121506   0.104   1.155  12.845 -1.1165  0.0357 -1.0935
 3291SOL    HW221507   0.141   1.158  12.700 -1.0895  0.6603  0.6152
 3292SOL     OW21508   4.444   4.200   3.730 -0.5299  0.1686  0.5405
 3292SOL    HW121509   4.428   4.252   3.809 -2.5335  0.6578 -0.1781
 3292SOL    HW221510   4.360   4.155   3.720  1.2934 -3.2999  0.7494
 3293SOL     OW21511   1.427   4.136  12.087 -0.2667 -0.0212  0.1788
 3293SOL    HW121512   1.510   4.152  12.042  0.5775  0.7742  2.0314
 3293SOL    HW221513   1.429   4.211  12.147 -0.2133 -0.7046  1.0361
 3294SOL     OW21514   2.474   2.748  10.192 -0.2491 -0.3474  0.0802
 3294SOL    HW121515   2.461   2.743  10.097 -2.7123  0.3900  0.3833
 3294SOL    HW221516   2.565   2.721  10.187  0.2847  1.9060 -2.6103
 3295SOL     OW21517   0.113   1.497   8.508 -0.4795  0.2151 -0.8113
 3295SOL    HW121518   0.070   1.473   8.426  0.2662  1.2515 -1.5143
 3295SOL    HW221519   0.096   1.592   8.509  1.2778  0.5292 -0.0020
 3296SOL     OW21520   3.590   2.034   0.061 -0.0775  1.1260  0.7393
 3296SOL    HW121521   3.538   1.969   0.013  0.7395 -0.5303  2.0985
 3296SOL    HW221522   3.632   2.081  17.731 -3.3671  2.2615 -0.4292
 3297SOL     OW21523   2.449   0.172   3.759  0.2552  0.0164 -0.4717
 3297SOL    HW121524   2.487   0.179   3.671  0.0807 -0.2768 -0.5716
 3297SOL    HW221525   2.370   0.222   3.742 -0.1784 -0.6334 -0.3856
 3298SOL     OW21526   1.079   3.695   4.618  0.0090 -0.2449 -0.2114
 3298SOL    HW121527   1.160   3.735   4.587  0.4303 -0.1980  0.9400
 3298SOL    HW221528   1.105   3.605   4.639 -0.4428 -1.0132 -3.0256
 3299SOL     OW21529   2.036   2.219   8.020 -0.1998 -0.2665  0.1398
 3299SOL    HW121530   2.037   2.149   7.955  1.0624 -0.3005  0.2076
 3299SOL    HW221531   2.011   2.292   7.964 -0.0298 -0.4675 -0.1961
 3300SOL     OW21532   3.741   3.433   4.945  0.5915 -0.0128 -0.6240
 3300SOL    HW121533   3.811   3.461   5.004 -0.7687  1.5837  0.2276
 3300SOL    HW221534   3.763   3.488   4.870 -0.5116 -1.7704 -2.2501
 3301SOL     OW21535   1.255   0.299  12.726  0.3228 -0.5832  0.1842
 3301SOL    HW121536   1.300   0.237  12.668 -0.8255 -0.8716 -0.4165
 3301SOL    HW221537   1.320   0.303  12.796 -0.5523  0.6899  0.9120
 3302SOL     OW21538   0.125   4.656   1.045 -0.3987 -0.3533  0.5052
 3302SOL    HW121539   0.084   0.007   1.035 -4.3125 -2.3764 -0.7521
 3302SOL    HW221540   0.212   4.667   1.007 -0.3957  0.2348  0.6700
 3303SOL     OW21541   1.636   1.452   2.377  0.2502  0.0633  0.4703
 3303SOL    HW121542   1.625   1.360   2.354  2.1465  0.1594 -0.8326
 3303SOL    HW221543   1.690   1.486   2.305  1.3456  0.1105  1.3203
 3304SOL     OW21544   1.590   2.286   7.221  0.0324  0.6894  0.9266
 3304SOL    HW121545   1.606   2.359   7.282 -0.8525  1.9836 -0.3956
 3304SOL    HW221546   1.496   2.275   7.232  0.4238 -0.2718  3.3171
 3305SOL     OW21547   1.066   0.342   7.538  0.4572 -0.3453  0.0809
 3305SOL    HW121548   1.051   0.249   7.554  2.0118 -0.4058  1.2364
 3305SOL    HW221549   1.032   0.381   7.619  0.7220 -2.0090  0.9998
 3306SOL     OW21550   0.912   0.444  11.739  0.2983  0.2362  0.4037
 3306SOL    HW121551   0.916   0.507  11.810  1.0354  0.4031  0.2096
 3306SOL    HW221552   0.996   0.452  11.694 -0.4154  0.9137 -0.8131
 3307SOL     OW21553   3.806   2.659  14.496 -0.7690 -0.7782 -0.0345
 3307SOL    HW121554   3.721   2.641  14.456 -1.7567  2.2831  0.7414
 3307SOL    HW221555   3.825   2.746  14.461  1.4283 -1.5197 -0.6846
 3308SOL     OW21556   2.814   3.956   7.038  0.2078  0.0946  0.6994
 3308SOL    HW121557   2.855   3.877   7.073 -2.3722 -1.1493  0.9047
 3308SOL    HW221558   2.726   3.921   7.020 -0.3910  1.5848  0.6910
 3309SOL     OW21559   3.562   3.707   4.825  0.0865 -0.1998  0.1631
 3309SOL    HW121560   3.592   3.681   4.912  0.9408  3.1573  0.9002
 3309SOL    HW221561   3.650   3.711   4.786 -0.1832  1.0414 -0.3202
 3310SOL     OW21562   4.036   3.028   9.603  0.3971 -0.4459  0.1606
 3310SOL    HW121563   3.963   3.067   9.556  2.2805  0.7357 -1.7706
 3310SOL    HW221564   4.104   3.075   9.555 -2.2763  3.5778  0.2604
 3311SOL     OW21565   0.839   2.592  11.271  0.6025 -0.1090  0.1623
 3311SOL    HW121566   0.792   2.634  11.199  3.8261  0.3055 -1.7324
 3311SOL    HW221567   0.819   2.655  11.340  2.9672  0.5018  0.3075
 3312SOL     OW21568   3.698   2.429   6.482  0.0383  0.0508 -0.2915
 3312SOL    HW121569   3.750   2.496   6.526  1.6111 -0.5442 -1.2731
 3312SOL    HW221570   3.611   2.459   6.508  0.5191  1.7886 -0.7362
 3313SOL     OW21571   3.023   0.719  16.965 -0.2755  0.1934 -0.1123
 3313SOL    HW121572   3.002   0.803  16.924 -0.3673  0.8811  1.3280
 3313SOL    HW221573   2.974   0.662  16.906 -0.2589 -1.3298  1.3518
 3314SOL     OW21574   1.260   3.821   3.000  0.1676 -0.2225  0.0049
 3314SOL    HW121575   1.261   3.814   3.095 -1.3479  0.0372  0.0344
 3314SOL    HW221576   1.168   3.835   2.977  0.2789  1.0926  0.3408
 3315SOL     OW21577   0.372   1.424   7.195 -0.7428  0.5266  0.2999
 3315SOL    HW121578   0.383   1.337   7.155  1.4952 -0.1996  2.4688
 3315SOL    HW221579   0.450   1.424   7.252  0.3887 -1.9713 -1.2245
 3316SOL     OW21580   4.424   3.621  11.404 -0.0744 -0.5031  0.4870
 3316SOL    HW121581   4.500   3.662  11.362 -1.4449 -1.4042 -2.9185
 3316SOL    HW221582   4.413   3.671  11.485 -0.8641 -0.0200  0.0848
 3317SOL     OW21583   0.233   3.117  14.996 -0.0663  0.1452 -0.6677
 3317SOL    HW121584   0.172   3.053  15.034  1.3179  0.5299  2.2193
 3317SOL    HW221585   0.188   3.157  14.922 -1.0241 -0.9288 -0.6758
 3318SOL     OW21586   2.913   3.474   5.383  0.1015  0.3528 -0.0443
 3318SOL    HW121587   2.985   3.536   5.380 -0.4677  0.9128 -1.8139
 3318SOL    HW221588   2.872   3.482   5.470  1.7932 -0.9415  0.8631
 3319SOL     OW21589   3.740   2.767  10.419 -0.9379  0.3718 -0.3324
 3319SOL    HW121590   3.795   2.765  10.498  0.3279 -2.4571 -1.2681
 3319SOL    HW221591   3.658   2.739  10.458 -2.4547  1.0994 -3.0481
 3320SOL     OW21592   0.502   2.744   1.844  0.8751  0.0598 -0.2654
 3320SOL    HW121593   0.531   2.832   1.822 -1.2148  1.0037  0.8017
 3320SOL    HW221594   0.407   2.749   1.855  1.0391 -2.1206  2.0628
 3321SOL     OW21595   1.780   3.495   6.021 -0.1869 -0.4296  0.2552
 3321SOL    HW121596   1.694   3.505   6.062  0.1485 -2.1739  1.3783
 3321SOL    HW221597   1.761   3.541   5.940 -0.1026  1.4384  1.2886
 3322SOL     OW21598   3.449   2.532   6.571 -0.0005 -0.2100  0.0683
 3322SOL    HW121599   3.400   2.482   6.635 -1.1000  0.0168 -0.5900
 3322SOL    HW221600   3.386   2.521   6.499 -1.1721 -2.3183  1.4240
 3323SOL     OW21601   0.187   1.613   5.082 -0.4893  0.0832  0.3923
 3323SOL    HW121602   0.236   1.644   5.158 -1.8151 -1.3009  1.8109
 3323SOL    HW221603   0.257   1.611   5.017  1.5345  1.4911  2.5698
 3324SOL     OW21604   4.391   4.517   2.466  1.0672 -0.1249  0.1236
 3324SOL    HW121605   4.484   4.510   2.447  0.8965  1.6947 -1.4141
 3324SOL    HW221606   4.386   4.603   2.508 -1.0373  0.1471 -0.6674
 3325SOL     OW21607   1.776   3.263   7.066 -0.9017  0.7032 -0.1198
 3325SOL    HW121608   1.686   3.265   7.098 -0.3602 -0.5037  1.4892
 3325SOL    HW221609   1.811   3.186   7.111  2.4055  0.5194 -2.9594
 3326SOL     OW21610   4.061   4.434  15.008 -0.2483  0.3284 -0.2478
 3326SOL    HW121611   4.004   4.403  14.938  0.5346 -0.2106 -0.6386
 3326SOL    HW221612   4.132   4.465  14.952 -1.4182 -0.1455 -1.9693
 3327SOL     OW21613   1.072   3.360   3.105  0.5089 -0.3537  0.1665
 3327SOL    HW121614   1.101   3.283   3.154 -0.5209  1.6781  3.9378
 3327SOL    HW221615   1.016   3.405   3.168 -1.6162 -0.9743 -1.2890
 3328SOL     OW21616   2.058   0.564  10.203 -0.1744 -0.0749 -0.0249
 3328SOL    HW121617   2.051   0.480  10.158 -0.2046 -0.8086  1.3378
 3328SOL    HW221618   2.115   0.536  10.275 -1.8227  0.3909  1.4895
 3329SOL     OW21619   0.735   4.310   8.591  0.3564 -0.5218  0.1838
 3329SOL    HW121620   0.671   4.252   8.551  0.4799 -1.0470  0.7361
 3329SOL    HW221621   0.772   4.345   8.510 -0.2203 -0.4860 -0.0596
 3330SOL     OW21622   2.925   0.197   2.692 -0.5376 -0.5286  0.1334
 3330SOL    HW121623   2.900   0.153   2.774 -1.1295  0.4132  0.4616
 3330SOL    HW221624   2.862   0.269   2.693 -0.1041 -0.1381 -0.5878
 3331SOL     OW21625   1.713   3.906   0.290  0.0638  0.3917  0.0256
 3331SOL    HW121626   1.760   3.933   0.211  0.8697 -2.6874 -0.5402
 3331SOL    HW221627   1.785   3.886   0.349 -2.2329 -0.3509  2.5573
 3332SOL     OW21628   1.771   1.148  13.430  0.2871 -0.5880 -0.0640
 3332SOL    HW121629   1.731   1.176  13.513 -1.6398 -1.2498 -0.7548
 3332SOL    HW221630   1.693   1.162  13.376  0.5455 -0.9876 -0.5476
 3333SOL     OW21631   1.252   2.099   3.761 -0.4589  0.2544  0.2379
 3333SOL    HW121632   1.199   2.021   3.744  2.1432 -1.1438 -1.3729
 3333SOL    HW221633   1.198   2.167   3.721 -0.5072 -1.3907 -2.4394
 3334SOL     OW21634   3.942   1.229  13.906 -0.0669 -0.0822 -0.3911
 3334SOL    HW121635   3.971   1.307  13.954  0.2694 -0.8223  0.6166
 3334SOL    HW221636   3.872   1.265  13.853 -1.2529  0.3684  1.4945
 3335SOL     OW21637   0.337   4.576   9.741 -0.0574 -0.0721 -0.7471
 3335SOL    HW121638   0.392   4.545   9.813 -0.3714 -0.3957 -0.6469
 3335SOL    HW221639   0.284   4.642   9.785  0.4239 -0.3628  0.2641
 3336SOL     OW21640   3.310   0.938  10.696  0.4706  0.0891 -0.5783
 3336SOL    HW121641   3.382   0.879  10.677  0.4518 -0.2618  0.4317
 3336SOL    HW221642   3.352   1.002  10.754  0.2568  1.9922 -2.5512
 3337SOL     OW21643   2.142   3.472   6.134 -0.1393  0.0222 -0.6122
 3337SOL    HW121644   2.080   3.544   6.140  0.2793  0.3581 -0.2781
 3337SOL    HW221645   2.204   3.504   6.068  0.0163 -0.2548 -0.6023
 3338SOL     OW21646   4.685   3.243  12.227  0.0589  0.1335  0.4623
 3338SOL    HW121647   0.024   3.212  12.278  0.3627  0.9020  0.4914
 3338SOL    HW221648   4.642   3.158  12.234 -3.4699  1.9518  1.3493
 3339SOL     OW21649   1.361   4.575   4.015  0.4180  0.4048 -0.6523
 3339SOL    HW121650   1.428   4.562   4.082  0.1153  2.5256  0.0500
 3339SOL    HW221651   1.373   4.659   3.971  0.8073  0.8410  0.2969
 3340SOL     OW21652   2.077   0.259   3.552  0.8141  0.0362  0.0373
 3340SOL    HW121653   2.046   0.313   3.479  0.3499 -0.2349  0.0351
 3340SOL    HW221654   2.015   0.187   3.556  2.2853 -1.2631 -0.7081
 3341SOL     OW21655   2.700   1.991   8.954 -0.0030  0.2440  0.2456
 3341SOL    HW121656   2.623   1.951   8.995 -0.2789  0.1308 -0.3910
 3341SOL    HW221657   2.660   2.068   8.914  0.4623  0.6989  0.6463
 3342SOL     OW21658   2.889   3.133   5.607 -0.2614  0.0187  0.0835
 3342SOL    HW121659   2.948   3.072   5.563  1.1150  1.7467 -0.4455
 3342SOL    HW221660   2.838   3.155   5.529 -0.6221  3.8802  1.4127
 3343SOL     OW21661   3.896   2.758   4.420  0.1934 -0.2266  0.3811
 3343SOL    HW121662   3.935   2.786   4.337 -1.0295 -1.9986 -0.8087
 3343SOL    HW221663   3.855   2.672   4.409  0.9931 -0.8412  2.1987
 3344SOL     OW21664   2.815   4.649  15.033 -0.1444  0.5466 -0.4905
 3344SOL    HW121665   2.892   4.614  15.078 -0.1509  0.5381 -0.4858
 3344SOL    HW221666   2.746   4.592  15.067  0.4270  0.4989  0.6013
 3345SOL     OW21667   2.715   0.852   1.239  0.9991  0.2323  0.4971
 3345SOL    HW121668   2.651   0.801   1.189  0.5946  1.7306 -0.5021
 3345SOL    HW221669   2.671   0.936   1.237  1.5305  0.4944 -0.1257
 3346SOL     OW21670   3.230   1.936   5.143 -0.5099 -0.0993  0.3830
 3346SOL    HW121671   3.156   1.926   5.203 -2.7871 -0.6071 -2.5438
 3346SOL    HW221672   3.300   1.881   5.177  0.5349  1.4805  0.7779
 3347SOL     OW21673   2.647   0.767   3.169 -0.0207  0.4200  0.0990
 3347SOL    HW121674   2.705   0.702   3.131  1.5157  1.5533  0.5084
 3347SOL    HW221675   2.565   0.739   3.128  0.2351 -0.3927  0.1491
 3348SOL     OW21676   2.417   4.589   3.644 -0.2918 -0.3503  0.4325
 3348SOL    HW121677   2.365   4.593   3.564  0.5471 -2.0485 -0.1991
 3348SOL    HW221678   2.361   4.629   3.710  0.9108  2.7318 -0.3705
 3349SOL     OW21679   1.683   4.472   8.047  0.1680 -0.3195  0.5455
 3349SOL    HW121680   1.732   4.451   7.967  1.3752 -3.0732  1.9984
 3349SOL    HW221681   1.716   4.412   8.114  2.0557  1.2330  0.9768
 3350SOL     OW21682   3.075   4.674   7.728 -0.2084  0.3564  0.0454
 3350SOL    HW121683   3.130   4.665   7.650  0.6418  0.8184  0.5936
 3350SOL    HW221684   3.034   4.587   7.727  1.0332 -0.2226 -0.8014
 3351SOL     OW21685   0.455   0.897  15.712 -0.1799 -0.2940  0.5834
 3351SOL    HW121686   0.461   0.812  15.669 -0.3089  0.9538 -1.9055
 3351SOL    HW221687   0.436   0.947  15.633 -0.8337  0.2348  1.0754
 3352SOL     OW21688   3.404   2.337   8.535  0.0928 -0.0327  0.5222
 3352SOL    HW121689   3.444   2.398   8.473 -0.3013  0.0444  0.3437
 3352SOL    HW221690   3.352   2.284   8.474  1.5288 -1.3168  0.4248
 3353SOL     OW21691   2.249   2.583   1.686  0.3592  0.5032 -0.1912
 3353SOL    HW121692   2.265   2.581   1.780  0.3982  1.6412 -0.1687
 3353SOL    HW221693   2.215   2.673   1.682 -0.3296  0.4188  3.7123
 3354SOL     OW21694   4.720   4.089   0.835  0.4405 -0.7058  0.2890
 3354SOL    HW121695   4.639   4.041   0.818  0.5142 -1.0448  0.8857
 3354SOL    HW221696   4.700   4.124   0.922  0.7029 -0.0413  0.0726
 3355SOL     OW21697   0.657   1.340   3.194  0.2693 -0.5332 -0.0847
 3355SOL    HW121698   0.632   1.419   3.242  1.6438 -0.8986  1.2323
 3355SOL    HW221699   0.573   1.309   3.162 -0.5175 -2.6172  3.9174
 3356SOL     OW21700   3.323   1.150  10.134 -0.3706 -0.2378  0.2744
 3356SOL    HW121701   3.336   1.154  10.228 -1.7883  3.2485  0.3254
 3356SOL    HW221702   3.228   1.138  10.131 -0.2824 -0.8539  0.0803
 3357SOL     OW21703   0.150   1.396   3.199 -0.3482  0.5216 -1.1752
 3357SOL    HW121704   0.064   1.359   3.181 -0.3284 -0.8107  1.5373
 3357SOL    HW221705   0.211   1.322   3.199 -0.8583  0.1009 -2.3994
 3358SOL     OW21706   3.152   2.418   9.280 -0.0087  0.1937 -0.4870
 3358SOL    HW121707   3.204   2.497   9.260  1.1278 -0.9194 -1.9290
 3358SOL    HW221708   3.081   2.426   9.216  0.7570  0.4629 -1.2992
 3359SOL     OW21709   2.260   4.014   7.164  0.5979  0.0799  0.3039
 3359SOL    HW121710   2.185   3.966   7.198  0.7777  0.2964  1.0093
 3359SOL    HW221711   2.213   4.091   7.133 -1.9548 -1.4864  0.3522
 3360SOL     OW21712   2.917   0.705   4.614 -0.1039 -0.1129  0.2504
 3360SOL    HW121713   2.874   0.683   4.697 -0.2827  1.2330  0.5282
 3360SOL    HW221714   2.931   0.800   4.622  0.5858 -0.2662  0.8463
 3361SOL     OW21715   2.635   4.485  15.170 -0.6827 -0.3254 -0.5925
 3361SOL    HW121716   2.544   4.466  15.146 -0.7411 -1.0309  0.1906
 3361SOL    HW221717   2.639   4.471  15.264 -0.6727  1.6242 -0.2899
 3362SOL     OW21718   0.345   2.863  11.440 -0.0254 -0.4477 -0.1028
 3362SOL    HW121719   0.337   2.827  11.528  1.7970 -1.0823 -0.1964
 3362SOL    HW221720   0.268   2.919  11.433 -1.4381 -2.5200 -0.8617
 3363SOL     OW21721   3.640   3.712   3.198 -0.0842  0.4377  0.2737
 3363SOL    HW121722   3.698   3.643   3.166 -0.1637  0.5020 -0.0066
 3363SOL    HW221723   3.673   3.786   3.146 -2.3493  1.2345 -0.0404
 3364SOL     OW21724   4.009   4.182   7.152 -0.2524  0.2772  0.2251
 3364SOL    HW121725   3.995   4.157   7.060  2.5569  0.4523 -0.2492
 3364SOL    HW221726   3.922   4.217   7.170 -1.8262 -2.6016 -1.7477
 3365SOL     OW21727   3.023   2.754   4.574 -0.3754 -0.4670  0.1968
 3365SOL    HW121728   3.010   2.827   4.513  1.4203 -0.7984 -0.5590
 3365SOL    HW221729   2.982   2.678   4.532 -1.8259  1.0960 -1.2237
 3366SOL     OW21730   2.943   4.435   6.074 -0.3116 -0.2041 -0.1872
 3366SOL    HW121731   3.007   4.504   6.056 -1.3925  1.0907  1.0180
 3366SOL    HW221732   2.919   4.416   5.983  2.7212  0.5842 -1.1771
 3367SOL     OW21733   0.332   3.139   0.954  0.4595 -0.5802  0.1428
 3367SOL    HW121734   0.316   3.048   0.931  0.3667 -0.6653  0.5356
 3367SOL    HW221735   0.314   3.179   0.869  0.0734  0.9853  0.9565
 3368SOL     OW21736   4.505   2.665  12.375  0.1562  0.4847 -0.8898
 3368SOL    HW121737   4.502   2.737  12.439 -1.8912 -1.3457  1.0638
 3368SOL    HW221738   4.570   2.618  12.427  1.1920 -0.3330 -2.9328
 3369SOL     OW21739   3.058   2.473  11.159  0.1613  0.4116  0.2775
 3369SOL    HW121740   3.033   2.455  11.250  1.8058 -2.1551  0.2447
 3369SOL    HW221741   3.139   2.521  11.173 -0.5344  1.3362  1.1421
 3370SOL     OW21742   4.024   1.269  14.889 -1.0956  0.5282  0.4707
 3370SOL    HW121743   4.006   1.196  14.829  0.7275 -0.0593  0.6329
 3370SOL    HW221744   4.057   1.212  14.959  0.6981 -0.4386 -1.1331
 3371SOL     OW21745   1.999   0.712  15.957  0.2710  0.0819  0.4016
 3371SOL    HW121746   1.943   0.682  16.028  0.5367  0.3934  0.7397
 3371SOL    HW221747   1.983   0.647  15.888  2.1020  0.4707 -0.4045
 3372SOL     OW21748   1.769   2.158   0.473  0.4984  0.0878  0.1837
 3372SOL    HW121749   1.711   2.232   0.487  0.0270  0.0946 -1.7769
 3372SOL    HW221750   1.849   2.201   0.444  2.1662 -2.5114  0.8762
 3373SOL     OW21751   2.291   1.717   5.329 -0.3474 -0.3130  0.2111
 3373SOL    HW121752   2.380   1.731   5.295 -0.5339  0.0229 -0.1361
 3373SOL    HW221753   2.316   1.684   5.415  0.2330  0.7557  0.4583
 3374SOL     OW21754   0.505   3.574   1.726 -0.1653  0.3744 -0.1551
 3374SOL    HW121755   0.411   3.592   1.720 -0.3872 -0.1419  2.0750
 3374SOL    HW221756   0.516   3.578   1.821 -0.8078 -0.5001 -0.0416
 3375SOL     OW21757   0.307   2.390  14.649  0.1512  0.5203  0.1637
 3375SOL    HW121758   0.284   2.298  14.640  1.3121  0.2057  0.4776
 3375SOL    HW221759   0.256   2.425  14.576 -1.3185 -1.2322  0.3469
 3376SOL     OW21760   0.129   0.944   2.562 -0.5985  0.0437  0.3524
 3376SOL    HW121761   0.188   0.908   2.496 -0.4653 -0.7218  0.8823
 3376SOL    HW221762   0.064   0.875   2.572 -0.8729  0.3809  0.9305
 3377SOL     OW21763   0.613   2.846  11.351 -0.1428 -0.1927 -0.5381
 3377SOL    HW121764   0.639   2.931  11.388 -1.6887 -0.1797  0.5258
 3377SOL    HW221765   0.518   2.858  11.345 -0.0737  0.3520 -0.5425
 3378SOL     OW21766   4.155   3.228   6.887 -0.2583 -0.4161  0.6117
 3378SOL    HW121767   4.159   3.307   6.835  0.1864  0.6123  2.2029
 3378SOL    HW221768   4.064   3.205   6.868 -0.5962  1.3794  0.1301
 3379SOL     OW21769   4.194   1.630   4.578  0.0659  0.1812  0.3314
 3379SOL    HW121770   4.236   1.557   4.622  0.9369 -0.2169 -1.1557
 3379SOL    HW221771   4.140   1.674   4.643  0.8289  0.1954  0.9529
 3380SOL     OW21772   0.963   0.355   4.706  0.1525 -0.7056 -0.3801
 3380SOL    HW121773   0.925   0.270   4.685 -2.2570  0.4674 -0.7757
 3380SOL    HW221774   1.030   0.342   4.639 -0.6052 -0.2608 -1.2340
 3381SOL     OW21775   2.218   4.199  16.677 -0.6535 -0.4096  0.0892
 3381SOL    HW121776   2.149   4.136  16.656 -1.0252 -0.5915  1.8549
 3381SOL    HW221777   2.244   4.170  16.764  0.2563 -0.0612 -0.0675
 3382SOL     OW21778   2.702   3.683   0.484  0.2277 -0.2294  0.0465
 3382SOL    HW121779   2.616   3.693   0.442  0.8854 -0.7663 -1.4401
 3382SOL    HW221780   2.750   3.753   0.440  1.8284 -0.7950  0.9123
 3383SOL     OW21781   2.211   1.950   3.094  0.0704  0.0096 -0.2864
 3383SOL    HW121782   2.133   1.926   3.143  1.2722 -1.3319  0.9703
 3383SOL    HW221783   2.252   1.866   3.078 -0.1247  0.2215 -1.8274
 3384SOL     OW21784   0.209   2.646   1.629 -0.9609  0.2290 -0.2998
 3384SOL    HW121785   0.266   2.712   1.589  3.4940 -2.9107  0.8467
 3384SOL    HW221786   0.183   2.605   1.546 -1.8528 -1.4453  0.8024
 3385SOL     OW21787   2.652   2.726  11.186  0.5724  0.0615 -0.2334
 3385SOL    HW121788   2.642   2.757  11.096  0.5282  1.0784  0.1246
 3385SOL    HW221789   2.711   2.653  11.169  0.4641 -0.2491  0.6676
 3386SOL     OW21790   1.418   3.153   1.296 -0.2143 -0.0448  0.1204
 3386SOL    HW121791   1.357   3.106   1.353  0.9901 -2.1429 -0.3099
 3386SOL    HW221792   1.384   3.129   1.210 -0.9211 -0.5386  0.5347
 3387SOL     OW21793   0.016   0.972   2.092 -0.5334 -0.1769  0.5884
 3387SOL    HW121794   4.662   0.995   2.067 -0.2829 -0.3672 -0.4638
 3387SOL    HW221795   0.017   0.877   2.089  0.0338 -0.2197  1.9270
 3388SOL     OW21796   1.992   4.114  11.895  0.8101  0.6532  0.2297
 3388SOL    HW121797   1.899   4.132  11.907  0.3585  0.4232 -3.0225
 3388SOL    HW221798   2.018   4.172  11.824 -0.4110 -0.3975 -1.0726
 3389SOL     OW21799   0.646   2.955  17.346  0.3575  0.3323 -0.2358
 3389SOL    HW121800   0.706   3.022  17.381 -0.1442 -0.7793  2.7588
 3389SOL    HW221801   0.606   3.007  17.276 -1.4830 -1.4792 -0.5029
 3390SOL     OW21802   0.658   0.392   2.527  0.6798  0.0963 -0.3022
 3390SOL    HW121803   0.652   0.306   2.486  1.0296  0.1208 -0.4073
 3390SOL    HW221804   0.753   0.401   2.539  1.1105 -2.9538 -1.5883
 3391SOL     OW21805   3.080   2.278  13.910  0.1234  0.0559  0.1800
 3391SOL    HW121806   3.167   2.306  13.938  0.0141  1.9331 -1.3099
 3391SOL    HW221807   3.030   2.356  13.934  0.4010  1.0206 -2.3194
 3392SOL     OW21808   1.872   3.135  11.945 -0.4089 -0.1640 -0.0952
 3392SOL    HW121809   1.888   3.041  11.931 -1.7093 -0.1884 -1.3947
 3392SOL    HW221810   1.960   3.173  11.949  0.4381 -2.2241  0.9352
 3393SOL     OW21811   2.484   1.479  15.438  0.3636 -0.9133 -0.0349
 3393SOL    HW121812   2.556   1.537  15.462 -1.3668 -0.2272  3.5662
 3393SOL    HW221813   2.497   1.403  15.495 -1.2428 -1.1501  0.0144
 3394SOL     OW21814   1.419   0.769   0.407  0.5334 -0.3992  0.1235
 3394SOL    HW121815   1.426   0.697   0.346 -1.2932  0.7146 -1.3769
 3394SOL    HW221816   1.346   0.733   0.457  1.2730 -1.8926  0.1238
 3395SOL     OW21817   0.541   4.409   8.785 -0.3926 -0.2288  0.1138
 3395SOL    HW121818   0.545   4.451   8.871  2.3163  3.0631 -1.6263
 3395SOL    HW221819   0.632   4.416   8.754  0.2212  0.6269  2.0924
 3396SOL     OW21820   4.062   0.117   2.800 -0.0487 -0.2414 -0.6380
 3396SOL    HW121821   4.045   0.038   2.748  0.9962 -1.2308  0.5223
 3396SOL    HW221822   3.972   0.146   2.814  0.1584 -0.5785  1.2923
 3397SOL     OW21823   2.249   0.516   2.476 -0.1430 -0.2167  0.1780
 3397SOL    HW121824   2.277   0.603   2.446 -1.6196 -0.0791 -0.7864
 3397SOL    HW221825   2.315   0.458   2.438 -1.0865 -1.8593  1.1012
 3398SOL     OW21826   1.800   1.124   4.876  0.8631  0.7407 -0.0918
 3398SOL    HW121827   1.736   1.088   4.937  0.7421 -0.7946 -1.1339
 3398SOL    HW221828   1.877   1.141   4.929  1.2508 -3.5125  0.6765
 3399SOL     OW21829   4.274   3.881  10.162  0.1159  0.7800  0.0860
 3399SOL    HW121830   4.282   3.896  10.068 -0.7293 -0.5934 -0.2148
 3399SOL    HW221831   4.191   3.916  10.193 -1.2655 -0.4881 -2.2188
 3400SOL     OW21832   3.374   1.567   2.096  0.5624 -0.2235  0.1241
 3400SOL    HW121833   3.375   1.649   2.145  1.2100 -0.4894  0.5432
 3400SOL    HW221834   3.335   1.593   2.012  0.0295  1.6643  0.9498
 3401SOL     OW21835   0.979   4.362   5.564  0.0792 -0.4919 -0.0675
 3401SOL    HW121836   0.973   4.278   5.609 -0.4654 -0.8637 -0.8251
 3401SOL    HW221837   0.973   4.417   5.642  0.7674 -1.6387  0.7892
 3402SOL     OW21838   1.023   1.912   2.960  0.1022  0.0833 -0.2807
 3402SOL    HW121839   1.112   1.901   2.991 -0.7884  0.8118  2.5324
 3402SOL    HW221840   1.040   1.912   2.866 -0.6340  0.5077 -0.4202
 3403SOL     OW21841   4.615   1.960  14.645 -0.0461 -0.4014  0.6164
 3403SOL    HW121842   4.612   1.898  14.572  1.5018  0.2198  0.0270
 3403SOL    HW221843   4.600   1.902  14.720 -0.0616 -1.3834 -0.1453
 3404SOL     OW21844   0.713   0.122  17.244  0.0810 -0.0157 -0.0489
 3404SOL    HW121845   0.799   0.163  17.257 -0.4500  0.6388  1.3387
 3404SOL    HW221846   0.656   0.198  17.258  1.3388  0.6235  1.5248
 3405SOL     OW21847   4.176   4.426   8.892 -0.3782 -0.2176 -0.2433
 3405SOL    HW121848   4.210   4.351   8.843  0.2392  0.3545 -0.6857
 3405SOL    HW221849   4.245   4.492   8.890 -1.3014  0.7443 -0.0065
 3406SOL     OW21850   4.024   0.125   1.294 -0.2270  0.3681 -0.4266
 3406SOL    HW121851   3.948   0.149   1.347 -1.6574 -1.9501 -1.4273
 3406SOL    HW221852   4.099   0.150   1.348 -0.0843  0.4603 -0.6670
 3407SOL     OW21853   1.264   2.759   6.360  0.4482  0.4714 -0.6036
 3407SOL    HW121854   1.196   2.790   6.300 -0.2722  3.6078  1.8624
 3407SOL    HW221855   1.305   2.842   6.385 -1.7216  1.0523  1.0238
 3408SOL     OW21856   3.224   3.806   6.418  0.5691  0.4177 -0.0222
 3408SOL    HW121857   3.161   3.854   6.472  1.4778  1.9088 -0.2955
 3408SOL    HW221858   3.198   3.838   6.331  2.6878  0.3608 -0.6748
 3409SOL     OW21859   1.658   4.335  17.133  0.5233 -0.2211 -0.5076
 3409SOL    HW121860   1.737   4.388  17.140  0.7929 -0.7666  0.5665
 3409SOL    HW221861   1.657   4.294  17.219 -1.3992  0.5678 -0.1574
 3410SOL     OW21862   4.456   1.469  14.915 -0.0394  0.2629  0.3833
 3410SOL    HW121863   4.476   1.392  14.861  1.9444  0.1631  1.2753
 3410SOL    HW221864   4.361   1.476  14.907  0.0751 -0.7444 -2.1328
 3411SOL     OW21865   1.020   1.882  11.330 -0.5518  0.3623 -0.1128
 3411SOL    HW121866   0.936   1.908  11.292  0.3718 -1.2023 -3.2213
 3411SOL    HW221867   1.062   1.857  11.248  0.9683 -3.9856  1.9930
 3412SOL     OW21868   2.034   1.333   0.982 -0.1354  0.4849 -0.2100
 3412SOL    HW121869   1.946   1.341   0.945 -0.7460 -2.0627  0.6667
 3412SOL    HW221870   2.030   1.393   1.057  0.1583 -0.9370  0.9538
 3413SOL     OW21871   4.147   1.929   1.116 -0.0636 -0.7653 -0.3141
 3413SOL    HW121872   4.066   1.946   1.066 -1.4467 -1.0761  1.8283
 3413SOL    HW221873   4.218   1.947   1.054 -0.1019  1.4139  0.2434
 3414SOL     OW21874   0.743   0.932  15.720 -0.6025 -0.1525  0.0806
 3414SOL    HW121875   0.751   0.871  15.647 -1.7630  1.2907 -1.2424
 3414SOL    HW221876   0.650   0.925  15.744 -1.3991  2.4431 -2.2719
 3415SOL     OW21877   1.046   1.619  16.349  0.2943 -0.5598 -0.5618
 3415SOL    HW121878   1.113   1.552  16.337  1.2573  0.7135 -2.2934
 3415SOL    HW221879   1.020   1.634  16.259  0.7570 -2.4968 -1.0198
 3416SOL     OW21880   2.742   1.589   0.962 -0.3347 -0.4239 -0.0875
 3416SOL    HW121881   2.748   1.567   0.869  1.7718 -0.9585  0.1926
 3416SOL    HW221882   2.831   1.618   0.980 -0.3386 -0.1459 -0.5051
 3417SOL     OW21883   2.718   4.718   5.443 -0.2902 -0.2234  0.1606
 3417SOL    HW121884   2.805   4.695   5.478  0.4905  2.5290  0.0233
 3417SOL    HW221885   2.663   4.650   5.482 -0.3476 -1.7219 -2.5439
 3418SOL     OW21886   4.654   0.354  11.278 -0.0270 -0.5715  0.0054
 3418SOL    HW121887   0.004   0.397  11.283 -0.9207  1.0202  1.5366
 3418SOL    HW221888   4.628   0.358  11.186  2.1410  0.5475 -0.5679
 3419SOL     OW21889   0.580   3.492   5.406 -0.6806  0.0271 -0.6567
 3419SOL    HW121890   0.675   3.503   5.410 -0.5015 -1.8977  0.2341
 3419SOL    HW221891   0.566   3.437   5.483 -0.2061  0.3118 -0.3664
 3420SOL     OW21892   4.045   1.612   3.277  0.2284  0.3158  0.7905
 3420SOL    HW121893   4.063   1.703   3.301 -0.8585  0.4102  1.2704
 3420SOL    HW221894   4.131   1.576   3.297  0.5355  0.7242  0.2350
 3421SOL     OW21895   2.104   3.304   4.093  0.5134  0.0234 -0.4891
 3421SOL    HW121896   2.075   3.396   4.092 -0.3236 -0.2050  1.8811
 3421SOL    HW221897   2.195   3.327   4.078  0.4577 -0.1357 -1.0643
 3422SOL     OW21898   2.502   0.077   3.250 -0.0346 -0.1553  0.8820
 3422SOL    HW121899   2.475   0.084   3.341  1.5199  0.2361  1.3243
 3422SOL    HW221900   2.439   0.011   3.224 -0.5324  0.1894  1.2103
 3423SOL     OW21901   2.005   4.271   7.912 -0.0402  0.7672  0.0113
 3423SOL    HW121902   1.911   4.254   7.910  0.1502 -0.4273  1.3067
 3423SOL    HW221903   2.013   4.281   8.007 -1.7354  1.5227  0.0752
 3424SOL     OW21904   2.020   1.402   1.457  0.1099  0.0778  0.4722
 3424SOL    HW121905   2.032   1.436   1.368 -1.3110 -0.4771  0.0774
 3424SOL    HW221906   2.062   1.316   1.451  1.3921  0.6755  0.8731
 3425SOL     OW21907   4.373   3.126  14.345  0.0546  0.4408  0.0223
 3425SOL    HW121908   4.370   3.131  14.250 -3.2530  1.6976  0.1921
 3425SOL    HW221909   4.443   3.062  14.358 -0.3037  0.2544  1.0956
 3426SOL     OW21910   1.053   3.222   4.819 -0.5894 -0.4131 -0.6052
 3426SOL    HW121911   1.147   3.215   4.831 -1.0740 -0.9536  2.7091
 3426SOL    HW221912   1.030   3.130   4.835 -0.8549 -0.5633 -1.7711
 3427SOL     OW21913   1.726   1.001  12.047  0.1068 -0.2647 -0.5142
 3427SOL    HW121914   1.680   1.002  12.131  0.1995 -1.8696 -0.4410
 3427SOL    HW221915   1.707   0.916  12.008  0.3981 -0.3036 -0.5718
 3428SOL     OW21916   3.601   3.354   2.225  0.5472 -0.3831  0.1323
 3428SOL    HW121917   3.619   3.378   2.316  0.3236 -1.2451  0.4115
 3428SOL    HW221918   3.622   3.433   2.176  0.3752  0.0784  0.7987
 3429SOL     OW21919   1.777   2.342  11.454 -0.5434  0.4232 -0.2943
 3429SOL    HW121920   1.804   2.434  11.447  0.6357  0.1526  0.7855
 3429SOL    HW221921   1.735   2.350  11.540 -0.7108  3.2735 -0.6348
 3430SOL     OW21922   4.347   3.592   8.026  0.6890 -0.6549 -0.1552
 3430SOL    HW121923   4.410   3.591   7.954  0.1554  1.3015 -0.6584
 3430SOL    HW221924   4.297   3.514   8.003  1.2461 -1.1488  0.3335
 3431SOL     OW21925   4.384   2.982   3.538  0.0336  0.3522 -0.5875
 3431SOL    HW121926   4.478   2.977   3.523 -0.0601 -0.8843 -0.7485
 3431SOL    HW221927   4.366   2.893   3.506 -0.3939  0.9191 -1.8928
 3432SOL     OW21928   2.727   3.981  11.277  0.0499  0.0061  0.0752
 3432SOL    HW121929   2.731   3.899  11.326 -0.0619 -1.3347 -2.1618
 3432SOL    HW221930   2.778   4.046  11.325 -0.5939 -0.5864  1.5328
 3433SOL     OW21931   3.660   2.052   1.939 -0.3230 -0.2722 -0.3724
 3433SOL    HW121932   3.639   1.961   1.914  0.1495 -0.3398 -0.5172
 3433SOL    HW221933   3.685   2.023   2.026  1.3515 -2.0004 -1.4153
 3434SOL     OW21934   2.253   1.267   8.071 -0.2567  0.2916  0.2885
 3434SOL    HW121935   2.238   1.245   8.163 -1.5619  0.0284  0.0157
 3434SOL    HW221936   2.333   1.216   8.054 -0.9736 -0.6520 -0.2698
 3435SOL     OW21937   2.724   1.382  15.805  0.4039  0.3999  0.8271
 3435SOL    HW121938   2.707   1.289  15.796  0.8310  0.5404 -1.3635
 3435SOL    HW221939   2.771   1.381  15.889 -1.6592 -2.0635  1.9544
 3436SOL     OW21940   0.212   1.536   0.966  0.2911  0.7255  0.2674
 3436SOL    HW121941   0.220   1.622   1.006  1.6908  0.7640 -0.1139
 3436SOL    HW221942   0.190   1.491   1.048 -1.1571  0.8312 -0.0623
 3437SOL     OW21943   0.855   0.789   2.209 -0.2263  0.3342  0.1192
 3437SOL    HW121944   0.849   0.694   2.213 -0.1084  0.2485 -1.6659
 3437SOL    HW221945   0.895   0.819   2.291 -0.8302  0.7848  0.2501
 3438SOL     OW21946   1.194   4.637   6.167 -0.0922 -0.1446  0.9564
 3438SOL    HW121947   1.160   4.692   6.097 -1.8369 -0.9912  1.1262
 3438SOL    HW221948   1.111   4.611   6.207 -0.4199  2.5787  2.0492
 3439SOL     OW21949   4.384   0.412   9.695  0.1312 -0.2089  0.0948
 3439SOL    HW121950   4.418   0.450   9.613  0.5630 -0.7699  0.0135
 3439SOL    HW221951   4.363   0.327   9.658 -0.5744 -0.7569  1.7639
 3440SOL     OW21952   3.914   2.521   6.942  0.3343 -0.2934 -0.2715
 3440SOL    HW121953   3.819   2.509   6.950  0.2247  2.1558  1.7394
 3440SOL    HW221954   3.946   2.498   7.029  1.0779 -2.5881 -1.1391
 3441SOL     OW21955   4.504   3.726   3.321 -0.1802  0.3810 -0.2519
 3441SOL    HW121956   4.528   3.819   3.326 -1.6766  0.7433  0.2264
 3441SOL    HW221957   4.435   3.712   3.385  0.2756  2.1671  0.6224
 3442SOL     OW21958   2.337   0.004   7.811 -0.3824 -0.0076  0.4564
 3442SOL    HW121959   2.424   0.024   7.845 -0.6698  0.3116  0.9959
 3442SOL    HW221960   2.314   4.655   7.849 -1.0930  0.3066  0.7176
 3443SOL     OW21961   2.164   0.505   5.306 -0.1588 -0.0994 -0.1294
 3443SOL    HW121962   2.093   0.569   5.300  1.2600  1.4532 -0.2620
 3443SOL    HW221963   2.135   0.447   5.377 -0.6685 -0.6644 -0.7931
 3444SOL     OW21964   4.468   2.905  12.479 -0.2245 -0.5078  0.1025
 3444SOL    HW121965   4.376   2.900  12.504  0.1068  2.5447  1.8607
 3444SOL    HW221966   4.510   2.936  12.559  0.6187  2.5516 -1.5474
 3445SOL     OW21967   2.901   1.996  17.566 -0.5472  0.5918 -0.0015
 3445SOL    HW121968   2.952   1.994  17.485 -1.7413  0.3569 -0.7463
 3445SOL    HW221969   2.935   2.068  17.618 -0.2430 -0.0339  0.6709
 3446SOL     OW21970   3.742   4.220   6.345 -0.9225 -0.0811  0.1005
 3446SOL    HW121971   3.774   4.129   6.352 -0.8701 -0.1250 -0.7589
 3446SOL    HW221972   3.822   4.266   6.319 -1.7642  1.4575  0.2638
 3447SOL     OW21973   2.076   2.215   4.605 -0.0336  0.0939  0.0045
 3447SOL    HW121974   2.124   2.163   4.542 -1.3809  0.5029 -1.3612
 3447SOL    HW221975   2.089   2.307   4.581 -1.2623  0.7311  1.7098
 3448SOL     OW21976   4.412   3.009   4.751  0.1311 -0.5368  0.4959
 3448SOL    HW121977   4.452   3.084   4.794  1.1705 -0.4677 -0.5978
 3448SOL    HW221978   4.320   3.034   4.758  0.6881  1.1153  1.8381
 3449SOL     OW21979   4.419   3.769  15.345 -0.5969  0.1641  0.3747
 3449SOL    HW121980   4.440   3.676  15.342  3.1114  0.9802  1.4099
 3449SOL    HW221981   4.381   3.786  15.258  1.2496 -0.8635 -0.6253
 3450SOL     OW21982   3.610   2.414   7.004 -0.0287 -0.4815  0.3164
 3450SOL    HW121983   3.612   2.321   7.028 -1.4743 -1.3895 -3.0777
 3450SOL    HW221984   3.551   2.445   7.073  0.5110  0.1014  0.5158
 3451SOL     OW21985   0.171   1.255   9.514  0.0543 -0.1257 -0.4370
 3451SOL    HW121986   0.207   1.172   9.543  1.3089 -0.3452 -2.6632
 3451SOL    HW221987   0.231   1.306   9.569  0.3242  1.0125 -1.7751
 3452SOL     OW21988   2.812   0.751  12.844  0.0119  0.7912  0.1170
 3452SOL    HW121989   2.726   0.708  12.837  0.3578  0.2498 -0.9424
 3452SOL    HW221990   2.804   0.796  12.927  1.6861  0.3129  0.5361
 3453SOL     OW21991   4.535   2.611   8.091 -0.5729  0.3880 -0.0870
 3453SOL    HW121992   4.596   2.680   8.065  0.7579 -0.6384  0.2894
 3453SOL    HW221993   4.471   2.646   8.153  0.9395  1.2356  0.9851
 3454SOL     OW21994   4.244   1.759   3.870  0.3316  0.4611 -0.0403
 3454SOL    HW121995   4.202   1.709   3.800  0.7415 -1.7339  1.2833
 3454SOL    HW221996   4.304   1.690   3.901  0.3872  0.2175 -0.6770
 3455SOL     OW21997   4.411   0.736  11.477 -0.2549 -0.2808  0.3061
 3455SOL    HW121998   4.364   0.719  11.559  1.2999  2.5216  1.7828
 3455SOL    HW221999   4.465   0.659  11.458  1.1581  0.6621  0.4778
 3456SOL     OW22000   0.270   2.867   7.939  0.1429 -0.1525 -0.5558
 3456SOL    HW122001   0.281   2.867   7.843  0.2745 -0.1955 -0.5412
 3456SOL    HW222002   0.238   2.956   7.955  1.4496  0.2810 -0.2837
 3457SOL     OW22003   4.297   2.865  17.215 -0.4407  0.1383  0.2484
 3457SOL    HW122004   4.278   2.952  17.252 -0.6221 -0.7805  2.2932
 3457SOL    HW222005   4.225   2.857  17.152  0.9749  2.0498 -1.6210
 3458SOL     OW22006   2.034   3.217   3.192  0.0532 -0.0085  0.2541
 3458SOL    HW122007   2.014   3.180   3.278  0.3698 -0.0834  0.2942
 3458SOL    HW222008   1.955   3.184   3.150 -0.7652 -0.4268  2.1143
 3459SOL     OW22009   0.091   1.144   1.012  0.8530  0.2385  0.5566
 3459SOL    HW122010   0.139   1.066   0.984  2.1196  2.2134 -2.7197
 3459SOL    HW222011   0.161   1.197   1.050  3.4333 -0.6466 -2.9942
 3460SOL     OW22012   4.265   0.486   3.722  0.1445  0.0497  0.2251
 3460SOL    HW122013   4.250   0.417   3.656 -0.4137  2.5428 -2.2597
 3460SOL    HW222014   4.195   0.546   3.696 -0.4825  0.1279  2.1362
 3461SOL     OW22015   1.795   1.092  11.636  0.7768 -0.1339 -0.2102
 3461SOL    HW122016   1.732   1.158  11.604  1.4869 -0.3397 -2.0157
 3461SOL    HW222017   1.824   1.134  11.717  3.0872 -3.0740  0.4652
 3462SOL     OW22018   3.573   1.320   4.765 -0.6901  0.5629 -0.6348
 3462SOL    HW122019   3.590   1.403   4.810  0.8526 -0.8403  1.4024
 3462SOL    HW222020   3.567   1.262   4.841 -1.9027  0.8000 -0.5476
 3463SOL     OW22021   2.203   1.223   8.346  0.6831  0.2058 -0.2148
 3463SOL    HW122022   2.168   1.229   8.435 -0.4034 -3.0262 -0.4254
 3463SOL    HW222023   2.288   1.184   8.365  0.4865 -0.1508 -0.0605
 3464SOL     OW22024   3.149   1.640  13.594 -0.5476  0.2153 -0.8692
 3464SOL    HW122025   3.221   1.693  13.558  0.2275 -0.2679 -0.0223
 3464SOL    HW222026   3.197   1.582  13.652 -2.1480  0.6365  0.8756
 3465SOL     OW22027   1.184   2.429  15.760  0.2549 -0.3326  0.0054
 3465SOL    HW122028   1.154   2.343  15.790 -0.1715  0.2025  1.0983
 3465SOL    HW222029   1.279   2.431  15.759  0.2360  0.3021 -0.5863
 3466SOL     OW22030   2.272   0.535  13.584  0.1303  0.1109  0.6973
 3466SOL    HW122031   2.307   0.597  13.519 -1.1487  1.8817  1.6880
 3466SOL    HW222032   2.206   0.592  13.623 -1.1739 -1.4914  0.7961
 3467SOL     OW22033   0.240   1.321   5.251 -0.1576 -0.5836 -0.5502
 3467SOL    HW122034   0.307   1.313   5.319 -2.5817  0.8080  2.0170
 3467SOL    HW222035   0.290   1.381   5.195  2.1347 -1.4965  0.5315
 3468SOL     OW22036   2.886   4.047   4.421  0.0002  0.1792 -0.1754
 3468SOL    HW122037   2.900   4.097   4.501 -2.9990 -3.1256  2.4233
 3468SOL    HW222038   2.826   4.094   4.363  1.4052  0.1529 -1.6513
 3469SOL     OW22039   2.096   4.313   8.207 -0.1312 -0.0792 -0.2250
 3469SOL    HW122040   2.112   4.262   8.286 -1.0136 -0.2691 -0.1697
 3469SOL    HW222041   2.068   4.394   8.250  0.1469  0.2500 -0.6604
 3470SOL     OW22042   2.325   0.775   3.691 -0.6780 -0.2596  0.0350
 3470SOL    HW122043   2.387   0.762   3.762  2.0075 -1.7699 -2.5953
 3470SOL    HW222044   2.380   0.751   3.616  0.9871  1.2865  0.7912
 3471SOL     OW22045   1.341   3.773   4.551  0.3352  0.2101 -0.6509
 3471SOL    HW122046   1.405   3.811   4.612  1.4612 -1.8219 -0.5820
 3471SOL    HW222047   1.353   3.680   4.566  1.6892  0.4608 -0.1823
 3472SOL     OW22048   2.647   1.563  14.944 -0.6011  0.5485 -0.0291
 3472SOL    HW122049   2.569   1.600  14.902 -1.4047 -1.5160 -0.3396
 3472SOL    HW222050   2.715   1.598  14.887 -0.3438  2.4001  1.4153
 3473SOL     OW22051   3.266   3.969   2.843  0.4867 -0.8536 -0.0510
 3473SOL    HW122052   3.241   4.020   2.920  1.3626 -0.3736 -0.0820
 3473SOL    HW222053   3.183   3.926   2.822 -0.1472  1.7273 -2.7452
 3474SOL     OW22054   1.846   1.666   2.734 -0.1267 -0.0994 -0.0603
 3474SOL    HW122055   1.907   1.635   2.801  1.3057  1.8767 -0.4552
 3474SOL    HW222056   1.852   1.762   2.729 -0.5898 -0.0242  0.8769
 3475SOL     OW22057   0.770   2.833   8.091  0.2794 -0.0597 -0.1193
 3475SOL    HW122058   0.680   2.855   8.113  0.4757  0.1229  0.4901
 3475SOL    HW222059   0.773   2.737   8.082 -0.7769 -0.1491  0.5738
 3476SOL     OW22060   0.613   0.360  17.607 -0.1698  0.4874 -0.1109
 3476SOL    HW122061   0.608   0.381  17.700 -2.3398  2.3550 -0.6443
 3476SOL    HW222062   0.707   0.344  17.599 -0.4424 -0.7095 -0.8324
 3477SOL     OW22063   3.719   2.066   9.148 -0.3841 -0.1595 -0.8783
 3477SOL    HW122064   3.660   2.108   9.212  2.1381  1.1196  0.6145
 3477SOL    HW222065   3.657   2.068   9.075 -1.4748 -1.4109  0.0032
 3478SOL     OW22066   4.314   0.264   4.108  0.3435 -0.0729  0.5865
 3478SOL    HW122067   4.399   0.277   4.151  0.4812 -1.3926  0.7019
 3478SOL    HW222068   4.304   0.170   4.124  0.6321 -0.3897 -1.1526
 3479SOL     OW22069   1.661   2.964   6.926  0.5657 -0.1318 -0.1460
 3479SOL    HW122070   1.754   2.956   6.945  0.6942  0.0752 -0.6639
 3479SOL    HW222071   1.636   2.872   6.928 -2.2305  0.6654  1.6550
 3480SOL     OW22072   0.475   4.649   7.289 -0.6438  0.2981  0.3584
 3480SOL    HW122073   0.418   4.595   7.235  0.1574  0.0694 -0.2439
 3480SOL    HW222074   0.554   4.596   7.285  0.1784  1.7690 -2.2985
 3481SOL     OW22075   4.160   3.107   4.751  0.2604 -0.5032 -0.0200
 3481SOL    HW122076   4.116   3.025   4.730 -1.1036  0.5547 -1.4037
 3481SOL    HW222077   4.106   3.142   4.822  1.5166  1.9402 -0.2745
 3482SOL     OW22078   3.638   3.640   5.085 -0.8126 -0.0208 -0.1593
 3482SOL    HW122079   3.659   3.555   5.045  0.7751  0.3684 -0.1477
 3482SOL    HW222080   3.562   3.629   5.142  0.6754  0.0550  1.8331
 3483SOL     OW22081   1.498   1.099  14.713  0.5647  0.0796 -0.3076
 3483SOL    HW122082   1.430   1.163  14.736  0.7997 -0.2854  1.3859
 3483SOL    HW222083   1.558   1.162  14.674  1.6542 -0.4804  0.4748
 3484SOL     OW22084   3.205   0.440   1.847  0.1447  0.7007  0.9557
 3484SOL    HW122085   3.132   0.479   1.799  0.3161  0.0041  0.1398
 3484SOL    HW222086   3.170   0.355   1.875  1.1968 -0.2081 -0.4773
 3485SOL     OW22087   0.226   1.585  10.423 -0.2669 -0.2826 -0.3551
 3485SOL    HW122088   0.164   1.527  10.379 -1.5659 -0.2063  1.3801
 3485SOL    HW222089   0.243   1.529  10.499 -0.4981  0.2584  0.1017
 3486SOL     OW22090   4.367   1.670  10.543 -0.0281  0.0669  0.0988
 3486SOL    HW122091   4.336   1.686  10.632 -1.1072 -1.8800  0.0787
 3486SOL    HW222092   4.287   1.700  10.498  0.0047 -0.1033 -0.0720
 3487SOL     OW22093   4.645   1.809   5.592 -0.0279 -0.4872  0.3270
 3487SOL    HW122094   4.570   1.789   5.647 -2.0010  1.5606 -1.6626
 3487SOL    HW222095   4.723   1.787   5.644  1.4146 -1.8463 -2.3861
 3488SOL     OW22096   0.922   2.717   5.494  0.1029 -0.4879  0.5019
 3488SOL    HW122097   0.936   2.623   5.488 -1.3617 -0.7046  0.4343
 3488SOL    HW222098   0.963   2.743   5.412  0.8434  1.0325  1.3459
 3489SOL     OW22099   3.472   2.722   7.755 -0.0068  0.3532 -0.1918
 3489SOL    HW122100   3.385   2.736   7.717 -0.7795 -0.9060  1.0805
 3489SOL    HW222101   3.527   2.778   7.701  0.7636  0.4566  0.7083
 3490SOL     OW22102   2.178   2.577   2.181 -0.0239  0.0325 -0.6809
 3490SOL    HW122103   2.115   2.639   2.143  0.6943  1.0754 -0.1828
 3490SOL    HW222104   2.134   2.492   2.189 -1.9129  1.0827  0.1732
 3491SOL     OW22105   4.248   2.382   8.479  0.2395  0.0788  0.3580
 3491SOL    HW122106   4.163   2.356   8.514 -0.8794  0.9238 -1.7543
 3491SOL    HW222107   4.232   2.464   8.433  0.1730 -0.7897 -1.1438
 3492SOL     OW22108   4.103   0.567   1.531 -0.2442 -0.2561  0.3266
 3492SOL    HW122109   4.034   0.554   1.595 -0.0147 -3.9074 -0.1686
 3492SOL    HW222110   4.060   0.522   1.459  1.7656 -1.8719  0.1350
 3493SOL     OW22111   0.359   3.955  10.284 -0.2919 -1.0198  0.1785
 3493SOL    HW122112   0.367   3.958  10.380  0.2192 -3.8522  0.2405
 3493SOL    HW222113   0.453   3.953  10.264 -0.4519  1.8461 -0.8799
 3494SOL     OW22114   1.702   0.114   5.341 -0.1879  0.0727 -0.8006
 3494SOL    HW122115   1.797   0.113   5.341 -0.1849  0.8813  0.1286
 3494SOL    HW222116   1.698   0.193   5.394  2.0988 -0.6123  0.4041
 3495SOL     OW22117   1.170   1.305   6.835  0.4993 -0.0022 -0.9180
 3495SOL    HW122118   1.108   1.256   6.889  4.2489 -0.1713  3.1601
 3495SOL    HW222119   1.135   1.299   6.745  0.5544  1.2138 -1.0197
 3496SOL     OW22120   2.928   3.240   8.967  0.3650 -0.1496  0.0163
 3496SOL    HW122121   3.011   3.214   8.926 -0.8862 -4.5794  0.2280
 3496SOL    HW222122   2.869   3.191   8.910 -1.7480  2.3161  0.1125
 3497SOL     OW22123   0.242   4.048  11.204  0.3799  0.3845  0.6156
 3497SOL    HW122124   0.234   4.102  11.282 -1.5313  0.7199  0.2014
 3497SOL    HW222125   0.336   4.060  11.190  0.1231  2.0966  0.2999
 3498SOL     OW22126   3.166   2.299   8.259 -0.2386  0.1077 -0.3482
 3498SOL    HW122127   3.219   2.324   8.183  2.0425  2.1553  1.9040
 3498SOL    HW222128   3.226   2.232   8.294 -1.4944 -2.0327 -2.3032
 3499SOL     OW22129   3.403   4.726   1.307 -0.1841  0.6484  0.1843
 3499SOL    HW122130   3.457   4.648   1.319 -0.3183  0.1638 -2.3316
 3499SOL    HW222131   3.369   4.701   1.221  0.7615 -0.0937  0.0314
 3500SOL     OW22132   3.404   3.362   5.687 -0.2631  0.1406  0.2681
 3500SOL    HW122133   3.494   3.332   5.690 -0.1921  0.3669  0.4057
 3500SOL    HW222134   3.406   3.430   5.754 -1.8402  1.0947 -0.6341
 3501SOL     OW22135   0.224   1.974   0.233  0.4354 -0.1956 -0.0861
 3501SOL    HW122136   0.208   2.049   0.176  1.5551 -0.7604 -1.1380
 3501SOL    HW222137   0.301   1.941   0.188  0.3698 -3.3831  2.1515
 3502SOL     OW22138   1.862   3.645   6.270  0.3619  0.2512  0.2110
 3502SOL    HW122139   1.843   3.572   6.330  3.2836  0.0627  0.8877
 3502SOL    HW222140   1.948   3.668   6.304  1.9552 -5.6456  0.1309
 3503SOL     OW22141   3.153   4.665   2.992  0.0156  0.4831 -0.1083
 3503SOL    HW122142   3.098   4.679   3.068 -0.7805 -2.0823 -0.2207
 3503SOL    HW222143   3.105   4.605   2.935 -0.6708  1.0359 -0.1049
 3504SOL     OW22144   3.195   2.567   3.231 -0.5168  0.2748  0.7326
 3504SOL    HW122145   3.139   2.641   3.210  0.0255  0.5516  0.2811
 3504SOL    HW222146   3.187   2.517   3.150  1.7547  1.4409 -0.1918
 3505SOL     OW22147   1.543   3.191   4.520 -0.7846  0.0013 -0.7284
 3505SOL    HW122148   1.529   3.251   4.447  0.6416  0.7215 -0.4028
 3505SOL    HW222149   1.629   3.219   4.549 -0.9124  0.4650 -0.7968
 3506SOL     OW22150   1.190   0.797   4.428  0.0627  0.2121 -0.4615
 3506SOL    HW122151   1.270   0.823   4.474  0.4315 -0.1758 -0.8803
 3506SOL    HW222152   1.117   0.837   4.474  0.2092  1.7261 -1.5325
 3507SOL     OW22153   4.636   1.261   1.177  0.0631  0.4227 -0.3508
 3507SOL    HW122154   4.571   1.191   1.181 -1.1165  1.5224 -0.2412
 3507SOL    HW222155   4.702   1.225   1.118 -0.1982 -1.2459  0.3968
 3508SOL     OW22156   1.654   1.041  10.825  0.1419  0.0975  0.1222
 3508SOL    HW122157   1.744   1.024  10.798  0.0293  1.0451 -0.8656
 3508SOL    HW222158   1.604   1.054  10.744 -0.2285 -0.7314  0.2164
 3509SOL     OW22159   2.563   3.094  11.124  0.4476 -0.1110 -0.7341
 3509SOL    HW122160   2.617   3.017  11.143  0.1074  0.0847  1.0241
 3509SOL    HW222161   2.568   3.139  11.208  0.2462  0.1390 -0.8556
 3510SOL     OW22162   4.681   2.504   2.986  0.2328 -0.1664  0.5451
 3510SOL    HW122163   4.715   2.423   3.025  1.5093  0.1245  0.0309
 3510SOL    HW222164   0.021   2.561   2.992  0.0087  0.2218 -0.4154
 3511SOL     OW22165   1.626   2.257  13.253  0.0083  0.0684  0.1337
 3511SOL    HW122166   1.711   2.216  13.268  0.6958  1.7948  0.8662
 3511SOL    HW222167   1.645   2.350  13.242  1.4055 -0.1714  0.5310
 3512SOL     OW22168   1.533   0.492   7.643  0.1578 -0.2955  0.2987
 3512SOL    HW122169   1.491   0.543   7.712  0.2310  1.5149 -1.0298
 3512SOL    HW222170   1.465   0.425   7.632 -0.0399  0.1311 -0.9944
 3513SOL     OW22171   0.436   1.216   3.066  0.2925  0.6563  0.1806
 3513SOL    HW122172   0.472   1.127   3.068 -2.3138 -0.3969  0.4951
 3513SOL    HW222173   0.387   1.217   3.148  0.4106  0.3706  0.2549
 3514SOL     OW22174   0.904   2.451   5.430 -0.2013 -0.4444  0.1036
 3514SOL    HW122175   0.924   2.389   5.500 -0.0261  0.3796  0.7850
 3514SOL    HW222176   0.885   2.402   5.350 -1.5347 -0.2825  0.3269
 3515SOL     OW22177   4.108   0.004   8.498  0.0929 -0.4120  0.2310
 3515SOL    HW122178   4.043   4.724   8.429 -0.5985 -1.5171  1.1442
 3515SOL    HW222179   4.172   4.670   8.481 -0.3944 -0.7427 -0.2842
 3516SOL     OW22180   1.304   3.388   8.600  0.2505  0.2527  0.3065
 3516SOL    HW122181   1.290   3.463   8.657  2.1521  0.9948 -0.2114
 3516SOL    HW222182   1.219   3.400   8.557 -0.0240  0.9066  1.0434
 3517SOL     OW22183   3.157   2.110   0.024 -0.0338 -0.4068  0.5477
 3517SOL    HW122184   3.248   2.137   0.037  0.2769  0.2563 -2.9541
 3517SOL    HW222185   3.119   2.192  17.732 -1.3729 -0.8693  0.9182
 3518SOL     OW22186   0.056   1.334   9.267 -0.3370  0.1450 -0.1147
 3518SOL    HW122187   0.007   1.253   9.284  0.8113 -0.0614  2.2375
 3518SOL    HW222188   0.118   1.327   9.340 -0.7044 -0.3388  0.1541
 3519SOL     OW22189   4.280   2.457  13.585  0.4454  0.1503 -0.2049
 3519SOL    HW122190   4.261   2.379  13.532  0.7865  0.7143 -1.1686
 3519SOL    HW222191   4.327   2.411  13.655 -0.8965 -0.2657  0.4129
 3520SOL     OW22192   0.638   1.312   1.711 -0.0666  0.1426  0.1685
 3520SOL    HW122193   0.709   1.371   1.735 -0.0387  0.2960 -0.2942
 3520SOL    HW222194   0.572   1.363   1.759  0.1046  0.2710  0.2670
 3521SOL     OW22195   2.184   3.337   7.830  0.2203 -0.4690  0.3257
 3521SOL    HW122196   2.177   3.378   7.916 -1.0647  1.1641 -0.5423
 3521SOL    HW222197   2.212   3.408   7.772 -2.2081  1.0411  0.9717
 3522SOL     OW22198   0.372   3.981   5.896 -0.1064  0.2518 -0.6503
 3522SOL    HW122199   0.279   3.975   5.918 -0.4835  2.7741 -1.5057
 3522SOL    HW222200   0.394   4.061   5.944 -1.1491 -0.8923  1.6899
 3523SOL     OW22201   3.847   0.623   4.994  0.3408 -0.1166 -0.2487
 3523SOL    HW122202   3.921   0.638   4.934  0.2418  0.7231 -0.1622
 3523SOL    HW222203   3.839   0.711   5.031 -0.7676  0.4485 -1.8496
 3524SOL     OW22204   1.696   1.787  16.792 -0.2827  0.2433 -0.1209
 3524SOL    HW122205   1.643   1.741  16.857 -0.3541 -1.6448 -1.5260
 3524SOL    HW222206   1.758   1.721  16.762 -0.8240 -0.6305  0.6975
 3525SOL     OW22207   2.142   1.797   4.060  0.4389 -0.0301  0.2727
 3525SOL    HW122208   2.158   1.888   4.037 -0.1528  0.6623  2.6226
 3525SOL    HW222209   2.108   1.760   3.978  0.6084 -4.1103  2.0193
 3526SOL     OW22210   4.264   0.573   7.251  0.5218 -0.3817 -0.2700
 3526SOL    HW122211   4.213   0.516   7.194  0.3720 -2.3187  1.8046
 3526SOL    HW222212   4.211   0.579   7.331  1.4081 -2.1292  0.4420
 3527SOL     OW22213   1.730   0.286   7.147  0.6670 -0.1012  0.2052
 3527SOL    HW122214   1.754   0.318   7.060  0.2821 -0.6635 -0.1135
 3527SOL    HW222215   1.637   0.266   7.138  0.7394 -0.0289 -0.7094
 3528SOL     OW22216   2.427   3.431   7.597 -0.3586 -0.0442  0.2699
 3528SOL    HW122217   2.410   3.506   7.654 -4.1455 -0.7485  0.0823
 3528SOL    HW222218   2.397   3.457   7.510 -3.5463 -2.0859  0.7223
 3529SOL     OW22219   1.466   0.796   3.754 -0.3079 -0.0277  0.3149
 3529SOL    HW122220   1.510   0.727   3.705 -0.2637 -0.3223  0.7710
 3529SOL    HW222221   1.385   0.815   3.706  0.3836 -0.8186 -1.1717
 3530SOL     OW22222   3.279   1.579   9.769 -0.0976 -0.2676 -0.1461
 3530SOL    HW122223   3.317   1.493   9.788  0.2503 -0.5350 -2.1279
 3530SOL    HW222224   3.207   1.556   9.712  0.1464 -0.3681 -0.4126
 3531SOL     OW22225   1.762   2.570   5.260  0.1967  0.5380 -0.1607
 3531SOL    HW122226   1.704   2.506   5.302 -0.7619  1.5268  0.0111
 3531SOL    HW222227   1.801   2.506   5.200  2.1600 -1.6336  3.4456
 3532SOL     OW22228   0.559   3.653   0.541 -0.5559 -0.0628  0.4932
 3532SOL    HW122229   0.606   3.730   0.510 -1.0998 -0.2516 -0.8256
 3532SOL    HW222230   0.599   3.585   0.486 -0.8951 -0.7130  1.0595
 3533SOL     OW22231   1.883   4.072   2.028 -0.0779  0.1321  0.0517
 3533SOL    HW122232   1.829   4.134   2.077  1.5169  1.2532  0.3750
 3533SOL    HW222233   1.918   4.032   2.107  1.3304 -0.9671 -1.1102
 3534SOL     OW22234   2.562   0.458   2.169 -0.0358  0.5665  0.2094
 3534SOL    HW122235   2.590   0.543   2.136  0.3133  0.6293  0.6540
 3534SOL    HW222236   2.494   0.439   2.105 -1.0295 -0.3908  1.5409
 3535SOL     OW22237   0.121   0.352  12.661 -0.1617  0.6427  0.3496
 3535SOL    HW122238   0.071   0.277  12.630  1.4323 -0.4134  0.2963
 3535SOL    HW222239   0.063   0.427  12.644  0.3520  1.4927  2.3190
 3536SOL     OW22240   0.043   3.123   6.384  0.2297  0.1482 -1.0027
 3536SOL    HW122241   0.011   3.213   6.378 -2.0198 -0.6020 -0.1940
 3536SOL    HW222242   4.716   3.070   6.335 -1.9056  0.9754  0.8479
 3537SOL     OW22243   1.495   0.308   6.840 -0.9765  0.1044 -0.0575
 3537SOL    HW122244   1.467   0.232   6.789 -0.8235 -0.6474  0.9938
 3537SOL    HW222245   1.486   0.381   6.778  0.5910 -0.5369 -1.0544
 3538SOL     OW22246   1.578   2.639   1.365  0.7815 -0.3705 -0.1077
 3538SOL    HW122247   1.507   2.699   1.343 -0.7970 -1.5925  1.6205
 3538SOL    HW222248   1.529   2.575   1.416  0.6556  0.9856  1.4552
 3539SOL     OW22249   3.602   4.194   4.480 -0.3508 -0.1401 -0.3485
 3539SOL    HW122250   3.518   4.153   4.503  0.4246 -1.2187  0.5730
 3539SOL    HW222251   3.658   4.131   4.525  1.0826  2.8680  2.1111
 3540SOL     OW22252   4.141   4.029   1.696  0.3510 -0.4370  0.3636
 3540SOL    HW122253   4.208   4.062   1.636  0.9869  0.7643  1.7334
 3540SOL    HW222254   4.082   4.104   1.702 -0.3138 -0.9493  0.1585
 3541SOL     OW22255   0.720   2.521   6.305 -0.2285 -0.3507 -0.0128
 3541SOL    HW122256   0.738   2.543   6.396 -0.6467 -0.3481  0.0694
 3541SOL    HW222257   0.806   2.533   6.265  0.2294 -0.3361  0.9699
 3542SOL     OW22258   4.170   3.827  13.413  0.3798 -0.2895 -0.0539
 3542SOL    HW122259   4.168   3.891  13.342  0.3977  1.8374  1.8546
 3542SOL    HW222260   4.210   3.878  13.484  0.4397 -2.1556  1.2478
 3543SOL     OW22261   2.803   1.799   6.408  0.3065 -0.4371  0.3352
 3543SOL    HW122262   2.740   1.798   6.336  0.4422 -0.8493  0.2200
 3543SOL    HW222263   2.822   1.890   6.429  1.4477 -0.5079 -0.3677
 3544SOL     OW22264   4.632   3.864   5.065 -0.2521  0.5284 -0.1230
 3544SOL    HW122265   4.567   3.931   5.086  0.5205  0.9013  1.1295
 3544SOL    HW222266   4.610   3.827   4.980 -1.3355  0.5617  0.1466
 3545SOL     OW22267   0.071   4.643   6.121  0.3349  0.1984  0.3333
 3545SOL    HW122268   0.015   4.582   6.169  2.2923 -1.4219  0.5497
 3545SOL    HW222269   0.011   4.716   6.105  0.1925 -0.1348 -0.7207
 3546SOL     OW22270   2.896   4.682   3.144  0.4108  0.1327  0.1838
 3546SOL    HW122271   2.894   4.589   3.167  3.2515  0.3397  1.2764
 3546SOL    HW222272   2.955   4.721   3.208 -0.8254  0.8230  0.9042
 3547SOL     OW22273   1.274   1.992  13.874 -0.1543 -0.0236 -0.6047
 3547SOL    HW122274   1.219   1.927  13.831  1.6200 -3.1837  1.8800
 3547SOL    HW222275   1.287   2.053  13.802 -2.7872  0.4772 -0.6461
 3548SOL     OW22276   1.592   2.775   9.148  0.2279 -0.3322 -0.4998
 3548SOL    HW122277   1.596   2.772   9.052  1.5315 -1.1152 -0.4170
 3548SOL    HW222278   1.512   2.728   9.170 -1.1089  2.1394 -0.0409
 3549SOL     OW22279   4.261   2.324   2.140 -0.0099 -0.1877 -0.4924
 3549SOL    HW122280   4.219   2.262   2.081  0.0317  1.4196 -2.2166
 3549SOL    HW222281   4.268   2.397   2.079 -3.4063  1.8100  1.5620
 3550SOL     OW22282   0.279   1.745   5.977  0.2511  0.0477  0.2398
 3550SOL    HW122283   0.314   1.682   6.041 -1.6386 -1.7037 -0.4521
 3550SOL    HW222284   0.356   1.779   5.931 -0.6415 -0.1719 -1.3879
 3551SOL     OW22285   0.090   0.512   5.615  0.2089 -0.5294  0.7736
 3551SOL    HW122286   0.112   0.443   5.678  0.8339 -0.0715  1.0616
 3551SOL    HW222287   0.117   0.573   5.684  1.8608 -0.4695  0.0689
 3552SOL     OW22288   0.978   0.650   2.737 -0.1088 -0.0848 -0.7028
 3552SOL    HW122289   1.007   0.632   2.826  0.2462  2.6916 -0.2383
 3552SOL    HW222290   0.887   0.678   2.745 -0.2652 -1.0976  0.9726
 3553SOL     OW22291   2.115   4.195   5.404  0.3349  1.0252  0.3103
 3553SOL    HW122292   2.191   4.235   5.447  0.1563  2.3467 -0.6199
 3553SOL    HW222293   2.158   4.112   5.386 -2.8443 -0.8143  1.0629
 3554SOL     OW22294   0.061   0.471   0.937 -0.1150  0.0603  0.0902
 3554SOL    HW122295   0.091   0.428   1.017  0.3147 -1.1572 -0.7290
 3554SOL    HW222296   0.074   0.563   0.962  0.7075  0.7143 -2.7590
 3555SOL     OW22297   3.246   1.376   3.212 -0.0880  0.7740 -0.0830
 3555SOL    HW122298   3.250   1.379   3.307  1.2712 -0.3632 -0.0881
 3555SOL    HW222299   3.310   1.443   3.189 -0.3435  1.6609  1.8472
 3556SOL     OW22300   1.017   1.319  15.736  0.5661 -0.1968  0.4950
 3556SOL    HW122301   1.036   1.412  15.728  0.2551 -0.1546  0.2393
 3556SOL    HW222302   1.103   1.285  15.761  0.2069 -0.7304  1.0021
 3557SOL     OW22303   1.058   4.142  16.875  0.4911  0.0857 -1.2032
 3557SOL    HW122304   0.996   4.193  16.825  1.1731  3.0741  1.0095
 3557SOL    HW222305   0.998   4.082  16.920 -0.0561  0.6475 -1.1869
 3558SOL     OW22306   4.091   1.825   8.417  0.2851  0.3585 -0.0900
 3558SOL    HW122307   4.078   1.742   8.463 -1.3774  0.9097  0.4207
 3558SOL    HW222308   4.013   1.872   8.445  0.1955 -0.1684  0.5407
 3559SOL     OW22309   3.199   0.747  13.464  0.3035  0.6942 -0.4615
 3559SOL    HW122310   3.165   0.760  13.553  0.0474 -0.1240 -0.4407
 3559SOL    HW222311   3.283   0.791  13.476 -0.9281  2.6642  0.9987
 3560SOL     OW22312   4.632   1.661   7.522  0.5046 -0.1773 -0.3273
 3560SOL    HW122313   4.699   1.596   7.540  1.4690  0.8347 -0.2474
 3560SOL    HW222314   4.676   1.695   7.444  0.0051 -1.1191 -1.0283
 3561SOL     OW22315   1.221   4.184   3.030  0.4813  0.5684  0.4348
 3561SOL    HW122316   1.312   4.185   3.000  0.5963  1.4092  0.8036
 3561SOL    HW222317   1.240   4.162   3.121 -1.5489  0.8900  0.9372
 3562SOL     OW22318   0.667   4.480  13.103  0.3431 -0.3156 -0.2660
 3562SOL    HW122319   0.577   4.460  13.127  0.5255 -1.0516 -0.1849
 3562SOL    HW222320   0.682   4.539  13.177  0.1062  0.5825 -0.9339
 3563SOL     OW22321   3.670   2.581   3.588 -0.0593  0.3990 -0.3531
 3563SOL    HW122322   3.591   2.591   3.641  0.6557 -0.4868  0.8873
 3563SOL    HW222323   3.655   2.651   3.524 -3.1522  0.9636  0.9664
 3564SOL     OW22324   2.021   1.113   5.661 -0.3348  0.3663  0.5722
 3564SOL    HW122325   2.099   1.167   5.645 -1.0542  1.1241 -0.4498
 3564SOL    HW222326   1.975   1.183   5.708 -0.9828  0.7508 -0.6184
 3565SOL     OW22327   1.695   2.716  11.852 -0.1526  0.5012 -0.0659
 3565SOL    HW122328   1.790   2.705  11.860  0.0390 -0.2351 -3.3208
 3565SOL    HW222329   1.668   2.626  11.868 -0.0060  0.6430  0.9451
 3566SOL     OW22330   1.294   2.094  17.088  0.0424  0.3800  0.1858
 3566SOL    HW122331   1.276   2.165  17.027  1.5062 -0.0417 -0.7287
 3566SOL    HW222332   1.389   2.091  17.080  0.0608 -1.3839  1.0535
 3567SOL     OW22333   1.572   3.848  15.657  0.0711  0.1149  0.4474
 3567SOL    HW122334   1.481   3.869  15.638  1.1853  3.4577 -1.0212
 3567SOL    HW222335   1.615   3.920  15.611 -0.3514  1.4483  2.1519
 3568SOL     OW22336   0.220   0.261   2.966  0.3809 -0.1836 -0.0802
 3568SOL    HW122337   0.164   0.235   3.039 -0.4696  1.2815 -0.2162
 3568SOL    HW222338   0.296   0.309   2.999  0.8794  1.5493 -3.6600
 3569SOL     OW22339   0.748   0.729  10.194 -0.5293 -0.3232 -0.1426
 3569SOL    HW122340   0.686   0.670  10.235 -0.6559  1.3730  2.1016
 3569SOL    HW222341   0.828   0.678  10.177 -0.5261 -0.4335  0.2041
 3570SOL     OW22342   1.512   2.018   3.050  0.1406 -0.0740 -0.6631
 3570SOL    HW122343   1.425   2.056   3.042  0.6004  1.2021  0.3263
 3570SOL    HW222344   1.558   2.096   3.082  0.0011 -1.0662  1.9658
 3571SOL     OW22345   3.757   1.808   2.140  0.3434 -0.2767 -0.4215
 3571SOL    HW122346   3.813   1.751   2.192 -0.0850 -0.9327 -0.6867
 3571SOL    HW222347   3.803   1.892   2.141 -1.2201  0.5584  1.0469
 3572SOL     OW22348   3.079   0.363   5.512 -0.0962 -0.0956  0.5094
 3572SOL    HW122349   3.081   0.458   5.522  2.4410 -0.1186  0.0310
 3572SOL    HW222350   3.162   0.338   5.472  0.9043  1.8825  1.3471
 3573SOL     OW22351   1.907   3.310   6.846 -0.3080  0.0482  0.1080
 3573SOL    HW122352   1.834   3.305   6.907  0.5871  1.9078  1.3312
 3573SOL    HW222353   1.970   3.256   6.894  1.7258  3.1662  1.0037
 3574SOL     OW22354   4.179   0.768   3.957 -0.2940 -0.2878 -0.0789
 3574SOL    HW122355   4.204   0.677   3.941  0.7290 -0.1314  0.6839
 3574SOL    HW222356   4.255   0.817   3.925 -0.1679 -0.8439 -0.6342
 3575SOL     OW22357   0.614   4.695   8.145 -0.3678 -0.1623  0.1044
 3575SOL    HW122358   0.520   4.684   8.136 -0.5447  0.8376  0.7355
 3575SOL    HW222359   0.605   0.055   8.154  1.9862  0.0621  0.0989
 3576SOL     OW22360   2.208   2.397   7.623  0.3517  0.2358 -0.3565
 3576SOL    HW122361   2.135   2.360   7.574 -0.3670 -1.2976  1.8750
 3576SOL    HW222362   2.274   2.373   7.557  0.8196 -1.7776  0.8354
 3577SOL     OW22363   2.107   2.938   2.410 -0.0845  0.4188 -0.0664
 3577SOL    HW122364   2.194   2.921   2.446  0.1510 -0.6369 -1.1604
 3577SOL    HW222365   2.122   2.938   2.316  0.5899 -1.3898  0.0516
 3578SOL     OW22366   1.662   1.128   9.009 -0.3173  0.0008 -0.0478
 3578SOL    HW122367   1.741   1.179   8.988 -0.1315 -0.6969 -1.0267
 3578SOL    HW222368   1.662   1.070   8.933  1.1455  1.1418 -0.9287
 3579SOL     OW22369   3.798   0.874   7.982 -0.4577  0.2783 -0.1499
 3579SOL    HW122370   3.808   0.848   7.890 -1.2617  1.2477 -0.5134
 3579SOL    HW222371   3.797   0.791   8.029 -0.7615 -1.3445 -2.9744
 3580SOL     OW22372   1.806   3.967   0.717  0.4304  0.2249 -0.1753
 3580SOL    HW122373   1.816   4.058   0.744  1.3149  0.0717  0.0229
 3580SOL    HW222374   1.726   3.977   0.665 -0.1928 -1.4043  0.4742
 3581SOL     OW22375   0.814   4.475   2.235  0.4691  0.0085 -0.6086
 3581SOL    HW122376   0.724   4.463   2.204  0.6696  0.2178 -1.2760
 3581SOL    HW222377   0.810   4.562   2.274 -0.7322  0.4623 -1.7658
 3582SOL     OW22378   0.385   1.520  13.484  0.3039  0.0249 -0.0894
 3582SOL    HW122379   0.394   1.445  13.543 -0.1234  0.2185  0.2194
 3582SOL    HW222380   0.400   1.588  13.550 -0.3799 -1.1489  1.2671
 3583SOL     OW22381   4.547   2.234  13.537 -0.3999 -0.1851 -0.1922
 3583SOL    HW122382   4.608   2.160  13.544  0.4918  0.6304  0.5252
 3583SOL    HW222383   4.520   2.238  13.629 -2.3936  0.6848 -0.8190
 3584SOL     OW22384   2.192   2.871   1.731 -0.1569 -0.2919  0.2922
 3584SOL    HW122385   2.165   2.891   1.641 -0.9066 -0.6047  0.4403
 3584SOL    HW222386   2.103   2.863   1.766 -0.3855 -0.8979 -0.4285
 3585SOL     OW22387   0.166   1.089   9.134 -0.0789  0.1184 -0.0201
 3585SOL    HW122388   0.221   1.013   9.153  0.1997  0.4626  0.5687
 3585SOL    HW222389   0.226   1.162   9.148 -2.1411  1.9063 -0.5869
 3586SOL     OW22390   2.044   1.492   7.616 -0.2326 -0.1192 -0.0365
 3586SOL    HW122391   1.955   1.461   7.602  0.3889 -1.7754 -0.3210
 3586SOL    HW222392   2.076   1.456   7.699  1.2244  1.1839 -0.0444
 3587SOL     OW22393   1.895   3.527   4.463  0.3780  0.3720  0.6799
 3587SOL    HW122394   1.899   3.562   4.374 -1.4620  1.9356  1.2237
 3587SOL    HW222395   1.948   3.589   4.513 -1.7014  1.4454  1.5748
 3588SOL     OW22396   0.731   0.385   5.558  0.4554  0.2261  0.0689
 3588SOL    HW122397   0.707   0.383   5.651 -0.1045  1.4450 -0.0473
 3588SOL    HW222398   0.770   0.299   5.539  1.2555  1.0060 -1.7469
 3589SOL     OW22399   4.731   2.639   7.403  0.0235 -0.4416  0.5546
 3589SOL    HW122400   4.669   2.683   7.461 -0.1798  1.8560 -1.3955
 3589SOL    HW222401   4.731   2.704   7.333  2.6907 -1.6597 -0.5968
 3590SOL     OW22402   0.963   2.322   5.008 -0.0607 -0.6767 -0.3627
 3590SOL    HW122403   1.047   2.349   4.971  0.0730 -0.2557  0.2439
 3590SOL    HW222404   0.924   2.298   4.924  0.7490  1.4352 -1.3411
 3591SOL     OW22405   0.942   0.890  13.874  0.0798  0.4682  0.8253
 3591SOL    HW122406   0.961   0.967  13.927 -2.4741  2.0714 -0.6032
 3591SOL    HW222407   0.848   0.901  13.880  0.3642  2.7843  0.7044
 3592SOL     OW22408   2.201   1.536  15.445 -0.4134  0.4936 -0.2422
 3592SOL    HW122409   2.295   1.528  15.425  0.0064 -0.0373  1.9505
 3592SOL    HW222410   2.170   1.462  15.392 -3.8896  1.2547  0.7442
 3593SOL     OW22411   0.005   3.474   7.063  0.0163 -0.2354 -0.3415
 3593SOL    HW122412   4.660   3.512   7.097  0.8222 -0.2874  1.6101
 3593SOL    HW222413   0.029   3.418   7.136 -0.2793  0.2338  0.1179
 3594SOL     OW22414   2.482   0.768  11.379  0.7585 -0.4074  0.2686
 3594SOL    HW122415   2.390   0.795  11.385  0.3757 -1.4026 -0.9970
 3594SOL    HW222416   2.522   0.813  11.453  2.6571 -0.4556 -0.7420
 3595SOL     OW22417   4.224   0.495   4.011  0.2490  0.1401 -0.0336
 3595SOL    HW122418   4.239   0.477   3.919 -1.5014 -0.0775 -0.2609
 3595SOL    HW222419   4.255   0.411   4.046 -1.8590 -0.5476  0.1542
 3596SOL     OW22420   0.697   2.496   8.306 -0.7829  0.0018  0.0939
 3596SOL    HW122421   0.776   2.494   8.254 -1.1768 -1.3765 -0.4394
 3596SOL    HW222422   0.729   2.537   8.386  0.3699  0.3232 -0.5429
 3597SOL     OW22423   0.133   0.350   3.512  0.5117 -0.1999  0.4585
 3597SOL    HW122424   0.173   0.303   3.439  0.6749 -0.5034  0.7456
 3597SOL    HW222425   0.131   0.277   3.574 -1.8606 -2.1194 -1.8778
 3598SOL     OW22426   1.119   2.068   6.652  0.3750 -0.4778 -0.1601
 3598SOL    HW122427   1.143   2.040   6.563 -1.0573  3.2980 -1.7006
 3598SOL    HW222428   1.032   2.028   6.659 -0.0261  0.2331 -1.1587
 3599SOL     OW22429   4.456   4.695   3.812 -0.4120 -0.6143  0.0510
 3599SOL    HW122430   4.511   4.617   3.816 -0.5567 -0.6773  0.8177
 3599SOL    HW222431   4.381   4.663   3.862 -0.1715 -1.1033  0.0987
 3600SOL     OW22432   1.683   0.972   5.580  0.4941 -0.0324  0.2301
 3600SOL    HW122433   1.594   0.960   5.614 -0.2718  0.6499 -1.5150
 3600SOL    HW222434   1.731   0.917   5.641 -0.4131 -2.6839 -1.4403
 3601SOL     OW22435   4.091   1.883   4.045  0.5999  0.4632 -0.0198
 3601SOL    HW122436   4.141   1.836   3.979  0.0163 -1.1452  0.6816
 3601SOL    HW222437   4.145   1.878   4.124 -0.7060 -0.2397  0.8299
 3602SOL     OW22438   0.279   2.918   3.932  0.1782 -0.7449 -0.2151
 3602SOL    HW122439   0.313   2.892   3.846 -0.4107  3.6137 -1.7900
 3602SOL    HW222440   0.218   2.849   3.956 -0.7031  0.5513  1.2424
 3603SOL     OW22441   0.907   3.415   2.896  0.2245 -0.2374  0.6076
 3603SOL    HW122442   0.962   3.383   2.967  1.3882  1.7426  0.6073
 3603SOL    HW222443   0.911   3.511   2.902 -1.5000 -0.2117  1.2756
 3604SOL     OW22444   1.031   3.249   6.748  0.0934  0.3804 -0.1157
 3604SOL    HW122445   0.975   3.223   6.821  0.3980 -0.5795 -0.2203
 3604SOL    HW222446   1.018   3.343   6.752 -1.5114  0.1894 -0.5200
 3605SOL     OW22447   3.117   4.158   3.616 -0.6361 -0.2590 -0.4298
 3605SOL    HW122448   3.067   4.177   3.536 -1.2684 -1.0264 -0.2212
 3605SOL    HW222449   3.156   4.073   3.596  0.9687  0.5221 -0.5377
 3606SOL     OW22450   0.852   4.686   8.248  0.0653  0.0058 -0.3572
 3606SOL    HW122451   0.827   0.006   8.322 -1.4953 -0.9739 -0.1549
 3606SOL    HW222452   0.772   4.694   8.197  0.5341 -1.6178 -1.3502
 3607SOL     OW22453   2.893   3.188   2.545  0.1485  0.1206 -0.0732
 3607SOL    HW122454   2.936   3.273   2.536  0.6385 -0.1472 -0.2361
 3607SOL    HW222455   2.805   3.217   2.570 -0.4788 -0.1864 -1.9463
 3608SOL     OW22456   0.309   1.102   6.831  0.2153 -0.0622 -0.3229
 3608SOL    HW122457   0.233   1.087   6.888 -1.1079  1.2549 -1.7619
 3608SOL    HW222458   0.267   1.081   6.748 -0.2494 -0.9606  0.1318
 3609SOL     OW22459   1.071   3.835  10.590  0.1909 -0.1271  0.1073
 3609SOL    HW122460   1.057   3.740  10.596 -0.7817 -0.1333 -2.1603
 3609SOL    HW222461   1.165   3.839  10.571  0.1124  0.8543 -0.0791
 3610SOL     OW22462   1.342   2.544   1.967  0.8773 -0.3121  0.1937
 3610SOL    HW122463   1.412   2.485   1.993  2.8359  1.8797 -0.0622
 3610SOL    HW222464   1.388   2.609   1.912  0.3960  1.0944  1.4689
 3611SOL     OW22465   2.254   3.892   5.049  0.3952 -0.1175  0.3475
 3611SOL    HW122466   2.284   3.919   4.962  5.1740 -1.1902  1.6554
 3611SOL    HW222467   2.218   3.975   5.081  0.2330 -0.4276  0.9696
 3612SOL     OW22468   4.419   1.134   7.634 -0.6665 -0.3502 -0.4046
 3612SOL    HW122469   4.452   1.134   7.724 -1.2054  1.2151 -0.2169
 3612SOL    HW222470   4.455   1.220   7.611  1.2227 -1.1583 -0.5033
 3613SOL     OW22471   3.922   1.723   2.600  0.1326  0.3154 -0.0277
 3613SOL    HW122472   3.973   1.740   2.521 -1.0508 -1.9838 -1.2645
 3613SOL    HW222473   3.896   1.813   2.619 -1.5579  0.4984 -3.2913
 3614SOL     OW22474   0.790   4.348   3.273 -0.2629  0.4958  0.6652
 3614SOL    HW122475   0.818   4.333   3.363  0.7218 -0.9431  0.1104
 3614SOL    HW222476   0.817   4.439   3.263  0.4102  0.1919 -0.2692
 3615SOL     OW22477   2.256   2.093   9.089 -0.4308  0.1989 -0.2381
 3615SOL    HW122478   2.245   2.064   8.998  1.6353 -0.2101 -0.3489
 3615SOL    HW222479   2.210   2.022   9.133 -1.2591  0.7703 -0.1728
 3616SOL     OW22480   4.235   2.739   9.558 -1.1188 -0.6388 -0.1999
 3616SOL    HW122481   4.162   2.683   9.530 -3.6544  0.8296  3.4916
 3616SOL    HW222482   4.261   2.776   9.474  1.2116  1.0597  1.2843
 3617SOL     OW22483   1.796   0.175   5.770  0.1618  0.0132 -0.5833
 3617SOL    HW122484   1.872   0.129   5.735  1.9881  2.4631  0.1637
 3617SOL    HW222485   1.833   0.260   5.791 -0.5685 -0.5045  2.8294
 3618SOL     OW22486   2.887   4.047   9.567  0.0074  0.3315  0.3943
 3618SOL    HW122487   2.923   4.085   9.487  0.7339 -1.2528 -0.0362
 3618SOL    HW222488   2.948   3.973   9.576 -0.6206 -0.3974 -1.3033
 3619SOL     OW22489   4.332   3.176   5.158 -0.5871 -0.4133  0.6267
 3619SOL    HW122490   4.336   3.200   5.251 -2.4645  1.3202  0.2544
 3619SOL    HW222491   4.349   3.263   5.121  0.2650 -0.2121  1.4716
 3620SOL     OW22492   1.034   2.660  17.256  0.0220 -0.0096 -0.1738
 3620SOL    HW122493   1.041   2.589  17.193  0.6554  0.5508 -0.7321
 3620SOL    HW222494   0.941   2.669  17.279 -0.1878 -2.3011 -0.1801
 3621SOL     OW22495   3.557   1.087   4.938 -0.4226 -0.7647 -0.0201
 3621SOL    HW122496   3.653   1.093   4.941 -0.3238 -3.1781  1.9164
 3621SOL    HW222497   3.544   0.997   4.968 -0.2156 -0.7928 -0.0128
 3622SOL     OW22498   0.068   1.484   3.455  0.2646 -0.4964  0.0514
 3622SOL    HW122499   0.135   1.495   3.523  2.3600 -1.3659 -1.8604
 3622SOL    HW222500   0.083   1.550   3.387 -0.0011 -1.5182 -1.0113
 3623SOL     OW22501   0.086   4.193   2.958 -0.0246  0.1363 -0.8027
 3623SOL    HW122502   0.167   4.162   2.918  0.6340  0.7886  0.0201
 3623SOL    HW222503   0.077   4.279   2.917 -1.9617  0.4734  0.3620
 3624SOL     OW22504   3.907   2.585   1.936  0.0101  0.1711  0.5397
 3624SOL    HW122505   3.948   2.499   1.927 -0.2855  0.0461  0.3983
 3624SOL    HW222506   3.872   2.564   2.023  1.6760 -0.7202  1.0005
 3625SOL     OW22507   0.450   1.788   7.241 -0.2868 -0.5961 -0.4138
 3625SOL    HW122508   0.401   1.851   7.294 -0.4658 -1.1567  0.0853
 3625SOL    HW222509   0.513   1.765   7.310 -0.4955 -1.1718 -0.4168
 3626SOL     OW22510   1.203   4.661   3.440 -0.3551 -0.0627  0.2359
 3626SOL    HW122511   1.215   4.618   3.525 -1.5922 -4.3167 -1.7708
 3626SOL    HW222512   1.190   4.589   3.379 -1.0287 -0.2151  0.5506
 3627SOL     OW22513   0.758   2.672   8.522 -0.6568  0.0476 -0.4559
 3627SOL    HW122514   0.689   2.730   8.552 -0.3224  1.2261 -1.9354
 3627SOL    HW222515   0.826   2.735   8.496  0.0548 -0.7882 -0.6278
 3628SOL     OW22516   1.090   2.932  11.229  0.3201 -0.5070  0.1215
 3628SOL    HW122517   1.049   2.902  11.310 -0.8965 -2.3232 -1.1895
 3628SOL    HW222518   1.045   2.873  11.169 -0.0071  0.0190 -0.1502
 3629SOL     OW22519   3.614   1.270   9.560  0.1424 -0.0331 -0.6156
 3629SOL    HW122520   3.587   1.179   9.552 -0.4457  0.0120  0.9179
 3629SOL    HW222521   3.663   1.284   9.479 -1.6844 -2.6065 -2.1576
 3630SOL     OW22522   0.384   4.254   2.167 -0.4898  0.6006 -0.0724
 3630SOL    HW122523   0.320   4.250   2.095  0.2760 -1.4785 -0.6320
 3630SOL    HW222524   0.328   4.288   2.237 -0.4119 -1.8922  1.2234
 3631SOL     OW22525   2.035   3.550   7.528 -0.1202 -0.4525 -0.2203
 3631SOL    HW122526   1.977   3.477   7.550  1.2245 -1.2185  0.8339
 3631SOL    HW222527   1.985   3.600   7.464  1.8861  2.2124  0.2867
 3632SOL     OW22528   4.561   0.375   1.535  0.4175  0.4531 -0.8008
 3632SOL    HW122529   4.602   0.450   1.578  0.0338  0.6446 -0.7728
 3632SOL    HW222530   4.480   0.364   1.585 -0.1601 -0.3871 -1.9075
 3633SOL     OW22531   2.756   2.366  10.122 -0.0442 -0.0242 -0.2036
 3633SOL    HW122532   2.788   2.307  10.190 -1.7369 -0.5022  0.1762
 3633SOL    HW222533   2.737   2.440  10.179 -0.8850  0.8214 -1.5813
 3634SOL     OW22534   4.463   0.672   9.234 -0.4681  0.3278 -0.2702
 3634SOL    HW122535   4.432   0.754   9.194 -1.9369  0.2333  0.6591
 3634SOL    HW222536   4.541   0.643   9.187 -1.9024 -0.3126 -2.2341
 3635SOL     OW22537   2.912   2.563  16.591 -0.0158 -0.3295 -0.8775
 3635SOL    HW122538   2.967   2.590  16.518  1.2118 -0.6805 -0.0798
 3635SOL    HW222539   2.875   2.484  16.552  1.5740 -1.5705  0.1086
 3636SOL     OW22540   2.886   3.477   4.683  0.3063 -0.0169  0.2748
 3636SOL    HW122541   2.939   3.497   4.760 -1.0037 -0.0586  1.1782
 3636SOL    HW222542   2.927   3.536   4.619 -0.2672  0.0444 -0.0353
 3637SOL     OW22543   0.041   1.712  15.990  0.4606 -0.5146 -0.1470
 3637SOL    HW122544   4.712   1.652  16.028  0.6225 -1.3695 -1.1961
 3637SOL    HW222545   0.018   1.794  16.033 -0.2195 -0.3499 -0.8275
 3638SOL     OW22546   0.853   4.325   1.478  0.3024  0.2560  0.1702
 3638SOL    HW122547   0.794   4.295   1.546  0.8073  1.8584  1.3367
 3638SOL    HW222548   0.914   4.253   1.466 -0.5603 -0.0403 -2.4626
 3639SOL     OW22549   0.699   1.131  15.897  0.0989  0.8561 -0.4683
 3639SOL    HW122550   0.630   1.160  15.838  1.2740  0.3302 -2.1365
 3639SOL    HW222551   0.740   1.063  15.842 -0.9601 -0.8683  0.8954
 3640SOL     OW22552   1.836   1.569  14.615  0.2839  0.0306  0.2467
 3640SOL    HW122553   1.921   1.579  14.573  0.9319 -1.8700  1.0864
 3640SOL    HW222554   1.776   1.566  14.541  0.1741  0.6146  0.3147
 3641SOL     OW22555   0.830   2.769   0.087  0.2992 -0.3477 -0.0493
 3641SOL    HW122556   0.760   2.705   0.100  1.0488 -0.9316  1.1402
 3641SOL    HW222557   0.906   2.711   0.086  1.3275  0.9626  1.9283
 3642SOL     OW22558   0.719   3.870   6.640  0.0003 -0.1256  0.1441
 3642SOL    HW122559   0.628   3.863   6.612 -0.2537  0.4201  0.8307
 3642SOL    HW222560   0.749   3.844   6.553 -0.2296  1.8629 -0.5258
 3643SOL     OW22561   3.322   0.077   3.366  0.1115 -0.2294 -0.3936
 3643SOL    HW122562   3.243   0.026   3.349 -0.0193  0.1632 -0.9818
 3643SOL    HW222563   3.345   0.045   3.453 -0.6655 -1.5844 -0.6924
 3644SOL     OW22564   3.135   2.699   5.641  0.9357  0.3216  0.4220
 3644SOL    HW122565   3.195   2.665   5.575  0.6151  2.3360 -0.9195
 3644SOL    HW222566   3.198   2.717   5.710  1.0585 -1.9534  0.8810
 3645SOL     OW22567   2.482   3.993  12.120  0.2936  0.5262  0.0012
 3645SOL    HW122568   2.575   3.990  12.142  0.5860 -0.4014 -1.3936
 3645SOL    HW222569   2.481   4.080  12.081 -0.7539  0.5632  0.0962
 3646SOL     OW22570   4.537   3.073   2.095  0.0469 -0.2448  0.2975
 3646SOL    HW122571   4.592   2.995   2.103 -2.4227 -2.1476 -1.2546
 3646SOL    HW222572   4.524   3.097   2.187  1.8909 -1.2555  0.8368
 3647SOL     OW22573   3.174   1.422   9.374  0.3734  0.7728 -0.2564
 3647SOL    HW122574   3.225   1.497   9.405  2.1150 -0.9649  1.1331
 3647SOL    HW222575   3.127   1.458   9.299  0.2090  3.1694  0.9900
 3648SOL     OW22576   3.613   0.059  16.883 -0.6326  0.0354  0.9621
 3648SOL    HW122577   3.566   0.137  16.855  1.5169  1.3747  1.0773
 3648SOL    HW222578   3.549   4.724  16.877 -0.2585 -0.2728  0.6633
 3649SOL     OW22579   1.472   1.391   7.268 -0.2869  0.6923 -0.6837
 3649SOL    HW122580   1.430   1.381   7.182 -0.1573  0.3415 -0.7062
 3649SOL    HW222581   1.467   1.485   7.281 -0.3166  0.3178  1.9226
 3650SOL     OW22582   1.413   1.463   2.527 -0.3621 -0.3112 -0.1978
 3650SOL    HW122583   1.504   1.468   2.497 -0.0052  2.7473  1.3683
 3650SOL    HW222584   1.425   1.387   2.584 -0.7594 -0.4008 -0.2391
 3651SOL     OW22585   0.373   0.386   3.162 -0.2928  0.4797  0.6297
 3651SOL    HW122586   0.315   0.435   3.221  0.5098  0.3843  1.5013
 3651SOL    HW222587   0.447   0.445   3.175 -1.9864  2.5203  0.9562
 3652SOL     OW22588   2.547   4.407  16.209 -0.4761 -0.1051  0.0374
 3652SOL    HW122589   2.599   4.407  16.290  0.4236  1.8013 -0.5409
 3652SOL    HW222590   2.573   4.492  16.174 -0.3015 -1.3487 -2.8664
 3653SOL     OW22591   0.047   2.836   4.987  0.4730 -0.6598  0.1955
 3653SOL    HW122592   4.715   2.904   4.990  1.9847  0.8997 -1.4676
 3653SOL    HW222593   0.033   2.786   5.068  3.7637  0.2489  1.3316
 3654SOL     OW22594   2.842   1.146  14.503 -0.1101  0.3098 -0.1182
 3654SOL    HW122595   2.892   1.180  14.577  0.0099 -1.6012  0.6800
 3654SOL    HW222596   2.844   1.230  14.457 -2.8236 -0.9326 -2.5557
 3655SOL     OW22597   2.334   1.292   2.853 -0.1919 -0.1276 -0.6256
 3655SOL    HW122598   2.318   1.341   2.772  0.8046 -1.6206 -1.7296
 3655SOL    HW222599   2.418   1.252   2.831  0.0541  0.6786 -1.1517
 3656SOL     OW22600   3.932   1.841   5.312 -0.5236  0.1963  0.2767
 3656SOL    HW122601   3.996   1.911   5.324 -0.1281  0.4024 -2.9758
 3656SOL    HW222602   3.972   1.789   5.242 -0.3219 -1.9294  1.9381
 3657SOL     OW22603   1.362   4.688   4.848  0.2741 -0.5758  0.0682
 3657SOL    HW122604   1.457   4.685   4.832  0.0656 -1.3499 -1.0110
 3657SOL    HW222605   1.328   4.602   4.869  0.1867 -0.7866 -0.9404
 3658SOL     OW22606   3.471   0.278  16.823 -0.0417  0.0333  0.2918
 3658SOL    HW122607   3.476   0.321  16.738 -2.6355 -0.3383 -0.0316
 3658SOL    HW222608   3.388   0.303  16.863  0.3590 -0.7568  1.6193
 3659SOL     OW22609   3.610   0.016  13.558  0.2547 -0.1786  0.4046
 3659SOL    HW122610   3.630   0.106  13.586 -0.0842  0.6421 -2.0480
 3659SOL    HW222611   3.549   0.035  13.487  1.5159 -1.0345 -0.8918
 3660SOL     OW22612   3.482   4.464   9.274 -0.3858  0.2064 -0.4998
 3660SOL    HW122613   3.462   4.553   9.304  0.2793  1.2741 -3.2082
 3660SOL    HW222614   3.577   4.471   9.269 -0.1797 -1.0936  1.6553
 3661SOL     OW22615   0.284   2.046   6.661  0.3158  0.5043  0.6976
 3661SOL    HW122616   0.368   2.006   6.639  0.7023  2.4306 -1.3051
 3661SOL    HW222617   0.299   2.140   6.668  0.2927  0.3034  3.3218
 3662SOL     OW22618   1.951   2.014   4.731  0.6157  0.0748 -0.1750
 3662SOL    HW122619   2.002   2.088   4.697 -1.1031  0.1451 -2.5450
 3662SOL    HW222620   1.912   1.981   4.650 -2.7491  0.8815  1.1129
 3663SOL     OW22621   0.316   2.100   9.048 -0.4825 -0.3040  0.2847
 3663SOL    HW122622   0.271   2.026   9.089 -3.5158  2.3836  1.8402
 3663SOL    HW222623   0.391   2.049   9.018 -0.3427 -0.1603  0.3884
 3664SOL     OW22624   2.861   4.461   8.779  0.0849 -0.1400 -0.2428
 3664SOL    HW122625   2.922   4.535   8.769  0.3761 -0.6499 -2.2478
 3664SOL    HW222626   2.850   4.434   8.688 -1.3444 -1.1588  0.2520
 3665SOL     OW22627   4.450   1.262  14.756 -0.0482 -0.0851 -0.1769
 3665SOL    HW122628   4.427   1.174  14.787 -0.6618 -0.3487 -1.4043
 3665SOL    HW222629   4.446   1.249  14.661  1.2369  3.2715 -0.6695
 3666SOL     OW22630   0.393   1.592  17.429 -0.0333 -0.1984 -0.3146
 3666SOL    HW122631   0.363   1.508  17.393 -1.0929  0.4866 -1.0409
 3666SOL    HW222632   0.487   1.578  17.421  0.6217  1.1282  5.5570
 3667SOL     OW22633   2.830   4.260   7.495 -0.3809 -0.3357 -0.3860
 3667SOL    HW122634   2.744   4.257   7.535  1.2278 -1.4083  3.0126
 3667SOL    HW222635   2.860   4.176   7.531  0.5603 -0.8317 -2.3343
 3668SOL     OW22636   4.113   1.412   5.765 -0.0754  0.3568  0.0070
 3668SOL    HW122637   4.062   1.334   5.788  1.8754 -1.7153 -2.7270
 3668SOL    HW222638   4.195   1.399   5.812  0.1963  0.0822 -0.5448
 3669SOL     OW22639   4.387   1.004   4.644  0.4233 -0.7696  0.7694
 3669SOL    HW122640   4.341   1.069   4.590  2.0771  0.4110  0.7733
 3669SOL    HW222641   4.472   1.046   4.653  0.1181 -0.3814  1.8497
 3670SOL     OW22642   1.942   0.262   2.919 -0.9914  0.0642  0.2472
 3670SOL    HW122643   1.871   0.208   2.955 -0.8668 -0.2849 -0.0270
 3670SOL    HW222644   1.928   0.248   2.826 -0.0590 -2.2248  0.4502
 3671SOL     OW22645   0.546   4.390   3.031  0.4703  0.1968 -0.2648
 3671SOL    HW122646   0.491   4.460   3.069  2.1831  2.7133 -2.4433
 3671SOL    HW222647   0.621   4.382   3.091  1.4155 -0.1307 -1.4990
 3672SOL     OW22648   2.357   2.898  12.218  0.6892  0.1164  0.2803
 3672SOL    HW122649   2.423   2.834  12.246 -0.5619 -1.2030  0.2268
 3672SOL    HW222650   2.287   2.835  12.200 -0.1201  0.3428  2.5884
 3673SOL     OW22651   1.857   3.707   5.621 -0.0460  0.4887 -0.0297
 3673SOL    HW122652   1.767   3.690   5.649  0.0750 -1.3798 -0.7461
 3673SOL    HW222653   1.860   3.802   5.621  2.3461  0.4099  0.9974
 3674SOL     OW22654   3.175   4.471  16.005 -0.2362 -0.4183 -0.5149
 3674SOL    HW122655   3.162   4.462  15.911 -1.9972 -0.2677 -0.2803
 3674SOL    HW222656   3.107   4.426  16.055 -0.0401  0.1352  0.2584
 3675SOL     OW22657   1.207   2.474   4.221  0.1429 -0.6085  0.1491
 3675SOL    HW122658   1.197   2.485   4.127 -0.4520 -1.6215  0.0966
 3675SOL    HW222659   1.291   2.429   4.226  0.5780  0.4146  1.8124
 3676SOL     OW22660   3.706   0.490   3.472 -0.0002 -0.3108 -0.3492
 3676SOL    HW122661   3.649   0.449   3.408 -0.6351 -0.7564  0.4952
 3676SOL    HW222662   3.792   0.453   3.453  0.7493 -0.3345  3.0351
 3677SOL     OW22663   2.672   0.494   2.511 -0.2188 -0.0310  0.3140
 3677SOL    HW122664   2.644   0.584   2.525  0.6970  0.7183 -2.5725
 3677SOL    HW222665   2.728   0.475   2.586  0.3371 -1.0894 -0.3703
 3678SOL     OW22666   1.777   1.141   6.506 -0.1367  0.0350 -0.6085
 3678SOL    HW122667   1.849   1.188   6.464 -0.5768 -0.5663 -2.0495
 3678SOL    HW222668   1.771   1.187   6.589  1.2683 -2.4824  0.8828
 3679SOL     OW22669   4.495   1.485   1.893  0.6752  0.0313 -0.2488
 3679SOL    HW122670   4.472   1.452   1.806 -0.9698 -0.8493  0.5284
 3679SOL    HW222671   4.542   1.411   1.928  1.6996  1.3853  1.2176
 3680SOL     OW22672   2.183   4.266   8.848  0.2300  0.3934 -0.0934
 3680SOL    HW122673   2.245   4.263   8.921 -0.1545  2.1450  0.2837
 3680SOL    HW222674   2.188   4.360   8.833 -1.3504  0.1138 -2.2831
 3681SOL     OW22675   1.120   0.165  10.634 -0.5267  1.1114 -0.0832
 3681SOL    HW122676   1.061   0.092  10.655 -1.3562  1.6160 -0.7006
 3681SOL    HW222677   1.167   0.169  10.718 -3.2173  1.0852  1.4314
 3682SOL     OW22678   1.878   2.706   2.791 -0.1223  0.4383 -0.5723
 3682SOL    HW122679   1.841   2.654   2.719 -0.1604  0.7029 -0.7450
 3682SOL    HW222680   1.911   2.784   2.747 -0.2016  1.0705  0.4788
 3683SOL     OW22681   2.565   0.291  17.340 -0.3522  0.1172  0.1415
 3683SOL    HW122682   2.586   0.271  17.431 -0.5467 -0.6311  0.0209
 3683SOL    HW222683   2.637   0.347  17.310  0.9130 -0.2510  2.4790
 3684SOL     OW22684   4.464   3.741  14.353 -0.3311  0.5490  0.5714
 3684SOL    HW122685   4.443   3.814  14.295 -1.1816 -0.2546 -0.1190
 3684SOL    HW222686   4.461   3.673  14.286  0.1458  0.7988  0.2930
 3685SOL     OW22687   0.188   2.410   5.189  0.0659  0.0961  0.1171
 3685SOL    HW122688   0.217   2.325   5.157  0.9689  1.1719 -1.9368
 3685SOL    HW222689   0.236   2.432   5.269 -0.8547  3.7157 -0.3243
 3686SOL     OW22690   0.087   4.709   3.905  0.1418  0.4126  0.2280
 3686SOL    HW122691   0.158   4.649   3.927 -0.3770  0.0400  0.9032
 3686SOL    HW222692   0.050   0.000   3.990 -1.6569 -1.3546  0.0047
 3687SOL     OW22693   1.110   4.182   6.809 -0.5705 -0.2249  0.3103
 3687SOL    HW122694   1.183   4.238   6.836 -1.3696  0.0796  1.8295
 3687SOL    HW222695   1.148   4.097   6.831 -1.9904 -0.5641  1.4080
 3688SOL     OW22696   2.120   3.476   8.066  0.0398  0.3547  0.1043
 3688SOL    HW122697   2.101   3.565   8.038  3.0534  0.5651 -1.2012
 3688SOL    HW222698   2.092   3.478   8.157  0.4106  0.6473  0.2123
 3689SOL     OW22699   3.334   4.731  14.738  0.0333 -0.5813  0.5482
 3689SOL    HW122700   3.276   0.012  14.812 -0.6743 -0.7937  0.0396
 3689SOL    HW222701   3.271   4.700  14.673 -0.4641 -0.9146  1.1995
 3690SOL     OW22702   1.044   0.043   9.054 -0.2767 -0.2260  0.1453
 3690SOL    HW122703   1.133   0.068   9.081 -0.3500  1.1925 -0.9021
 3690SOL    HW222704   1.063   4.734   8.971  1.6069  1.5126 -0.3637
 3691SOL     OW22705   4.398   3.418   8.364  0.9302  0.4518  0.2878
 3691SOL    HW122706   4.418   3.360   8.291  0.7248 -0.3565  0.8745
 3691SOL    HW222707   4.462   3.378   8.424  1.2854  1.8807  0.8671
 3692SOL     OW22708   0.119   3.594   9.445  0.1756 -0.0251  0.0441
 3692SOL    HW122709   0.125   3.545   9.527 -0.3494  0.6716  0.5025
 3692SOL    HW222710   0.052   3.656   9.473 -0.1405 -0.4166  0.1426
 3693SOL     OW22711   4.008   4.688  10.968 -0.1719  0.2172 -0.1794
 3693SOL    HW122712   3.958   4.660  11.045 -1.6020  2.4668 -0.2985
 3693SOL    HW222713   3.932   4.717  10.918 -0.6494 -0.3883  0.1922
 3694SOL     OW22714   1.425   2.060   5.567 -0.5222  0.2837 -0.2576
 3694SOL    HW122715   1.457   1.975   5.537 -1.6064  0.4271 -1.8195
 3694SOL    HW222716   1.334   2.045   5.592 -0.6102  1.0129 -0.1460
 3695SOL     OW22717   2.627   1.715  12.927  0.4391 -0.4633  0.7942
 3695SOL    HW122718   2.720   1.731  12.939  0.2311  0.7472  0.7271
 3695SOL    HW222719   2.626   1.627  12.965  0.9625 -0.9487 -0.3147
 3696SOL     OW22720   1.234   4.301   5.070 -0.2664 -0.4622 -0.0349
 3696SOL    HW122721   1.259   4.347   4.990  1.5395 -1.0713  0.1904
 3696SOL    HW222722   1.318   4.279   5.110  0.0351  0.5950 -0.0763
 3697SOL     OW22723   4.483   0.277   9.208  0.9752  0.2427 -0.1259
 3697SOL    HW122724   4.523   0.325   9.135 -0.0708  1.1616 -0.0885
 3697SOL    HW222725   4.480   0.189   9.171 -1.5961  1.5662 -3.0282
 3698SOL     OW22726   4.433   2.721  11.396 -0.0833 -0.3538  0.0736
 3698SOL    HW122727   4.476   2.638  11.415 -1.0649 -0.5145  1.5669
 3698SOL    HW222728   4.469   2.764  11.473 -1.5143  1.1715 -0.0906
 3699SOL     OW22729   0.273   1.772   3.907  0.1585  0.3734  0.0290
 3699SOL    HW122730   0.350   1.772   3.851 -0.9870  0.5664 -1.5645
 3699SOL    HW222731   0.207   1.784   3.838  0.1042  1.1640  0.2188
 3700SOL     OW22732   3.548   2.082   1.298  0.2442  0.0256  0.3871
 3700SOL    HW122733   3.590   2.167   1.306  0.3548 -0.0697  0.8361
 3700SOL    HW222734   3.552   2.054   1.390 -2.4820 -2.4982 -0.2417
 3701SOL     OW22735   2.268   4.674   3.430  0.4674  0.0186 -0.1499
 3701SOL    HW122736   2.245   4.709   3.344 -0.9509  3.4952  1.6169
 3701SOL    HW222737   2.255   0.013   3.489  0.1304  1.7459 -2.4067
 3702SOL     OW22738   1.360   1.329   3.227  1.0712 -0.5224  0.0145
 3702SOL    HW122739   1.279   1.379   3.213  1.8091  0.4986 -0.6144
 3702SOL    HW222740   1.428   1.394   3.243 -1.2171  1.5642  1.1170
 3703SOL     OW22741   1.714   2.036   7.568  0.7048  0.5512 -0.3381
 3703SOL    HW122742   1.717   2.069   7.478 -0.1080 -1.3942 -1.0939
 3703SOL    HW222743   1.624   2.061   7.586  0.0616 -1.5909 -0.5758
 3704SOL     OW22744   1.933   0.654  17.728  0.0483  0.0873 -0.3001
 3704SOL    HW122745   1.928   0.718  17.657  3.2964  1.0561  0.3493
 3704SOL    HW222746   1.846   0.663   0.026 -1.2056 -1.0732 -2.7349
 3705SOL     OW22747   4.136   0.604  12.941  0.4266  0.1814  0.3110
 3705SOL    HW122748   4.139   0.509  12.944 -1.8672  0.1338  1.2138
 3705SOL    HW222749   4.147   0.631  13.032  1.3859 -1.8237  0.7835
 3706SOL     OW22750   2.624   2.947   2.812  0.4508 -0.1433 -0.0359
 3706SOL    HW122751   2.707   2.901   2.820 -0.0939 -1.5398 -2.2059
 3706SOL    HW222752   2.596   2.968   2.901  0.4566 -0.3041  0.0027
 3707SOL     OW22753   4.527   2.729  16.201 -0.2684 -0.3690 -0.0678
 3707SOL    HW122754   4.621   2.732  16.182  0.2889 -1.1216  2.4862
 3707SOL    HW222755   4.505   2.809  16.154 -0.5977  0.0701  0.8523
 3708SOL     OW22756   3.100   0.038  16.359  0.6536 -0.0661 -0.5240
 3708SOL    HW122757   3.074   0.069  16.446  3.0406 -0.3701  0.2778
 3708SOL    HW222758   3.038   4.701  16.349 -0.3145  0.6615  0.1797
 3709SOL     OW22759   4.569   3.992  12.503 -0.3865 -0.2960  0.4837
 3709SOL    HW122760   4.589   4.085  12.514  1.4173 -0.5485 -0.6160
 3709SOL    HW222761   4.577   3.969  12.596  3.7291  0.8129  0.3858
 3710SOL     OW22762   4.626   4.544   6.568 -0.1552  0.5024  0.6417
 3710SOL    HW122763   4.676   4.463   6.576  2.2502  1.6513 -2.4437
 3710SOL    HW222764   4.541   4.519   6.604  1.4839 -0.5256  3.7718
 3711SOL     OW22765   0.532   0.890   5.996 -0.3028 -0.8745  0.3137
 3711SOL    HW122766   0.569   0.979   5.998  1.5399 -1.5615 -3.0288
 3711SOL    HW222767   0.441   0.919   5.989 -0.2323 -0.6745  0.2149
 3712SOL     OW22768   0.875   3.526   7.956 -0.0784 -0.3168 -0.3050
 3712SOL    HW122769   0.878   3.566   7.870  0.9175 -0.1290 -0.1815
 3712SOL    HW222770   0.899   3.435   7.940 -1.1849 -0.7977  0.7498
 3713SOL     OW22771   0.850   2.261   4.770 -0.0544  0.4927 -0.4391
 3713SOL    HW122772   0.865   2.332   4.708 -0.6645  0.5048 -0.5669
 3713SOL    HW222773   0.811   2.198   4.710  0.5409 -1.9371  1.7149
 3714SOL     OW22774   2.361   2.914   7.086  1.0245  0.0254  0.3618
 3714SOL    HW122775   2.353   2.838   7.143 -0.8804 -0.7646 -0.9856
 3714SOL    HW222776   2.297   2.978   7.118 -0.6464 -1.2387 -0.4914
 3715SOL     OW22777   0.406   1.214  13.534  0.2302  0.1480  0.3903
 3715SOL    HW122778   0.461   1.136  13.542  3.9157  2.7523  0.5866
 3715SOL    HW222779   0.404   1.209  13.438  2.8154 -0.6158  0.3741
 3716SOL     OW22780   1.691   2.771   1.586  0.6981  0.1297  0.3558
 3716SOL    HW122781   1.676   2.861   1.555  3.0676  1.1432  2.1614
 3716SOL    HW222782   1.655   2.718   1.515  2.8827 -0.3901 -0.3599
 3717SOL     OW22783   3.209   3.938   6.166  0.6224 -0.0162 -0.1980
 3717SOL    HW122784   3.164   4.022   6.162 -1.4416 -1.0997  0.0751
 3717SOL    HW222785   3.285   3.948   6.109  0.1260  1.4154 -0.6190
 3718SOL     OW22786   1.412   1.835   5.870  0.3784  0.1145  0.0447
 3718SOL    HW122787   1.494   1.865   5.832  1.2746 -0.4490  1.5403
 3718SOL    HW222788   1.386   1.908   5.927  0.8038  0.3184 -0.0200
 3719SOL     OW22789   0.886   3.356  17.271 -0.2885 -0.6283 -0.6716
 3719SOL    HW122790   0.896   3.368  17.176  2.1603 -0.9487 -0.4307
 3719SOL    HW222791   0.918   3.267  17.283 -1.2124 -0.4711  2.8907
 3720SOL     OW22792   4.689   4.230   3.982 -0.4681 -0.2642 -0.1499
 3720SOL    HW122793   4.621   4.292   3.956 -0.2470 -0.1939 -0.5651
 3720SOL    HW222794   0.003   4.224   3.900 -1.6653  1.8779 -1.0553
 3721SOL     OW22795   3.673   0.718   0.240  0.2387 -0.4658  0.0697
 3721SOL    HW122796   3.764   0.729   0.268  0.0799 -2.3695  1.3645
 3721SOL    HW222797   3.675   0.737   0.147  1.0052 -2.2427 -0.2825
 3722SOL     OW22798   0.551   1.313  13.980  0.2062 -0.5358  0.0893
 3722SOL    HW122799   0.596   1.375  14.038 -0.7084 -0.6234  0.8736
 3722SOL    HW222800   0.613   1.241  13.968  1.7049  0.4076  2.2613
 3723SOL     OW22801   0.015   2.794  10.772  0.1213 -0.2252  0.4402
 3723SOL    HW122802   0.015   2.868  10.832 -1.1746  0.6154 -0.5742
 3723SOL    HW222803   4.659   2.774  10.750 -0.4088  0.6204  1.8977
 3724SOL     OW22804   4.435   1.349   4.277  0.2582 -0.1670  0.1141
 3724SOL    HW122805   4.500   1.300   4.226  0.5348  0.2107  0.1035
 3724SOL    HW222806   4.370   1.363   4.208 -1.0566  0.9999  1.5844
 3725SOL     OW22807   0.676   1.040  13.507  0.3537 -0.0443 -0.4478
 3725SOL    HW122808   0.764   1.019  13.476  0.5978  0.0563  0.1881
 3725SOL    HW222809   0.627   0.984  13.447  0.6192  0.4221 -1.1042
 3726SOL     OW22810   3.861   1.090   4.959  0.8013  0.5700  0.4858
 3726SOL    HW122811   3.839   1.153   5.027 -1.9893 -0.4047  0.4956
 3726SOL    HW222812   3.928   1.136   4.908 -0.9896  1.1615 -1.3474
 3727SOL     OW22813   0.897   0.959   3.432 -0.1576 -0.2281 -0.5788
 3727SOL    HW122814   0.952   0.886   3.405 -0.5489 -0.2152 -1.4368
 3727SOL    HW222815   0.924   0.969   3.523 -0.3868  2.0954 -0.7734
 3728SOL     OW22816   3.991   3.463   8.352 -0.0568 -0.2992  0.4352
 3728SOL    HW122817   3.910   3.446   8.401  0.8428 -0.2917  1.9100
 3728SOL    HW222818   4.059   3.444   8.416  0.6008 -2.5531 -0.9592
 3729SOL     OW22819   4.257   1.686  16.140 -0.2963  0.4294 -0.1785
 3729SOL    HW122820   4.261   1.597  16.175  2.4730  0.6114 -0.0434
 3729SOL    HW222821   4.262   1.676  16.045 -1.3990  1.6791 -0.3742
 3730SOL     OW22822   0.816   4.463  14.375  0.0165 -0.0245  0.4568
 3730SOL    HW122823   0.737   4.512  14.401 -0.0610  1.2335 -2.0996
 3730SOL    HW222824   0.882   4.500  14.433 -0.2535  1.7988 -0.4039
 3731SOL     OW22825   3.758   2.786   2.061  0.4057  0.2248  0.5470
 3731SOL    HW122826   3.670   2.759   2.037  1.0375 -0.4565 -1.0183
 3731SOL    HW222827   3.815   2.743   1.997 -2.9794 -1.5878 -1.2152
 3732SOL     OW22828   1.603   3.912   3.267 -0.2893  0.2486 -0.8646
 3732SOL    HW122829   1.523   3.965   3.268  0.2528  1.0867 -1.2264
 3732SOL    HW222830   1.632   3.936   3.355 -3.0834  0.1431  0.0887
 3733SOL     OW22831   2.040   1.799  11.161 -0.6361  0.4094 -0.0691
 3733SOL    HW122832   2.042   1.704  11.159 -1.8282  0.3987 -0.4632
 3733SOL    HW222833   1.963   1.805  11.105 -0.4962  1.1404 -0.1915
 3734SOL     OW22834   0.600   2.121   6.036  0.1516 -0.1243  0.5485
 3734SOL    HW122835   0.611   2.134   6.130 -0.9018  1.0492  0.5145
 3734SOL    HW222836   0.663   2.186   6.007  1.0017 -0.8758  0.7273
 3735SOL     OW22837   3.261   2.617   6.353  0.8828  0.1205  0.6749
 3735SOL    HW122838   3.216   2.556   6.294 -0.8133  1.2621  0.7894
 3735SOL    HW222839   3.246   2.703   6.315  1.7338 -0.0759 -0.1125
 3736SOL     OW22840   1.900   2.495   9.474  0.0149 -0.3731 -0.0786
 3736SOL    HW122841   1.881   2.585   9.446 -1.3187 -0.2973  1.1020
 3736SOL    HW222842   1.944   2.462   9.395  2.6635 -1.4615  1.8760
 3737SOL     OW22843   2.564   0.104   1.192  0.1447  0.1718  0.0559
 3737SOL    HW122844   2.640   0.052   1.218 -0.2794 -0.1355  0.6790
 3737SOL    HW222845   2.614   0.164   1.137 -1.3182  0.8265 -0.5543
 3738SOL     OW22846   4.385   3.539   2.441  0.1677  0.0499  0.2767
 3738SOL    HW122847   4.430   3.461   2.474  1.8574  0.5165 -0.9579
 3738SOL    HW222848   4.449   3.608   2.460 -1.2001  0.8432  2.0679
 3739SOL     OW22849   0.665   3.002   1.794  0.3678 -0.3078  0.0221
 3739SOL    HW122850   0.758   3.001   1.818 -0.0373  3.0730  1.6995
 3739SOL    HW222851   0.633   3.082   1.835 -0.2957 -0.0697 -0.9849
 3740SOL     OW22852   3.278   4.597   6.318  0.2086  0.1560 -0.2652
 3740SOL    HW122853   3.335   4.604   6.395  0.4142  0.1972 -0.4213
 3740SOL    HW222854   3.235   4.682   6.328 -0.2183 -0.2801  1.6871
 3741SOL     OW22855   4.465   1.845   0.341  0.4228 -0.5582  0.2097
 3741SOL    HW122856   4.497   1.896   0.415 -0.3181  0.6146 -0.2740
 3741SOL    HW222857   4.423   1.910   0.284 -1.8209 -0.1377  2.3187
 3742SOL     OW22858   4.504   0.919  11.273 -0.0695 -0.5140  0.0608
 3742SOL    HW122859   4.419   0.950  11.305  0.0778 -1.4614  1.4101
 3742SOL    HW222860   4.513   0.849  11.337  2.2766  1.9814  2.4653
 3743SOL     OW22861   3.161   3.486  10.525  0.4068  0.2687  0.7760
 3743SOL    HW122862   3.250   3.505  10.556  0.1034  2.4012  0.2866
 3743SOL    HW222863   3.120   3.571  10.539 -2.3050 -1.1426  1.3163
 3744SOL     OW22864   1.914   0.997  12.976 -0.1941  0.4311  0.2757
 3744SOL    HW122865   1.855   0.924  12.994  0.5986 -0.0959  0.7408
 3744SOL    HW222866   1.985   0.961  12.923 -1.8711  0.3971 -1.9282
 3745SOL     OW22867   2.948   0.158   7.193  0.7238  0.3473  0.7483
 3745SOL    HW122868   2.964   0.128   7.283  0.5711 -0.1711  0.6048
 3745SOL    HW222869   3.025   0.214   7.187 -0.0537  1.4017  0.6489
 3746SOL     OW22870   4.401   0.991  10.487  0.3237 -0.0142 -0.2321
 3746SOL    HW122871   4.454   0.978  10.565 -0.4743 -1.1504  0.1389
 3746SOL    HW222872   4.461   1.017  10.417  2.1602  0.8146  1.6944
 3747SOL     OW22873   3.736   1.173   8.226 -0.5419 -0.0951  0.8005
 3747SOL    HW122874   3.693   1.208   8.304  1.1632  0.3341  1.5395
 3747SOL    HW222875   3.790   1.247   8.197 -0.4260  0.2596  1.9452
 3748SOL     OW22876   1.627   0.081  17.046  0.3364  0.3626 -0.1007
 3748SOL    HW122877   1.605   4.728  17.016  1.3927  0.7442 -2.0249
 3748SOL    HW222878   1.564   0.096  17.117  1.9533  0.1182  1.3836
 3749SOL     OW22879   0.357   2.223   1.731  0.0370  0.1172 -0.4414
 3749SOL    HW122880   0.421   2.289   1.754 -1.4724  1.6233 -0.5167
 3749SOL    HW222881   0.278   2.270   1.704 -1.0525 -1.9944 -0.9984
 3750SOL     OW22882   1.914   3.118  11.265 -0.4365  0.8754 -0.1736
 3750SOL    HW122883   1.924   3.193  11.324  0.7259  0.2548  0.4221
 3750SOL    HW222884   1.998   3.112  11.219  0.8524 -2.5490  2.5347
 3751SOL     OW22885   3.022   2.030  12.961 -0.2839  0.2400 -0.6544
 3751SOL    HW122886   3.037   2.087  12.886  0.6186  0.7496 -0.0835
 3751SOL    HW222887   2.982   2.091  13.023 -0.7308  0.7329 -1.4252
 3752SOL     OW22888   1.366   1.127   6.542 -0.0116  0.2407 -0.6569
 3752SOL    HW122889   1.340   1.054   6.486 -0.2001  1.1877 -1.8097
 3752SOL    HW222890   1.281   1.157   6.575  0.9653  1.1404  1.0851
 3753SOL     OW22891   0.995   2.378  11.198  0.1304 -0.1464 -0.1911
 3753SOL    HW122892   1.080   2.421  11.188 -0.7698  2.1348  2.0879
 3753SOL    HW222893   0.935   2.440  11.239 -0.2608 -0.7147  0.0971
 3754SOL     OW22894   3.157   3.494   3.972  0.1787  0.6934  0.0761
 3754SOL    HW122895   3.094   3.502   4.044 -0.3134 -1.2894 -0.1480
 3754SOL    HW222896   3.204   3.415   3.999 -0.9839 -0.1167 -0.2675
 3755SOL     OW22897   3.017   3.902  13.906  1.1383  0.9786 -0.6258
 3755SOL    HW122898   2.971   3.885  13.823 -1.2786  0.6874  0.7822
 3755SOL    HW222899   3.052   3.814  13.921 -0.1769  0.0148 -3.1006
 3756SOL     OW22900   4.280   1.927  14.387 -0.4671  0.3278 -0.4386
 3756SOL    HW122901   4.295   1.837  14.415  0.1988 -0.2109 -2.5051
 3756SOL    HW222902   4.246   1.910  14.299 -0.2581  2.6936 -0.9775
 3757SOL     OW22903   2.665   2.464   9.868 -0.0766 -0.1143 -0.0539
 3757SOL    HW122904   2.685   2.414   9.947  0.4801  0.6904  0.3107
 3757SOL    HW222905   2.710   2.416   9.799  0.1673 -1.7727  1.2636
 3758SOL     OW22906   4.220   3.422  16.012  0.5318 -0.3445 -0.4908
 3758SOL    HW122907   4.155   3.492  16.017 -1.6770 -2.4952  0.8739
 3758SOL    HW222908   4.297   3.476  16.028  0.4862  0.0195 -1.5285
 3759SOL     OW22909   2.434   4.518   8.330 -0.3042  0.0162 -0.0069
 3759SOL    HW122910   2.356   4.472   8.361  1.3793 -0.6596  3.2768
 3759SOL    HW222911   2.496   4.486   8.396 -0.1396 -0.7071 -0.5077
 3760SOL     OW22912   0.844   1.785   8.707 -0.1200 -0.1089  0.0558
 3760SOL    HW122913   0.919   1.729   8.685 -0.3418 -0.3562 -0.0601
 3760SOL    HW222914   0.772   1.725   8.694 -0.3313 -0.2272  1.7681
 3761SOL     OW22915   3.748   3.318  14.407  0.5433  0.0467  0.2205
 3761SOL    HW122916   3.804   3.321  14.485 -0.0278  0.9967  0.5848
 3761SOL    HW222917   3.675   3.266  14.442  0.9108 -1.6707 -1.5582
 3762SOL     OW22918   4.546   4.482  16.660 -0.7085 -0.3472 -1.1633
 3762SOL    HW122919   4.483   4.518  16.722 -1.1917 -0.7999 -1.3966
 3762SOL    HW222920   4.489   4.425  16.609 -2.2014  0.4296 -0.3409
 3763SOL     OW22921   3.661   3.337   7.936  0.4820 -0.0460  0.0336
 3763SOL    HW122922   3.701   3.262   7.892 -2.6506 -2.8019  1.8077
 3763SOL    HW222923   3.648   3.394   7.861 -1.6679  0.4276  0.7613
 3764SOL     OW22924   1.131   4.437   4.283 -0.1549  0.2088  0.4140
 3764SOL    HW122925   1.202   4.392   4.236 -1.4482  0.7462 -2.0793
 3764SOL    HW222926   1.121   4.382   4.360 -0.7594 -1.0359 -0.5503
 3765SOL     OW22927   1.927   2.624  12.104 -0.1792  0.3205 -0.2882
 3765SOL    HW122928   1.919   2.572  12.024  0.3469 -0.8170  0.4012
 3765SOL    HW222929   1.887   2.564  12.167 -0.6538 -0.3679 -1.2507
 3766SOL     OW22930   2.110   1.812   6.088 -0.2650  0.1613  0.3881
 3766SOL    HW122931   2.132   1.735   6.036  0.7771  1.4070 -0.9888
 3766SOL    HW222932   2.147   1.881   6.034 -2.4948  1.0913  0.0330
 3767SOL     OW22933   4.424   2.997   7.649 -0.0026  0.3232  0.0775
 3767SOL    HW122934   4.350   3.009   7.590  0.3066 -2.3064 -0.8594
 3767SOL    HW222935   4.377   2.977   7.730  0.9127 -0.6133  0.3762
 3768SOL     OW22936   0.212   1.801  14.585  0.0329 -0.2814 -0.0249
 3768SOL    HW122937   0.269   1.772  14.656 -1.6830  2.3893  2.4584
 3768SOL    HW222938   0.270   1.785  14.511  0.4108  0.6930  0.0630
 3769SOL     OW22939   0.380   0.011   2.315 -0.0378 -0.1524  0.1352
 3769SOL    HW122940   0.381   0.019   2.220  0.7720  0.6012  0.2093
 3769SOL    HW222941   0.442   0.083   2.328  1.1914 -0.9713 -1.1994
 3770SOL     OW22942   0.835   0.776   1.824  0.2318 -0.0270 -0.5433
 3770SOL    HW122943   0.744   0.748   1.836  0.2008 -0.3970 -1.6495
 3770SOL    HW222944   0.868   0.703   1.875  3.1859  1.7073  0.0090
 3771SOL     OW22945   1.254   4.521  12.637  0.0008  0.1250 -0.0385
 3771SOL    HW122946   1.198   4.492  12.565 -0.1565  0.5321 -0.0791
 3771SOL    HW222947   1.306   4.442  12.648 -0.5120 -0.4910 -2.0126
 3772SOL     OW22948   4.468   2.391   9.707  0.3501  0.4872  0.3371
 3772SOL    HW122949   4.407   2.402   9.779 -2.0417 -3.5556 -1.0686
 3772SOL    HW222950   4.407   2.380   9.634  0.0855  0.4906  0.5604
 3773SOL     OW22951   3.428   0.744   3.010  0.5706 -0.5535 -0.2606
 3773SOL    HW122952   3.500   0.805   3.028 -0.6175  0.8799 -0.3609
 3773SOL    HW222953   3.354   0.801   3.031  0.7771 -0.3884  0.0217
 3774SOL     OW22954   4.629   2.925   4.000 -0.0187  0.7623 -0.4352
 3774SOL    HW122955   4.601   2.995   4.059 -3.5717 -0.2238 -0.9715
 3774SOL    HW222956   4.550   2.872   3.988  1.3354 -0.7658 -2.5421
 3775SOL     OW22957   2.976   0.184  15.251  0.1011 -0.1868  0.7276
 3775SOL    HW122958   2.889   0.188  15.211  1.9312 -0.0526 -3.2628
 3775SOL    HW222959   3.018   0.250  15.196  0.0830 -0.0322  0.8983
 3776SOL     OW22960   1.536   1.139   7.316 -0.2147 -0.0186  0.0167
 3776SOL    HW122961   1.506   1.231   7.316  1.6480  0.5744  1.7598
 3776SOL    HW222962   1.471   1.105   7.378 -1.2032  0.9101 -0.5093
 3777SOL     OW22963   1.939   4.121   7.006  0.2214  0.2823  0.1778
 3777SOL    HW122964   2.010   4.164   7.054 -0.4891 -1.0878  2.4933
 3777SOL    HW222965   1.967   4.138   6.916 -0.5877  0.0138 -0.1249
 3778SOL     OW22966   3.285   3.440   1.195 -0.5095 -0.0551  0.5684
 3778SOL    HW122967   3.235   3.509   1.150 -1.9331 -1.8562 -0.6270
 3778SOL    HW222968   3.369   3.463   1.155 -0.5274 -2.2432 -0.7371
 3779SOL     OW22969   4.613   1.299   2.100  1.0984  0.5044  0.0002
 3779SOL    HW122970   4.647   1.374   2.147  3.1927  0.4902 -1.5199
 3779SOL    HW222971   4.573   1.247   2.170  3.1604 -0.5136  0.4249
 3780SOL     OW22972   2.063   2.642   6.705 -0.1820  0.1827 -0.1465
 3780SOL    HW122973   2.139   2.627   6.760 -0.9101 -0.9307  0.5368
 3780SOL    HW222974   2.097   2.698   6.634  3.2066 -1.5371  0.1032
 3781SOL     OW22975   1.753   0.719   9.883 -0.2402  0.3340  0.0180
 3781SOL    HW122976   1.847   0.740   9.887 -0.5536  1.6916  0.1966
 3781SOL    HW222977   1.721   0.792   9.936 -2.1875  0.6449 -1.5951
 3782SOL     OW22978   4.556   1.029   4.960 -0.7005  0.2789  0.2097
 3782SOL    HW122979   4.616   0.955   4.956 -1.0688 -0.0256  0.2789
 3782SOL    HW222980   4.575   1.077   4.880  1.4840  0.1843  0.6937
 3783SOL     OW22981   0.846   1.028   8.063 -0.2374 -0.0670 -0.3898
 3783SOL    HW122982   0.915   1.059   8.004 -0.1618  0.5900  0.0445
 3783SOL    HW222983   0.803   0.954   8.020  0.7297 -2.0240  1.9828
 3784SOL     OW22984   3.858   3.047   2.635  0.5018  0.0962  0.5416
 3784SOL    HW122985   3.850   3.129   2.684 -0.8083  1.6701 -2.2899
 3784SOL    HW222986   3.868   3.087   2.549 -0.2048 -2.5128 -0.7689
 3785SOL     OW22987   2.691   2.198  13.144 -0.4894 -0.4294  0.6199
 3785SOL    HW122988   2.785   2.198  13.127 -0.9243 -0.6185 -1.7306
 3785SOL    HW222989   2.680   2.125  13.205  1.3240 -1.0809  0.1764
 3786SOL     OW22990   2.163   3.945  13.687 -0.2446  0.2679 -0.0932
 3786SOL    HW122991   2.132   3.950  13.597 -0.8915  2.7780  0.2772
 3786SOL    HW222992   2.089   3.906  13.734  1.3062 -2.7178 -0.1191
 3787SOL     OW22993   3.212   0.095  16.762  0.4828  0.0031  0.4731
 3787SOL    HW122994   3.212   0.105  16.857 -0.1038  1.3415  0.3317
 3787SOL    HW222995   3.288   0.036  16.769  0.5924 -0.1345 -1.8355
 3788SOL     OW22996   0.184   2.014   6.183 -0.4331 -0.3619  0.0092
 3788SOL    HW122997   0.141   2.099   6.198  0.9962 -0.1755  2.9869
 3788SOL    HW222998   0.163   2.004   6.090 -1.5567  1.5564  0.0420
 3789SOL     OW22999   3.066   1.192   4.519 -0.7576 -0.3790  0.2253
 3789SOL    HW123000   3.156   1.208   4.548 -0.5286  0.4579 -0.9250
 3789SOL    HW223001   3.036   1.280   4.495  2.7586  0.8552  0.2670
 3790SOL     OW23002   0.969   2.298   5.659 -0.8418  0.6410 -0.2261
 3790SOL    HW123003   0.936   2.348   5.733  0.4530  2.8109 -1.0938
 3790SOL    HW223004   1.039   2.243   5.696 -1.2820 -0.9347 -1.7340
 3791SOL     OW23005   3.747   4.251  10.385 -0.3607 -0.3117 -0.2109
 3791SOL    HW123006   3.692   4.174  10.396  0.4030 -0.7286  0.7062
 3791SOL    HW223007   3.738   4.271  10.291 -3.6215  1.7515  0.5619
 3792SOL     OW23008   4.265   0.760  17.666  0.6670 -0.0921 -0.4964
 3792SOL    HW123009   4.174   0.787  17.676  0.5605  0.3418 -2.6983
 3792SOL    HW223010   4.306   0.782   0.009 -0.8389  2.3819 -0.4154
 3793SOL     OW23011   2.382   3.803   5.294 -0.3154 -0.3016  0.1094
 3793SOL    HW123012   2.324   3.828   5.365  1.3267 -1.3197  1.8039
 3793SOL    HW223013   2.327   3.820   5.217  1.0498 -0.4813 -0.9108
 3794SOL     OW23014   2.492   0.021   7.194 -0.2699  0.1481  0.1291
 3794SOL    HW123015   2.408   0.055   7.163  1.2384  3.1427 -0.6771
 3794SOL    HW223016   2.545   0.077   7.138 -1.6054  1.1076 -0.1842
 3795SOL     OW23017   3.537   2.924   2.868 -0.2752 -0.1218  0.2248
 3795SOL    HW123018   3.484   2.941   2.790  2.0257 -2.9010 -1.9230
 3795SOL    HW223019   3.507   2.838   2.897  0.2994 -1.4639 -3.1489
 3796SOL     OW23020   3.384   0.192   7.708 -0.5625 -0.2784  0.7008
 3796SOL    HW123021   3.363   0.146   7.627 -1.8408 -0.0807  0.9188
 3796SOL    HW223022   3.462   0.243   7.685  0.6335 -1.6591  1.6797
 3797SOL     OW23023   0.869   0.483  16.012 -0.0506  0.1514 -0.2884
 3797SOL    HW123024   0.816   0.528  16.077 -2.4168  0.5343 -2.4835
 3797SOL    HW223025   0.919   0.417  16.060 -0.3508 -0.7605 -1.2119
 3798SOL     OW23026   1.469   2.030  14.309 -0.3858 -0.2176 -0.6620
 3798SOL    HW123027   1.441   2.060  14.396  0.3757 -0.0502 -0.4770
 3798SOL    HW223028   1.390   1.981  14.285 -0.4836 -0.6644  0.5736
 3799SOL     OW23029   1.492   3.228  13.609  0.0196  0.2758 -0.3707
 3799SOL    HW123030   1.503   3.308  13.661 -1.0086  0.7148 -0.8392
 3799SOL    HW223031   1.574   3.180  13.620 -1.4131 -2.4825 -2.0864
 3800SOL     OW23032   2.013   1.377  17.506  0.0535  0.0891  0.5089
 3800SOL    HW123033   2.061   1.429  17.442  1.0480 -2.0811 -0.5014
 3800SOL    HW223034   1.935   1.432  17.518  0.0905 -0.3785  2.8918
 3801SOL     OW23035   1.878   1.092   9.286  0.4301 -0.3087 -0.1372
 3801SOL    HW123036   1.802   1.036   9.269 -0.1715  0.0886  1.2382
 3801SOL    HW223037   1.929   1.076   9.206  1.3286  0.0247  0.3672
 3802SOL     OW23038   0.583   3.811   2.523  0.4655  0.0593  0.6814
 3802SOL    HW123039   0.532   3.890   2.543  0.7123  0.3114  0.3180
 3802SOL    HW223040   0.597   3.779   2.611 -1.8507 -1.2234  0.5803
 3803SOL     OW23041   2.556   2.354   8.473 -0.2585  0.5153  0.6805
 3803SOL    HW123042   2.532   2.296   8.400 -1.6816  1.0108  0.7484
 3803SOL    HW223043   2.478   2.408   8.478 -0.3300  0.3017  1.8909
 3804SOL     OW23044   0.074   3.377   9.062 -0.2249 -0.2236 -0.3191
 3804SOL    HW123045   0.139   3.435   9.100 -0.3065  0.7322 -1.6394
 3804SOL    HW223046   0.090   3.291   9.101  0.7009 -0.1935 -0.6352
 3805SOL     OW23047   0.589   4.627  10.817  0.0613  0.7018 -0.2618
 3805SOL    HW123048   0.506   4.675  10.812 -0.4415  0.0335  1.7411
 3805SOL    HW223049   0.601   4.617  10.911  0.7150  1.5730 -0.2562
 3806SOL     OW23050   3.121   0.058   4.033  0.0332 -0.0555  0.0942
 3806SOL    HW123051   3.161   0.065   4.120  0.9316 -0.3077 -0.3105
 3806SOL    HW223052   3.148   4.707   4.004  0.5488  0.1847 -0.1369
 3807SOL     OW23053   2.938   1.170   9.786 -0.0074 -0.2890  0.2575
 3807SOL    HW123054   2.926   1.130   9.700  0.6302 -1.3256  0.6471
 3807SOL    HW223055   2.867   1.124   9.831  1.1083 -1.1780  1.0945
 3808SOL     OW23056   0.691   0.214   9.336 -0.0333 -0.2700  0.1454
 3808SOL    HW123057   0.610   0.249   9.299  0.4561 -0.6649 -1.3267
 3808SOL    HW223058   0.729   0.160   9.266 -0.9121  1.4572 -1.6561
 3809SOL     OW23059   1.232   4.166   8.288 -0.2082 -0.0385 -0.2920
 3809SOL    HW123060   1.292   4.220   8.236 -2.9897  0.6397 -2.7737
 3809SOL    HW223061   1.226   4.213   8.371  1.1309  2.3361 -1.5552
 3810SOL     OW23062   1.146   1.217  10.592  0.1178  0.0231 -0.1319
 3810SOL    HW123063   1.229   1.211  10.544  0.3068  0.8207  0.1004
 3810SOL    HW223064   1.148   1.277  10.666 -0.3188 -0.6096  0.3972
 3811SOL     OW23065   1.355   3.038   1.669  0.1756  0.0663 -0.0813
 3811SOL    HW123066   1.272   3.024   1.624 -0.9111  4.0350  0.6731
 3811SOL    HW223067   1.320   3.084   1.745  0.3681 -0.7247  0.4849
 3812SOL     OW23068   0.069   1.391  17.477 -0.1644  0.5585  0.5294
 3812SOL    HW123069   0.047   1.400  17.570  2.5026 -1.3481  1.3268
 3812SOL    HW223070   4.733   1.436  17.432 -0.2482  0.1749  0.2756
 3813SOL     OW23071   1.276   1.746   0.253  0.1997 -0.2402  0.0396
 3813SOL    HW123072   1.188   1.760   0.219  0.5834  0.5111 -0.6449
 3813SOL    HW223073   1.283   1.651   0.264 -0.2354 -0.5133 -2.0405
 3814SOL     OW23074   2.374   1.383   6.438 -0.0581 -0.7152  0.2199
 3814SOL    HW123075   2.432   1.349   6.370 -1.4707  0.6196 -1.6377
 3814SOL    HW223076   2.313   1.310   6.442 -0.6262 -0.2000  0.9921
 3815SOL     OW23077   2.745   2.861   6.432  0.0235  0.2582 -0.1962
 3815SOL    HW123078   2.739   2.782   6.486 -1.9406 -0.8176 -1.9481
 3815SOL    HW223079   2.755   2.924   6.503  0.1745  1.8270 -1.6166
 3816SOL     OW23080   0.579   0.348  17.041 -0.1506  0.1906 -0.0011
 3816SOL    HW123081   0.657   0.381  17.085  0.6170  0.8835 -1.8963
 3816SOL    HW223082   0.515   0.343  17.112  0.8813 -0.6424  0.8612
 3817SOL     OW23083   1.394   3.480   4.700  0.2444  0.2126  0.3489
 3817SOL    HW123084   1.446   3.433   4.635  0.9545  2.3471 -0.6365
 3817SOL    HW223085   1.306   3.442   4.693 -0.4215  1.9317 -0.6617
 3818SOL     OW23086   3.827   1.860  10.480 -0.3351 -0.1944  0.4953
 3818SOL    HW123087   3.805   1.770  10.457 -1.4398  0.0762  0.4616
 3818SOL    HW223088   3.746   1.893  10.519 -2.3591  0.5129 -4.2301
 3819SOL     OW23089   1.369   1.474   3.718 -0.5568  0.1444 -0.1212
 3819SOL    HW123090   1.337   1.478   3.809  0.6484  0.5196  0.2811
 3819SOL    HW223091   1.303   1.413   3.685 -2.4647  2.1590 -0.0881
 3820SOL     OW23092   2.996   1.239   2.797 -0.8085  0.1529 -0.1141
 3820SOL    HW123093   2.990   1.154   2.753  1.7303  0.7444 -1.6515
 3820SOL    HW223094   3.077   1.229   2.847 -0.6280 -0.0595 -0.4467
 3821SOL     OW23095   4.081   2.111  12.018 -1.4353 -0.1852  0.2947
 3821SOL    HW123096   4.013   2.070  12.072 -3.5366  0.4541 -1.8818
 3821SOL    HW223097   4.062   2.077  11.931 -0.5031  0.9611 -0.3546
 3822SOL     OW23098   3.064   1.412   5.561  0.1512 -0.2883  0.7528
 3822SOL    HW123099   3.019   1.453   5.635 -0.3599 -1.7966  1.2611
 3822SOL    HW223100   3.152   1.450   5.566 -0.8747  2.2031  0.0157
 3823SOL     OW23101   1.245   2.801   3.549  0.1620 -0.1805 -0.0172
 3823SOL    HW123102   1.320   2.813   3.607 -0.5927  1.3223  0.6730
 3823SOL    HW223103   1.169   2.795   3.608 -1.6507 -0.7020 -2.3927
 3824SOL     OW23104   0.386   2.417   0.726  1.0163  0.0287 -0.3098
 3824SOL    HW123105   0.335   2.350   0.682 -0.0012  0.4825  0.1714
 3824SOL    HW223106   0.312   2.474   0.749  0.0583 -0.8259 -1.3201
 3825SOL     OW23107   3.146   1.309   3.741 -0.2020 -0.2881 -0.1783
 3825SOL    HW123108   3.130   1.350   3.826 -0.2257 -1.8975  0.5898
 3825SOL    HW223109   3.240   1.291   3.736 -0.2136 -0.1645 -0.8158
 3826SOL     OW23110   0.926   3.108   9.996  0.3502  0.4281  0.0919
 3826SOL    HW123111   0.985   3.073  10.062  1.7712  0.2985 -1.2563
 3826SOL    HW223112   0.978   3.183   9.966  3.5297 -2.0973 -0.7564
 3827SOL     OW23113   1.898   3.582  14.352  0.2023  0.2715 -0.2046
 3827SOL    HW123114   1.900   3.632  14.433 -1.8737  0.6154 -0.3623
 3827SOL    HW223115   1.923   3.492  14.372 -0.1879 -0.0852 -1.2668
 3828SOL     OW23116   3.441   0.762   0.470 -0.3104  0.2292  0.2439
 3828SOL    HW123117   3.352   0.732   0.450 -0.8563  0.9649  1.5216
 3828SOL    HW223118   3.456   0.821   0.396  1.4937 -1.1795 -0.4967
 3829SOL     OW23119   0.718   3.882   3.301 -0.3956 -0.0031  0.0012
 3829SOL    HW123120   0.765   3.937   3.238  1.0843 -1.2365  0.0418
 3829SOL    HW223121   0.696   3.948   3.367 -2.0422 -0.4532 -0.0739
 3830SOL     OW23122   0.815   3.999   0.984  0.5086 -0.6297 -0.0600
 3830SOL    HW123123   0.895   4.053   0.982  2.3817 -3.4097 -0.0999
 3830SOL    HW223124   0.762   4.069   1.021  3.5184  0.9085  1.3764
 3831SOL     OW23125   4.630   0.705   2.601 -0.1429  0.1702  0.9620
 3831SOL    HW123126   4.676   0.627   2.570  0.1147  1.2188 -1.3104
 3831SOL    HW223127   4.627   0.685   2.694  0.0730 -0.7832  0.7653
 3832SOL     OW23128   4.622   2.104   5.077 -0.1643 -0.3465  0.5659
 3832SOL    HW123129   4.662   2.103   4.990  0.5540  1.1962  0.8691
 3832SOL    HW223130   4.682   2.042   5.119  0.4984 -0.9042 -1.2243
 3833SOL     OW23131   0.514   1.159   2.207  0.1415  0.1916 -0.0668
 3833SOL    HW123132   0.427   1.124   2.189  0.3166 -0.8096  0.9934
 3833SOL    HW223133   0.495   1.190   2.296  0.8722  3.1811 -0.9601
 3834SOL     OW23134   0.433   4.211   8.087 -0.0915  0.8550 -0.3586
 3834SOL    HW123135   0.447   4.277   8.155 -0.0165 -0.9158  1.3540
 3834SOL    HW223136   0.521   4.176   8.074 -0.5736 -0.4805 -0.0086
 3835SOL     OW23137   2.637   2.899   7.090 -0.2242  0.6477  0.5995
 3835SOL    HW123138   2.544   2.921   7.079 -0.4910 -1.3354 -0.9918
 3835SOL    HW223139   2.652   2.936   7.177 -0.1620  0.9186  0.4734
 3836SOL     OW23140   0.080   3.192   3.662 -0.1799  0.3511  0.0553
 3836SOL    HW123141   0.107   3.158   3.747  3.3819  1.7651 -0.4972
 3836SOL    HW223142   0.102   3.284   3.674  0.0964  0.3298 -0.2755
 3837SOL     OW23143   0.769   3.302   4.800  0.0745 -0.0090  0.3590
 3837SOL    HW123144   0.782   3.208   4.810  1.5728  0.1931  0.3299
 3837SOL    HW223145   0.862   3.318   4.782 -0.6692  1.3841 -2.1502
 3838SOL     OW23146   2.760   1.314   2.925 -0.3106 -0.0010  0.0340
 3838SOL    HW123147   2.769   1.220   2.942 -0.7530 -0.4647 -2.3932
 3838SOL    HW223148   2.836   1.315   2.867 -1.5986  0.7065 -1.6348
 3839SOL     OW23149   3.912   1.600   1.309 -0.6592  0.1085  0.1071
 3839SOL    HW123150   3.983   1.663   1.303 -0.5056 -0.1188 -0.4533
 3839SOL    HW223151   3.913   1.575   1.402 -1.5890  0.0947  0.1182
 3840SOL     OW23152   0.652   2.152   7.476  0.0277 -0.1195  0.4155
 3840SOL    HW123153   0.670   2.062   7.448  0.1157 -0.0746  0.3300
 3840SOL    HW223154   0.599   2.179   7.401 -0.2408 -1.9741 -0.0551
 3841SOL     OW23155   2.456   3.259   3.003  0.4238  0.4771  0.4535
 3841SOL    HW123156   2.468   3.182   3.059 -1.7278  0.1286  0.4138
 3841SOL    HW223157   2.387   3.308   3.048 -0.7559 -1.0543  0.3190
 3842SOL     OW23158   1.311   0.806   2.729 -0.5696 -0.8482 -0.3825
 3842SOL    HW123159   1.267   0.838   2.650  1.2711  0.8744 -0.7124
 3842SOL    HW223160   1.351   0.723   2.704  1.0614  0.8405 -3.3246
 3843SOL     OW23161   4.014   2.861   4.662 -0.0232  0.5954  0.0674
 3843SOL    HW123162   4.023   2.775   4.703 -0.8579  0.7186  0.4926
 3843SOL    HW223163   3.993   2.833   4.573 -0.2333  0.0968  0.2734
 3844SOL     OW23164   0.846   3.035   4.915 -0.0820  0.0014 -0.1923
 3844SOL    HW123165   0.823   3.013   5.006  1.1398  2.1239  0.6280
 3844SOL    HW223166   0.921   2.977   4.904 -0.6697 -0.9219  0.6856
 3845SOL     OW23167   1.515   3.872   3.906  0.0841  0.4776  0.8453
 3845SOL    HW123168   1.456   3.798   3.914  1.2650 -0.2464  2.9134
 3845SOL    HW223169   1.565   3.876   3.988  2.8220  0.8458 -0.8206
 3846SOL     OW23170   3.537   4.409  12.296  0.5330 -0.2767  0.2175
 3846SOL    HW123171   3.481   4.441  12.367  0.2635 -1.4631  0.5347
 3846SOL    HW223172   3.563   4.324  12.330 -0.1972 -0.0993  1.2367
 3847SOL     OW23173   4.109   3.773   6.091 -0.6123 -0.1275 -1.1118
 3847SOL    HW123174   4.197   3.740   6.108 -0.9473  1.0310  2.7485
 3847SOL    HW223175   4.112   3.858   6.133 -2.4688 -0.3687 -0.5176
 3848SOL     OW23176   4.655   2.060   8.690  0.0343 -0.2512 -0.4090
 3848SOL    HW123177   4.670   2.027   8.601  0.6783 -0.1583 -0.3354
 3848SOL    HW223178   4.674   1.981   8.741  3.0063 -0.3763 -1.7194
 3849SOL     OW23179   3.948   3.670   9.170  0.1313  0.6207  0.1610
 3849SOL    HW123180   3.911   3.670   9.081 -1.2135  0.7748  0.7164
 3849SOL    HW223181   3.887   3.609   9.211  0.7985 -0.4571 -0.4582
 3850SOL     OW23182   2.619   2.326   3.871  0.6408  0.5119 -0.3934
 3850SOL    HW123183   2.689   2.279   3.827  2.6130  2.5537  0.5704
 3850SOL    HW223184   2.676   2.368   3.936  1.1096  0.8530 -1.0329
 3851SOL     OW23185   3.294   0.003   7.255  0.0749 -0.5670  0.1970
 3851SOL    HW123186   3.304   0.098   7.255 -1.1376 -0.4302  1.2422
 3851SOL    HW223187   3.283   4.713   7.347 -0.6115 -0.0348  0.2681
 3852SOL     OW23188   1.061   4.199   9.577 -0.4388  0.2090  0.0027
 3852SOL    HW123189   1.012   4.119   9.597  0.8418 -0.8925 -1.2429
 3852SOL    HW223190   1.024   4.263   9.637  2.6640  0.0046  2.1093
 3853SOL     OW23191   4.691   2.003   9.268 -0.4919 -0.3854 -0.9279
 3853SOL    HW123192   4.714   2.081   9.318 -1.4357 -0.1339 -0.8954
 3853SOL    HW223193   0.041   1.997   9.226  0.1371  3.3869 -0.1647
 3854SOL     OW23194   0.024   2.821  12.421 -0.3184  0.3435 -0.1037
 3854SOL    HW123195   0.088   2.763  12.462 -0.1960 -0.0691 -0.8853
 3854SOL    HW223196   0.026   2.884  12.493  2.9249  0.2922 -0.1466
 3855SOL     OW23197   3.618   3.741  13.487  0.2608  0.1487  0.4236
 3855SOL    HW123198   3.550   3.808  13.482 -0.1494 -0.3217 -0.1327
 3855SOL    HW223199   3.583   3.673  13.431  3.3438 -0.8603 -0.2808
 3856SOL     OW23200   2.018   2.011   5.768 -0.3953  0.3390  0.0225
 3856SOL    HW123201   1.972   1.990   5.849  0.1052 -2.7148 -0.4681
 3856SOL    HW223202   2.037   1.924   5.733  0.6813  0.3105  0.6925
 3857SOL     OW23203   2.666   0.574   4.538 -0.2044  0.0699 -0.3681
 3857SOL    HW123204   2.730   0.599   4.604  0.0972  0.5377 -0.8391
 3857SOL    HW223205   2.662   0.479   4.551 -0.3870  0.4230  2.2165
 3858SOL     OW23206   0.896   0.343   3.550 -0.3826 -0.3035 -0.0447
 3858SOL    HW123207   0.932   0.277   3.610 -1.7060  0.3442  1.4499
 3858SOL    HW223208   0.834   0.288   3.501 -0.7688  1.2854 -1.3231
 3859SOL     OW23209   1.607   2.962  11.130  0.4770  0.1762  0.2455
 3859SOL    HW123210   1.559   2.880  11.115  1.3367 -0.5116  1.3195
 3859SOL    HW223211   1.668   2.963  11.056  1.6030 -0.3150  1.1793
 3860SOL     OW23212   2.857   3.804   7.577  0.1033 -0.1039 -0.2502
 3860SOL    HW123213   2.771   3.762   7.575 -0.0892  0.3607 -1.5098
 3860SOL    HW223214   2.890   3.784   7.665  1.2008 -3.3666 -1.4136
 3861SOL     OW23215   1.863   2.788   0.513 -0.0998  0.3827  0.2777
 3861SOL    HW123216   1.790   2.749   0.561  0.2987  0.7535  1.1701
 3861SOL    HW223217   1.898   2.839   0.586 -1.7288  2.4108 -0.3621
 3862SOL     OW23218   3.467   1.253   0.803  0.4701 -0.4204 -0.3507
 3862SOL    HW123219   3.523   1.184   0.838 -1.3592 -2.0847 -0.7290
 3862SOL    HW223220   3.491   1.326   0.861  3.9795 -0.8786 -1.2183
 3863SOL     OW23221   2.009   2.550   5.453 -0.2361  0.3092 -0.2439
 3863SOL    HW123222   1.920   2.563   5.420 -0.1460  0.0639 -0.5804
 3863SOL    HW223223   2.027   2.622   5.513 -1.7594 -0.7979  1.5380
 3864SOL     OW23224   4.667   4.039   6.722  0.0564 -0.4528  0.1080
 3864SOL    HW123225   4.677   3.956   6.768 -0.0279 -0.7286 -0.3662
 3864SOL    HW223226   4.663   4.012   6.630  0.0431 -1.8910  0.5399
 3865SOL     OW23227   1.870   2.630  13.571 -0.3714 -0.2493 -0.0505
 3865SOL    HW123228   1.849   2.559  13.509  2.4812  0.5863 -1.9385
 3865SOL    HW223229   1.944   2.599  13.623  0.6642  0.6602 -0.9748
 3866SOL     OW23230   1.744   1.759   3.657  0.5340 -0.0117  0.2287
 3866SOL    HW123231   1.654   1.729   3.666  0.4932  0.6690  2.0308
 3866SOL    HW223232   1.774   1.709   3.581 -0.2833  1.1515 -0.8540
 3867SOL     OW23233   4.005   1.476   7.087  0.5240  0.2872 -0.2096
 3867SOL    HW123234   3.971   1.565   7.074 -2.6889 -1.3052 -2.6788
 3867SOL    HW223235   4.098   1.499   7.088  0.8179 -0.8929 -1.8103
 3868SOL     OW23236   1.446   4.060   2.147 -0.6475 -0.1693 -0.6787
 3868SOL    HW123237   1.504   4.136   2.149 -2.7006  1.3748 -0.2286
 3868SOL    HW223238   1.493   4.004   2.086  1.3758  1.4466 -0.5952
 3869SOL     OW23239   3.686   1.716   9.390 -0.6677  0.2105 -0.4292
 3869SOL    HW123240   3.705   1.760   9.473  0.9203  1.6866 -1.5692
 3869SOL    HW223241   3.775   1.689   9.366 -0.7418 -0.8259  0.4611
 3870SOL     OW23242   3.317   0.616   4.908  0.0031  0.5752  0.2542
 3870SOL    HW123243   3.312   0.679   4.980 -0.8001 -0.0772  0.7737
 3870SOL    HW223244   3.403   0.640   4.874  0.4104  0.6670  1.3582
 3871SOL     OW23245   4.004   4.580  17.071  0.0206  0.3650  0.1559
 3871SOL    HW123246   4.043   4.574  16.983 -0.1635 -1.5561  0.1984
 3871SOL    HW223247   3.943   4.651  17.052  0.1501  0.4571  0.0812
 3872SOL     OW23248   0.451   2.869   4.892 -0.1888  0.0859  0.0171
 3872SOL    HW123249   0.439   2.780   4.926 -0.9924 -0.2271 -1.0802
 3872SOL    HW223250   0.507   2.914   4.954 -1.2002  0.6885  0.4924
 3873SOL     OW23251   2.524   3.044   0.191  0.0677  0.3661 -0.1315
 3873SOL    HW123252   2.516   2.992   0.271  2.2072 -0.2815 -0.3531
 3873SOL    HW223253   2.601   3.095   0.217 -0.8292  2.4806 -1.6469
 3874SOL     OW23254   1.360   2.504   7.023  0.0990  0.0032  0.1594
 3874SOL    HW123255   1.390   2.509   6.932  0.0882  1.5214  0.2266
 3874SOL    HW223256   1.289   2.568   7.030 -1.0130 -1.1970 -0.3643
 3875SOL     OW23257   4.449   3.433   7.028  0.0621  0.1730  0.0776
 3875SOL    HW123258   4.421   3.408   6.940  2.3776 -1.3179 -0.2643
 3875SOL    HW223259   4.376   3.480   7.066  2.6881  3.5597  0.9645
 3876SOL     OW23260   4.173   4.358   2.441 -0.3480 -0.2046  0.4033
 3876SOL    HW123261   4.086   4.389   2.468 -0.1294  1.4844 -0.7933
 3876SOL    HW223262   4.225   4.427   2.482  1.8311 -0.2778 -2.2052
 3877SOL     OW23263   3.861   0.309   0.347  0.7291 -0.0829 -0.3566
 3877SOL    HW123264   3.867   0.370   0.421  1.0057 -2.4289  1.5862
 3877SOL    HW223265   3.846   0.227   0.396  1.9247 -0.1867 -0.1512
 3878SOL     OW23266   2.930   1.884   4.613 -0.5885  0.2720  0.2280
 3878SOL    HW123267   2.914   1.948   4.544 -2.1492 -1.0817 -0.6589
 3878SOL    HW223268   3.002   1.927   4.660 -1.0563  0.0228  1.1659
 3879SOL     OW23269   3.353   4.130   5.124 -0.4072 -0.3020  0.3251
 3879SOL    HW123270   3.375   4.219   5.153 -0.5720 -0.5424  1.1753
 3879SOL    HW223271   3.260   4.142   5.104 -0.2487 -0.4661 -0.5307
 3880SOL     OW23272   3.662   3.323   5.659  0.3465 -0.0540  0.0770
 3880SOL    HW123273   3.735   3.323   5.721 -0.9859  1.3003  1.6548
 3880SOL    HW223274   3.675   3.235   5.623  1.7155  0.0265  0.3672
 3881SOL     OW23275   4.332   1.906  13.972 -0.0291 -0.4072  0.3656
 3881SOL    HW123276   4.301   1.846  14.040 -0.8329 -0.4637 -0.0499
 3881SOL    HW223277   4.252   1.954  13.951  0.6899  1.1768  1.2918
 3882SOL     OW23278   3.674   0.190   7.495 -0.1659 -0.7059 -0.5083
 3882SOL    HW123279   3.681   0.144   7.578  0.4644 -4.0859 -2.4688
 3882SOL    HW223280   3.694   0.282   7.514 -0.6002 -1.0855  1.8451
 3883SOL     OW23281   4.726   0.628   4.808 -0.4277 -0.4129 -0.2791
 3883SOL    HW123282   4.681   0.569   4.868  0.8313  1.5741  2.5868
 3883SOL    HW223283   4.724   0.578   4.726 -0.2411 -1.5938  0.4388
 3884SOL     OW23284   3.683   4.529  17.625 -0.1977 -0.1893 -0.3816
 3884SOL    HW123285   3.661   4.596  17.560 -0.1538 -0.2369 -0.4452
 3884SOL    HW223286   3.667   4.589  17.698 -3.1024 -1.7389  0.2300
 3885SOL     OW23287   3.197   4.602   8.501  0.0607  0.0629 -0.0033
 3885SOL    HW123288   3.240   4.582   8.584 -0.3536 -1.8914 -0.2615
 3885SOL    HW223289   3.195   4.698   8.498 -1.3583  0.0877  1.6806
 3886SOL     OW23290   1.953   2.004  15.321  0.2162 -0.0525 -0.5008
 3886SOL    HW123291   2.026   2.046  15.367  1.0669 -1.2479 -0.7729
 3886SOL    HW223292   1.937   2.080  15.264 -0.5795 -0.0687 -0.3034
 3887SOL     OW23293   2.368   3.863   7.894 -0.1987 -0.0545 -0.1903
 3887SOL    HW123294   2.331   3.951   7.891 -0.3618 -0.0730  1.3037
 3887SOL    HW223295   2.370   3.839   7.987 -2.3424 -1.8351 -0.6043
 3888SOL     OW23296   1.842   3.529   3.424 -0.8776  0.4373 -0.1365
 3888SOL    HW123297   1.909   3.553   3.360 -1.1995 -0.9726 -1.0016
 3888SOL    HW223298   1.853   3.599   3.488  1.5467 -0.0112 -0.0574
 3889SOL     OW23299   2.995   0.855   7.518 -0.0226  0.1639  0.0848
 3889SOL    HW123300   3.026   0.945   7.524  0.0263  0.0541  1.5162
 3889SOL    HW223301   2.953   0.839   7.602 -0.1881 -4.2665 -0.8027
 3890SOL     OW23302   2.969   3.758   7.819 -0.4118  0.0888 -0.7715
 3890SOL    HW123303   3.051   3.786   7.861 -1.6711  2.7225 -0.0182
 3890SOL    HW223304   2.906   3.796   7.881  1.3739 -0.4171  1.3765
 3891SOL     OW23305   1.866   4.573   3.224 -0.6745  0.5328  0.3818
 3891SOL    HW123306   1.794   4.586   3.162  0.0097 -0.2084 -0.5691
 3891SOL    HW223307   1.942   4.593   3.169 -1.9478  2.8477 -0.5387
 3892SOL     OW23308   3.515   2.958  13.695  0.1911 -0.3612  0.1913
 3892SOL    HW123309   3.437   2.978  13.745  0.8228 -3.1386  2.2659
 3892SOL    HW223310   3.565   3.022  13.745  0.5418 -0.9693  0.6266
 3893SOL     OW23311   2.608   1.546   3.963  0.6111 -0.0382 -0.4314
 3893SOL    HW123312   2.597   1.612   3.894  0.5276  0.5145  0.1090
 3893SOL    HW223313   2.524   1.573   4.000  1.2247 -1.1754  1.7619
 3894SOL     OW23314   3.020   1.511   5.295 -0.0769 -0.0499 -0.3513
 3894SOL    HW123315   3.066   1.486   5.215  1.6619 -0.9928  0.9169
 3894SOL    HW223316   3.063   1.452   5.358  1.7775 -0.8395 -2.3743
 3895SOL     OW23317   4.033   0.348   7.271  0.1578  0.5347 -0.3580
 3895SOL    HW123318   3.975   0.417   7.302 -1.9754 -1.4655  0.1274
 3895SOL    HW223319   3.973   0.274   7.263 -1.2033  1.8399 -2.1662
 3896SOL     OW23320   2.040   1.379   5.511  0.3677 -0.5128  0.0878
 3896SOL    HW123321   2.078   1.422   5.435 -1.1650 -0.9163 -0.8990
 3896SOL    HW223322   2.127   1.355   5.542  0.7085 -1.6275 -1.7406
 3897SOL     OW23323   1.889   3.942   8.103  0.2245  0.2166 -0.6502
 3897SOL    HW123324   1.869   4.023   8.056 -0.1164  0.7479  0.4074
 3897SOL    HW223325   1.947   3.970   8.173  0.0491  1.7578 -1.1164
 3898SOL     OW23326   2.997   1.652  15.194  0.4969  0.5447 -0.3605
 3898SOL    HW123327   2.937   1.726  15.203  0.4566  0.3253  1.0794
 3898SOL    HW223328   3.005   1.631  15.287  0.5592  1.6090 -0.1213
 3899SOL     OW23329   0.196   2.582  11.352  0.8285 -0.2322 -0.0134
 3899SOL    HW123330   0.193   2.657  11.411 -1.2074  0.3304 -0.8302
 3899SOL    HW223331   0.147   2.618  11.278  1.5730 -0.2650 -0.5108
 3900SOL     OW23332   1.618   0.162   7.918  0.0894  0.2312  0.4157
 3900SOL    HW123333   1.548   0.154   7.854 -1.2080 -0.2773  1.8808
 3900SOL    HW223334   1.694   0.161   7.861 -0.3683 -0.0779 -0.1828
 3901SOL     OW23335   1.225   2.140   6.933 -0.2226  0.1886  0.6491
 3901SOL    HW123336   1.197   2.138   6.841 -0.4356 -0.5778  0.7326
 3901SOL    HW223337   1.246   2.047   6.945 -0.0076 -0.1129 -1.9684
 3902SOL     OW23338   1.039   3.064   6.086 -0.7470 -0.3803 -0.4796
 3902SOL    HW123339   0.948   3.093   6.091 -0.7840 -0.5119 -0.3841
 3902SOL    HW223340   1.078   3.150   6.104 -1.5801  0.2466 -1.6663
 3903SOL     OW23341   3.805   0.213   8.351 -0.0732  0.0860 -0.1166
 3903SOL    HW123342   3.824   0.222   8.257  0.4725  1.5743  0.1428
 3903SOL    HW223343   3.842   0.288   8.397 -0.9558 -1.0337  2.4288
 3904SOL     OW23344   4.194   4.166  16.450 -0.0190  0.9849  0.8355
 3904SOL    HW123345   4.145   4.210  16.380  0.8956  3.3015  1.6411
 3904SOL    HW223346   4.128   4.146  16.516 -0.7645 -1.1829 -0.5685
 3905SOL     OW23347   4.647   2.598   1.990 -0.6256  0.2906  0.1861
 3905SOL    HW123348   4.646   2.531   2.059 -1.0819 -1.7041 -1.7363
 3905SOL    HW223349   4.728   2.571   1.946 -1.8810 -0.0740 -1.8840
 3906SOL     OW23350   0.312   3.341   5.978 -0.0685  0.1433 -0.6993
 3906SOL    HW123351   0.336   3.405   5.911  1.4870 -0.1675 -0.4418
 3906SOL    HW223352   0.334   3.402   6.049  0.2419  0.5619 -1.1535
 3907SOL     OW23353   3.756   3.395   8.451  0.1311  0.2120  0.1338
 3907SOL    HW123354   3.663   3.419   8.450  0.4174  1.3449  0.3515
 3907SOL    HW223355   3.755   3.343   8.370 -0.3654  2.1121 -1.0929
 3908SOL     OW23356   2.732   0.260   2.225  0.2645 -0.6272 -0.0207
 3908SOL    HW123357   2.657   0.201   2.229 -0.3554  0.2686  1.5092
 3908SOL    HW223358   2.693   0.343   2.198  2.4783  0.4965  0.2263
 3909SOL     OW23359   1.971   1.556   1.658  0.0029  0.3742  0.2592
 3909SOL    HW123360   1.976   1.504   1.578 -0.0848  0.9883 -0.1462
 3909SOL    HW223361   1.877   1.553   1.674 -0.2221  1.9557 -0.7093
 3910SOL     OW23362   2.357   3.340   4.127 -0.3971  1.4724 -0.1568
 3910SOL    HW123363   2.357   3.316   4.220  0.9637 -0.3116 -0.6053
 3910SOL    HW223364   2.436   3.390   4.107  1.3366 -0.5259  1.6320
 3911SOL     OW23365   2.286   1.015  11.220 -0.1545  0.5509  0.7246
 3911SOL    HW123366   2.277   0.959  11.297 -0.7086 -3.2696 -2.1237
 3911SOL    HW223367   2.378   1.035  11.200 -0.4472  0.6126 -0.5716
 3912SOL     OW23368   0.078   1.790   3.612  0.4002  0.1239  0.0739
 3912SOL    HW123369   0.123   1.706   3.601  2.6277  1.5809 -2.0167
 3912SOL    HW223370   4.726   1.771   3.578 -0.0985 -2.1436  2.6764
 3913SOL     OW23371   3.806   4.275   5.323  0.5214 -0.2722 -0.1927
 3913SOL    HW123372   3.769   4.186   5.321  0.1410 -0.0783 -1.3582
 3913SOL    HW223373   3.886   4.254   5.275  1.2388  1.4507  0.2346
 3914SOL     OW23374   0.373   1.639   9.923  0.2083 -0.1844 -0.5172
 3914SOL    HW123375   0.357   1.566   9.983 -0.1739 -0.5025 -1.0051
 3914SOL    HW223376   0.289   1.685   9.923  0.1728 -0.2504 -0.1633
 3915SOL     OW23377   0.624   0.582   2.832  0.2279  0.7491 -0.0135
 3915SOL    HW123378   0.659   0.670   2.818  0.2501  0.9004  0.9969
 3915SOL    HW223379   0.579   0.563   2.750  2.8525 -1.0302 -1.0615
 3916SOL     OW23380   1.395   2.150   4.556  0.0375  0.4395 -0.3737
 3916SOL    HW123381   1.348   2.075   4.593  1.7852 -1.1336 -1.4225
 3916SOL    HW223382   1.472   2.111   4.516 -0.1086 -2.7328  2.4819
 3917SOL     OW23383   1.400   3.826   1.947  0.0226  0.5175 -0.2665
 3917SOL    HW123384   1.479   3.864   1.908  0.2875  1.0975  0.8316
 3917SOL    HW223385   1.346   3.821   1.868  0.4478 -1.2857 -0.4457
 3918SOL     OW23386   2.855   1.289   3.675 -0.5069  0.1702  0.1957
 3918SOL    HW123387   2.843   1.362   3.615 -0.3789 -0.3885 -0.5041
 3918SOL    HW223388   2.950   1.296   3.686 -0.5076  0.0923  0.2522
 3919SOL     OW23389   3.332   0.033   2.411  0.3152  0.4692 -0.2095
 3919SOL    HW123390   3.288   4.684   2.399  2.0030 -0.1712 -1.9799
 3919SOL    HW223391   3.262   0.091   2.439  0.7235 -0.5384  2.9213
 3920SOL     OW23392   2.686   0.086   5.869 -0.3957  0.3508 -0.1467
 3920SOL    HW123393   2.723   0.129   5.792 -0.6807  1.0479  0.1051
 3920SOL    HW223394   2.637   0.157   5.910 -0.0942 -0.1129  1.0238
 3921SOL     OW23395   2.337   3.339   0.240  0.1076 -0.1860  0.2227
 3921SOL    HW123396   2.363   3.279   0.310  1.6396  0.7661  0.4803
 3921SOL    HW223397   2.282   3.396   0.293  0.9450 -0.6088  1.5594
 3922SOL     OW23398   4.638   2.659  12.145  0.6521 -0.0237 -1.1297
 3922SOL    HW123399   4.588   2.596  12.094 -0.0800 -1.0369  0.8389
 3922SOL    HW223400   4.594   2.645  12.229  1.4073  1.7645 -0.4347
 3923SOL     OW23401   0.595   0.300   8.547 -0.2092 -0.1107  0.3318
 3923SOL    HW123402   0.523   0.356   8.519 -0.5594 -1.6823 -1.8620
 3923SOL    HW223403   0.547   0.236   8.601 -0.4952 -2.8936 -3.2548
 3924SOL     OW23404   2.390   0.283   5.484 -0.1657 -0.0512  0.1956
 3924SOL    HW123405   2.400   0.325   5.399 -3.7471  0.6998  0.1447
 3924SOL    HW223406   2.297   0.281   5.506  0.0087  0.9134  1.0762
 3925SOL     OW23407   4.113   0.153   3.748  0.0326 -0.6784  0.0909
 3925SOL    HW123408   4.170   0.195   3.683 -1.3652 -0.9275 -1.2792
 3925SOL    HW223409   4.175   0.120   3.812  1.2878  0.1328 -0.6990
 3926SOL     OW23410   0.565   4.336  11.263  0.3284  0.2229 -0.0678
 3926SOL    HW123411   0.504   4.387  11.315  1.3292  0.8098  0.5391
 3926SOL    HW223412   0.508   4.301  11.195  4.2535 -2.4036 -2.0696
 3927SOL     OW23413   1.321   3.933  15.635  0.0565  0.0896  0.3272
 3927SOL    HW123414   1.230   3.913  15.658 -0.2075  1.9223  0.9254
 3927SOL    HW223415   1.333   4.008  15.694  3.4582  3.6126 -4.7968
 3928SOL     OW23416   1.926   0.616  12.326 -0.3112 -0.5518 -0.4846
 3928SOL    HW123417   1.914   0.657  12.241  0.3638 -0.4722 -0.5412
 3928SOL    HW223418   2.014   0.642  12.354  0.1635 -0.4488 -2.1201
 3929SOL     OW23419   0.897   1.273   9.936 -0.4663 -0.1871 -0.4546
 3929SOL    HW123420   0.831   1.240   9.996 -0.0817  1.3513  0.8185
 3929SOL    HW223421   0.959   1.260  10.008 -0.0388 -0.0607 -0.7970
 3930SOL     OW23422   0.965   4.518   6.288  0.0689  0.0215 -0.4099
 3930SOL    HW123423   0.996   4.432   6.317 -0.2964 -0.0312 -0.1820
 3930SOL    HW223424   0.898   4.550   6.347  1.0312  0.4671  0.4428
 3931SOL     OW23425   1.593   1.054   4.584 -0.5112 -0.2547  0.5165
 3931SOL    HW123426   1.644   1.132   4.562 -0.3264  0.6722  4.1891
 3931SOL    HW223427   1.662   0.990   4.603  2.3143  2.3575 -0.7918
 3932SOL     OW23428   3.251   0.362   2.173 -0.1152  0.5103 -0.3521
 3932SOL    HW123429   3.238   0.383   2.080 -1.5893 -2.7330 -0.8904
 3932SOL    HW223430   3.304   0.283   2.166 -1.4368 -0.4498  0.3787
 3933SOL     OW23431   4.145   4.495  12.302 -0.0378  0.6296  0.2107
 3933SOL    HW123432   4.069   4.464  12.352 -0.1155  0.0814 -0.2411
 3933SOL    HW223433   4.111   4.490  12.212  1.4328 -2.5569 -0.1824
 3934SOL     OW23434   2.337   4.003   4.820  0.1511 -0.8959 -0.7045
 3934SOL    HW123435   2.286   4.038   4.747 -0.5097  1.1552  0.7275
 3934SOL    HW223436   2.424   4.007   4.780 -1.3010 -0.5246 -3.8034
 3935SOL     OW23437   4.620   3.332   2.306  0.0405  0.0761 -0.2746
 3935SOL    HW123438   4.534   3.349   2.268 -0.1574 -0.7354 -0.2078
 3935SOL    HW223439   4.597   3.309   2.396  1.5126  1.1719  0.3844
 3936SOL     OW23440   1.106   1.066  12.118  0.1134  0.0151  0.4822
 3936SOL    HW123441   1.060   1.123  12.055  1.3682 -1.5670 -1.8587
 3936SOL    HW223442   1.047   0.992  12.131  1.2769 -1.3921 -2.1760
 3937SOL     OW23443   3.533   3.112   6.469 -0.0143 -0.6315  0.5440
 3937SOL    HW123444   3.585   3.080   6.543  0.7468 -1.7730 -0.4856
 3937SOL    HW223445   3.455   3.132   6.521 -0.9678 -1.6424 -0.5141
 3938SOL     OW23446   1.114   3.211   1.532 -0.0289  0.2678  0.0341
 3938SOL    HW123447   1.057   3.257   1.471 -3.6171 -1.0763  2.3723
 3938SOL    HW223448   1.065   3.241   1.609  0.1919  1.2278 -0.1979
 3939SOL     OW23449   1.916   0.602   5.594  0.4272 -0.3567 -0.1768
 3939SOL    HW123450   1.900   0.687   5.635 -1.3162 -0.8416  0.1301
 3939SOL    HW223451   1.927   0.546   5.671 -0.4822 -2.5785 -1.6435
 3940SOL     OW23452   2.099   4.423   6.566 -0.8128 -0.0522 -0.0685
 3940SOL    HW123453   2.165   4.463   6.509  0.3770  0.8732  1.9582
 3940SOL    HW223454   2.044   4.499   6.588  2.7289  2.5161 -0.1180
 3941SOL     OW23455   4.507   1.147  16.451 -0.1849  0.2788  0.3391
 3941SOL    HW123456   4.568   1.191  16.391  0.6873 -0.0030  1.0087
 3941SOL    HW223457   4.434   1.207  16.440 -0.2779  0.6181  2.7982
 3942SOL     OW23458   0.866   4.165   6.953  0.0515 -0.5169 -0.2833
 3942SOL    HW123459   0.832   4.254   6.963 -0.1110 -0.3815 -2.0614
 3942SOL    HW223460   0.959   4.179   6.933  0.0273 -1.5187 -1.0528
 3943SOL     OW23461   4.010   3.003   2.207  0.3988  0.3370 -0.6682
 3943SOL    HW123462   4.105   3.004   2.209  0.4535 -1.7087 -3.3357
 3943SOL    HW223463   3.985   3.026   2.118  0.3203 -0.2937 -0.8013
 3944SOL     OW23464   1.710   1.851  10.817  0.0877 -0.5819  0.3864
 3944SOL    HW123465   1.793   1.889  10.788 -1.6433  1.4596 -1.8746
 3944SOL    HW223466   1.680   1.825  10.731  0.5458  1.7618 -0.4988
 3945SOL     OW23467   1.212   4.631   8.860  0.0399  0.1796  0.0761
 3945SOL    HW123468   1.280   4.587   8.911  0.3562 -0.3276 -0.7742
 3945SOL    HW223469   1.177   4.553   8.818  0.7341  1.2781 -2.5501
 3946SOL     OW23470   1.380   4.348  17.322  0.1648  0.7099  0.0066
 3946SOL    HW123471   1.444   4.292  17.366  1.1439  1.0760 -0.9265
 3946SOL    HW223472   1.409   4.438  17.335  0.6014  0.5804 -0.0418
 3947SOL     OW23473   2.415   3.377   1.235 -0.1115  0.4057  0.7621
 3947SOL    HW123474   2.467   3.393   1.157 -0.9531  1.3015  0.3964
 3947SOL    HW223475   2.378   3.297   1.197  1.6945 -0.4406  0.7680
 3948SOL     OW23476   2.303   0.379   6.515 -0.4450  0.7522 -0.5731
 3948SOL    HW123477   2.280   0.331   6.595  1.2819 -1.5507 -1.4545
 3948SOL    HW223478   2.313   0.303   6.458 -3.2316 -0.1894  0.1849
 3949SOL     OW23479   3.379   1.614   7.274  0.0077 -0.4424  0.2918
 3949SOL    HW123480   3.438   1.689   7.278 -1.1572  0.5350 -0.6938
 3949SOL    HW223481   3.304   1.652   7.228  2.4826  1.8360 -1.8198
 3950SOL     OW23482   2.327   3.994   8.806  0.3802  0.1627  0.3688
 3950SOL    HW123483   2.255   4.020   8.864 -0.0758 -0.3224  0.0279
 3950SOL    HW223484   2.364   3.925   8.861 -0.3463 -1.3325 -1.0058
 3951SOL     OW23485   4.390   3.998  14.217 -0.5931  0.2428 -0.0106
 3951SOL    HW123486   4.296   3.983  14.209 -0.8148  1.1305  0.8334
 3951SOL    HW223487   4.429   3.981  14.131  0.6665  1.9905  0.2035
 3952SOL     OW23488   3.939   0.137   7.818  0.7701 -0.8187 -0.1217
 3952SOL    HW123489   3.980   0.187   7.748  3.2085 -0.4691  1.5648
 3952SOL    HW223490   3.964   0.046   7.799 -3.9141 -1.4877 -3.0486
 3953SOL     OW23491   4.459   1.671   8.592  0.0989 -0.3262 -0.4166
 3953SOL    HW123492   4.549   1.638   8.599 -0.3476 -1.3779  0.2994
 3953SOL    HW223493   4.437   1.709   8.677 -2.1527  0.4011 -1.3066
 3954SOL     OW23494   0.326   3.751  10.048  0.8427  0.5575 -0.2960
 3954SOL    HW123495   0.301   3.664  10.016 -0.2259 -0.2062  2.6295
 3954SOL    HW223496   0.332   3.740  10.142  0.6409 -2.3519 -0.6104
 3955SOL     OW23497   3.083   1.473   4.606 -0.4586  0.0958  0.2381
 3955SOL    HW123498   3.018   1.534   4.641  1.3606  0.8600  2.3156
 3955SOL    HW223499   3.083   1.415   4.683 -1.6342 -2.7241 -1.8850
 3956SOL     OW23500   2.270   1.962  16.808  0.3005  0.1427 -0.2302
 3956SOL    HW123501   2.320   1.982  16.729 -0.1883  2.5851  0.0709
 3956SOL    HW223502   2.250   1.873  16.780 -0.2388  0.2837 -0.2862
 3957SOL     OW23503   4.634   3.592   2.037  0.0977 -0.5754  0.3119
 3957SOL    HW123504   4.668   3.603   2.126 -0.5322  3.0706  0.1170
 3957SOL    HW223505   4.573   3.665   2.028  3.0619  1.6352 -1.6535
 3958SOL     OW23506   3.239   0.766   5.500  0.5793 -0.1627  0.2224
 3958SOL    HW123507   3.173   0.699   5.481 -0.4704  0.6272  1.0895
 3958SOL    HW223508   3.306   0.717   5.549  3.8961  4.9651  0.7745
 3959SOL     OW23509   2.033   4.527  16.702 -0.2054 -0.0337 -0.8167
 3959SOL    HW123510   2.060   4.619  16.697 -0.6159  0.1780  0.5775
 3959SOL    HW223511   2.035   4.523  16.798  1.6353 -0.5077 -0.8748
 3960SOL     OW23512   1.615   4.257  10.461 -1.0164 -0.0730  0.1769
 3960SOL    HW123513   1.663   4.258  10.378 -0.1789 -4.0859  0.5679
 3960SOL    HW223514   1.585   4.166  10.457 -2.1525  0.3326 -0.5888
 3961SOL     OW23515   1.183   0.709   0.584  0.1079 -0.4515 -0.3142
 3961SOL    HW123516   1.234   0.763   0.645  1.7299 -2.1951 -0.1377
 3961SOL    HW223517   1.178   0.628   0.635  1.2766  0.5654  1.4356
 3962SOL     OW23518   2.261   4.455   7.853  0.3981 -0.0729  0.0460
 3962SOL    HW123519   2.189   4.392   7.854 -0.1409  0.5148 -2.1701
 3962SOL    HW223520   2.235   4.502   7.774 -0.3303  1.9302  1.4871
 3963SOL     OW23521   3.331   0.428   0.599 -0.1016 -0.2268 -0.0460
 3963SOL    HW123522   3.263   0.361   0.612 -1.5152  1.1945 -0.1801
 3963SOL    HW223523   3.339   0.425   0.504  0.9071 -1.8666  0.0749
 3964SOL     OW23524   1.069   0.608   9.501 -0.0778  0.0871 -0.0434
 3964SOL    HW123525   0.998   0.597   9.437 -0.5940 -1.6372  0.8295
 3964SOL    HW223526   1.033   0.553   9.570 -1.4414  0.3581 -0.5504
 3965SOL     OW23527   1.517   0.435  10.317  0.0691 -0.8091  0.4076
 3965SOL    HW123528   1.600   0.405  10.279  1.0343  0.3897  1.5485
 3965SOL    HW223529   1.454   0.429  10.245  2.6659  1.0685 -2.0012
 3966SOL     OW23530   1.397   0.427  17.256  0.2528  0.6447  0.5079
 3966SOL    HW123531   1.416   0.513  17.294  1.1090  0.5884  0.1955
 3966SOL    HW223532   1.327   0.455  17.196  1.2628  1.1026 -0.4607
 3967SOL     OW23533   4.711   2.202   2.990  0.2309  0.6453 -0.5272
 3967SOL    HW123534   4.655   2.160   3.055  0.7235 -2.3993 -2.0832
 3967SOL    HW223535   0.058   2.222   3.033 -0.9093  2.6679  0.7121
 3968SOL     OW23536   4.519   2.872   5.390  0.8260 -0.1886 -0.1981
 3968SOL    HW123537   4.602   2.916   5.375  0.4757  0.7475  0.5992
 3968SOL    HW223538   4.514   2.835   5.302  2.7722  0.1040 -0.4219
 3969SOL     OW23539   2.477   3.828   8.949 -0.0579 -0.1674 -0.4428
 3969SOL    HW123540   2.563   3.856   8.917  0.7505 -0.5106  1.3844
 3969SOL    HW223541   2.499   3.796   9.037  4.7010 -0.2601 -1.6843
 3970SOL     OW23542   3.883   0.011   6.324 -0.6031  0.7157  0.1133
 3970SOL    HW123543   3.880   4.657   6.292 -0.2538  0.8299 -0.2353
 3970SOL    HW223544   3.890   0.071   6.250 -0.1697  1.3554  0.6622
 3971SOL     OW23545   1.441   0.667   3.100 -0.0195 -0.4667 -0.6723
 3971SOL    HW123546   1.395   0.724   3.162 -0.2390  0.4260 -1.6604
 3971SOL    HW223547   1.402   0.586   3.133 -2.3710  1.5000  1.3870
 3972SOL     OW23548   0.365   0.101   8.398 -0.1945 -0.0666  0.4648
 3972SOL    HW123549   0.374   0.196   8.395 -0.4647  0.0104  2.2622
 3972SOL    HW223550   0.381   0.088   8.304 -0.0130 -1.2275  0.6586
 3973SOL     OW23551   0.035   3.873  11.851  0.8048 -0.5154  0.1679
 3973SOL    HW123552   0.008   3.821  11.927 -0.8266 -1.7818 -1.2823
 3973SOL    HW223553   0.130   3.869  11.858  0.7281  1.8955  2.5937
 3974SOL     OW23554   0.286   2.170   0.040 -0.6159 -0.1122  0.2729
 3974SOL    HW123555   0.236   2.251   0.049  0.8705  0.9799 -1.5309
 3974SOL    HW223556   0.246   2.129  17.705 -0.1765 -0.0358  0.0046
 3975SOL     OW23557   4.567   4.259  11.900  0.0685  0.3899 -0.0097
 3975SOL    HW123558   4.533   4.315  11.830 -1.2854  1.8270  1.8242
 3975SOL    HW223559   4.531   4.179  11.863 -0.9887  0.7398  0.2664
 3976SOL     OW23560   0.684   2.095   3.295  0.4928 -0.5418  0.2941
 3976SOL    HW123561   0.672   2.185   3.324  0.9295 -0.5886  0.6074
 3976SOL    HW223562   0.768   2.096   3.251  0.7570  1.9514  0.9079
 3977SOL     OW23563   3.011   1.389   0.273  0.1926  0.5023  0.6242
 3977SOL    HW123564   3.009   1.413   0.180  0.5185 -0.2238  0.4343
 3977SOL    HW223565   3.038   1.297   0.272  2.1925  1.1412 -1.6117
 3978SOL     OW23566   2.656   3.480   3.422 -0.0961  0.2691 -0.0329
 3978SOL    HW123567   2.565   3.451   3.427 -0.8720  2.7684  0.4692
 3978SOL    HW223568   2.683   3.405   3.370 -1.0897 -1.0098  1.2929
 3979SOL     OW23569   0.043   3.122   6.667  0.1044 -0.4572  0.0830
 3979SOL    HW123570   0.057   3.027   6.674 -2.3902 -0.7107  1.4452
 3979SOL    HW223571   0.055   3.122   6.572  1.3329 -1.8014  0.2324
 3980SOL     OW23572   0.036   1.622   6.932  0.3784  0.0221  0.1768
 3980SOL    HW123573   0.066   1.707   6.964  2.2494 -1.2234  1.7651
 3980SOL    HW223574   0.086   1.573   6.998 -0.0262 -0.6723 -0.0278
 3981SOL     OW23575   0.471   2.533  11.368  0.3548 -0.1151 -0.1910
 3981SOL    HW123576   0.516   2.617  11.366  0.8116 -0.3742 -0.7321
 3981SOL    HW223577   0.382   2.557  11.345  0.9303 -0.6187 -3.0091
 3982SOL     OW23578   3.743   1.729  15.199  0.5203  0.7829  0.2150
 3982SOL    HW123579   3.691   1.651  15.179  0.1754  0.8729  0.7565
 3982SOL    HW223580   3.790   1.748  15.118 -0.7068  2.2160 -0.1617
 3983SOL     OW23581   0.132   2.550   1.867 -0.8479 -0.0116  0.1960
 3983SOL    HW123582   0.199   2.607   1.904 -0.0604 -0.2524 -0.8500
 3983SOL    HW223583   0.148   2.583   1.779  0.1088  1.1066  0.7959
 3984SOL     OW23584   0.890   0.518   6.014  0.3231  0.4061  0.1347
 3984SOL    HW123585   0.810   0.564   6.037 -0.3784 -0.7973  0.0802
 3984SOL    HW223586   0.872   0.443   6.070 -0.9302  0.1342 -0.6349
 3985SOL     OW23587   2.255   0.487   8.219  0.0834  0.7491 -0.1605
 3985SOL    HW123588   2.299   0.404   8.236 -1.6254 -0.5672 -2.0753
 3985SOL    HW223589   2.183   0.474   8.280 -1.4437  0.9925 -1.9179
 3986SOL     OW23590   3.223   0.218  13.267  0.1131 -0.3336  0.1191
 3986SOL    HW123591   3.168   0.238  13.343 -0.7547  2.6354 -1.2773
 3986SOL    HW223592   3.268   0.301  13.250 -0.5359  0.3195  1.5781
 3987SOL     OW23593   3.620   1.751  13.366  0.0132  0.0559 -0.2532
 3987SOL    HW123594   3.682   1.772  13.436 -0.5659 -0.6672  0.4786
 3987SOL    HW223595   3.634   1.656  13.367 -1.3549 -0.1522 -0.2596
 3988SOL     OW23596   3.893   1.364  15.718 -0.0464 -0.2132 -0.7611
 3988SOL    HW123597   3.981   1.334  15.696  0.0055  0.3301 -1.2946
 3988SOL    HW223598   3.848   1.308  15.655 -1.5517 -0.2161  0.3246
 3989SOL     OW23599   2.124   1.561   5.827 -0.0135 -0.1959  0.6581
 3989SOL    HW123600   2.146   1.477   5.866 -1.0422  0.0838  1.8345
 3989SOL    HW223601   2.032   1.540   5.813  0.3507  0.7255 -3.1793
 3990SOL     OW23602   4.462   0.990   2.166  0.1895 -0.1106  0.2418
 3990SOL    HW123603   4.500   0.934   2.234 -1.5869 -1.0749  0.4292
 3990SOL    HW223604   4.402   1.034   2.226  0.7874  0.3585  0.5081
 3991SOL     OW23605   1.036   4.348   8.837  1.0521 -0.4079  0.1145
 3991SOL    HW123606   0.951   4.306   8.820  0.5042  0.0003  1.8513
 3991SOL    HW223607   1.026   4.377   8.928  2.8632  2.1123 -0.4896
 3992SOL     OW23608   3.078   2.360  16.093 -0.2232  0.1874  0.1766
 3992SOL    HW123609   3.046   2.282  16.139 -0.0043  0.0163  0.0404
 3992SOL    HW223610   3.172   2.353  16.107 -0.3457  0.2207  1.0318
 3993SOL     OW23611   3.803   0.595   1.525 -0.0458  0.0445 -0.3659
 3993SOL    HW123612   3.846   0.643   1.454  2.0318 -0.0135  0.8566
 3993SOL    HW223613   3.728   0.557   1.480  0.0622 -1.6545  0.8693
 3994SOL     OW23614   0.716   3.084   4.363  0.0026 -0.3285  0.0044
 3994SOL    HW123615   0.763   3.046   4.438  1.2342  0.4217 -0.3914
 3994SOL    HW223616   0.624   3.074   4.389  0.4213  0.4485  1.8362
 3995SOL     OW23617   2.473   4.188  14.552  0.2635  0.3506  0.3567
 3995SOL    HW123618   2.556   4.209  14.595  0.8909  0.7247 -1.0301
 3995SOL    HW223619   2.493   4.175  14.459  0.0221  0.1388  0.3332
 3996SOL     OW23620   2.097   1.089  11.499  0.2217  0.1411  0.3146
 3996SOL    HW123621   2.010   1.124  11.479  0.4613  0.5586 -0.0042
 3996SOL    HW223622   2.088   1.085  11.594 -2.6682  2.0329  0.1339
 3997SOL     OW23623   2.184   2.380  14.101  0.3163 -0.6739  0.0481
 3997SOL    HW123624   2.173   2.463  14.146  0.6643 -1.1911  1.0913
 3997SOL    HW223625   2.091   2.356  14.100 -0.3348  1.8586  2.4935
 3998SOL     OW23626   1.512   3.621  15.805 -0.5943  0.0673  0.0119
 3998SOL    HW123627   1.514   3.673  15.885 -0.4021  0.0289  0.0319
 3998SOL    HW223628   1.514   3.683  15.732  1.3089 -3.0585 -2.6080
 3999SOL     OW23629   2.142   0.882   6.772  0.1529  0.6636 -0.4352
 3999SOL    HW123630   2.149   0.879   6.868 -0.0750 -1.9179 -0.5069
 3999SOL    HW223631   2.056   0.841   6.762  0.3457  0.2094 -0.2066
 4000SOL     OW23632   3.378   1.991   9.418 -0.0922 -0.1347 -0.4062
 4000SOL    HW123633   3.323   2.069   9.411  1.3221  0.9003 -0.0452
 4000SOL    HW223634   3.464   2.027   9.398  0.3030 -1.3872 -0.9681
 4001SOL     OW23635   2.508   4.238  13.367  0.1297 -0.4890  0.3499
 4001SOL    HW123636   2.460   4.159  13.343  0.6402 -1.2497  1.8152
 4001SOL    HW223637   2.475   4.292  13.295 -0.8719 -1.1200  0.3318
 4002SOL     OW23638   1.188   3.589   2.357 -0.0572  0.0035 -0.2956
 4002SOL    HW123639   1.197   3.636   2.274  1.9984  0.4081  0.1365
 4002SOL    HW223640   1.165   3.500   2.331 -0.1123 -1.0436  3.2885
 4003SOL     OW23641   1.058   4.691  12.738  0.5910  0.5249  0.0825
 4003SOL    HW123642   0.991   4.650  12.683 -0.1742  1.6366  0.1806
 4003SOL    HW223643   1.133   4.633  12.724  0.1180  0.2080 -1.1045
 4004SOL     OW23644   3.355   1.093   9.673  0.6798 -0.0995 -0.0631
 4004SOL    HW123645   3.263   1.066   9.681  0.7866 -1.1231 -2.2763
 4004SOL    HW223646   3.339   1.143   9.593 -2.3530 -1.0035 -0.0539
 4005SOL     OW23647   0.333   4.306  15.175 -0.4355  0.2886 -0.0650
 4005SOL    HW123648   0.298   4.287  15.088  0.1525  3.0385 -0.8847
 4005SOL    HW223649   0.403   4.241  15.184 -1.7867 -1.0815  0.5980
 4006SOL     OW23650   4.464   0.326   3.325 -0.1356  0.0918 -0.1471
 4006SOL    HW123651   4.508   0.242   3.340  1.1945  0.0349 -4.5658
 4006SOL    HW223652   4.538   0.378   3.359 -0.5814  1.0897 -0.7059
 4007SOL     OW23653   0.257   0.938   3.516  0.1350  0.0699  0.2206
 4007SOL    HW123654   0.251   1.002   3.587  3.0849  0.9393 -0.2963
 4007SOL    HW223655   0.202   0.976   3.448 -0.3148  0.5241  0.8331
 4008SOL     OW23656   3.761   2.369   2.808 -0.1499 -0.5288 -0.2343
 4008SOL    HW123657   3.830   2.424   2.771  0.7604 -1.2036  0.4317
 4008SOL    HW223658   3.733   2.404   2.893  2.4521  0.8623  0.0367
 4009SOL     OW23659   3.281   0.365  14.626  0.0270 -0.2739  0.1481
 4009SOL    HW123660   3.312   0.320  14.547 -3.8348  2.7732 -3.0783
 4009SOL    HW223661   3.188   0.354  14.606  0.5505 -2.2140 -1.2370
 4010SOL     OW23662   2.704   2.169  12.362 -0.1780  0.3504 -0.2850
 4010SOL    HW123663   2.609   2.179  12.357 -0.3876 -0.4835  1.7804
 4010SOL    HW223664   2.721   2.259  12.391 -0.7654  0.2269  0.4679
 4011SOL     OW23665   0.084   1.264  13.361  0.2488  0.2533  0.2523
 4011SOL    HW123666   4.725   1.268  13.377  0.3869  0.8416  0.8880
 4011SOL    HW223667   0.102   1.357  13.347 -2.1499  0.3339 -2.4296
 4012SOL     OW23668   1.505   3.805   2.564 -0.4188 -0.2142  0.1218
 4012SOL    HW123669   1.481   3.741   2.496  0.0042 -1.8277  1.4896
 4012SOL    HW223670   1.500   3.753   2.644 -0.5239 -1.3504 -0.6127
 4013SOL     OW23671   0.877   1.753   3.234  0.6361  0.1306 -0.4886
 4013SOL    HW123672   0.800   1.794   3.195 -0.7225 -0.3813  1.6551
 4013SOL    HW223673   0.942   1.766   3.165  1.2598  1.1148  0.2645
 4014SOL     OW23674   2.971   4.199   6.977  0.0605 -0.3132  0.3328
 4014SOL    HW123675   2.930   4.113   6.963 -2.9958  1.1478  0.2226
 4014SOL    HW223676   3.064   4.181   6.964 -0.2183  1.7732 -4.5390
 4015SOL     OW23677   2.271   1.623   6.322  0.6090  0.3352 -0.5142
 4015SOL    HW123678   2.300   1.554   6.381  2.8834  0.1896 -1.7896
 4015SOL    HW223679   2.209   1.575   6.267 -0.0775 -1.2640  1.6580
 4016SOL     OW23680   2.745   2.790  12.606 -0.4001 -0.0292 -0.9583
 4016SOL    HW123681   2.832   2.753  12.618 -0.2455  0.1817 -1.4197
 4016SOL    HW223682   2.687   2.717  12.625 -2.2473  1.2598 -1.5690
 4017SOL     OW23683   2.912   4.638   7.091 -0.0675 -0.4803 -0.1626
 4017SOL    HW123684   2.913   4.719   7.142 -1.4550 -0.4967 -0.1061
 4017SOL    HW223685   2.860   4.585   7.151 -0.2809 -1.4540 -1.2044
 4018SOL     OW23686   1.153   4.258   6.154 -0.8268 -0.1371 -0.5244
 4018SOL    HW123687   1.106   4.338   6.177  0.7888  0.9056 -0.8337
 4018SOL    HW223688   1.233   4.297   6.118 -0.0423  0.9563  2.3991
 4019SOL     OW23689   4.199   0.270   8.461  0.7268  0.4649  0.2058
 4019SOL    HW123690   4.179   0.180   8.485 -0.3674  1.1705  2.0167
 4019SOL    HW223691   4.239   0.307   8.540  0.5957  2.0030 -0.4448
 4020SOL     OW23692   1.480   2.756   6.634 -0.1858 -0.2794 -0.2999
 4020SOL    HW123693   1.457   2.773   6.725 -1.4955 -1.0263 -0.4972
 4020SOL    HW223694   1.439   2.673   6.610  0.9263 -1.2118  0.9889
 4021SOL     OW23695   2.307   1.530   3.800  0.0207  0.0610 -0.5670
 4021SOL    HW123696   2.368   1.588   3.755  0.5479  0.0888  0.1715
 4021SOL    HW223697   2.313   1.563   3.890 -3.3783  0.2993 -0.4312
 4022SOL     OW23698   3.213   1.980   4.784 -0.6774 -0.9779  0.3596
 4022SOL    HW123699   3.271   2.040   4.833 -1.8401  1.1967 -0.9232
 4022SOL    HW223700   3.152   2.047   4.753  1.0898  1.7438  2.6264
 4023SOL     OW23701   3.842   2.083   2.179 -0.6972 -0.1672  0.3024
 4023SOL    HW123702   3.850   2.160   2.235 -0.4729  1.8975 -2.5228
 4023SOL    HW223703   3.933   2.055   2.165 -0.1609  1.1253  1.1808
 4024SOL     OW23704   3.128   1.597   9.150  0.2904  0.7185  0.2696
 4024SOL    HW123705   3.126   1.682   9.194 -0.7244  1.5155 -1.3420
 4024SOL    HW223706   3.140   1.623   9.059  1.8794  1.1018  0.5826
 4025SOL     OW23707   0.095   0.244   7.729 -0.2220 -0.3968  0.3714
 4025SOL    HW123708   0.045   0.223   7.650  0.6092 -0.8125 -0.0485
 4025SOL    HW223709   0.086   0.160   7.775  2.0885  1.6722  4.5855
 4026SOL     OW23710   0.888   2.275   3.648  0.0324 -0.2239 -0.2604
 4026SOL    HW123711   0.937   2.287   3.567  0.0503 -1.5784 -0.4471
 4026SOL    HW223712   0.832   2.201   3.626  1.0330 -1.2807  0.7621
 4027SOL     OW23713   1.030   0.942   7.596 -0.3961  0.5545 -0.1282
 4027SOL    HW123714   1.121   0.935   7.567 -0.2640  1.0470  0.1657
 4027SOL    HW223715   1.003   0.851   7.608 -0.1256  0.1751 -2.2918
 4028SOL     OW23716   2.936   3.616  12.798  0.2796 -0.9718 -0.2046
 4028SOL    HW123717   2.853   3.660  12.817  0.9938  0.1152  0.3662
 4028SOL    HW223718   2.999   3.646  12.863 -0.6695 -0.8402  0.6724
 4029SOL     OW23719   2.730   4.637   4.415 -0.2632 -0.2682 -0.2424
 4029SOL    HW123720   2.686   4.643   4.330 -1.5288 -0.5429  0.3988
 4029SOL    HW223721   2.705   4.718   4.458  0.4639 -1.0547  1.6652
 4030SOL     OW23722   1.161   2.452   1.588  0.0990  0.1917 -0.2651
 4030SOL    HW123723   1.175   2.528   1.645  0.5681 -0.2164  0.1635
 4030SOL    HW223724   1.074   2.478   1.559 -0.3426 -0.3534  0.5529
 4031SOL     OW23725   3.571   3.578  16.534 -0.5030  0.0064 -0.3591
 4031SOL    HW123726   3.558   3.522  16.458 -0.8454 -2.3121  1.4110
 4031SOL    HW223727   3.665   3.594  16.526 -0.3778  0.3409  1.8480
 4032SOL     OW23728   1.870   0.097   3.356  0.2055  0.1245 -0.0932
 4032SOL    HW123729   1.866   0.008   3.322  2.1997 -0.0299  0.0443
 4032SOL    HW223730   1.889   0.149   3.278  1.7848  0.3736  0.4469
 4033SOL     OW23731   3.004   1.775   7.354 -0.2679  0.6225  0.5305
 4033SOL    HW123732   2.999   1.846   7.290  2.0821 -0.8893 -1.2890
 4033SOL    HW223733   2.921   1.736   7.330 -0.2335  0.7426  0.2143
 4034SOL     OW23734   0.831   0.708  15.545  0.0709  0.4244 -0.2307
 4034SOL    HW123735   0.850   0.671  15.631 -1.8720  0.5528  0.2633
 4034SOL    HW223736   0.916   0.725  15.505 -0.3635 -0.7940 -1.6668
 4035SOL     OW23737   2.743   3.532   7.819 -0.2244  0.0085 -0.2873
 4035SOL    HW123738   2.669   3.562   7.767 -0.2251 -2.1819 -1.5713
 4035SOL    HW223739   2.766   3.610   7.869  0.2205 -0.6410  0.5257
 4036SOL     OW23740   3.757   4.318   3.785  0.1190  0.2008 -0.4859
 4036SOL    HW123741   3.720   4.247   3.838  3.3163 -1.8443 -0.9518
 4036SOL    HW223742   3.704   4.390   3.818 -0.2947 -2.3806  4.4672
 4037SOL     OW23743   2.924   0.299   5.750 -0.4492  0.0781  0.0987
 4037SOL    HW123744   2.830   0.311   5.734 -0.6435  1.0464  1.9352
 4037SOL    HW223745   2.961   0.318   5.664  1.2605 -1.5450  0.4687
 4038SOL     OW23746   1.976   1.072   8.278 -0.2565  0.2015  0.1106
 4038SOL    HW123747   2.069   1.092   8.285 -0.0037 -0.8823 -0.1364
 4038SOL    HW223748   1.970   1.017   8.200  0.0478 -0.1165  0.3105
 4039SOL     OW23749   0.755   1.870  13.697 -0.2747 -0.1477  0.2335
 4039SOL    HW123750   0.816   1.901  13.631  0.2983  1.1655  1.3905
 4039SOL    HW223751   0.711   1.951  13.723 -4.0247 -1.8927 -0.6913
 4040SOL     OW23752   1.742   1.197  12.926 -0.2125 -0.0227  0.3113
 4040SOL    HW123753   1.797   1.126  12.959 -0.1482  0.4482  1.2216
 4040SOL    HW223754   1.814   1.228  12.872 -1.0301 -0.7491 -1.2119
 4041SOL     OW23755   3.880   2.779   7.067 -0.2861  0.3546 -0.5287
 4041SOL    HW123756   3.943   2.713   7.040  0.0978  1.0541 -1.3376
 4041SOL    HW223757   3.810   2.772   7.002 -0.5757  2.5803 -0.4660
 4042SOL     OW23758   4.481   0.106   7.062 -0.8494 -0.3298  0.1148
 4042SOL    HW123759   4.405   0.066   7.105 -0.1694 -0.1815  1.4515
 4042SOL    HW223760   4.530   0.025   7.060  1.1665  0.9263 -1.1626
 4043SOL     OW23761   0.225   3.952   8.390 -0.1825  0.2348 -0.4255
 4043SOL    HW123762   0.261   4.041   8.395  1.4901 -0.4564 -0.1547
 4043SOL    HW223763   0.192   3.936   8.478  0.5834  0.6685 -0.0594
 4044SOL     OW23764   4.476   1.625   1.414 -0.3974 -0.0881  0.4874
 4044SOL    HW123765   4.465   1.582   1.330 -2.3845  1.9027 -0.2741
 4044SOL    HW223766   4.567   1.607   1.436 -0.0869  1.9787  0.8963
 4045SOL     OW23767   3.149   0.422   9.977  0.2022  0.0002  0.4653
 4045SOL    HW123768   3.107   0.508   9.982  0.6872  0.2487  0.2386
 4045SOL    HW223769   3.234   0.449   9.943  0.8336 -2.5771 -0.0001
 4046SOL     OW23770   0.967   3.429   6.149 -0.0368  0.0551  0.3313
 4046SOL    HW123771   1.041   3.385   6.107 -1.3268 -0.3286 -1.5446
 4046SOL    HW223772   0.944   3.360   6.212  1.4357 -1.8321 -1.2045
 4047SOL     OW23773   3.713   3.667   1.308 -0.1995 -0.3543 -0.4425
 4047SOL    HW123774   3.672   3.693   1.390  0.4737  0.1200 -0.2565
 4047SOL    HW223775   3.750   3.749   1.274 -0.8899 -0.0628 -0.4871
 4048SOL     OW23776   0.604   0.297   2.261  0.2074 -0.0452 -0.9040
 4048SOL    HW123777   0.605   0.288   2.166 -0.3665 -0.7798 -0.8401
 4048SOL    HW223778   0.512   0.283   2.286  0.0976 -0.1885 -1.3948
 4049SOL     OW23779   4.528   2.901   5.739  0.2151  0.2388 -0.0060
 4049SOL    HW123780   4.582   2.971   5.777 -0.2086  0.1300  0.7947
 4049SOL    HW223781   4.584   2.874   5.667  0.6007  0.9200  0.0363
 4050SOL     OW23782   0.551   4.463   2.174 -0.0928 -0.3985 -1.1921
 4050SOL    HW123783   0.492   4.536   2.155 -0.3634 -0.3049 -0.0218
 4050SOL    HW223784   0.481   4.398   2.182 -0.7196  0.3550 -0.4827
 4051SOL     OW23785   2.736   3.218   7.454  0.4429  0.1515  0.3797
 4051SOL    HW123786   2.690   3.238   7.535  4.1811  1.1166  2.2704
 4051SOL    HW223787   2.672   3.233   7.384  0.8376  1.4277  0.2843
 4052SOL     OW23788   1.072   1.925   4.319  0.9278  0.1311 -0.9470
 4052SOL    HW123789   1.104   2.013   4.296  1.2113  0.0791 -0.7562
 4052SOL    HW223790   1.000   1.941   4.379  0.4091  0.5002 -1.6581
 4053SOL     OW23791   0.359   0.936   8.977 -0.5647 -0.5602  0.7123
 4053SOL    HW123792   0.365   0.910   9.069  1.2916 -2.5218  0.0314
 4053SOL    HW223793   0.370   0.852   8.934 -1.7753 -0.1792 -0.3406
 4054SOL     OW23794   2.563   1.701   6.697  0.3359 -0.1539  0.3608
 4054SOL    HW123795   2.480   1.682   6.653  0.5432  0.0515 -0.1230
 4054SOL    HW223796   2.618   1.626   6.672  0.7029 -0.8415  3.2692
 4055SOL     OW23797   3.004   3.338   9.839 -0.0923  0.0270  0.0792
 4055SOL    HW123798   3.073   3.330   9.906 -0.3079 -1.1179  0.1670
 4055SOL    HW223799   2.990   3.432   9.842  1.3676  0.3005 -1.9765
 4056SOL     OW23800   3.450   1.469   8.980  0.8641  0.0511  0.3316
 4056SOL    HW123801   3.382   1.525   8.941 -0.0074  0.4062  2.4010
 4056SOL    HW223802   3.511   1.533   9.018  0.3131  0.6479  0.2052
 4057SOL     OW23803   2.001   0.991   2.315 -0.1660 -0.1596  0.6142
 4057SOL    HW123804   2.074   0.974   2.256 -0.1368 -0.5517  0.7683
 4057SOL    HW223805   1.925   0.960   2.266  0.7493 -1.2447 -0.1285
 4058SOL     OW23806   1.616   4.210  17.370 -0.0467 -0.4007  0.1100
 4058SOL    HW123807   1.645   4.239  17.457  0.4699 -2.0522  0.4816
 4058SOL    HW223808   1.565   4.133  17.392  0.1383  0.0863  2.3242
 4059SOL     OW23809   0.874   1.923   6.221  0.5672 -0.4124 -0.4932
 4059SOL    HW123810   0.787   1.962   6.235 -0.9449 -3.5260 -1.2523
 4059SOL    HW223811   0.848   1.892   6.135 -1.7602  3.2729 -1.1288
 4060SOL     OW23812   0.689   0.037  11.719 -0.6775  0.2682  0.0613
 4060SOL    HW123813   0.595   0.031  11.701 -0.8644  0.6081  0.9266
 4060SOL    HW223814   0.694   0.130  11.741  0.5110 -0.0248  1.0835
 4061SOL     OW23815   4.124   0.274   5.474  0.3056  0.0068  0.6850
 4061SOL    HW123816   4.122   0.182   5.500 -2.5915  0.5642  2.4473
 4061SOL    HW223817   4.155   0.313   5.556  0.6381 -1.1857  1.1185
 4062SOL     OW23818   4.708   1.451   9.035 -0.0947  0.0198  0.2422
 4062SOL    HW123819   4.722   1.414   9.122 -2.1476 -2.5456 -0.5043
 4062SOL    HW223820   4.624   1.406   9.026  0.5797 -1.1674 -0.2052
 4063SOL     OW23821   4.270   1.317   4.785 -0.0518  0.3676 -0.0912
 4063SOL    HW123822   4.327   1.379   4.830  2.0573 -2.2287  0.8209
 4063SOL    HW223823   4.313   1.315   4.700 -1.2717  2.4446 -0.7479
 4064SOL     OW23824   1.302   3.497   3.011 -0.2395  0.2846 -0.0329
 4064SOL    HW123825   1.245   3.421   3.021 -0.1927  0.2478 -0.0445
 4064SOL    HW223826   1.241   3.554   3.056 -0.4884  0.3836 -0.4904
 4065SOL     OW23827   0.745   2.089   7.741 -0.0608 -0.2426  0.2644
 4065SOL    HW123828   0.693   2.102   7.661 -1.8724  1.3778  1.7095
 4065SOL    HW223829   0.744   1.997   7.765 -2.0608 -0.4937 -0.8009
 4066SOL     OW23830   0.678   3.691   4.862 -0.4219  0.1360  0.5465
 4066SOL    HW123831   0.743   3.629   4.895  0.2477  1.3565  1.5150
 4066SOL    HW223832   0.689   3.766   4.920  0.5822 -0.2062  0.8045
 4067SOL     OW23833   1.547   4.062   2.733 -0.0985  0.1616  0.3480
 4067SOL    HW123834   1.607   3.989   2.749 -0.4251 -0.7450 -2.6448
 4067SOL    HW223835   1.585   4.107   2.657 -1.0207 -1.3151 -0.9736
 4068SOL     OW23836   0.003   0.644   2.280  0.2179 -0.3996 -0.2860
 4068SOL    HW123837   4.676   0.572   2.272 -2.8599  1.7682  3.9333
 4068SOL    HW223838   4.678   0.709   2.317  0.1996 -0.4909 -0.1575
 4069SOL     OW23839   1.025   0.039   9.317 -0.0249 -0.1772 -0.2381
 4069SOL    HW123840   1.114   0.016   9.345 -0.0612 -1.3254 -1.0746
 4069SOL    HW223841   1.029   0.046   9.222 -0.1537 -0.0565 -0.2351
 4070SOL     OW23842   3.981   0.394   6.027  0.1885 -0.2687 -0.3226
 4070SOL    HW123843   4.063   0.439   6.049  0.6603 -1.1425 -0.2671
 4070SOL    HW223844   3.927   0.429   6.098 -0.7321 -0.0733 -1.1202
 4071SOL     OW23845   0.429   3.525   6.977  0.5945  0.1113 -0.2490
 4071SOL    HW123846   0.420   3.462   7.048 -0.3460  1.2245  0.6231
 4071SOL    HW223847   0.399   3.601   7.027  0.0001 -0.7240  0.6610
 4072SOL     OW23848   2.362   0.834   1.313  0.3769  0.5044 -0.2861
 4072SOL    HW123849   2.435   0.895   1.317  0.0709  0.8065  0.5777
 4072SOL    HW223850   2.326   0.862   1.228  0.5070 -1.4062 -0.9666
 4073SOL     OW23851   3.277   2.163   6.965  0.2129  0.3806 -0.3307
 4073SOL    HW123852   3.289   2.191   7.056 -1.5174  1.0714 -0.3135
 4073SOL    HW223853   3.182   2.177   6.962  0.1286  0.2488  1.4306
 4074SOL     OW23854   1.579   4.385   5.055 -0.0289  0.2842 -0.4267
 4074SOL    HW123855   1.524   4.433   4.993  0.1844  1.2221  0.1117
 4074SOL    HW223856   1.591   4.460   5.113  0.0653 -1.4652  1.8122
 4075SOL     OW23857   4.544   3.286   2.884 -0.4221  0.0971 -0.2762
 4075SOL    HW123858   4.476   3.221   2.865 -1.6348  1.0792  0.6470
 4075SOL    HW223859   4.513   3.313   2.971  1.2773 -0.0696  0.3765
 4076SOL     OW23860   0.043   3.765  11.151 -0.3260 -0.2637  0.7985
 4076SOL    HW123861   0.119   3.802  11.195  1.7025 -2.3712 -0.8691
 4076SOL    HW223862   0.077   3.681  11.118 -0.1842 -0.2267  0.8524
 4077SOL     OW23863   1.764   2.823   5.314  0.6534 -0.5469 -0.4265
 4077SOL    HW123864   1.777   2.739   5.270 -0.5127 -1.0215  0.1297
 4077SOL    HW223865   1.854   2.854   5.314 -0.0685  1.6014 -0.1849
 4078SOL     OW23866   0.776   4.576   7.260  0.0389 -0.1987 -0.3865
 4078SOL    HW123867   0.823   4.592   7.342  0.1908 -0.9030 -0.3381
 4078SOL    HW223868   0.791   4.663   7.224 -2.0261 -1.0234 -3.2335
 4079SOL     OW23869   1.986   2.865  12.350  0.8932 -0.0983  0.6408
 4079SOL    HW123870   1.940   2.839  12.430 -2.0431 -0.1336 -1.0764
 4079SOL    HW223871   1.959   2.792  12.295  1.4680 -0.0093  0.2482
 4080SOL     OW23872   4.326   1.972  14.731  0.6190  0.1906  0.1605
 4080SOL    HW123873   4.379   1.903  14.691 -1.6534 -1.5617  0.0915
 4080SOL    HW223874   4.356   2.044  14.676  2.0685  0.0458  0.7865
 4081SOL     OW23875   1.489   3.188   6.903 -0.4986 -0.5637  0.5786
 4081SOL    HW123876   1.411   3.177   6.957 -2.3873 -0.0174 -2.0078
 4081SOL    HW223877   1.553   3.121   6.924  1.1802  0.2014 -1.9746
 4082SOL     OW23878   1.484   2.701   7.276  0.1615  0.1566  0.2218
 4082SOL    HW123879   1.539   2.633   7.238  0.1640  0.6989 -0.7336
 4082SOL    HW223880   1.537   2.739   7.346 -0.0686 -0.2491  0.6195
 4083SOL     OW23881   2.392   2.833  15.491  0.5558 -0.1929 -0.4849
 4083SOL    HW123882   2.398   2.762  15.554  1.4976  0.6945  0.4245
 4083SOL    HW223883   2.300   2.852  15.508  0.6467 -1.5706  1.4500
 4084SOL     OW23884   2.275   2.605  12.475  0.3093  0.7367 -0.5609
 4084SOL    HW123885   2.185   2.595  12.507  2.0211 -2.4634  3.3902
 4084SOL    HW223886   2.308   2.515  12.487  2.5600  1.9035  2.1130
 4085SOL     OW23887   0.607   3.861   6.128 -0.1325 -0.6909  0.3157
 4085SOL    HW123888   0.601   3.849   6.033  0.5747 -2.8075  0.5378
 4085SOL    HW223889   0.635   3.952   6.126 -1.6547 -0.2227 -0.1622
 4086SOL     OW23890   2.162   4.258   3.921  0.1255 -0.0608  0.6764
 4086SOL    HW123891   2.219   4.243   3.845  1.1450  2.0398  1.0122
 4086SOL    HW223892   2.182   4.351   3.933 -0.2615 -0.2959  3.0548
 4087SOL     OW23893   0.663   1.794   3.836 -0.3144 -0.8079  0.4201
 4087SOL    HW123894   0.713   1.718   3.806 -0.3518 -0.5433 -0.3226
 4087SOL    HW223895   0.650   1.761   3.925 -2.2947 -1.8441 -0.2680
 4088SOL     OW23896   3.356   0.437   6.912  0.0003  0.1249 -0.3776
 4088SOL    HW123897   3.432   0.482   6.948 -0.7815  1.3741 -0.3022
 4088SOL    HW223898   3.293   0.509   6.909 -0.0021  0.1828  1.0311
 4089SOL     OW23899   0.941   0.134   6.319 -0.0347  0.3486 -0.5948
 4089SOL    HW123900   0.863   0.081   6.305  0.5690 -0.7953  0.3962
 4089SOL    HW223901   0.975   0.152   6.231 -1.6458  0.7301 -1.1276
 4090SOL     OW23902   4.331   0.535   8.940 -0.0833  0.3987  0.1153
 4090SOL    HW123903   4.244   0.542   8.979  0.5984  0.6677  1.5716
 4090SOL    HW223904   4.348   0.623   8.907 -0.2601 -0.0032 -1.0506
 4091SOL     OW23905   2.438   0.859   4.149 -0.9177 -0.3747  0.3575
 4091SOL    HW123906   2.395   0.783   4.189 -0.1484 -1.7280 -1.3987
 4091SOL    HW223907   2.521   0.866   4.196 -0.0885 -0.5004 -1.1242
 4092SOL     OW23908   3.032   1.831   8.710 -0.0622  0.0412 -0.3852
 4092SOL    HW123909   3.079   1.817   8.628  0.7548  0.3565  0.0330
 4092SOL    HW223910   2.956   1.774   8.698  0.7168 -0.8568 -0.9705
 4093SOL     OW23911   4.151   2.519   7.534  0.6178 -0.4142 -0.5705
 4093SOL    HW123912   4.244   2.498   7.544  0.7002  0.0112 -0.4537
 4093SOL    HW223913   4.127   2.446   7.477  0.0424 -0.3063 -0.4711
 4094SOL     OW23914   2.060   4.004   4.754  0.3690 -0.5263  0.2760
 4094SOL    HW123915   1.986   3.995   4.815 -1.1498  0.9929 -1.3445
 4094SOL    HW223916   2.021   4.074   4.702  0.9709  2.0586  3.3045
 4095SOL     OW23917   4.449   1.824   5.779  0.0388  0.5251  0.3748
 4095SOL    HW123918   4.513   1.887   5.814 -1.7675  2.0749  0.8559
 4095SOL    HW223919   4.368   1.874   5.785 -0.7608 -0.5542 -1.8242
 4096SOL     OW23920   2.606   1.304   4.807 -0.2371 -1.1131 -0.2130
 4096SOL    HW123921   2.580   1.241   4.874  1.2405 -0.8298  0.6319
 4096SOL    HW223922   2.556   1.379   4.840 -1.9773 -2.3132 -0.1475
 4097SOL     OW23923   2.420   2.680   8.667  0.0432 -0.0854  0.0431
 4097SOL    HW123924   2.500   2.729   8.688  0.6499  0.2031 -2.9084
 4097SOL    HW223925   2.407   2.642   8.754  2.7535 -1.3794 -0.1063
 4098SOL     OW23926   1.019   1.511   9.038  0.2678 -0.2506 -0.0636
 4098SOL    HW123927   0.940   1.458   9.043 -0.2063  0.4534 -0.0017
 4098SOL    HW223928   1.065   1.482   9.117  1.2912  1.5908  0.0167
 4099SOL     OW23929   2.466   1.931  12.950 -0.2618 -0.1888 -0.2209
 4099SOL    HW123930   2.418   1.901  13.028 -2.1302 -0.7778 -1.6065
 4099SOL    HW223931   2.529   1.859  12.945 -0.1914  0.0555 -2.5575
 4100SOL     OW23932   2.810   4.095  15.886 -0.2816 -0.7740  0.2962
 4100SOL    HW123933   2.808   4.184  15.851 -0.2750 -1.3361 -1.1287
 4100SOL    HW223934   2.755   4.106  15.963  0.1919  0.0220  0.5295
 4101SOL     OW23935   1.936   1.374  14.351  0.2345  0.0009  0.0734
 4101SOL    HW123936   1.898   1.307  14.408 -0.4578  0.8682  0.6365
 4101SOL    HW223937   1.874   1.358  14.281  0.2022  3.3575 -0.6408
 4102SOL     OW23938   3.915   2.247   7.610  0.2967 -0.0350 -0.0244
 4102SOL    HW123939   3.953   2.159   7.613  2.5426  0.8688 -2.2361
 4102SOL    HW223940   3.955   2.287   7.688 -0.1943 -0.7641  0.6040
 4103SOL     OW23941   3.588   4.674   2.380 -0.2036 -0.0634 -0.0035
 4103SOL    HW123942   3.634   0.010   2.424  0.9346  1.0847 -3.0307
 4103SOL    HW223943   3.502   4.715   2.389 -0.2077  0.0840 -0.7155
 4104SOL     OW23944   1.253   3.721   6.969  0.2306  0.2170 -0.1361
 4104SOL    HW123945   1.323   3.738   6.906  0.6833  1.3283  0.6544
 4104SOL    HW223946   1.183   3.708   6.905  1.2363 -0.0121 -1.1832
 4105SOL     OW23947   4.609   2.871  14.902  0.0026  0.2153 -0.0324
 4105SOL    HW123948   4.544   2.804  14.881  0.9594 -0.2241 -1.6044
 4105SOL    HW223949   4.563   2.955  14.902  0.3044  0.3761  0.5775
 4106SOL     OW23950   3.532   3.495   6.812 -0.0486  0.0624 -0.2862
 4106SOL    HW123951   3.522   3.403   6.836  0.8732 -0.4093 -1.7178
 4106SOL    HW223952   3.624   3.488   6.786 -0.3217  2.0542 -1.8149
 4107SOL     OW23953   2.380   0.369   4.842  0.2223  0.5642 -0.0469
 4107SOL    HW123954   2.442   0.384   4.771 -0.9629  0.7544 -1.0417
 4107SOL    HW223955   2.301   0.347   4.792 -0.6628 -1.3351  2.1531
 4108SOL     OW23956   2.839   1.662   9.283  0.0858  0.0935  0.3157
 4108SOL    HW123957   2.833   1.757   9.272 -1.0619 -0.2924 -2.4005
 4108SOL    HW223958   2.843   1.656   9.378  2.5863 -2.2406  0.0585
 4109SOL     OW23959   2.367   3.251  15.318  0.1008 -0.3312  0.0422
 4109SOL    HW123960   2.419   3.247  15.398 -1.7630  0.7672  1.2956
 4109SOL    HW223961   2.425   3.208  15.255  0.0587  1.1307 -1.0049
 4110SOL     OW23962   2.078   0.783   5.902 -0.2490 -0.4654  0.3727
 4110SOL    HW123963   2.100   0.730   5.826  1.1743 -1.5887  1.5705
 4110SOL    HW223964   2.146   0.850   5.907 -0.5820 -0.1271  0.4180
 4111SOL     OW23965   3.925   2.181   3.570  0.0421 -0.9172 -0.2876
 4111SOL    HW123966   4.016   2.152   3.574  0.4519  0.2927 -0.8187
 4111SOL    HW223967   3.934   2.271   3.601  0.8595 -0.2308 -2.5500
 4112SOL     OW23968   1.073   4.529   8.307  0.5755 -0.1152  0.2457
 4112SOL    HW123969   1.116   4.570   8.383  1.5918 -0.4244 -0.1565
 4112SOL    HW223970   1.004   4.594   8.291  0.9582  0.1258 -0.4269
 4113SOL     OW23971   4.659   2.220  14.518  0.1319  0.5562 -0.1454
 4113SOL    HW123972   4.631   2.139  14.560 -1.7652  1.9435  1.2331
 4113SOL    HW223973   0.003   2.190  14.473  0.7848 -1.0204  2.0806
 4114SOL     OW23974   1.851   4.685   4.206 -0.6059  0.3505  0.5306
 4114SOL    HW123975   1.794   0.025   4.195 -0.7059  0.0992 -0.7318
 4114SOL    HW223976   1.790   4.622   4.167  2.3226 -1.6612 -0.8051
 4115SOL     OW23977   1.838   2.682   4.987  0.0661  0.0416 -0.0313
 4115SOL    HW123978   1.917   2.647   5.028  0.5618  0.8188 -0.3354
 4115SOL    HW223979   1.861   2.761   4.940  4.7305 -1.7009 -0.6768
 4116SOL     OW23980   1.664   2.826   6.435  0.0102  0.3321 -0.1922
 4116SOL    HW123981   1.601   2.810   6.505 -0.5692 -1.1113 -1.0324
 4116SOL    HW223982   1.670   2.920   6.447 -0.6369  0.2601  0.6633
 4117SOL     OW23983   0.625   3.429   0.404 -0.4464 -0.1769  0.4130
 4117SOL    HW123984   0.594   3.358   0.460 -0.7343 -0.6954 -0.4041
 4117SOL    HW223985   0.672   3.385   0.334 -1.4155  0.8188 -0.8789
 4118SOL     OW23986   3.872   3.242   1.742  0.1172 -0.2188 -0.2281
 4118SOL    HW123987   3.821   3.202   1.672  0.1292  0.0371 -0.3843
 4118SOL    HW223988   3.962   3.246   1.711 -0.4373 -2.4958 -2.1402
 4119SOL     OW23989   0.600   3.631   8.554  0.0322 -0.4312  0.2756
 4119SOL    HW123990   0.626   3.721   8.569 -1.6322  0.2942 -1.0972
 4119SOL    HW223991   0.582   3.595   8.641 -2.6385 -2.0949 -0.9481
 4120SOL     OW23992   1.551   1.115   3.592 -0.3629 -0.1172  0.0644
 4120SOL    HW123993   1.522   1.024   3.588 -1.5348  0.2979 -0.6658
 4120SOL    HW223994   1.639   1.097   3.626 -0.9230 -0.2980  1.4197
 4121SOL     OW23995   1.748   0.617   8.202 -0.0829 -0.0684 -0.3356
 4121SOL    HW123996   1.655   0.624   8.227  0.4448  2.5235  0.8444
 4121SOL    HW223997   1.745   0.525   8.176 -0.7523  0.1204 -0.9302
 4122SOL     OW23998   4.034   1.788   4.356 -0.5605 -0.4663 -0.4496
 4122SOL    HW123999   3.958   1.833   4.392 -0.4380  0.2912 -1.1357
 4122SOL    HW224000   4.077   1.757   4.436  1.9905 -0.3562 -1.7716
 4123SOL     OW24001   2.631   2.894  15.689  0.3438  0.2189 -0.0149
 4123SOL    HW124002   2.626   2.806  15.726  1.9269 -0.6329 -1.8833
 4123SOL    HW224003   2.593   2.954  15.754 -2.1738 -0.5542 -0.7637
 4124SOL     OW24004   2.944   2.027   5.963 -0.1682 -0.1716 -0.9855
 4124SOL    HW124005   3.001   2.094   5.925  0.7546 -0.1829  0.4042
 4124SOL    HW224006   2.944   1.968   5.888  1.0456 -1.0731 -0.2746
 4125SOL     OW24007   1.056   2.841  11.504 -0.6253 -0.2687  0.1725
 4125SOL    HW124008   1.144   2.813  11.479  0.2203  1.5309  1.1844
 4125SOL    HW224009   1.069   2.934  11.523 -2.6087  0.0797 -0.1962
 4126SOL     OW24010   2.622   4.367   5.636 -0.2758 -0.1174 -0.5746
 4126SOL    HW124011   2.680   4.425   5.685 -0.5714 -0.6693  0.4286
 4126SOL    HW224012   2.619   4.295   5.699  0.5862 -0.1136 -0.5298
 4127SOL     OW24013   0.481   4.706  17.320 -0.1047  0.1049  0.0638
 4127SOL    HW124014   0.565   0.012  17.299  1.6510 -2.2874  2.2357
 4127SOL    HW224015   0.452   4.694  17.230  2.3268 -0.2520 -0.6838
 4128SOL     OW24016   2.632   0.413   1.828  0.0241 -0.2769 -0.4288
 4128SOL    HW124017   2.652   0.328   1.868  0.9064  0.4747  0.7575
 4128SOL    HW224018   2.538   0.402   1.817 -0.3862  1.7254  1.1391
 4129SOL     OW24019   4.135   2.002  13.011  0.0026 -0.0142  0.0713
 4129SOL    HW124020   4.096   2.072  13.064  1.6394 -0.5886  2.0273
 4129SOL    HW224021   4.166   2.052  12.935  1.2764 -0.0489  0.5548
 4130SOL     OW24022   2.310   2.922   7.445  0.0867 -0.6939 -0.6855
 4130SOL    HW124023   2.342   2.897   7.532  2.3957  3.8488 -0.1770
 4130SOL    HW224024   2.249   2.853   7.420 -0.8418  0.7790 -2.5199
 4131SOL     OW24025   2.925   1.017   6.634 -0.1690  0.3049 -0.0411
 4131SOL    HW124026   2.911   1.108   6.660 -0.5332  0.3931 -0.5350
 4131SOL    HW224027   2.935   1.041   6.542 -0.7015 -1.9724 -0.6956
 4132SOL     OW24028   4.316   2.601   8.632 -0.0523 -0.2271 -0.5015
 4132SOL    HW124029   4.282   2.527   8.582 -0.8711  1.6215 -2.6725
 4132SOL    HW224030   4.353   2.554   8.706 -3.5088 -0.3171  1.1493
 4133SOL     OW24031   4.422   2.025  15.547  0.2340 -0.2310  0.0175
 4133SOL    HW124032   4.492   1.999  15.607 -0.1459  0.4188  0.7414
 4133SOL    HW224033   4.352   2.058  15.603  0.5252  1.0381 -0.3851
 4134SOL     OW24034   0.047   2.488  15.035 -0.0012  0.3202  0.2789
 4134SOL    HW124035   0.097   2.410  15.011 -0.4414 -0.9117  3.3216
 4134SOL    HW224036   0.034   2.532  14.951 -2.8757  0.1895  0.6562
 4135SOL     OW24037   2.859   2.227   5.234 -0.0104  0.0914 -0.1414
 4135SOL    HW124038   2.796   2.295   5.257  1.5341  0.5028  2.8684
 4135SOL    HW224039   2.811   2.149   5.261 -0.2507 -0.3988 -1.9721
 4136SOL     OW24040   2.645   2.479  13.593  0.5670 -0.5902  0.2556
 4136SOL    HW124041   2.674   2.558  13.639  0.2674 -1.5930  2.1916
 4136SOL    HW224042   2.723   2.427  13.616  1.4832  0.1410 -1.2268
 4137SOL     OW24043   0.412   1.916  11.977 -0.5161  0.4293  0.0683
 4137SOL    HW124044   0.349   1.890  11.909 -0.5422 -0.7776  0.5592
 4137SOL    HW224045   0.401   2.011  11.977  0.1304  0.5026 -0.4346
 4138SOL     OW24046   3.408   2.338   6.013  0.1534  0.0614 -0.3591
 4138SOL    HW124047   3.441   2.254   6.045 -2.4509 -0.4564  0.9844
 4138SOL    HW224048   3.328   2.336   6.066 -0.1827  0.9709 -0.8374
 4139SOL     OW24049   3.489   4.185   3.036 -0.8891  0.4815 -0.1930
 4139SOL    HW124050   3.538   4.266   3.054 -0.8256  0.1766  1.0037
 4139SOL    HW224051   3.465   4.191   2.944  3.6901  0.0087 -1.4131
 4140SOL     OW24052   0.392   2.332  10.657  0.0994  0.0653 -0.0646
 4140SOL    HW124053   0.313   2.277  10.656  0.0118  0.1803  0.3263
 4140SOL    HW224054   0.439   2.278  10.594  1.6837  2.6386 -1.0556
 4141SOL     OW24055   3.120   3.978   9.126  0.2956 -0.0280 -0.6701
 4141SOL    HW124056   3.104   3.910   9.060 -1.2964  0.1165 -0.4257
 4141SOL    HW224057   3.211   3.999   9.104  0.3101 -0.7676 -1.3074
 4142SOL     OW24058   0.430   3.371   3.976  0.1869  0.6514  0.1391
 4142SOL    HW124059   0.341   3.407   3.973 -0.2977 -0.5220  0.4967
 4142SOL    HW224060   0.413   3.311   4.048  4.3215  0.5311  0.9621
 4143SOL     OW24061   1.855   4.712  16.872 -0.4089  0.1646 -0.8690
 4143SOL    HW124062   1.840   4.703  16.778 -0.2957 -0.4238 -0.8302
 4143SOL    HW224063   1.795   0.050  16.887 -0.8073  0.1330 -2.3199
 4144SOL     OW24064   0.078   3.192   2.906 -0.0905  0.5945 -0.5849
 4144SOL    HW124065   4.720   3.200   2.887 -0.3584  0.4866  0.6508
 4144SOL    HW224066   0.104   3.200   2.814 -1.3967  0.5564 -0.9550
 4145SOL     OW24067   3.518   0.803   5.369  0.5319  0.2408 -0.0438
 4145SOL    HW124068   3.572   0.724   5.364  0.2385  0.0472 -0.1340
 4145SOL    HW224069   3.581   0.873   5.383  0.9999 -0.2155  0.1410
 4146SOL     OW24070   3.492   0.128   3.182  0.1757 -0.1008  0.4820
 4146SOL    HW124071   3.460   0.099   3.097  2.1995 -1.6420  0.2349
 4146SOL    HW224072   3.419   0.106   3.239 -0.1649  0.3391  0.2155
 4147SOL     OW24073   0.885   1.118   8.723  0.1623 -0.6880  0.5484
 4147SOL    HW124074   0.927   1.034   8.701 -3.1803 -2.0863 -0.4449
 4147SOL    HW224075   0.801   1.078   8.744 -1.8120  1.9711 -2.3477
 4148SOL     OW24076   4.032   1.045   2.409  0.0844  0.3055 -0.3855
 4148SOL    HW124077   3.962   1.036   2.345  0.3782  1.7113 -0.8953
 4148SOL    HW224078   3.992   1.116   2.460 -0.4481  2.1216 -3.3281
 4149SOL     OW24079   2.293   2.235   2.840 -0.2016  0.4724 -0.0543
 4149SOL    HW124080   2.202   2.265   2.827 -0.6623 -0.3574  1.2960
 4149SOL    HW224081   2.292   2.142   2.821  1.0798  0.3995  0.2374
 4150SOL     OW24082   1.767   4.429   7.787  0.2832  0.2109  0.5669
 4150SOL    HW124083   1.754   4.392   7.700 -2.9074  0.4220  0.9647
 4150SOL    HW224084   1.760   4.523   7.768 -1.4143 -0.6592 -3.0131
 4151SOL     OW24085   2.675   0.692  14.350  0.0795  0.0355 -0.4508
 4151SOL    HW124086   2.662   0.631  14.422 -0.0209  1.4040  0.6798
 4151SOL    HW224087   2.740   0.648  14.295  0.3565 -0.4533  0.2717
 4152SOL     OW24088   2.258   1.229   5.564 -0.0731 -0.0166 -0.0176
 4152SOL    HW124089   2.332   1.255   5.619  0.6126 -2.3620  0.1649
 4152SOL    HW224090   2.299   1.193   5.485  1.0874  1.2933 -0.0133
 4153SOL     OW24091   4.654   1.997  11.926  0.3113 -0.1433 -0.4931
 4153SOL    HW124092   4.580   2.057  11.915  1.5788  1.6399  0.7159
 4153SOL    HW224093   4.725   2.020  11.866  1.3587 -0.4124  0.6535
 4154SOL     OW24094   3.224   3.976  14.108  0.2171  0.2887 -0.1999
 4154SOL    HW124095   3.270   3.904  14.152 -0.8225 -0.3711 -0.1758
 4154SOL    HW224096   3.176   3.932  14.037  0.2367  0.8721 -0.5751
 4155SOL     OW24097   3.745   2.506  16.464 -0.3127  0.6422 -0.2981
 4155SOL    HW124098   3.701   2.498  16.549 -1.9107  1.2824 -1.0728
 4155SOL    HW224099   3.828   2.461  16.479 -1.0484 -0.8739 -0.7733
 4156SOL     OW24100   3.658   0.139   1.048  0.4202  0.6704 -0.1046
 4156SOL    HW124101   3.630   0.068   0.991 -0.8375 -0.9416  2.4860
 4156SOL    HW224102   3.693   0.202   0.986  0.3553 -0.6959 -1.5112
 4157SOL     OW24103   0.526   4.582   1.819 -0.1143 -0.9231  0.5710
 4157SOL    HW124104   0.502   4.490   1.821 -1.4530 -0.5997 -0.7190
 4157SOL    HW224105   0.493   4.602   1.731  0.8067  0.1890  0.4730
 4158SOL     OW24106   0.954   2.794   6.734 -0.1413  0.7722 -0.2412
 4158SOL    HW124107   0.942   2.881   6.695  0.2384  0.9216 -0.0283
 4158SOL    HW224108   0.965   2.748   6.651 -1.0468 -0.3796  0.2862
 4159SOL     OW24109   1.065   1.721   5.188 -0.0563  0.3959 -0.1899
 4159SOL    HW124110   1.134   1.746   5.127 -0.0488  0.6244 -0.0884
 4159SOL    HW224111   1.096   1.633   5.209  0.5091  0.6034 -0.1605
 4160SOL     OW24112   0.078   1.551   2.715  0.1234  0.1243 -0.3052
 4160SOL    HW124113   0.117   1.584   2.796 -1.7797  2.5259 -0.3782
 4160SOL    HW224114   4.722   1.552   2.742  0.3909 -1.9429  0.6530
 4161SOL     OW24115   2.570   1.162  10.137  0.1366  0.2711  0.1719
 4161SOL    HW124116   2.494   1.124  10.182 -0.5521 -0.0301 -1.2373
 4161SOL    HW224117   2.556   1.256  10.128  2.6117  0.5310 -0.9875
 4162SOL     OW24118   2.643   0.794   7.652 -0.6385 -0.0594  0.5103
 4162SOL    HW124119   2.555   0.779   7.617 -0.4536  1.7980 -0.7679
 4162SOL    HW224120   2.669   0.872   7.602  1.5311  0.5771  2.6043
 4163SOL     OW24121   4.283   4.042   5.425  0.0151 -0.1069 -0.0882
 4163SOL    HW124122   4.209   4.063   5.368 -1.3716 -0.1810  1.6931
 4163SOL    HW224123   4.361   4.092   5.401  0.6006 -1.1954 -0.4651
 4164SOL     OW24124   3.395   3.512  10.649 -1.2612  0.0226 -0.4308
 4164SOL    HW124125   3.360   3.467  10.726  0.3468 -0.3217  0.0928
 4164SOL    HW224126   3.457   3.443  10.624 -0.4804 -0.0529  1.7703
 4165SOL     OW24127   4.261   0.895  12.982 -0.7977  0.0232 -0.4939
 4165SOL    HW124128   4.211   0.833  13.035  0.3776 -0.9147 -0.4997
 4165SOL    HW224129   4.191   0.954  12.953 -1.0976 -0.1434 -0.1034
 4166SOL     OW24130   0.850   0.998   5.769  0.3551  0.3412 -0.2765
 4166SOL    HW124131   0.863   0.982   5.863  0.0555  1.6891  0.0069
 4166SOL    HW224132   0.878   1.090   5.764  0.3793  0.3172 -0.5725
 4167SOL     OW24133   2.145   2.926   2.129 -0.4755 -0.5390 -0.6581
 4167SOL    HW124134   2.153   3.015   2.095  0.4433 -1.3564 -2.5955
 4167SOL    HW224135   2.229   2.898   2.093 -0.4432  1.0601 -1.7752
 4168SOL     OW24136   3.882   1.479   5.647 -0.2171  0.2664 -0.0140
 4168SOL    HW124137   3.960   1.486   5.701  1.1048 -0.4877 -1.8238
 4168SOL    HW224138   3.926   1.509   5.567 -0.6905 -1.1035 -0.7888
 4169SOL     OW24139   4.572   3.518   1.710  0.9932 -0.3830 -0.0433
 4169SOL    HW124140   4.629   3.592   1.689  1.0112 -1.0028 -2.1828
 4169SOL    HW224141   4.563   3.530   1.804 -0.9456  0.6723 -0.3504
 4170SOL     OW24142   4.176   3.214   9.470 -0.1122  0.0649 -0.3341
 4170SOL    HW124143   4.251   3.214   9.410 -0.6234  3.2399 -0.9758
 4170SOL    HW224144   4.136   3.298   9.446  2.1839  1.2094 -0.1349
 4171SOL     OW24145   0.339   3.402  16.685 -0.4980  0.8308  0.0403
 4171SOL    HW124146   0.271   3.460  16.718  0.1519  1.2495  0.6369
 4171SOL    HW224147   0.301   3.367  16.604 -0.8100  2.2880 -0.4469
 4172SOL     OW24148   2.711   0.422   3.654 -0.1708  0.0442 -0.0061
 4172SOL    HW124149   2.708   0.403   3.748 -2.0095 -3.0436 -0.6853
 4172SOL    HW224150   2.720   0.517   3.660 -1.2199 -0.0128  2.6553
 4173SOL     OW24151   2.083   1.194   4.131  0.0098 -0.1423 -0.1818
 4173SOL    HW124152   2.052   1.272   4.177  1.4971  1.6628 -2.2525
 4173SOL    HW224153   1.998   1.158   4.107 -0.2802  1.0387 -0.9244
 4174SOL     OW24154   0.768   1.385  15.789 -0.2051  0.1831 -0.3100
 4174SOL    HW124155   0.855   1.355  15.763  0.3938  0.9800  0.7328
 4174SOL    HW224156   0.784   1.390  15.884 -2.4165 -1.6501  0.1596
 4175SOL     OW24157   1.848   3.348   7.608 -0.0851 -0.3526  0.6808
 4175SOL    HW124158   1.849   3.294   7.687 -2.2581  1.4106  1.9181
 4175SOL    HW224159   1.781   3.413   7.628 -1.8628 -2.1195  0.3616
 4176SOL     OW24160   4.677   3.454   2.731  0.7383  0.0628  0.4891
 4176SOL    HW124161   4.629   3.410   2.801 -1.1563  0.4399 -0.5786
 4176SOL    HW224162   0.013   3.497   2.778  1.0613 -0.5464  0.5525
 4177SOL     OW24163   3.241   1.630   8.837 -0.1160 -0.1007 -0.3415
 4177SOL    HW124164   3.166   1.682   8.806 -2.0629 -0.6618  3.3845
 4177SOL    HW224165   3.205   1.542   8.840  0.4356 -0.3139 -0.0190
 4178SOL     OW24166   4.079   2.462   4.546 -0.3205 -0.4175 -0.9056
 4178SOL    HW124167   3.999   2.449   4.496 -0.8835 -1.3467  0.2348
 4178SOL    HW224168   4.141   2.485   4.476 -0.4109 -1.3553 -1.2978
 4179SOL     OW24169   3.177   3.098   6.275 -0.6530 -0.0157 -0.0104
 4179SOL    HW124170   3.171   3.159   6.201  0.4118 -0.4900 -0.4907
 4179SOL    HW224171   3.097   3.049   6.257 -1.1965  1.5445 -1.8301
 4180SOL     OW24172   3.263   4.551   8.745  0.1973  0.2920  0.2715
 4180SOL    HW124173   3.175   4.572   8.775 -1.0506 -3.0487 -1.1046
 4180SOL    HW224174   3.314   4.542   8.826 -0.3511  0.8405  0.6789
 4181SOL     OW24175   1.890   2.317   1.050 -0.3582 -0.0779 -0.5654
 4181SOL    HW124176   1.842   2.370   0.987  0.8195 -2.2117 -3.2491
 4181SOL    HW224177   1.835   2.345   1.124  2.2154 -1.6476  1.9578
 4182SOL     OW24178   2.309   2.665   7.221  0.8179 -0.2012  0.0809
 4182SOL    HW124179   2.246   2.660   7.293  1.8148 -1.5274  0.8549
 4182SOL    HW224180   2.394   2.635   7.254  2.6541  1.0184 -3.5025
 4183SOL     OW24181   3.592   0.295   5.890  0.4164  0.1654  0.4204
 4183SOL    HW124182   3.650   0.370   5.899 -1.6813  1.8214  0.1394
 4183SOL    HW224183   3.505   0.334   5.901 -0.0314 -0.1018 -2.1801
 4184SOL     OW24184   0.779   2.359  11.427 -0.1291  0.2138  0.0525
 4184SOL    HW124185   0.808   2.444  11.396 -0.3250  0.9625  1.9509
 4184SOL    HW224186   0.856   2.306  11.404  0.0085 -0.1175  1.2907
 4185SOL     OW24187   2.805   3.827  10.887  0.6437 -0.3414  0.4076
 4185SOL    HW124188   2.725   3.790  10.923  1.4415 -1.7201  0.7469
 4185SOL    HW224189   2.809   3.908  10.938  1.3122 -1.3454  1.9489
 4186SOL     OW24190   0.321   0.343   5.403  0.4608 -0.0751 -0.6095
 4186SOL    HW124191   0.382   0.269   5.395  0.3751 -0.1778 -0.3117
 4186SOL    HW224192   0.352   0.373   5.488  0.2346  1.0393 -0.9274
 4187SOL     OW24193   3.037   0.129  15.535  0.0699 -0.1908  0.3857
 4187SOL    HW124194   2.989   0.053  15.568  0.0202  0.3129  1.4973
 4187SOL    HW224195   2.990   0.153  15.455  1.1111  1.1279  0.1717
 4188SOL     OW24196   3.082   2.519  16.351  0.2429  0.2769 -0.4631
 4188SOL    HW124197   3.020   2.551  16.285  0.2419  1.1375 -0.0354
 4188SOL    HW224198   3.076   2.424  16.338  2.1987  0.1574 -0.4185
 4189SOL     OW24199   2.388   4.357  15.124 -0.9157 -0.2066 -0.2318
 4189SOL    HW124200   2.417   4.270  15.098  0.5867  0.3190 -0.3176
 4189SOL    HW224201   2.300   4.351  15.085  0.4420 -1.0763 -3.1555
 4190SOL     OW24202   4.585   1.889   7.164  0.1394  0.7353  0.0417
 4190SOL    HW124203   4.564   1.916   7.074  0.0383  2.3844  0.5548
 4190SOL    HW224204   4.680   1.904   7.166  0.2161  0.1495  0.6038
 4191SOL     OW24205   1.489   2.833   1.076 -0.1442 -0.0117  0.0209
 4191SOL    HW124206   1.457   2.922   1.059  1.2537  0.2418 -1.3437
 4191SOL    HW224207   1.436   2.803   1.149  1.4358  1.3562  1.7262
 4192SOL     OW24208   0.921   4.707  13.138 -0.3347 -0.9151  0.1805
 4192SOL    HW124209   0.901   0.058  13.103  1.1305  0.4057  2.5673
 4192SOL    HW224210   0.990   4.678  13.078 -0.3680 -0.5291 -0.0447
 4193SOL     OW24211   4.262   0.648   9.750 -0.7203  0.1880  0.2821
 4193SOL    HW124212   4.242   0.669   9.659  2.1836  0.9904 -0.1753
 4193SOL    HW224213   4.288   0.557   9.740 -1.0510  0.2771 -1.4684
 4194SOL     OW24214   2.631   4.350   5.103 -0.3141  0.3622  0.2962
 4194SOL    HW124215   2.556   4.291   5.095  0.4296 -0.9959  3.0041
 4194SOL    HW224216   2.605   4.418   5.042 -2.7141 -1.1601 -0.3825
 4195SOL     OW24217   4.633   0.347   5.498  0.1653  0.2356  0.1521
 4195SOL    HW124218   4.587   0.421   5.458  0.8818  0.3944 -0.3755
 4195SOL    HW224219   4.702   0.408   5.524 -1.2720  2.0651 -0.2511
 4196SOL     OW24220   1.058   0.445  12.038  0.5285  0.1619  0.9109
 4196SOL    HW124221   1.120   0.518  12.033  1.3733 -0.4090  3.0553
 4196SOL    HW224222   1.083   0.412  12.124  0.1446 -2.0023  0.1829
 4197SOL     OW24223   2.945   2.474   9.058  0.0438  0.4041  0.5287
 4197SOL    HW124224   2.862   2.457   9.014  0.5825  3.0832 -1.5203
 4197SOL    HW224225   2.967   2.381   9.052  1.1438  0.4564  3.5890
 4198SOL     OW24226   2.161   0.845   8.320 -0.6196  0.7208  0.3260
 4198SOL    HW124227   2.221   0.826   8.248  1.6050 -1.1193  2.6204
 4198SOL    HW224228   2.204   0.814   8.400  2.1597  0.3158 -1.3070
 4199SOL     OW24229   1.761   3.341   4.847  0.4821  0.3775 -0.4119
 4199SOL    HW124230   1.824   3.413   4.850 -0.1871  0.9386  0.0375
 4199SOL    HW224231   1.772   3.324   4.753 -1.1769 -0.1723 -0.4915
 4200SOL     OW24232   4.100   4.202   3.944 -0.6585 -0.4405  0.1674
 4200SOL    HW124233   4.122   4.133   3.882  2.5094  0.7879 -0.0594
 4200SOL    HW224234   4.077   4.144   4.017  1.4113  0.4196  1.4962
 4201SOL     OW24235   1.661   1.918   9.666 -0.7045 -0.0826 -0.4385
 4201SOL    HW124236   1.715   1.992   9.694 -0.9059 -0.5145  1.1066
 4201SOL    HW224237   1.573   1.947   9.646 -0.3590  0.1392 -1.6493
 4202SOL     OW24238   4.565   3.946   7.321  0.3124  0.0964  0.4514
 4202SOL    HW124239   4.531   3.875   7.266  0.8888  0.0681  0.1254
 4202SOL    HW224240   4.660   3.933   7.319  0.4036  0.8307 -0.3171
 4203SOL     OW24241   1.014   3.969   6.255  0.1491 -0.4072 -0.3673
 4203SOL    HW124242   0.963   3.893   6.228  0.7581 -0.5228 -1.1926
 4203SOL    HW224243   1.000   4.040   6.192 -0.3802 -1.7251 -1.7342
 4204SOL     OW24244   3.470   2.494   7.233  0.2415  0.2598  0.3402
 4204SOL    HW124245   3.506   2.562   7.289  1.0577  0.1380 -0.0323
 4204SOL    HW224246   3.459   2.429   7.303 -1.3562 -0.5956 -0.7083
 4205SOL     OW24247   2.188   0.025  15.012 -0.3934 -0.3193 -0.2872
 4205SOL    HW124248   2.258   4.700  15.036  0.3610  1.1359  1.2015
 4205SOL    HW224249   2.221   0.070  14.934  0.8242  0.0554  0.4434
 4206SOL     OW24250   1.274   0.348   7.172  0.3136 -0.3655  0.2624
 4206SOL    HW124251   1.184   0.369   7.199  0.6066 -2.8617  3.1285
 4206SOL    HW224252   1.312   0.430   7.204 -1.0864 -0.0283  1.0693
 4207SOL     OW24253   1.446   1.863  14.013 -0.0434 -0.5999  0.2720
 4207SOL    HW124254   1.376   1.895  13.956  1.0687  0.1085 -0.6855
 4207SOL    HW224255   1.518   1.861  13.950 -2.7112 -0.7524 -2.7677
 4208SOL     OW24256   0.925   1.870  17.063  0.1623  0.4150 -0.3118
 4208SOL    HW124257   0.834   1.842  17.062  0.8737 -1.8682 -0.1244
 4208SOL    HW224258   0.959   1.811  16.995 -1.9451 -1.3306  0.1735
 4209SOL     OW24259   1.501   4.512   4.275 -0.1587  0.6727 -0.2097
 4209SOL    HW124260   1.498   4.592   4.327  3.2823 -0.6796  2.0642
 4209SOL    HW224261   1.447   4.456   4.331  2.8027  0.0658  2.0038
 4210SOL     OW24262   1.893   2.310   1.823  0.1878 -0.2447  0.1376
 4210SOL    HW124263   1.931   2.353   1.747  0.9661  0.5167  0.9557
 4210SOL    HW224264   1.802   2.337   1.807 -0.4203 -2.0793  0.5332
 4211SOL     OW24265   3.037   2.240  17.026 -0.1610 -0.0305 -0.4211
 4211SOL    HW124266   3.016   2.328  16.996 -0.0251 -0.3866 -1.5683
 4211SOL    HW224267   3.124   2.248  17.065 -1.3452 -1.7898  2.5863
 4212SOL     OW24268   1.005   2.362   6.833  0.1508 -0.2186 -0.6321
 4212SOL    HW124269   1.087   2.353   6.784 -0.5554  0.4407 -1.9505
 4212SOL    HW224270   1.015   2.456   6.848 -0.7544 -0.0995 -0.7766
 4213SOL     OW24271   3.924   2.289  16.434  0.1061  0.2183  0.1948
 4213SOL    HW124272   3.936   2.220  16.369 -0.1905  0.3162  0.0360
 4213SOL    HW224273   3.913   2.228  16.508 -0.0357  1.0490  0.8623
 4214SOL     OW24274   2.560   3.303  12.085 -0.1351  0.7076  0.2442
 4214SOL    HW124275   2.514   3.344  12.158 -1.4889  0.8777 -0.6992
 4214SOL    HW224276   2.621   3.372  12.059  1.6597 -0.8494  0.3152
 4215SOL     OW24277   2.936   4.634  15.840 -0.2143  0.2115  0.1555
 4215SOL    HW124278   3.002   4.680  15.891  0.8863 -1.6790  0.4342
 4215SOL    HW224279   2.980   4.560  15.798  1.1239  0.4250  1.1852
 4216SOL     OW24280   2.443   3.469   6.901  0.2412  0.0645 -0.0801
 4216SOL    HW124281   2.442   3.440   6.810 -4.1631 -1.1074  0.3073
 4216SOL    HW224282   2.378   3.538   6.884  0.6260  0.5246  0.3363
 4217SOL     OW24283   0.313   4.287   6.642  0.3453  0.2916 -0.1776
 4217SOL    HW124284   0.224   4.283   6.607  0.4823  0.3088 -0.5274
 4217SOL    HW224285   0.335   4.203   6.682 -2.3247 -0.0405  0.5353
 4218SOL     OW24286   0.021   0.862   6.785  0.5862 -0.1276  0.0839
 4218SOL    HW124287   0.062   0.851   6.871  0.5693 -2.5292 -0.2322
 4218SOL    HW224288   4.665   0.886   6.796  0.6797  0.5409 -0.5965
 4219SOL     OW24289   0.283   4.321   9.071 -0.5360 -0.3216  0.0425
 4219SOL    HW124290   0.362   4.268   9.077  0.8954  1.5748 -1.5547
 4219SOL    HW224291   0.224   4.260   9.114 -1.7970 -0.2855 -1.6137
 4220SOL     OW24292   0.193   1.023  13.504 -0.8187 -0.4031  0.0653
 4220SOL    HW124293   0.134   1.060  13.439 -1.1165  1.8203  1.5982
 4220SOL    HW224294   0.220   1.101  13.553 -1.8097 -1.1518  1.8376
 4221SOL     OW24295   3.318   3.973   8.114 -0.3445 -0.1818  0.4920
 4221SOL    HW124296   3.397   3.950   8.164  0.0156 -0.7225 -0.3169
 4221SOL    HW224297   3.333   4.067   8.120 -1.4333  0.0418 -0.4742
 4222SOL     OW24298   3.022   4.320  16.238  0.0043  0.1277  0.0287
 4222SOL    HW124299   3.103   4.269  16.235  0.4308  0.8359 -0.7166
 4222SOL    HW224300   2.953   4.254  16.237  0.3996 -0.2620 -1.6007
 4223SOL     OW24301   1.111   3.793   6.451 -0.0619  0.1282 -0.4978
 4223SOL    HW124302   1.133   3.710   6.408 -0.8438 -0.7992  0.9113
 4223SOL    HW224303   1.066   3.848   6.386 -0.5014  0.4133  0.0513
 4224SOL     OW24304   0.408   3.474   0.913 -0.3984  0.0044  0.0423
 4224SOL    HW124305   0.389   3.520   0.995 -0.3827  1.4958 -0.8029
 4224SOL    HW224306   0.325   3.464   0.866 -0.7068 -0.0432  0.5861
 4225SOL     OW24307   3.367   2.574   2.714  0.7524  0.3710 -0.4350
 4225SOL    HW124308   3.331   2.632   2.647  0.6164  2.6892  1.6394
 4225SOL    HW224309   3.460   2.566   2.696  0.9418  0.2183  0.5929
 4226SOL     OW24310   0.243   1.560   3.646  0.1784 -0.0598  0.0838
 4226SOL    HW124311   0.307   1.625   3.674 -0.1510  0.5125 -0.4990
 4226SOL    HW224312   0.260   1.499   3.717 -0.5465  1.0350  1.1863
 4227SOL     OW24313   0.660   1.490  12.971 -0.1869  0.2447  0.0675
 4227SOL    HW124314   0.570   1.465  12.948  0.1726  0.6360 -1.8304
 4227SOL    HW224315   0.687   1.415  13.023  0.3561  0.8726  0.6789
 4228SOL     OW24316   0.004   3.972  11.495 -0.2292  0.3973  0.1860
 4228SOL    HW124317   0.067   3.900  11.493 -0.3159  0.3419 -0.6300
 4228SOL    HW224318   0.033   4.014  11.575 -2.9399  0.1167  1.3191
 4229SOL     OW24319   2.595   4.424   2.634 -0.0561 -0.0418  0.3090
 4229SOL    HW124320   2.521   4.425   2.573  1.5514 -1.7848 -1.6550
 4229SOL    HW224321   2.591   4.330   2.655 -2.2431 -0.2368 -0.9197
 4230SOL     OW24322   0.818   4.695   3.576  0.1085 -0.3215 -0.2072
 4230SOL    HW124323   0.787   0.032   3.522  3.1533  1.6241  0.6698
 4230SOL    HW224324   0.788   4.624   3.519  0.3320  0.4199 -1.2527
 4231SOL     OW24325   1.105   0.167   4.452  0.1949 -0.0213  0.0703
 4231SOL    HW124326   1.147   0.115   4.521  1.2674  3.3330  1.9346
 4231SOL    HW224327   1.094   0.095   4.390  2.9419 -0.5946  0.2720
 4232SOL     OW24328   1.310   1.370   8.635  0.1008 -0.3221  0.9792
 4232SOL    HW124329   1.405   1.367   8.632 -0.0945 -5.3378 -0.1996
 4232SOL    HW224330   1.295   1.433   8.565 -0.7136 -0.2331  1.2304
 4233SOL     OW24331   0.280   1.801  10.267 -0.4852 -0.1890 -0.8633
 4233SOL    HW124332   0.203   1.747  10.249 -0.6669 -0.1980 -0.0333
 4233SOL    HW224333   0.308   1.748  10.342 -0.6779 -0.9903 -1.3488
 4234SOL     OW24334   0.477   1.031   7.242 -0.1076  0.5003 -0.1802
 4234SOL    HW124335   0.411   0.981   7.290  1.0339  1.4637  2.4242
 4234SOL    HW224336   0.528   1.079   7.307 -1.5130 -1.3535  2.3151
 4235SOL     OW24337   2.933   3.904   6.179  0.4437 -0.3354  0.0440
 4235SOL    HW124338   2.888   3.824   6.151  1.3903  1.0139 -5.2991
 4235SOL    HW224339   3.022   3.901   6.143 -0.1387 -0.5718 -1.3796
 4236SOL     OW24340   1.108   0.358   8.241  0.4244  0.6133 -0.3427
 4236SOL    HW124341   1.138   0.388   8.327  2.0162 -1.6428 -0.0714
 4236SOL    HW224342   1.014   0.355   8.254  0.5373  2.9409  0.9558
 4237SOL     OW24343   1.358   4.002   7.365  0.3124  0.6806  0.1629
 4237SOL    HW124344   1.388   4.093   7.358  0.6221  0.6004  0.4737
 4237SOL    HW224345   1.415   3.963   7.299 -1.1632 -1.1547 -0.0155
 4238SOL     OW24346   3.152   1.536  11.811  0.1903  0.0828  0.6869
 4238SOL    HW124347   3.203   1.586  11.747  1.1662 -0.0076  1.4049
 4238SOL    HW224348   3.194   1.567  11.891  0.0203 -3.3870  2.1093
 4239SOL     OW24349   2.688   3.916   3.540  0.4381  0.0544 -0.1405
 4239SOL    HW124350   2.688   4.003   3.580 -2.0707  0.6517 -1.4536
 4239SOL    HW224351   2.782   3.903   3.528  0.7072  0.9577  1.0177
 4240SOL     OW24352   2.585   0.658   7.901 -0.0949 -0.0237  0.6084
 4240SOL    HW124353   2.584   0.690   7.811  2.6674 -0.7212  0.3066
 4240SOL    HW224354   2.535   0.577   7.895  1.3638 -0.9127  0.3600
 4241SOL     OW24355   2.335   3.099   2.774 -0.4748  0.0535  0.5171
 4241SOL    HW124356   2.334   3.019   2.722  1.2645 -0.8087  1.8353
 4241SOL    HW224357   2.355   3.072   2.863  0.4641 -0.1947  0.2229
 4242SOL     OW24358   0.067   3.934  10.875 -0.2827  0.6932 -0.2724
 4242SOL    HW124359   0.099   3.999  10.937  0.7142 -0.9488  0.9271
 4242SOL    HW224360   0.002   3.985  10.826 -2.0293 -1.6325 -0.4052
 4243SOL     OW24361   2.827   4.455  15.535  0.2792 -0.1870 -0.0577
 4243SOL    HW124362   2.898   4.501  15.491  0.4170 -0.7432 -0.4225
 4243SOL    HW224363   2.756   4.505  15.496  0.9812 -0.1300 -1.2402
 4244SOL     OW24364   1.660   2.323   4.263 -0.4198 -0.2373 -0.2871
 4244SOL    HW124365   1.712   2.246   4.240 -1.4136 -0.7469 -0.8083
 4244SOL    HW224366   1.705   2.350   4.343  0.7705 -0.4320 -0.8985
 4245SOL     OW24367   0.799   2.448  10.474 -0.5095 -0.3114  0.3968
 4245SOL    HW124368   0.835   2.515  10.417 -0.1842  0.1699  1.1695
 4245SOL    HW224369   0.737   2.497  10.529  2.0793  1.2016  1.9717
 4246SOL     OW24370   2.238   1.429   2.276 -0.0252  0.1922  0.3808
 4246SOL    HW124371   2.151   1.389   2.277  0.2769 -0.5131 -0.4451
 4246SOL    HW224372   2.294   1.365   2.321 -1.2284 -0.8078  0.4647
 4247SOL     OW24373   3.150   0.299   8.314 -0.6544 -0.3500  0.2127
 4247SOL    HW124374   3.223   0.348   8.353 -2.2682  0.9689  1.5428
 4247SOL    HW224375   3.157   0.227   8.378  1.2972 -0.1467  0.2518
 4248SOL     OW24376   0.835   1.472   7.207 -0.7469  0.4197 -0.4590
 4248SOL    HW124377   0.789   1.446   7.127 -1.3934  0.7221 -0.1851
 4248SOL    HW224378   0.860   1.384   7.234  0.5317  0.6708 -0.8210
 4249SOL     OW24379   4.171   3.118  13.626  0.2126 -0.1608 -0.1261
 4249SOL    HW124380   4.238   3.098  13.691 -0.0736 -3.5658 -0.8636
 4249SOL    HW224381   4.134   3.195  13.668  0.8878  0.3165 -0.4157
 4250SOL     OW24382   0.995   0.331   5.208 -0.0221  0.3717 -0.3318
 4250SOL    HW124383   1.032   0.373   5.130 -1.5994 -1.9363 -2.2709
 4250SOL    HW224384   0.918   0.288   5.173 -0.3076 -0.1438  0.9292
 4251SOL     OW24385   1.868   2.008   5.123  0.0698  0.0553  0.1115
 4251SOL    HW124386   1.830   1.979   5.040 -0.0186  0.0093  0.1677
 4251SOL    HW224387   1.790   2.016   5.178  1.5509  1.9740  1.8909
 4252SOL     OW24388   4.185   2.788   3.181  0.6268 -0.3875  0.0196
 4252SOL    HW124389   4.152   2.867   3.139 -0.8746 -1.0954 -0.1364
 4252SOL    HW224390   4.276   2.813   3.200  0.0739  1.0553  0.7518
 4253SOL     OW24391   2.692   0.948   4.278  0.2611  0.0087  0.1257
 4253SOL    HW124392   2.684   1.041   4.256  2.0352 -0.1893 -1.3323
 4253SOL    HW224393   2.784   0.952   4.303  0.3554  1.0581 -0.3967
 4254SOL     OW24394   2.091   0.535   7.675 -0.0079 -0.3477  0.5199
 4254SOL    HW124395   2.049   0.525   7.760 -0.1290 -0.7819  0.4077
 4254SOL    HW224396   2.060   0.622   7.648  2.3544  0.4052  0.2051
 4255SOL     OW24397   0.505   1.313   4.702  0.2613  0.2208 -0.1925
 4255SOL    HW124398   0.494   1.268   4.619  1.3811 -1.8022  0.7426
 4255SOL    HW224399   0.573   1.259   4.744  0.0704  0.8935  0.9990
 4256SOL     OW24400   0.377   3.254  12.116  0.1138  0.1183  0.1144
 4256SOL    HW124401   0.446   3.190  12.101 -1.5397 -1.2908 -1.4170
 4256SOL    HW224402   0.326   3.210  12.184 -0.5044  0.2212 -0.2821
 4257SOL     OW24403   0.903   1.176   0.243  0.0321  0.1133 -0.1497
 4257SOL    HW124404   0.817   1.214   0.265  0.1052 -0.0628  0.4400
 4257SOL    HW224405   0.885   1.133   0.160 -0.9458 -1.2484  0.7643
 4258SOL     OW24406   1.128   0.571  15.964  0.6426  0.3957 -0.8024
 4258SOL    HW124407   1.166   0.614  16.041  2.7483  0.7173 -2.0034
 4258SOL    HW224408   1.044   0.544  16.001  0.7211 -0.7939 -1.4988
 4259SOL     OW24409   3.701   4.576  14.014  0.1295  0.7114 -0.1221
 4259SOL    HW124410   3.631   4.593  13.952 -0.2927  0.9868  0.4233
 4259SOL    HW224411   3.717   4.665  14.046 -0.3278  0.1809  1.6228
 4260SOL     OW24412   3.253   1.122   5.696  0.1487  0.4514  0.1444
 4260SOL    HW124413   3.169   1.102   5.654 -0.0199 -0.1545  0.7666
 4260SOL    HW224414   3.310   1.089   5.627 -0.0661 -1.8675  1.0600
 4261SOL     OW24415   1.132   1.875   7.940  0.7947  0.6547  0.2294
 4261SOL    HW124416   1.161   1.940   7.876  3.0059  1.6086  2.1798
 4261SOL    HW224417   1.194   1.896   8.011 -0.1560 -1.7549  1.7770
 4262SOL     OW24418   2.426   4.080   6.830  0.4415 -0.1278 -0.0338
 4262SOL    HW124419   2.406   4.020   6.902 -0.1562 -1.8668 -1.6383
 4262SOL    HW224420   2.342   4.086   6.784  1.5299  1.0037 -1.9026
 4263SOL     OW24421   1.042   3.033   3.008  0.6669  0.0130 -0.1665
 4263SOL    HW124422   1.084   3.054   3.091 -0.8733  0.6694  0.4405
 4263SOL    HW224423   0.962   3.084   3.019  1.3674  0.9207  0.7090
 4264SOL     OW24424   0.649   3.506   0.810 -0.1066  0.1988  0.1167
 4264SOL    HW124425   0.565   3.492   0.853  0.1004  2.1400  1.1448
 4264SOL    HW224426   0.610   3.526   0.725  2.4377  0.1736 -1.0650
 4265SOL     OW24427   4.580   4.141   9.242 -0.5013  0.9134  0.1235
 4265SOL    HW124428   4.490   4.163   9.218 -1.5167 -1.5681  1.6168
 4265SOL    HW224429   4.579   4.154   9.337  1.8971 -0.2473  0.2893
 4266SOL     OW24430   1.278   0.017   3.078 -0.3386  0.3225 -0.1039
 4266SOL    HW124431   1.344   0.031   3.145  0.1652  0.9277 -0.7191
 4266SOL    HW224432   1.201   0.029   3.134 -1.2692  3.0378 -1.9028
 4267SOL     OW24433   3.065   1.608  11.011 -0.2054  0.0084  0.4266
 4267SOL    HW124434   2.972   1.617  10.992 -0.3224 -0.3800  0.8207
 4267SOL    HW224435   3.071   1.537  11.075 -0.6154  1.4871  2.1204
 4268SOL     OW24436   3.427   1.189   6.224 -0.7095 -0.7578 -0.7841
 4268SOL    HW124437   3.427   1.191   6.320  2.3731 -1.9907 -0.7470
 4268SOL    HW224438   3.500   1.246   6.198 -2.0817  1.0711 -0.6121
 4269SOL     OW24439   0.291   4.073   2.789  0.0641  0.1545  0.3122
 4269SOL    HW124440   0.335   4.145   2.743  1.8628 -2.0909 -1.4799
 4269SOL    HW224441   0.357   4.006   2.772 -1.3643 -1.1575  0.0376
 4270SOL     OW24442   4.684   3.681   5.503 -0.0014 -0.5255  0.3057
 4270SOL    HW124443   4.622   3.703   5.433  0.8535  1.4689  0.1794
 4270SOL    HW224444   4.625   3.646   5.569 -2.8857  1.0326 -1.4200
 4271SOL     OW24445   3.288   1.847   8.510 -0.1452 -0.2977  0.2188
 4271SOL    HW124446   3.304   1.754   8.494 -2.0069 -0.7246  0.8109
 4271SOL    HW224447   3.357   1.856   8.576 -0.8701  0.1371  0.9112
 4272SOL     OW24448   2.209   3.184   6.912  0.1469  0.3371 -0.4733
 4272SOL    HW124449   2.301   3.168   6.894  0.5746 -0.7773  2.6874
 4272SOL    HW224450   2.195   3.139   6.996 -0.7249  2.1045  0.3314
 4273SOL     OW24451   1.871   4.220   5.968 -0.2180 -0.8448 -0.0802
 4273SOL    HW124452   1.792   4.228   6.021  0.1170  1.1901  0.1316
 4273SOL    HW224453   1.837   4.286   5.906  0.2859 -1.0517 -0.5780
 4274SOL     OW24454   4.653   4.319   1.346  0.0808 -0.1200  0.2446
 4274SOL    HW124455   4.612   4.405   1.359 -1.3631 -1.1319  2.4440
 4274SOL    HW224456   4.732   4.342   1.297  0.9846 -2.1809  0.7132
 4275SOL     OW24457   1.838   3.232   5.256 -0.3903 -0.4191  0.2293
 4275SOL    HW124458   1.891   3.311   5.266 -0.4041 -0.3814  0.0167
 4275SOL    HW224459   1.882   3.185   5.185 -1.3256 -1.1436  0.1362
 4276SOL     OW24460   4.370   0.045   2.603  0.2287 -0.3660 -0.0280
 4276SOL    HW124461   4.464   0.061   2.610 -0.1280  2.3714 -1.6492
 4276SOL    HW224462   4.320   0.106   2.657 -1.3129 -1.3989 -0.2966
 4277SOL     OW24463   0.052   2.608   9.105  0.4916 -0.0083 -0.7409
 4277SOL    HW124464   0.075   2.688   9.152 -0.6992  0.8607 -1.6273
 4277SOL    HW224465   0.128   2.558   9.135  0.1834 -0.0884 -0.0888
 4278SOL     OW24466   2.131   2.403  11.885  0.9265  0.3899 -0.4651
 4278SOL    HW124467   2.111   2.495  11.863  0.9518  0.2253 -1.1932
 4278SOL    HW224468   2.040   2.376  11.894  0.4287  1.8104 -1.0592
 4279SOL     OW24469   0.752   4.677  17.062  0.4196  0.1791  0.1423
 4279SOL    HW124470   0.749   0.016  17.122 -0.8052  0.3272 -0.1046
 4279SOL    HW224471   0.676   4.714  17.017 -0.9469  0.0439  2.3362
 4280SOL     OW24472   2.778   0.826   5.963  1.0220  0.2834 -0.6104
 4280SOL    HW124473   2.797   0.917   5.940  0.8740  0.4476 -0.0803
 4280SOL    HW224474   2.853   0.796   6.013  0.4169 -0.1208  0.0521
 4281SOL     OW24475   3.830   1.124   0.868  0.1640  0.2966 -0.0702
 4281SOL    HW124476   3.867   1.063   0.933  0.7964  2.0007  1.1902
 4281SOL    HW224477   3.744   1.083   0.870 -0.2774  1.2550  0.6948
 4282SOL     OW24478   3.098   2.676   7.195  0.4613  0.2335 -0.5574
 4282SOL    HW124479   3.050   2.667   7.114 -0.2806  1.6419 -0.2716
 4282SOL    HW224480   3.034   2.638   7.255  1.4355  0.1689  0.4553
 4283SOL     OW24481   3.007   0.323   8.045  0.1389  0.6893 -0.4940
 4283SOL    HW124482   3.085   0.329   8.100  0.7303  1.7227 -1.4545
 4283SOL    HW224483   3.019   0.234   8.013  0.3541  0.5327  0.0223
 4284SOL     OW24484   1.678   0.424  15.354  0.1086  0.0305 -0.0175
 4284SOL    HW124485   1.699   0.444  15.446  1.0900 -0.0759 -0.2207
 4284SOL    HW224486   1.583   0.427  15.370  0.1093 -0.8614  0.1765
 4285SOL     OW24487   0.983   1.575   5.589  0.2863 -0.5643 -0.2094
 4285SOL    HW124488   0.901   1.527   5.577 -1.6556  2.9487 -1.3918
 4285SOL    HW224489   0.960   1.631   5.663 -1.3560 -0.3767 -0.8441
 4286SOL     OW24490   1.939   0.249   4.202  0.5418  0.0226 -0.0346
 4286SOL    HW124491   1.878   0.229   4.131  0.1916 -2.2940  0.9128
 4286SOL    HW224492   1.872   0.260   4.270  0.8285 -0.6864  0.3583
 4287SOL     OW24493   3.609   2.711  13.596  0.5980  0.3928 -0.3399
 4287SOL    HW124494   3.575   2.796  13.623 -1.5146 -0.1999 -1.1020
 4287SOL    HW224495   3.640   2.670  13.677  0.0800  0.2620 -0.2117
 4288SOL     OW24496   3.390   2.246   0.060 -0.2845 -0.3801  0.4663
 4288SOL    HW124497   3.396   2.313   0.128 -0.6203  0.7173 -0.5930
 4288SOL    HW224498   3.479   2.210   0.060  0.6612  1.9001  0.7224
 4289SOL     OW24499   0.747   1.600   8.378  0.5738  0.2090  0.7990
 4289SOL    HW124500   0.771   1.511   8.353  1.6197  0.0033  2.4868
 4289SOL    HW224501   0.715   1.592   8.468  1.9278  0.4830  1.3142
 4290SOL     OW24502   0.758   2.806   3.811 -0.4958  0.7320 -0.5142
 4290SOL    HW124503   0.840   2.759   3.824 -1.9588 -2.5397 -3.3176
 4290SOL    HW224504   0.730   2.825   3.900 -1.8111 -1.9795 -0.3481
 4291SOL     OW24505   3.090   0.223   7.710  0.7058 -0.1112 -0.0427
 4291SOL    HW124506   3.176   0.212   7.750  0.3121  0.2641  0.9039
 4291SOL    HW224507   3.060   0.132   7.707  0.0120  0.0328  2.9870
 4292SOL     OW24508   2.006   1.495   8.774 -0.1732  0.1388 -0.4664
 4292SOL    HW124509   1.954   1.513   8.695  0.0408 -0.1977 -0.6816
 4292SOL    HW224510   2.096   1.513   8.747  0.0267 -0.6970 -0.3486
 4293SOL     OW24511   3.347   0.058  15.210 -0.4637  0.2257 -0.3572
 4293SOL    HW124512   3.283   0.088  15.146 -0.0951  0.9939 -0.3604
 4293SOL    HW224513   3.302   0.100  15.283 -0.7740  0.8978 -0.9398
 4294SOL     OW24514   2.720   0.300   7.972  0.1266  0.3463  0.2491
 4294SOL    HW124515   2.812   0.278   7.981 -0.2186 -0.4259  1.9345
 4294SOL    HW224516   2.718   0.335   7.883 -1.7837 -2.1610 -0.7188
 4295SOL     OW24517   2.765   0.698   5.567  0.8212 -0.1368  0.2811
 4295SOL    HW124518   2.773   0.794   5.565 -0.1647 -0.0515  0.6400
 4295SOL    HW224519   2.674   0.690   5.540  1.5414 -2.4538 -1.4339
 4296SOL     OW24520   2.933   0.620  16.186 -0.2200  0.6182  0.1833
 4296SOL    HW124521   2.978   0.586  16.109 -2.6829  1.0649 -1.4563
 4296SOL    HW224522   2.844   0.640  16.156 -0.5740 -2.1507 -0.6296
 4297SOL     OW24523   0.153   2.670   8.064 -0.3464 -0.5200  0.3503
 4297SOL    HW124524   0.138   2.636   7.976  0.4417 -0.2629  0.1164
 4297SOL    HW224525   0.201   2.752   8.052 -0.5391 -0.4309  0.2019
 4298SOL     OW24526   3.726   1.713  10.824 -0.8163  0.1613  0.2615
 4298SOL    HW124527   3.687   1.794  10.857  1.8837  1.1392  1.0753
 4298SOL    HW224528   3.716   1.711  10.729  0.7602  0.1746  0.0980
 4299SOL     OW24529   3.146   1.622   4.172  0.9046 -0.0157 -0.1891
 4299SOL    HW124530   3.160   1.589   4.260  1.2660 -2.1373 -1.0524
 4299SOL    HW224531   3.126   1.545   4.119 -0.9698  0.4131 -0.1068
 4300SOL     OW24532   1.738   3.861   2.771 -0.0043 -0.0204  0.3835
 4300SOL    HW124533   1.766   3.828   2.686 -2.4692 -0.3996 -0.2940
 4300SOL    HW224534   1.704   3.782   2.812 -2.0692  0.4016 -0.5306
 4301SOL     OW24535   4.279   0.227  12.862 -0.4207 -0.7042 -0.4772
 4301SOL    HW124536   4.308   0.146  12.903  2.5402  0.5683 -0.0169
 4301SOL    HW224537   4.357   0.242  12.810  0.1115  2.5267  1.2305
 4302SOL     OW24538   3.732   1.474   5.909  0.4044 -0.0204  0.4692
 4302SOL    HW124539   3.789   1.547   5.934 -0.5205  1.2179 -1.0182
 4302SOL    HW224540   3.762   1.451   5.821 -0.1369  1.5506 -0.1318
 4303SOL     OW24541   3.932   1.635   5.997  0.1387  0.1822 -0.7097
 4303SOL    HW124542   3.968   1.553   6.029  0.4123  0.6887  0.2822
 4303SOL    HW224543   4.011   1.688   6.003  0.3502 -0.5145  2.6466
 4304SOL     OW24544   4.131   0.253  17.026  0.0538  0.5019  0.3206
 4304SOL    HW124545   4.089   0.335  16.997  1.7885 -0.0268 -3.7419
 4304SOL    HW224546   4.078   0.240  17.104 -0.3884 -0.1942 -0.0955
 4305SOL     OW24547   1.488   4.645  14.629  0.3799 -0.0202 -0.1524
 4305SOL    HW124548   1.456   4.571  14.577 -1.1248  1.0241 -0.7127
 4305SOL    HW224549   1.443   4.717  14.586  1.4904  0.4551 -0.5200
 4306SOL     OW24550   1.691   1.010  10.520  0.4337  0.5203  0.2121
 4306SOL    HW124551   1.679   0.916  10.531  2.9930  0.1260 -0.3730
 4306SOL    HW224552   1.615   1.037  10.572  0.6068  0.8694  0.2890
 4307SOL     OW24553   1.882   3.959   0.049 -0.1274  0.4911  0.0494
 4307SOL    HW124554   1.970   3.943   0.084  0.0005  0.0151 -0.4936
 4307SOL    HW224555   1.895   4.035  17.734  3.3937 -0.1796 -0.0784
 4308SOL     OW24556   1.906   3.224   9.538  0.6203 -0.5830 -0.3490
 4308SOL    HW124557   1.895   3.237   9.632  0.4076  1.9917 -0.7194
 4308SOL    HW224558   1.953   3.302   9.508 -0.6866  0.1410 -0.5323
 4309SOL     OW24559   3.699   1.263   3.642  0.6433 -0.1699  0.0970
 4309SOL    HW124560   3.732   1.174   3.637  1.1636 -0.0288  0.9838
 4309SOL    HW224561   3.785   1.300   3.660  0.0291  0.6280  1.4191
 4310SOL     OW24562   3.440   1.757   4.440 -0.8166 -0.1873 -0.2507
 4310SOL    HW124563   3.426   1.755   4.345 -2.1938  1.5518 -0.0837
 4310SOL    HW224564   3.374   1.692   4.466 -0.4294 -0.9988 -1.2798
 4311SOL     OW24565   0.523   3.666  14.339 -0.6927  0.0161  0.0922
 4311SOL    HW124566   0.524   3.614  14.259  0.2872  1.6610 -0.9717
 4311SOL    HW224567   0.547   3.748  14.295 -2.4752 -0.5943 -2.0261
 4312SOL     OW24568   0.392   4.272   3.718  0.3010  0.1892 -0.1285
 4312SOL    HW124569   0.432   4.354   3.745 -0.2326  0.5867 -0.5400
 4312SOL    HW224570   0.401   4.288   3.624  1.5098 -0.0156 -0.0439
 4313SOL     OW24571   0.278   2.323   7.452 -0.3153  0.0365  0.5317
 4313SOL    HW124572   0.294   2.283   7.538  0.8750  0.8690  0.6982
 4313SOL    HW224573   0.245   2.411   7.471  1.4407  0.8890 -0.3741
 4314SOL     OW24574   1.409   2.415  14.072 -0.2265  0.4317  0.1662
 4314SOL    HW124575   1.339   2.469  14.037 -0.4746 -0.6116 -0.9408
 4314SOL    HW224576   1.372   2.327  14.065  1.4433 -0.1456 -1.3951
 4315SOL     OW24577   3.190   1.413   1.008  0.4358  0.0287  0.5210
 4315SOL    HW124578   3.274   1.387   0.970  0.8563  0.0245  1.4695
 4315SOL    HW224579   3.150   1.442   0.926  1.0624  1.8935  0.8867
 4316SOL     OW24580   2.736   4.279  14.758 -0.7661 -0.2229  0.2039
 4316SOL    HW124581   2.803   4.293  14.825  0.2458  0.7658 -1.0088
 4316SOL    HW224582   2.652   4.295  14.801 -0.3568  1.1184  0.4968
 4317SOL     OW24583   1.905   3.496  12.344 -0.2838  0.0567  0.1914
 4317SOL    HW124584   1.977   3.438  12.368 -0.7284 -1.1239 -1.2825
 4317SOL    HW224585   1.835   3.437  12.374 -1.1157 -0.7765 -3.3810
 4318SOL     OW24586   3.832   3.531  16.736  0.3323  0.6052  0.0442
 4318SOL    HW124587   3.775   3.463  16.771  1.1937 -0.3491 -0.4284
 4318SOL    HW224588   3.861   3.489  16.656  0.5205  2.2144 -0.7427
 4319SOL     OW24589   1.515   3.366   7.417 -0.0756  0.1210  0.2990
 4319SOL    HW124590   1.436   3.417   7.403 -1.2763 -1.6979  0.3828
 4319SOL    HW224591   1.586   3.429   7.423 -0.7046  0.8425  0.0676
 4320SOL     OW24592   2.390   4.431   3.327  0.5554  0.3197  0.2092
 4320SOL    HW124593   2.371   4.387   3.244  0.6571  1.4308 -0.4025
 4320SOL    HW224594   2.307   4.469   3.356  1.7453  3.0554 -0.0205
 4321SOL     OW24595   3.586   2.161   7.111 -0.3339  0.1941  0.0525
 4321SOL    HW124596   3.517   2.183   7.173  1.0910  1.3353  1.2370
 4321SOL    HW224597   3.538   2.114   7.043 -1.1081  1.2151 -0.1076
 4322SOL     OW24598   1.584   3.646  17.716  0.4541  0.2500  0.1860
 4322SOL    HW124599   1.650   3.654  17.647 -0.5789  0.5110 -0.7635
 4322SOL    HW224600   1.579   3.740  17.732  0.9665  0.5349 -1.2720
 4323SOL     OW24601   2.654   0.738   2.052 -0.2033 -0.2713 -0.3459
 4323SOL    HW124602   2.734   0.704   2.091  0.5160  0.0869 -1.4845
 4323SOL    HW224603   2.627   0.805   2.115  1.2856 -0.7097  0.7426
 4324SOL     OW24604   0.782   1.274  13.644 -0.5283  0.2519 -0.1255
 4324SOL    HW124605   0.724   1.200  13.625 -2.0594  0.6750  2.8900
 4324SOL    HW224606   0.774   1.279  13.739 -1.6742 -1.4441 -0.1189
 4325SOL     OW24607   0.295   0.112   5.595  0.5456 -0.3057 -0.2434
 4325SOL    HW124608   0.248   0.074   5.669  0.8056 -1.0677 -0.4667
 4325SOL    HW224609   0.337   0.192   5.628 -2.1245 -0.1030  2.6765
 4326SOL     OW24610   1.256   2.547   2.379  0.2296 -0.6206 -0.2237
 4326SOL    HW124611   1.293   2.635   2.372 -0.5771 -0.0896  1.9939
 4326SOL    HW224612   1.167   2.553   2.346 -0.8545  0.5052  2.8917
 4327SOL     OW24613   2.575   4.553   4.936  0.3676  0.0361  0.0822
 4327SOL    HW124614   2.494   4.595   4.909  1.0456  1.4662  0.3066
 4327SOL    HW224615   2.629   4.624   4.970 -0.5875  0.5427  0.5259
 4328SOL     OW24616   1.911   2.869   6.893  0.4435 -0.1107  0.4033
 4328SOL    HW124617   1.866   2.834   6.816 -0.2109  1.6152 -0.0072
 4328SOL    HW224618   1.963   2.792   6.915 -0.0362 -0.1067  1.5583
 4329SOL     OW24619   2.356   4.492   7.182  0.5176 -0.5237  0.9371
 4329SOL    HW124620   2.383   4.425   7.119 -2.3194 -0.8416  0.0716
 4329SOL    HW224621   2.420   4.563   7.179  0.3820 -0.4025  0.9197
 4330SOL     OW24622   1.088   1.419   2.959  0.4481 -0.3281 -0.5056
 4330SOL    HW124623   1.120   1.331   2.982  0.6063 -0.2967 -0.6054
 4330SOL    HW224624   1.097   1.410   2.864  0.9359 -2.7408 -0.2445
 4331SOL     OW24625   1.991   0.705   9.199  0.0676 -0.0256  0.0066
 4331SOL    HW124626   1.901   0.672   9.198  0.0838 -0.1132  1.2950
 4331SOL    HW224627   1.980   0.763   9.275  0.2801 -0.2264  0.1926
 4332SOL     OW24628   0.920   0.386  16.301  0.0647  0.4897 -0.0636
 4332SOL    HW124629   0.826   0.373  16.289 -0.3929  3.1436  0.7745
 4332SOL    HW224630   0.946   0.296  16.321  1.2358  0.7747 -0.2727
 4333SOL     OW24631   3.614   0.375   2.665  0.2455 -0.2610 -0.2567
 4333SOL    HW124632   3.523   0.359   2.689  0.3039  1.8297  1.2704
 4333SOL    HW224633   3.606   0.468   2.647  1.8888  0.8306  4.6501
 4334SOL     OW24634   3.590   0.628   2.088 -0.2559  0.0970 -0.2119
 4334SOL    HW124635   3.502   0.663   2.082  0.1303  0.9501 -0.8287
 4334SOL    HW224636   3.607   0.607   1.997 -0.3672  0.0930 -0.2307
 4335SOL     OW24637   2.857   0.477   9.620  0.3264  0.0588  0.6769
 4335SOL    HW124638   2.816   0.552   9.578  0.7762  0.4508  0.9307
 4335SOL    HW224639   2.819   0.404   9.570  2.2559 -0.6042  0.1577
 4336SOL     OW24640   4.689   0.316   7.959  0.4258 -0.2013  0.2068
 4336SOL    HW124641   4.725   0.295   7.873 -1.2576  1.7442 -0.9771
 4336SOL    HW224642   0.002   0.398   7.975  1.6541 -0.6788 -1.0501
 4337SOL     OW24643   1.609   4.577  12.535  0.1049 -0.4811 -0.2234
 4337SOL    HW124644   1.597   4.482  12.526 -0.8840 -0.3403 -0.3930
 4337SOL    HW224645   1.704   4.586  12.536 -0.0185  0.9012 -0.5087
 4338SOL     OW24646   2.197   3.834   8.628  0.3751 -0.1393  0.4159
 4338SOL    HW124647   2.194   3.758   8.686 -0.2756 -0.4005  0.0358
 4338SOL    HW224648   2.230   3.897   8.692  0.5030 -0.9296  1.1282
 4339SOL     OW24649   2.533   0.979   6.001 -0.0524 -0.1405  0.7135
 4339SOL    HW124650   2.588   0.903   5.984 -0.8160 -0.2761 -1.0741
 4339SOL    HW224651   2.550   0.997   6.093 -3.2760  1.1831  1.0523
 4340SOL     OW24652   4.300   1.132   3.735 -0.3789 -0.5036  0.1033
 4340SOL    HW124653   4.267   1.161   3.650  0.2808 -1.3143 -0.4235
 4340SOL    HW224654   4.384   1.088   3.723 -0.8317 -1.1801 -0.5904
 4341SOL     OW24655   0.671   4.477   3.947 -0.0039  0.3377 -0.1755
 4341SOL    HW124656   0.630   4.405   3.995 -2.7705  1.0341 -1.5114
 4341SOL    HW224657   0.645   4.548   4.005  0.8407 -0.3080  0.9910
 4342SOL     OW24658   3.191   1.260   8.404 -0.2669  0.1318  0.0442
 4342SOL    HW124659   3.183   1.166   8.422  0.5677  0.4211  1.9275
 4342SOL    HW224660   3.281   1.273   8.433  0.3600 -1.2560 -1.2085
 4343SOL     OW24661   2.679   0.910   3.430  0.7396  0.1518  0.1155
 4343SOL    HW124662   2.608   0.963   3.393  1.2039  1.9205  1.7113
 4343SOL    HW224663   2.706   0.866   3.350 -1.5754  1.8406 -1.6047
 4344SOL     OW24664   2.015   3.952   2.269 -0.2525  0.0821 -0.3152
 4344SOL    HW124665   1.972   3.903   2.339  2.3702  1.8844  2.5567
 4344SOL    HW224666   2.107   3.923   2.267 -0.7877 -1.5120 -3.1620
 4345SOL     OW24667   0.854   2.719   1.035 -0.2560  0.7257 -0.2107
 4345SOL    HW124668   0.847   2.690   0.944  1.4940  1.3561 -0.5425
 4345SOL    HW224669   0.769   2.748   1.068 -0.1196 -0.3570  1.0805
 4346SOL     OW24670   0.409   3.560   6.122  0.4576 -0.4929  0.1444
 4346SOL    HW124671   0.449   3.618   6.057 -0.1044 -1.2101 -0.8353
 4346SOL    HW224672   0.477   3.541   6.186 -0.0264 -1.4726  0.3701
 4347SOL     OW24673   4.096   2.897   5.823 -0.1597  0.6729 -0.1321
 4347SOL    HW124674   4.139   2.855   5.748  0.3289 -0.1322  0.5998
 4347SOL    HW224675   4.021   2.837   5.820 -0.2693  0.7683  1.0271
 4348SOL     OW24676   1.619   1.549   5.837 -0.2871  0.2911 -0.1633
 4348SOL    HW124677   1.547   1.555   5.900 -1.1713 -2.0203 -0.9458
 4348SOL    HW224678   1.574   1.516   5.759 -1.0741 -0.1808  0.4799
 4349SOL     OW24679   2.940   3.120   4.375 -0.2178 -0.1672 -0.3640
 4349SOL    HW124680   2.905   3.162   4.454  1.1950  0.0345  0.1638
 4349SOL    HW224681   3.029   3.153   4.384 -0.5222  0.1793  1.4745
 4350SOL     OW24682   2.353   2.486   6.407 -0.2677 -0.2453  0.1478
 4350SOL    HW124683   2.395   2.435   6.476  0.0669  1.5992  1.3196
 4350SOL    HW224684   2.386   2.575   6.420 -0.9037 -0.2947  2.1245
 4351SOL     OW24685   4.017   3.676   3.191 -0.2781 -0.0370 -0.0508
 4351SOL    HW124686   4.102   3.638   3.167  0.5398 -0.4588  3.5350
 4351SOL    HW224687   4.020   3.653   3.283 -0.0718  1.5647  0.3558
 4352SOL     OW24688   0.078   0.895   8.164  0.4714  0.5556  0.8030
 4352SOL    HW124689   0.070   0.821   8.103 -0.3232  0.7756  0.6454
 4352SOL    HW224690   0.162   0.937   8.143  0.6262 -0.5988 -0.9263
 4353SOL     OW24691   1.079   2.031   6.374  0.2779  0.3375  0.3301
 4353SOL    HW124692   1.005   1.997   6.325 -0.4743  1.3918  0.7313
 4353SOL    HW224693   1.095   2.116   6.333  0.1634 -0.5326 -1.5228
 4354SOL     OW24694   0.776   2.709  17.452  0.3766  0.3592  0.3986
 4354SOL    HW124695   0.779   2.793  17.406 -0.7081  0.8188  1.1774
 4354SOL    HW224696   0.685   2.680  17.454  0.3619  0.1346 -3.0009
 4355SOL     OW24697   0.246   2.096  12.184 -0.3662 -0.0147  0.3475
 4355SOL    HW124698   0.318   2.066  12.239 -0.1535  0.9059  0.5737
 4355SOL    HW224699   0.294   2.121  12.105 -1.1236 -1.3798 -0.5412
 4356SOL     OW24700   2.387   2.756   7.660 -0.5533 -0.1551 -0.4363
 4356SOL    HW124701   2.357   2.764   7.750  1.8413 -0.9463  0.4452
 4356SOL    HW224702   2.479   2.784   7.661 -0.8382  0.7668 -0.1129
 4357SOL     OW24703   0.761   3.119   6.047 -0.0802  0.4803  0.3619
 4357SOL    HW124704   0.711   3.174   6.108  2.1234  0.5146  2.1486
 4357SOL    HW224705   0.722   3.035   6.068  1.3917 -0.1729  0.4870
 4358SOL     OW24706   3.424   1.419  11.909  0.8159 -0.1935 -0.1966
 4358SOL    HW124707   3.434   1.357  11.837 -0.5801 -0.2699 -0.3095
 4358SOL    HW224708   3.375   1.365  11.971  1.1989  0.1437  0.4083
 4359SOL     OW24709   3.749   1.509  13.454  0.1884  0.0057  0.2200
 4359SOL    HW124710   3.813   1.515  13.382  1.3979 -0.3127  1.2569
 4359SOL    HW224711   3.711   1.424  13.436 -0.5617  0.0700  1.5452
 4360SOL     OW24712   3.554   4.325  12.968  0.6534 -0.1176  0.3928
 4360SOL    HW124713   3.634   4.317  12.916  0.0579  1.3221 -0.7654
 4360SOL    HW224714   3.492   4.344  12.897  1.1990 -0.2403 -0.1125
 4361SOL     OW24715   0.988   0.917  11.910 -0.1145  0.5082  0.4471
 4361SOL    HW124716   0.900   0.879  11.910 -0.1584  0.6241 -0.4494
 4361SOL    HW224717   1.019   0.841  11.861 -0.9390 -0.7552  1.8843
 4362SOL     OW24718   4.735   2.752   7.809 -0.1487 -0.0165 -0.0523
 4362SOL    HW124719   4.721   2.810   7.884  0.1093 -0.5158  0.3781
 4362SOL    HW224720   0.001   2.820   7.741  4.7633  0.6337  0.7556
 4363SOL     OW24721   2.449   3.344   6.635 -0.1516 -0.5920  0.3449
 4363SOL    HW124722   2.469   3.251   6.632  2.4506  0.0186 -0.9928
 4363SOL    HW224723   2.518   3.375   6.576 -1.3003  2.2223  0.4447
 4364SOL     OW24724   0.441   0.795  11.367 -0.2091 -0.2831 -0.5204
 4364SOL    HW124725   0.502   0.760  11.302  0.0911 -0.1064 -0.3363
 4364SOL    HW224726   0.499   0.859  11.409 -0.9637 -0.3669  0.6488
 4365SOL     OW24727   1.860   0.258   9.184 -0.0995 -0.5875 -0.0773
 4365SOL    HW124728   1.887   0.301   9.103  2.4073  0.0926  1.1137
 4365SOL    HW224729   1.938   0.266   9.239 -1.2576 -2.0699  1.7950
 4366SOL     OW24730   3.267   0.453   5.849  0.4812 -0.1000 -0.1374
 4366SOL    HW124731   3.260   0.464   5.754 -0.2301 -0.7163 -0.1502
 4366SOL    HW224732   3.182   0.489   5.876  1.1960  1.3507  0.2045
 4367SOL     OW24733   2.480   1.789   3.326  0.0202 -0.0876 -0.4851
 4367SOL    HW124734   2.445   1.826   3.407 -1.2153 -1.3447 -0.4502
 4367SOL    HW224735   2.431   1.708   3.317  2.0342 -1.3570  0.1262
 4368SOL     OW24736   3.269   3.549   8.015 -0.9799  0.1223 -0.5996
 4368SOL    HW124737   3.321   3.478   8.051 -1.2247  0.6082  0.6876
 4368SOL    HW224738   3.195   3.550   8.076 -1.8810 -0.8023 -1.6781
 4369SOL     OW24739   3.670   0.060   7.767  0.6803 -0.4503 -0.0001
 4369SOL    HW124740   3.752   0.101   7.795  0.5084 -0.1906  0.1191
 4369SOL    HW224741   3.697   4.707   7.793  0.2992 -0.1936  1.2347
 4370SOL     OW24742   1.130   2.389   4.646 -0.0882  0.1671  0.1269
 4370SOL    HW124743   1.131   2.394   4.742  2.7836  0.4285  0.0877
 4370SOL    HW224744   1.220   2.356   4.640 -0.6800 -1.4011 -0.1207
 4371SOL     OW24745   2.245   0.413   8.556  0.2864 -0.2668  0.1327
 4371SOL    HW124746   2.295   0.332   8.548 -0.6662 -0.6592 -1.8260
 4371SOL    HW224747   2.155   0.382   8.567 -0.6340  1.4658 -2.4224
 4372SOL     OW24748   1.959   0.133  11.887  0.1310 -0.1286  0.0207
 4372SOL    HW124749   1.911   0.052  11.903 -1.5252  0.4026 -2.3034
 4372SOL    HW224750   1.927   0.163  11.802  0.5235  1.5700  0.4730
 4373SOL     OW24751   1.212   2.055  14.553 -0.5696 -0.4231 -0.1560
 4373SOL    HW124752   1.142   2.105  14.512 -0.9719 -0.2762  0.6944
 4373SOL    HW224753   1.210   1.983  14.490 -1.8040 -0.6910  0.1861
 4374SOL     OW24754   4.531   1.733   3.507  0.2498 -0.0237  0.4600
 4374SOL    HW124755   4.479   1.784   3.570 -3.0348 -1.8827 -0.7586
 4374SOL    HW224756   4.493   1.764   3.425 -0.7145 -2.0546  0.1372
 4375SOL     OW24757   3.640   3.549  10.043  0.1817 -0.2140  0.4336
 4375SOL    HW124758   3.642   3.642  10.022  1.3168 -0.0667  1.1908
 4375SOL    HW224759   3.576   3.521   9.977 -0.3144  0.3625  0.6618
 4376SOL     OW24760   2.906   4.210   2.635  0.5315 -0.8458  0.4203
 4376SOL    HW124761   2.861   4.293   2.651  0.0573 -0.6819 -1.7857
 4376SOL    HW224762   2.909   4.218   2.540 -0.3696 -1.2795  0.3501
 4377SOL     OW24763   0.620   2.394  11.140 -0.0079 -0.1002 -0.5491
 4377SOL    HW124764   0.535   2.438  11.126 -0.0963  0.0464  0.4296
 4377SOL    HW224765   0.623   2.409  11.235  2.2736  1.9769 -0.9499
 4378SOL     OW24766   4.094   2.645   7.986 -0.1921 -0.5096 -0.2556
 4378SOL    HW124767   4.025   2.639   7.920  0.5647 -1.0311 -0.9862
 4378SOL    HW224768   4.040   2.617   8.060  0.1035  0.1551  0.2091
 4379SOL     OW24769   4.570   0.879   9.442  0.2361 -0.4702  0.0346
 4379SOL    HW124770   4.659   0.843   9.436 -0.8384 -3.2057  0.9814
 4379SOL    HW224771   4.520   0.803   9.412 -0.8157 -0.0227  0.6862
 4380SOL     OW24772   3.513   1.512   8.647 -0.1419  0.2174 -0.5985
 4380SOL    HW124773   3.525   1.589   8.702 -1.3049 -1.3377  1.8455
 4380SOL    HW224774   3.588   1.509   8.588  0.7450  1.2372  0.4813
 4381SOL     OW24775   2.905   1.421   9.900 -0.4006 -0.3882  0.2881
 4381SOL    HW124776   2.951   1.452   9.823 -0.3744 -0.1589  0.3960
 4381SOL    HW224777   2.881   1.331   9.877 -0.0777  0.3895 -3.0795
 4382SOL     OW24778   1.676   0.617  17.545  0.3470 -0.4612 -0.3586
 4382SOL    HW124779   1.661   0.665  17.626 -2.7066  1.4236 -2.0337
 4382SOL    HW224780   1.742   0.552  17.570  1.2166  0.4616 -0.2781
 4383SOL     OW24781   4.160   3.330   8.525  0.1370  0.1630  0.2294
 4383SOL    HW124782   4.128   3.255   8.574 -2.0421  0.7750 -0.2443
 4383SOL    HW224783   4.239   3.348   8.575 -0.8637 -0.1956  1.9225
 4384SOL     OW24784   1.984   2.493  11.611 -0.7093 -0.7445 -0.5148
 4384SOL    HW124785   2.009   2.580  11.580  0.8491 -1.4004 -1.0852
 4384SOL    HW224786   2.027   2.447  11.539  2.7620  1.9722 -0.1670
 4385SOL     OW24787   3.760   1.157   6.270  0.3305  0.0382  0.2864
 4385SOL    HW124788   3.749   1.170   6.364  0.5899  1.2588  0.1439
 4385SOL    HW224789   3.721   1.233   6.227  1.6150  1.3398  1.4485
 4386SOL     OW24790   4.713   1.297   1.677 -0.0781  0.2244  0.2415
 4386SOL    HW124791   0.029   1.300   1.757  0.3040 -1.7244  0.0566
 4386SOL    HW224792   4.633   1.250   1.697  0.6266 -0.7117  0.8485
 4387SOL     OW24793   3.162   3.702  11.659 -0.2844  0.1669 -0.0365
 4387SOL    HW124794   3.166   3.611  11.689  1.6847  0.4592  0.5403
 4387SOL    HW224795   3.131   3.749  11.736 -1.1317 -2.2512  1.0949
 4388SOL     OW24796   1.280   0.017  13.771  0.7569  0.1274  0.1209
 4388SOL    HW124797   1.250   4.677  13.822  2.2510 -0.6643 -0.1892
 4388SOL    HW224798   1.371   0.021  13.801  0.3294  1.1460  1.2800
 4389SOL     OW24799   2.376   1.648   8.264  0.0394  0.0257  0.2654
 4389SOL    HW124800   2.344   1.631   8.175  0.5048 -0.2074  0.1360
 4389SOL    HW224801   2.334   1.581   8.317  0.5690  0.1636  0.8573
 4390SOL     OW24802   2.628   4.565   6.384  0.5818 -0.0846 -0.2177
 4390SOL    HW124803   2.717   4.536   6.404 -0.9358 -2.5333  3.1230
 4390SOL    HW224804   2.603   4.515   6.307 -0.2687 -1.7366  1.1183
 4391SOL     OW24805   0.229   2.540   4.775 -0.1543 -0.0432  0.4599
 4391SOL    HW124806   0.139   2.532   4.741 -0.8875 -0.2594  2.4339
 4391SOL    HW224807   0.261   2.584   4.696  2.3169 -0.2547  1.3710
 4392SOL     OW24808   4.611   1.328   2.861 -0.4376 -0.7579  0.6559
 4392SOL    HW124809   4.691   1.290   2.898  1.2795  2.5473  0.3026
 4392SOL    HW224810   4.563   1.344   2.943 -1.9035 -0.7634 -0.2175
 4393SOL     OW24811   1.124   3.992  13.044 -0.6090 -0.2503 -0.0483
 4393SOL    HW124812   1.145   4.068  12.990  0.7170  0.6361  1.6737
 4393SOL    HW224813   1.165   4.015  13.128 -1.0359 -0.4321  0.2090
 4394SOL     OW24814   0.986   1.423  13.516  0.5208 -0.2901 -0.1637
 4394SOL    HW124815   0.934   1.467  13.449  1.6280  0.0097 -0.8201
 4394SOL    HW224816   0.917   1.380  13.567  0.5571 -1.0412 -0.7470
 4395SOL     OW24817   1.715   1.744   3.956  0.0758  0.1630 -0.3877
 4395SOL    HW124818   1.715   1.726   3.862 -0.7537  1.6939 -0.6751
 4395SOL    HW224819   1.741   1.836   3.953  1.4329 -0.1726  1.0060
 4396SOL     OW24820   0.155   3.932   9.297 -0.8811  0.2854 -0.9022
 4396SOL    HW124821   0.232   3.989   9.307 -1.1681  0.5166 -0.0934
 4396SOL    HW224822   0.183   3.874   9.367 -1.2532  0.9667 -0.1973
 4397SOL     OW24823   0.072   3.293   4.439  0.8818 -0.5516  0.2499
 4397SOL    HW124824   0.074   3.211   4.488  2.0070 -1.0084 -0.5635
 4397SOL    HW224825   0.111   3.351   4.505 -0.6964  0.5064  0.2359
 4398SOL     OW24826   1.994   1.731  16.888  0.5060  0.0028 -0.2803
 4398SOL    HW124827   2.005   1.671  16.814  2.5959 -1.1681  0.9608
 4398SOL    HW224828   1.981   1.812  16.840 -2.2931  0.5372  1.4097
 4399SOL     OW24829   3.291   2.558  16.568  0.0280 -0.2967 -1.2248
 4399SOL    HW124830   3.272   2.491  16.634 -0.8961  0.1200 -1.0715
 4399SOL    HW224831   3.216   2.534  16.514 -1.9982 -1.2570  2.0282
 4400SOL     OW24832   2.898   4.158   4.654 -0.8635 -0.2829  0.2885
 4400SOL    HW124833   2.821   4.137   4.708 -1.3296  1.2902  0.2470
 4400SOL    HW224834   2.891   4.254   4.661 -1.9616 -0.2546 -1.1533
 4401SOL     OW24835   4.290   0.016   2.961  0.3062 -0.3515  0.0587
 4401SOL    HW124836   4.248   4.667   2.948 -0.6447  0.1684 -0.2070
 4401SOL    HW224837   4.236   0.068   2.902  1.1717 -1.5680 -1.8137
 4402SOL     OW24838   0.586   1.440   7.352  0.3066 -1.1624  0.2405
 4402SOL    HW124839   0.647   1.513   7.350  0.7132 -1.5812 -2.0078
 4402SOL    HW224840   0.630   1.381   7.413 -1.1662 -1.3507  1.1233
 4403SOL     OW24841   3.777   0.353   2.898 -0.9771 -0.2731 -0.4526
 4403SOL    HW124842   3.804   0.433   2.944  0.0717 -1.5387  1.1280
 4403SOL    HW224843   3.716   0.391   2.835  0.3141 -1.2384 -2.2518
 4404SOL     OW24844   0.262   0.621   4.669 -0.0944  0.3655  0.3793
 4404SOL    HW124845   0.306   0.686   4.614 -2.3583  1.3647 -0.2234
 4404SOL    HW224846   0.214   0.681   4.726  1.7415 -0.3525  2.7043
 4405SOL     OW24847   3.622   1.776  15.450 -0.1337  0.0785 -0.2265
 4405SOL    HW124848   3.680   1.702  15.429  0.6938  0.8454 -0.6035
 4405SOL    HW224849   3.640   1.833  15.375 -1.0734 -2.0159 -2.0745
 4406SOL     OW24850   0.951   0.138   3.271  0.0355 -0.2178  0.0546
 4406SOL    HW124851   1.016   0.175   3.330 -1.6190  1.9217  0.5144
 4406SOL    HW224852   0.945   0.199   3.198  1.2532  0.5690  0.6210
 4407SOL     OW24853   3.055   0.888   5.657 -0.1190 -0.5877 -0.1546
 4407SOL    HW124854   2.969   0.863   5.623 -0.2118  0.3064 -0.5869
 4407SOL    HW224855   3.117   0.842   5.602 -0.9624 -1.9479  0.0248
 4408SOL     OW24856   2.401   1.225   2.420  0.8184  0.3199  0.3564
 4408SOL    HW124857   2.362   1.148   2.460 -1.6224  0.9138 -0.8760
 4408SOL    HW224858   2.495   1.212   2.435  1.0340  2.7184  1.1552
 4409SOL     OW24859   0.413   1.286   9.690 -0.2819  0.3788  0.0517
 4409SOL    HW124860   0.417   1.283   9.786 -0.8657 -1.0754  0.0346
 4409SOL    HW224861   0.487   1.237   9.654 -0.0570  0.0336  0.9971
 4410SOL     OW24862   4.098   2.346   8.196 -0.0581  0.7085  0.2950
 4410SOL    HW124863   4.004   2.334   8.206  0.4878 -2.5848  1.5142
 4410SOL    HW224864   4.150   2.282   8.245 -1.4578  0.5511  1.5535
 4411SOL     OW24865   0.256   1.821   8.260  0.5176 -0.0982 -0.0912
 4411SOL    HW124866   0.350   1.817   8.240  0.8696  1.4020  1.2392
 4411SOL    HW224867   0.235   1.911   8.234 -0.0382  0.2591  1.6121
 4412SOL     OW24868   4.376   3.239   9.258 -0.1958 -0.4301 -0.4085
 4412SOL    HW124869   4.412   3.267   9.175  0.0025  0.0923 -0.1442
 4412SOL    HW224870   4.456   3.244   9.310 -0.6612 -1.8934  0.4733
 4413SOL     OW24871   4.247   2.926   6.063 -0.3071 -0.1515 -0.4772
 4413SOL    HW124872   4.182   2.928   5.992  1.1499  0.1776 -1.8153
 4413SOL    HW224873   4.244   3.018   6.089  0.5582 -0.0266 -0.8124
 4414SOL     OW24874   4.435   1.560   5.684  0.3509  0.4824 -0.2933
 4414SOL    HW124875   4.424   1.641   5.734 -0.2404  0.7405 -0.8404
 4414SOL    HW224876   4.510   1.520   5.728 -1.0850 -1.4350  0.3902
 4415SOL     OW24877   1.313   1.066   4.928  0.0967 -0.3543 -0.4325
 4415SOL    HW124878   1.272   0.994   4.976  0.5164  1.8781  3.2962
 4415SOL    HW224879   1.336   1.110   5.010 -1.3819 -1.2018  0.4311
 4416SOL     OW24880   1.424   4.672   3.626  0.2233  0.0241 -0.9844
 4416SOL    HW124881   1.435   0.024   3.588  2.1261  0.2478  0.0567
 4416SOL    HW224882   1.497   4.624   3.586  0.1324 -2.2805  1.6070
 4417SOL     OW24883   3.644   2.392   3.377  0.0927  0.1064  0.4220
 4417SOL    HW124884   3.651   2.433   3.463  0.3388  0.6384  0.1491
 4417SOL    HW224885   3.701   2.315   3.383  0.5264  0.6520  2.9624
 4418SOL     OW24886   4.048   4.652   2.162 -0.0100  0.2531  0.4300
 4418SOL    HW124887   4.062   4.625   2.072  1.3315  0.0848  0.6869
 4418SOL    HW224888   4.139   4.671   2.186  0.1654 -2.1429  1.7016
 4419SOL     OW24889   3.132   2.024   3.450  0.0227 -0.4508  0.4866
 4419SOL    HW124890   3.178   2.096   3.407  0.0624 -1.4805 -1.1754
 4419SOL    HW224891   3.097   1.975   3.376  2.2664  0.6034 -1.2631
 4420SOL     OW24892   0.174   4.609   8.124  0.4582 -0.2928  0.4434
 4420SOL    HW124893   0.234   4.589   8.196  0.2325 -0.6198  0.5390
 4420SOL    HW224894   0.187   4.533   8.066  0.1806  0.4655 -0.6120
 4421SOL     OW24895   3.610   1.242   7.683 -0.9319 -0.1634 -0.0033
 4421SOL    HW124896   3.689   1.202   7.646 -0.5869 -0.5690  1.1894
 4421SOL    HW224897   3.622   1.215   7.774 -1.3002 -1.6116 -0.3774
 4422SOL     OW24898   3.074   2.223   8.704  0.0017 -0.1360 -0.5827
 4422SOL    HW124899   3.004   2.168   8.669 -0.8074 -0.0072  0.8502
 4422SOL    HW224900   3.077   2.186   8.792  0.2480  2.4173  0.4823
 4423SOL     OW24901   4.000   2.549   3.088 -0.3990 -0.2882 -0.2249
 4423SOL    HW124902   4.058   2.619   3.057 -0.5189 -0.0621  0.0529
 4423SOL    HW224903   4.037   2.518   3.171 -0.7016 -0.3834 -0.1251
 4424SOL     OW24904   3.794   0.308   0.879  0.2106  0.3800  0.0911
 4424SOL    HW124905   3.872   0.264   0.913 -0.6816 -0.9102  0.4458
 4424SOL    HW224906   3.792   0.374   0.949 -0.0680  1.2507 -0.7415
 4425SOL     OW24907   2.120   1.570   4.443 -0.1538  0.4028 -0.7387
 4425SOL    HW124908   2.164   1.647   4.405  1.6005 -0.4460 -0.4507
 4425SOL    HW224909   2.202   1.525   4.464 -0.6848 -0.0044  0.4610
 4426SOL     OW24910   0.063   3.403   4.751  0.1595  0.5474  0.0092
 4426SOL    HW124911   0.091   3.465   4.818 -1.0440 -0.9838  1.9080
 4426SOL    HW224912   0.132   3.336   4.747 -2.2523 -1.9764  1.0441
 4427SOL     OW24913   4.454   3.422   3.347 -0.0330  0.1550 -0.4778
 4427SOL    HW124914   4.463   3.385   3.435  0.7294 -0.4971 -0.8304
 4427SOL    HW224915   4.540   3.458   3.327  0.3324  0.0982  0.9668
 4428SOL     OW24916   3.799   3.796   7.451 -0.6064 -0.3082  0.8797
 4428SOL    HW124917   3.801   3.890   7.470  1.9775  0.1003 -1.4048
 4428SOL    HW224918   3.706   3.782   7.436 -1.2392  2.6337  2.1460
 4429SOL     OW24919   1.541   0.458  13.756 -0.1854 -0.2733  0.0442
 4429SOL    HW124920   1.603   0.393  13.790 -0.3161 -0.1705  0.4810
 4429SOL    HW224921   1.558   0.457  13.662  1.1219  1.1090  0.2610
 4430SOL     OW24922   0.497   1.527   5.994  0.1417  0.6839  0.0960
 4430SOL    HW124923   0.407   1.528   5.963  0.2052 -2.3194 -0.1753
 4430SOL    HW224924   0.499   1.435   6.021  0.2338 -0.1970 -2.8994
 4431SOL     OW24925   1.408   3.648  12.991 -0.1383  0.3956 -0.2912
 4431SOL    HW124926   1.312   3.654  12.988 -0.2175 -1.9502 -2.1665
 4431SOL    HW224927   1.437   3.736  12.968 -0.6299  0.9097  1.0968
 4432SOL     OW24928   2.471   0.228   2.668 -0.3280 -0.5065 -0.4051
 4432SOL    HW124929   2.516   0.159   2.620 -1.1868  0.5989 -2.8056
 4432SOL    HW224930   2.431   0.276   2.595  0.4887  1.3305  0.3429
 4433SOL     OW24931   1.608   1.036  12.294 -0.0448 -0.2141  0.1039
 4433SOL    HW124932   1.561   1.012  12.374 -0.1293  1.9560  0.6921
 4433SOL    HW224933   1.537   1.046  12.231  0.5246 -2.0372 -0.8539
 4434SOL     OW24934   3.327   3.394   3.704  0.3406 -0.4792  0.4534
 4434SOL    HW124935   3.244   3.362   3.740 -1.1325  0.3890 -2.1448
 4434SOL    HW224936   3.397   3.351   3.753  1.7559  1.2160 -0.0458
 4435SOL     OW24937   1.958   4.563   6.001 -0.1729  0.2387 -0.5088
 4435SOL    HW124938   1.952   4.511   6.081  4.1218  0.1332 -0.2589
 4435SOL    HW224939   1.958   4.649   6.042  0.5313 -0.1600  0.3422
 4436SOL     OW24940   3.509   0.113  16.079  0.1172 -0.1868 -0.5897
 4436SOL    HW124941   3.467   0.036  16.118 -1.2434  0.9443  0.1597
 4436SOL    HW224942   3.473   0.187  16.128 -1.3707 -1.1431 -0.2383
 4437SOL     OW24943   0.740   1.446   5.051 -0.5549 -0.4622 -0.5000
 4437SOL    HW124944   0.825   1.408   5.032 -1.1779 -1.9624 -0.2623
 4437SOL    HW224945   0.731   1.520   4.990  2.6796 -1.0889 -1.7431
 4438SOL     OW24946   0.127   0.197   9.799  0.1561  1.2235 -0.8782
 4438SOL    HW124947   0.164   0.285   9.796 -1.0578  1.8200  2.3807
 4438SOL    HW224948   0.035   0.212   9.820 -0.0522 -0.0223 -0.9092
 4439SOL     OW24949   0.324   0.084  10.164 -0.6218 -0.9332  0.5157
 4439SOL    HW124950   0.277   0.045  10.091  2.5902 -0.4227 -1.8309
 4439SOL    HW224951   0.356   0.013  10.220  1.8887  1.8247  2.6361
 4440SOL     OW24952   2.444   4.571   8.037 -0.2274 -0.2770  0.6752
 4440SOL    HW124953   2.383   4.537   7.971  0.4544  1.9944 -1.1179
 4440SOL    HW224954   2.447   4.494   8.094  0.4383  1.1160  2.5179
 4441SOL     OW24955   3.904   1.312  15.286  0.1699 -0.3574  0.6289
 4441SOL    HW124956   3.998   1.334  15.287  0.7741 -2.8612 -2.0250
 4441SOL    HW224957   3.882   1.326  15.194 -0.7666 -0.8844  0.7716
 4442SOL     OW24958   1.900   2.414   5.654  0.3648  0.4996  0.2338
 4442SOL    HW124959   1.911   2.329   5.610  2.6440  1.9645 -2.0706
 4442SOL    HW224960   1.945   2.464   5.586 -0.9703  2.2022  0.6252
 4443SOL     OW24961   1.790   3.477   7.303 -0.1034 -0.1424  0.8033
 4443SOL    HW124962   1.805   3.385   7.324  0.4795 -0.1760  0.2312
 4443SOL    HW224963   1.841   3.506   7.228 -2.6252 -0.3899 -0.9728
 4444SOL     OW24964   0.569   2.587  15.165 -0.0376  0.3898 -0.4509
 4444SOL    HW124965   0.622   2.650  15.213  0.7664 -1.3287  0.9194
 4444SOL    HW224966   0.620   2.564  15.087 -0.3399  1.0185 -0.8312
 4445SOL     OW24967   1.332   2.707   9.284 -0.0633  0.6350  0.5204
 4445SOL    HW124968   1.304   2.618   9.261 -1.5483  1.3689 -0.4740
 4445SOL    HW224969   1.302   2.712   9.375  0.2311 -2.6479  0.8034
 4446SOL     OW24970   2.780   1.585   4.184 -0.1300 -0.0216 -0.1164
 4446SOL    HW124971   2.739   1.539   4.111  0.7691  0.6167 -1.0229
 4446SOL    HW224972   2.712   1.572   4.250 -0.7367 -1.7783 -1.0924
 4447SOL     OW24973   0.681   2.203   8.513 -0.1901  0.1639  0.2915
 4447SOL    HW124974   0.685   2.197   8.418  0.5714 -0.1969  0.3402
 4447SOL    HW224975   0.765   2.160   8.532 -0.0006 -0.2406 -1.4695
 4448SOL     OW24976   2.371   0.895  16.967 -0.3111 -0.3547 -0.2695
 4448SOL    HW124977   2.435   0.934  17.026 -1.6209 -0.4717  1.2522
 4448SOL    HW224978   2.287   0.907  17.012 -0.3897  1.0151 -0.7840
 4449SOL     OW24979   3.774   4.699   8.418 -0.1916 -0.2902  0.7498
 4449SOL    HW124980   3.820   4.641   8.358  0.2340 -0.2091  0.9987
 4449SOL    HW224981   3.779   0.053   8.386  1.5932 -0.0690  1.6656
 4450SOL     OW24982   3.293   2.650  16.903 -0.7460  0.2460  0.4240
 4450SOL    HW124983   3.244   2.684  16.978  0.3946  1.5452  0.5735
 4450SOL    HW224984   3.225   2.605  16.852 -1.8789  1.9272  0.4648
 4451SOL     OW24985   0.258   1.629  10.793  0.6371 -0.0797 -0.2862
 4451SOL    HW124986   0.248   1.545  10.750 -1.5818 -0.2150  0.4708
 4451SOL    HW224987   0.187   1.615  10.856  0.4180 -1.4033 -0.8457
 4452SOL     OW24988   4.261   1.649   7.028 -0.2548 -0.3796  0.0974
 4452SOL    HW124989   4.266   1.729   6.975 -2.2112 -0.6594 -0.5113
 4452SOL    HW224990   4.315   1.668   7.104  0.0567  1.2255 -0.5309
 4453SOL     OW24991   4.399   2.765   3.972  0.6652 -0.3763 -0.3218
 4453SOL    HW124992   4.442   2.680   3.966 -1.6727 -1.4886 -1.6181
 4453SOL    HW224993   4.368   2.777   3.882  0.7595  2.2158 -0.0178
 4454SOL     OW24994   3.307   2.537  17.601  0.5092  0.4867 -0.0083
 4454SOL    HW124995   3.324   2.536  17.695 -1.8821 -0.6504  0.3979
 4454SOL    HW224996   3.262   2.621  17.595 -1.3308 -0.4749  0.4532
 4455SOL     OW24997   4.154   2.780   7.317 -0.3807 -1.0431 -0.3017
 4455SOL    HW124998   4.171   2.828   7.236 -2.7022 -0.7358 -0.5933
 4455SOL    HW224999   4.239   2.741   7.339  0.8631  0.6646 -1.9758
 4456SOL     OW25000   1.193   3.407   6.934  0.3818 -0.8255  0.0251
 4456SOL    HW125001   1.257   3.422   7.003  0.5273 -0.1802 -0.2435
 4456SOL    HW225002   1.113   3.397   6.984  0.0470  1.4266 -0.0509
 4457SOL     OW25003   0.530   2.567   2.409  0.4498  0.1543  0.6396
 4457SOL    HW125004   0.487   2.499   2.358 -4.3727  1.6813  2.7090
 4457SOL    HW225005   0.457   2.582   2.469  0.0059  1.1085 -0.1259
 4458SOL     OW25006   0.234   2.868   0.991 -0.2294  0.7935  0.3491
 4458SOL    HW125007   0.179   2.790   1.004 -1.6164  1.8716  0.8740
 4458SOL    HW225008   0.206   2.878   0.901  2.5483  0.3020 -0.5874
 4459SOL     OW25009   1.996   4.125  13.969 -0.1741 -0.1622 -0.2768
 4459SOL    HW125010   1.966   4.037  13.992 -1.7938  0.5737  0.5089
 4459SOL    HW225011   2.091   4.116  13.968 -0.3340 -1.6748 -1.0675
 4460SOL     OW25012   0.303   4.677   5.377 -0.3046 -0.6724 -0.5489
 4460SOL    HW125013   0.388   4.641   5.403 -0.5212 -0.0342  1.0744
 4460SOL    HW225014   0.296   0.021   5.430  1.6858 -0.9135  0.0895
 4461SOL     OW25015   2.250   1.184   6.873  0.9340  0.0256 -0.7042
 4461SOL    HW125016   2.328   1.139   6.905  1.0821 -0.1773 -1.3441
 4461SOL    HW225017   2.175   1.134   6.903  2.0194 -0.3818  1.3514
 4462SOL     OW25018   2.081   4.447   4.708 -0.2085 -0.6879  0.0186
 4462SOL    HW125019   1.989   4.441   4.684 -0.3328 -0.0572  0.3525
 4462SOL    HW225020   2.073   4.521   4.768 -0.4867 -0.6741 -0.0370
 4463SOL     OW25021   1.899   4.652   5.424 -0.2659  0.1312 -0.5855
 4463SOL    HW125022   1.927   4.563   5.444  0.2794  0.2410 -0.8443
 4463SOL    HW225023   1.815   4.656   5.470  0.3415 -1.1613  0.6205
 4464SOL     OW25024   0.123   0.536  13.481  0.8990  0.6452 -0.2170
 4464SOL    HW125025   0.079   0.551  13.397 -0.1096  3.1257  0.7560
 4464SOL    HW225026   0.207   0.497  13.455 -0.7577 -2.7905 -0.3743
 4465SOL     OW25027   1.844   2.144   3.285 -0.2021 -0.0683 -0.0476
 4465SOL    HW125028   1.854   2.238   3.279 -1.1981  0.1711  2.0851
 4465SOL    HW225029   1.757   2.144   3.326  0.1956  1.0878  0.7791
 4466SOL     OW25030   2.802   1.400  10.308  0.1341  0.2162 -0.2202
 4466SOL    HW125031   2.715   1.399  10.269  1.2944 -1.2284 -2.8018
 4466SOL    HW225032   2.767   1.356  10.385  0.0184 -0.1401 -0.4769
 4467SOL     OW25033   0.528   2.108  10.277  0.1033 -0.5628 -0.3008
 4467SOL    HW125034   0.434   2.107  10.259  0.0306  0.8624 -0.0264
 4467SOL    HW225035   0.560   2.025  10.243 -0.2185 -0.0734 -1.7662
 4468SOL     OW25036   3.006   4.475   7.385  0.4342  0.3658  0.2548
 4468SOL    HW125037   2.983   4.398   7.437  1.3454 -0.8460 -1.1252
 4468SOL    HW225038   3.025   4.438   7.299  0.5289  1.7960 -0.3451
 4469SOL     OW25039   0.220   1.397   8.941  0.3967 -0.0613 -0.2351
 4469SOL    HW125040   0.284   1.393   9.012 -0.9070  2.7816  1.1431
 4469SOL    HW225041   0.141   1.438   8.977  0.6941  0.7723 -0.5369
 4470SOL     OW25042   0.005   0.189   7.480  0.2236 -0.5069  0.4433
 4470SOL    HW125043   0.076   0.228   7.429 -0.3284  0.6726  0.5717
 4470SOL    HW225044   4.663   0.221   7.434  0.8564 -1.5756 -1.3733
 4471SOL     OW25045   1.888   2.217  13.276 -0.3590  0.2256 -0.3245
 4471SOL    HW125046   1.916   2.292  13.329  2.2428 -0.9003 -0.1046
 4471SOL    HW225047   1.962   2.156  13.277 -1.0794 -0.6460 -0.3372
 4472SOL     OW25048   0.450   2.300   3.084 -0.3428 -0.1335 -0.0607
 4472SOL    HW125049   0.464   2.207   3.063  0.6691 -0.1018  0.4593
 4472SOL    HW225050   0.513   2.334   3.021 -0.7937  0.5009 -0.1599
 4473SOL     OW25051   3.741   2.497   4.329 -0.4049  0.2083  0.2108
 4473SOL    HW125052   3.657   2.500   4.283  0.6454 -1.2366 -1.7765
 4473SOL    HW225053   3.734   2.416   4.380 -2.3445 -0.3018 -0.8870
 4474SOL     OW25054   0.351   1.663   6.295 -0.2202 -0.3267  0.9580
 4474SOL    HW125055   0.377   1.755   6.292 -2.9347  0.4295  0.4677
 4474SOL    HW225056   0.432   1.613   6.307  0.1106  0.0413  0.2853
 4475SOL     OW25057   0.200   3.605   4.212 -0.4605  0.0230  0.4110
 4475SOL    HW125058   0.115   3.649   4.205 -0.9247 -1.4335 -3.0091
 4475SOL    HW225059   0.204   3.611   4.308 -1.1877 -1.4298  0.5431
 4476SOL     OW25060   2.621   3.809   6.348  0.4147  0.3384  0.1185
 4476SOL    HW125061   2.548   3.871   6.343 -1.8776 -2.2675  1.4443
 4476SOL    HW225062   2.664   3.840   6.428 -2.2616  1.0606  1.2604
 4477SOL     OW25063   1.580   2.957   8.518 -0.0865 -0.2570 -0.0700
 4477SOL    HW125064   1.651   3.000   8.471 -0.1970  0.9415  0.8540
 4477SOL    HW225065   1.559   3.027   8.580  2.3277 -0.1124  0.5784
 4478SOL     OW25066   2.428   2.309   7.002 -0.4218  0.1395  0.3926
 4478SOL    HW125067   2.452   2.398   6.978  0.3686 -0.4937 -1.2087
 4478SOL    HW225068   2.363   2.337   7.067 -1.4011  0.0485 -0.5496
 4479SOL     OW25069   0.849   4.207  13.212  0.0397 -0.2099  0.0737
 4479SOL    HW125070   0.792   4.263  13.265 -0.3797 -0.7159  0.1511
 4479SOL    HW225071   0.781   4.164  13.161  1.2310 -1.4178 -0.4762
 4480SOL     OW25072   0.713   3.895   5.584  0.1853 -0.4499 -0.5026
 4480SOL    HW125073   0.695   3.810   5.623  1.3201 -0.7626 -0.6595
 4480SOL    HW225074   0.620   3.911   5.567  0.4230  0.9181 -0.5096
 4481SOL     OW25075   0.243   3.374   8.526 -0.2405  0.1889  0.0787
 4481SOL    HW125076   0.159   3.390   8.483 -0.0985 -0.0177 -0.2716
 4481SOL    HW225077   0.273   3.462   8.548 -2.0116  0.9175 -0.4433
 4482SOL     OW25078   2.574   3.125  15.208  0.2795  0.0231  0.5287
 4482SOL    HW125079   2.599   3.056  15.270  0.1831  0.3468  0.9272
 4482SOL    HW225080   2.582   3.082  15.123  1.6156  1.8288 -0.2597
 4483SOL     OW25081   0.131   0.896   5.640 -0.4331  0.5864  0.0391
 4483SOL    HW125082   0.212   0.947   5.643  1.1127 -1.8797 -0.0766
 4483SOL    HW225083   0.092   0.931   5.720  0.0932  0.8486  0.1788
 4484SOL     OW25084   4.475   4.403   3.545  0.0737  0.2341 -0.1862
 4484SOL    HW125085   4.482   4.351   3.625  1.2518  1.5658  0.5720
 4484SOL    HW225086   4.387   4.374   3.522  0.6621 -1.3494 -0.4230
 4485SOL     OW25087   1.958   2.469  13.385  0.2846  0.3337 -0.6533
 4485SOL    HW125088   2.052   2.451  13.380  0.0893 -0.8500 -0.0736
 4485SOL    HW225089   1.937   2.535  13.319 -1.5243  1.5367  1.1071
 4486SOL     OW25090   2.536   3.786   5.938 -0.1383 -0.2615 -0.1169
 4486SOL    HW125091   2.488   3.850   5.992 -0.2892  1.7828 -2.6850
 4486SOL    HW225092   2.594   3.844   5.890 -2.1567  1.9676  0.1136
 4487SOL     OW25093   0.955   4.712  11.667 -0.1794  0.4953  0.3243
 4487SOL    HW125094   0.860   4.726  11.677 -0.1036  1.1514  0.1410
 4487SOL    HW225095   0.961   4.621  11.638  2.6027  0.5390  0.7941
 4488SOL     OW25096   0.061   1.275   4.019 -0.2992 -0.3001 -0.0872
 4488SOL    HW125097   0.131   1.215   3.992  0.1516  0.5984 -0.9050
 4488SOL    HW225098   0.045   1.326   3.940 -2.2252  0.6825  0.9297
 4489SOL     OW25099   4.543   1.465   3.563  0.2526 -0.0901 -0.1319
 4489SOL    HW125100   4.634   1.461   3.534  0.1876 -2.0704 -0.1006
 4489SOL    HW225101   4.528   1.559   3.571  0.0920 -0.1611  0.4398
 4490SOL     OW25102   4.544   3.292   1.912  1.0461  0.0579  0.0868
 4490SOL    HW125103   4.575   3.365   1.966  1.3479  1.3381 -1.8518
 4490SOL    HW225104   4.539   3.213   1.965 -0.9944  0.0243 -0.1328
 4491SOL     OW25105   4.044   1.426  16.278  0.1290  0.9372 -0.4913
 4491SOL    HW125106   3.999   1.510  16.284 -1.3116  0.0810  0.8968
 4491SOL    HW225107   3.964   1.373  16.283 -0.0254  1.3057  1.1515
 4492SOL     OW25108   3.529   2.927   6.168 -0.0654 -0.3269  0.2423
 4492SOL    HW125109   3.466   2.902   6.236  0.3877 -0.1102  0.7397
 4492SOL    HW225110   3.613   2.894   6.200 -0.2996  0.6645  1.8666
 4493SOL     OW25111   0.462   4.626   6.340  0.2079 -0.1100  0.0705
 4493SOL    HW125112   0.377   4.657   6.371 -0.2767 -0.9456 -0.4073
 4493SOL    HW225113   0.459   4.536   6.372 -0.0728  1.3223  4.0092
 4494SOL     OW25114   3.162   0.835   1.204  0.3398 -0.1626  0.6170
 4494SOL    HW125115   3.145   0.741   1.204 -0.6847  0.0229  0.7627
 4494SOL    HW225116   3.084   0.873   1.164  0.0961 -0.5512  0.7195
 4495SOL     OW25117   2.416   2.924   6.757  0.2308  0.0752 -0.2345
 4495SOL    HW125118   2.438   2.988   6.824  2.1130 -1.1356  0.3137
 4495SOL    HW225119   2.321   2.928   6.759  0.2964  1.1467  1.1542
 4496SOL     OW25120   1.003   2.660  10.595 -1.0417 -0.5442 -0.1002
 4496SOL    HW125121   0.980   2.585  10.649  0.5667 -1.0871 -0.1745
 4496SOL    HW225122   0.921   2.666  10.545 -0.6766 -1.9649 -0.8754
 4497SOL     OW25123   0.092   0.736   3.521 -0.3588 -0.6726  0.6331
 4497SOL    HW125124   0.107   0.688   3.603 -0.0755  0.0567  1.0095
 4497SOL    HW225125   0.153   0.807   3.537 -0.8684 -0.2560  0.7187
 4498SOL     OW25126   3.986   3.560  16.092  0.3087  0.2903  0.1814
 4498SOL    HW125127   3.984   3.616  16.014 -1.9021 -1.2184 -0.8530
 4498SOL    HW225128   3.977   3.622  16.164 -2.7010 -0.3848  0.4289
 4499SOL     OW25129   1.700   2.770   5.981 -0.2635  0.2733 -0.2602
 4499SOL    HW125130   1.688   2.836   5.913 -0.1459  1.1834  0.6072
 4499SOL    HW225131   1.765   2.823   6.027  0.0600 -0.1431 -0.2335
 4500SOL     OW25132   3.209   0.888   3.040  0.3167 -0.1216  0.3161
 4500SOL    HW125133   3.211   0.984   3.045 -0.1310 -0.1449  0.9465
 4500SOL    HW225134   3.167   0.881   2.954 -0.3388 -1.0400  0.7100
 4501SOL     OW25135   3.360   4.408   3.857  0.2664  1.5232  0.0571
 4501SOL    HW125136   3.340   4.480   3.797 -0.7180  1.3704  0.1957
 4501SOL    HW225137   3.432   4.458   3.893  0.5751  1.6851 -0.7773
 4502SOL     OW25138   3.578   0.799   4.596  0.6409 -0.3480 -0.3166
 4502SOL    HW125139   3.673   0.786   4.597  0.5572 -0.8138  2.9353
 4502SOL    HW225140   3.557   0.798   4.690 -0.6140  1.9767 -0.5809
 4503SOL     OW25141   3.221   3.456   6.207 -0.5959 -0.2190  1.0839
 4503SOL    HW125142   3.217   3.406   6.126 -0.7319  0.4645  0.6710
 4503SOL    HW225143   3.316   3.466   6.213 -0.3243 -1.9994 -0.2976
 4504SOL     OW25144   1.947   1.575   4.944  0.1022 -0.0351  0.0316
 4504SOL    HW125145   2.040   1.573   4.965 -0.1223 -0.1665  1.0338
 4504SOL    HW225146   1.934   1.535   4.858  0.8623  0.1168 -0.1538
 4505SOL     OW25147   4.161   4.271   7.397  0.0006  0.2724 -0.0960
 4505SOL    HW125148   4.208   4.192   7.424 -0.5094  0.1482  0.4407
 4505SOL    HW225149   4.097   4.234   7.335 -0.3509  0.1775  0.3197
 4506SOL     OW25150   0.980   0.013   7.874  0.2474 -0.6450  0.3327
 4506SOL    HW125151   1.015   4.668   7.910 -0.7962 -1.3667 -0.2754
 4506SOL    HW225152   1.004   0.054   7.957 -0.7682 -0.7630  0.6796
 4507SOL     OW25153   0.198   0.554   6.805  0.0371 -0.3629 -0.5003
 4507SOL    HW125154   0.174   0.465   6.779  1.2721 -0.6536 -0.6362
 4507SOL    HW225155   0.121   0.583   6.854 -0.4797 -0.9720 -0.9702
 4508SOL     OW25156   0.088   4.324  15.926  0.4471 -0.0704 -0.2689
 4508SOL    HW125157   0.030   4.349  15.855  0.1858  2.1540  0.7531
 4508SOL    HW225158   0.149   4.271  15.874 -1.5979 -2.0991 -0.5897
 4509SOL     OW25159   2.372   3.816   9.261 -0.2739  0.3166  0.1544
 4509SOL    HW125160   2.301   3.814   9.325 -0.8960 -2.1788 -0.6058
 4509SOL    HW225161   2.445   3.780   9.311 -0.6552  0.5171  0.8561
 4510SOL     OW25162   3.232   0.833   2.741 -0.4913 -0.4395 -0.4737
 4510SOL    HW125163   3.288   0.842   2.664 -0.2236  0.1094 -0.2201
 4510SOL    HW225164   3.236   0.739   2.756 -2.0384 -0.8910 -2.8007
 4511SOL     OW25165   4.438   0.676  12.296 -0.5620  0.0993  0.3801
 4511SOL    HW125166   4.418   0.624  12.374 -1.0427 -1.2357 -0.6278
 4511SOL    HW225167   4.375   0.748  12.296  1.5515  1.9858  2.7818
 4512SOL     OW25168   0.910   2.821  11.059  0.2397  0.1514  0.2088
 4512SOL    HW125169   0.817   2.795  11.058  0.1737  0.3499  1.6346
 4512SOL    HW225170   0.950   2.735  11.044  1.0912  0.3382  1.4371
 4513SOL     OW25171   0.658   1.504  15.572 -0.3089 -0.3302  0.5847
 4513SOL    HW125172   0.719   1.459  15.630  0.1492 -0.2240  0.1810
 4513SOL    HW225173   0.578   1.490  15.623 -0.5598 -1.1729 -0.0228
 4514SOL     OW25174   0.226   1.436   5.950 -0.8254  0.3298  0.8248
 4514SOL    HW125175   0.224   1.360   5.892 -1.2208 -1.2762  2.9050
 4514SOL    HW225176   0.199   1.389   6.029 -1.6315  0.2714  0.5113
 4515SOL     OW25177   3.260   3.120   9.879  0.1705  0.0976 -0.2242
 4515SOL    HW125178   3.282   3.212   9.894 -1.9782  0.1489  2.5009
 4515SOL    HW225179   3.241   3.127   9.785 -0.1663 -0.2151 -0.1774
 4516SOL     OW25180   1.151   2.048   5.573  0.1599 -0.2088  0.2525
 4516SOL    HW125181   1.090   1.993   5.525 -0.5412 -0.5907  1.5853
 4516SOL    HW225182   1.188   2.075   5.489 -2.3893 -0.0453 -0.8177
 4517SOL     OW25183   3.236   2.476   4.055 -0.3343 -0.7353  0.1508
 4517SOL    HW125184   3.224   2.382   4.067  2.5550 -1.0949  0.1692
 4517SOL    HW225185   3.157   2.511   4.014  1.6231  3.0427 -0.3572
 4518SOL     OW25186   3.777   1.382  14.779 -0.7310 -0.0605 -0.2793
 4518SOL    HW125187   3.808   1.401  14.868 -0.9633  0.3793 -0.2881
 4518SOL    HW225188   3.855   1.348  14.737  0.2733 -0.6599  2.0541
 4519SOL     OW25189   2.155   3.295   2.450  0.0007 -0.7856  0.3854
 4519SOL    HW125190   2.237   3.278   2.404 -0.1161  1.4398 -0.5951
 4519SOL    HW225191   2.103   3.292   2.370 -0.2846  1.7994  0.4842
 4520SOL     OW25192   0.047   3.393   2.069  0.2013 -0.3117  0.2656
 4520SOL    HW125193   4.734   3.366   2.147 -1.5400  2.0759  0.0105
 4520SOL    HW225194   4.729   3.465   2.036  0.5382 -0.2488 -0.1408
 4521SOL     OW25195   4.129   4.663   1.836 -0.0630 -0.3290  0.0341
 4521SOL    HW125196   4.063   4.680   1.768 -1.4372  1.1172  1.7424
 4521SOL    HW225197   4.168   4.582   1.806 -0.9479 -0.9778  0.6292
 4522SOL     OW25198   2.677   0.983   4.727 -0.5000  0.1895 -0.2358
 4522SOL    HW125199   2.643   0.893   4.727 -3.1873  1.1868  1.3374
 4522SOL    HW225200   2.621   1.030   4.788 -1.6241 -0.2021 -0.9702
 4523SOL     OW25201   3.926   1.024   6.850  0.4187  0.0591  0.2580
 4523SOL    HW125202   3.970   1.100   6.889 -0.8167  1.3329 -0.8316
 4523SOL    HW225203   3.956   1.038   6.760 -0.1141 -0.7239 -0.0359
 4524SOL     OW25204   2.994   1.661  17.529 -0.2096  0.4005  0.0812
 4524SOL    HW125205   2.923   1.711  17.570 -1.5510  0.1357 -1.9348
 4524SOL    HW225206   3.069   1.719  17.532 -0.5940  0.8792  0.3690
 4525SOL     OW25207   4.678   4.682  15.713 -0.1355 -0.0980 -0.1507
 4525SOL    HW125208   4.732   4.715  15.641 -0.5272  0.9761  0.0554
 4525SOL    HW225209   4.668   0.027  15.763  0.4165  0.6221 -1.2027
 4526SOL     OW25210   0.275   1.724  12.136  0.8038 -0.0948  0.1957
 4526SOL    HW125211   0.338   1.758  12.073  2.1477  0.2999  1.7304
 4526SOL    HW225212   0.307   1.772  12.213  0.6580  2.3567 -1.2719
 4527SOL     OW25213   1.632   1.296  16.351  1.0214 -0.0321 -0.1213
 4527SOL    HW125214   1.603   1.387  16.358  0.9898 -0.0524  0.0069
 4527SOL    HW225215   1.727   1.304  16.362  0.7840  0.5143  1.4896
 4528SOL     OW25216   1.273   0.305  14.073 -0.4257  0.2326  0.3367
 4528SOL    HW125217   1.202   0.246  14.098 -0.8137  0.5528 -0.0270
 4528SOL    HW225218   1.247   0.363  14.002  1.3884 -0.6423 -1.0414
 4529SOL     OW25219   0.658   4.045   8.042  0.2746 -0.5540  0.1182
 4529SOL    HW125220   0.736   4.059   8.096 -0.4375  0.0668  1.0005
 4529SOL    HW225221   0.627   3.957   8.064  2.6447 -1.0541  1.3918
 4530SOL     OW25222   0.783   4.367   4.395  0.6509 -0.1416  0.2161
 4530SOL    HW125223   0.759   4.332   4.480 -0.7903 -0.2042 -0.2044
 4530SOL    HW225224   0.752   4.298   4.336  1.3316 -0.2697  0.0132
 4531SOL     OW25225   1.440   4.105  15.402  0.3836 -0.2203 -0.4944
 4531SOL    HW125226   1.372   4.062  15.453  1.8973 -2.6880 -0.5617
 4531SOL    HW225227   1.392   4.132  15.323 -1.3504 -3.6502 -0.6037
 4532SOL     OW25228   1.502   2.483   8.569  0.4258  0.5382 -0.5891
 4532SOL    HW125229   1.503   2.541   8.646  0.0690 -0.0110 -0.1738
 4532SOL    HW225230   1.504   2.545   8.496  1.6143 -2.7252 -3.3270
 4533SOL     OW25231   1.127   2.158  15.577 -0.3121 -0.3154 -0.0537
 4533SOL    HW125232   1.044   2.141  15.622 -0.4468  1.6105  0.4297
 4533SOL    HW225233   1.103   2.244  15.542 -1.5813 -1.4920 -2.0368
 4534SOL     OW25234   3.624   0.371   0.167  0.1339 -0.1177 -0.3195
 4534SOL    HW125235   3.594   0.415   0.247  1.0627  0.1517 -0.1246
 4534SOL    HW225236   3.701   0.333   0.208  0.2724  0.0635 -0.4079
 4535SOL     OW25237   0.613   1.676  15.079  0.1219 -0.0918 -0.1572
 4535SOL    HW125238   0.655   1.603  15.033  1.7518 -0.7229  2.3833
 4535SOL    HW225239   0.630   1.648  15.168 -2.4081  2.7705  1.2182
 4536SOL     OW25240   2.548   1.597   2.970  0.2075 -0.0598 -0.1677
 4536SOL    HW125241   2.598   1.520   2.998 -1.1150 -1.3357 -1.2944
 4536SOL    HW225242   2.617   1.646   2.926 -0.1209  0.3392 -0.2370
 4537SOL     OW25243   4.481   3.211  13.719  0.6047 -0.0022 -0.1583
 4537SOL    HW125244   4.491   3.144  13.652  2.1721  1.8444 -1.7466
 4537SOL    HW225245   4.540   3.281  13.693  0.4936  0.4996  0.9057
 4538SOL     OW25246   2.537   4.513   6.846  0.0565 -0.0932  0.0335
 4538SOL    HW125247   2.622   4.491   6.885  0.4575  2.1597  0.4153
 4538SOL    HW225248   2.490   4.435   6.877 -1.8171  0.9846 -0.1496
 4539SOL     OW25249   3.136   3.772   8.271 -0.3605 -0.3595  0.0268
 4539SOL    HW125250   3.089   3.736   8.195  0.3690  0.4452 -0.8041
 4539SOL    HW225251   3.180   3.700   8.317  2.6263  0.7433 -1.0748
 4540SOL     OW25252   2.247   0.307  10.014  0.1880 -0.4026 -0.1650
 4540SOL    HW125253   2.320   0.283  10.070 -0.3664 -1.1126  0.2502
 4540SOL    HW225254   2.173   0.287  10.072  1.0106  1.0389  1.3946
 4541SOL     OW25255   2.419   1.953  12.654  0.2003  0.1494  0.3704
 4541SOL    HW125256   2.404   2.038  12.613  1.6607 -1.1107 -2.7078
 4541SOL    HW225257   2.408   1.970  12.748  0.7424 -1.1394  0.6635
 4542SOL     OW25258   4.318   0.754  11.731 -0.1240 -0.0007  0.3808
 4542SOL    HW125259   4.307   0.714  11.817 -1.5486 -0.0567  0.1663
 4542SOL    HW225260   4.353   0.840  11.753  1.6941 -1.1043  1.8298
 4543SOL     OW25261   0.628   0.379   6.968  0.5204 -0.8268  0.3796
 4543SOL    HW125262   0.720   0.368   6.945  0.5195  0.0471 -0.0507
 4543SOL    HW225263   0.626   0.474   6.953 -1.2459 -0.7310  1.1783
 4544SOL     OW25264   1.567   1.483   4.035  0.3399  0.3430 -0.2604
 4544SOL    HW125265   1.619   1.558   4.065 -1.4452  1.8013 -0.7982
 4544SOL    HW225266   1.636   1.430   3.996 -1.1245 -1.0694 -0.9586
 4545SOL     OW25267   1.289   1.181  15.952 -0.5965  0.4481 -0.5968
 4545SOL    HW125268   1.230   1.237  16.001 -1.7892 -0.0774 -1.4295
 4545SOL    HW225269   1.369   1.201  16.001 -0.7618  0.6967 -0.4304
 4546SOL     OW25270   2.609   3.848  16.846  0.6125  0.2353 -0.1689
 4546SOL    HW125271   2.691   3.821  16.805  0.7529 -0.3588  0.5104
 4546SOL    HW225272   2.653   3.928  16.876  0.3282 -0.2053  1.4256
 4547SOL     OW25273   1.697   1.477   1.694  0.3224 -0.2684  0.4739
 4547SOL    HW125274   1.632   1.451   1.629  0.6695 -0.6903  0.2925
 4547SOL    HW225275   1.661   1.432   1.770 -0.4783 -1.1333 -0.4324
 4548SOL     OW25276   4.366   0.338  12.529  0.2169  0.3280 -0.2058
 4548SOL    HW125277   4.417   0.302  12.602  0.2586  0.8746  0.0356
 4548SOL    HW225278   4.439   0.370  12.475  3.3014 -1.4303  2.9011
 4549SOL     OW25279   3.318   1.569   2.910 -0.7635  0.3444  0.5939
 4549SOL    HW125280   3.411   1.589   2.918 -1.1317  1.5948  1.6618
 4549SOL    HW225281   3.304   1.631   2.839 -0.6231  0.5713  0.7637
 4550SOL     OW25282   1.813   4.435  16.586 -0.3297 -0.2178  0.5825
 4550SOL    HW125283   1.895   4.462  16.628  0.5286  0.1272 -1.3314
 4550SOL    HW225284   1.774   4.518  16.559 -0.3613  0.1484  1.7574
 4551SOL     OW25285   3.647   0.673   1.746  0.0046  0.0518 -0.2737
 4551SOL    HW125286   3.696   0.669   1.664  0.4386 -0.4504  0.0113
 4551SOL    HW225287   3.580   0.606   1.733 -0.6440  0.7667 -0.6216
 4552SOL     OW25288   0.593   2.545   7.012  0.2457  0.1163  0.3710
 4552SOL    HW125289   0.507   2.586   7.027 -0.2195 -1.0105  0.7808
 4552SOL    HW225290   0.633   2.618   6.967  0.3888 -1.3844 -1.9339
 4553SOL     OW25291   1.422   3.121   5.150 -0.0194  0.4703  0.1979
 4553SOL    HW125292   1.484   3.085   5.214 -1.8283  0.6355  2.0478
 4553SOL    HW225293   1.477   3.183   5.102  1.7898 -1.1445  0.1454
 4554SOL     OW25294   1.170   0.047  12.378 -0.3429 -0.0385  0.3598
 4554SOL    HW125295   1.115   0.118  12.412 -0.5843  0.3587 -0.8806
 4554SOL    HW225296   1.261   0.066  12.402 -0.4191  0.1523  0.4948
 4555SOL     OW25297   3.340   1.906   6.949 -0.7419 -0.1999  0.4727
 4555SOL    HW125298   3.301   1.993   6.943 -1.1959 -0.3637  0.9554
 4555SOL    HW225299   3.389   1.901   6.868 -2.1870 -0.1849 -0.3959
 4556SOL     OW25300   2.096   3.598  11.627 -0.0537  0.1096  0.5238
 4556SOL    HW125301   2.040   3.571  11.700 -1.5091  1.5267 -0.0424
 4556SOL    HW225302   2.180   3.624  11.663  0.5010  1.4484 -1.6631
 4557SOL     OW25303   0.183   0.332   4.555 -0.3327  0.0086  0.7617
 4557SOL    HW125304   0.126   0.259   4.578 -0.1563 -0.7571 -1.2650
 4557SOL    HW225305   0.121   0.397   4.520  0.1488 -0.4699 -0.9790
 4558SOL     OW25306   4.367   3.216   3.135 -0.5653  0.4962 -0.0020
 4558SOL    HW125307   4.444   3.256   3.173 -0.8291  1.2141 -0.2298
 4558SOL    HW225308   4.310   3.205   3.211 -0.1083  4.5477  0.8947
 4559SOL     OW25309   3.468   0.960   1.369 -0.6243  0.3905 -0.4261
 4559SOL    HW125310   3.460   1.010   1.287  2.1192 -1.4331 -1.8011
 4559SOL    HW225311   3.451   1.029   1.432 -0.8558 -0.3669  0.3354
 4560SOL     OW25312   1.755   4.613   3.853  0.3723  0.4928  0.4709
 4560SOL    HW125313   1.756   4.568   3.937  0.7700 -1.7612 -0.7481
 4560SOL    HW225314   1.706   4.550   3.801 -2.6307  3.0706  0.1483
 4561SOL     OW25315   3.491   2.715  10.525  0.5154 -0.8035 -0.6560
 4561SOL    HW125316   3.452   2.637  10.485 -0.8784 -2.0118  3.0720
 4561SOL    HW225317   3.511   2.677  10.610 -0.5430 -1.1474 -0.5606
 4562SOL     OW25318   0.938   1.722  11.522 -0.2853  0.6145 -0.2424
 4562SOL    HW125319   0.847   1.710  11.548  0.1067 -0.8494  0.4372
 4562SOL    HW225320   0.932   1.785  11.450  1.1245  2.4923  1.2852
 4563SOL     OW25321   2.192   1.331   0.738  0.0369 -0.0619  0.3505
 4563SOL    HW125322   2.172   1.262   0.675  1.4628 -0.4183  0.2802
 4563SOL    HW225323   2.145   1.305   0.818 -0.4626  0.5693  0.2559
 4564SOL     OW25324   2.938   1.199   5.497 -0.1696 -0.3984 -0.0895
 4564SOL    HW125325   2.981   1.275   5.535  0.6941 -1.5162  1.1776
 4564SOL    HW225326   2.994   1.203   5.420 -1.0138  0.8051 -0.6294
 4565SOL     OW25327   4.544   4.572  17.642 -0.3638 -0.2086  0.1354
 4565SOL    HW125328   4.547   4.633  17.569 -1.9241 -0.7247 -0.3707
 4565SOL    HW225329   4.475   4.512  17.613 -0.2678  0.1353 -0.7919
 4566SOL     OW25330   2.964   4.441   8.014 -0.0847  0.8266 -0.6222
 4566SOL    HW125331   2.927   4.432   7.926  0.0918 -0.0649 -0.6099
 4566SOL    HW225332   2.891   4.414   8.069 -0.8035  1.7131 -1.1327
 4567SOL     OW25333   0.513   4.047   4.623  0.4273 -0.2644 -0.1677
 4567SOL    HW125334   0.429   4.091   4.633  2.0786  2.6612  0.9320
 4567SOL    HW225335   0.488   3.957   4.643 -1.4830  0.6824  1.7745
 4568SOL     OW25336   1.267   1.363   6.311 -0.6353 -0.5688 -0.7137
 4568SOL    HW125337   1.308   1.401   6.234  1.1011 -0.8757  0.0398
 4568SOL    HW225338   1.336   1.318   6.361 -1.2374  0.4066  1.0027
 4569SOL     OW25339   0.609   3.471   8.306 -0.7217 -0.0795  0.6983
 4569SOL    HW125340   0.680   3.526   8.273 -1.7994  0.4323 -0.7569
 4569SOL    HW225341   0.590   3.509   8.392 -2.1767  1.8101 -0.4710
 4570SOL     OW25342   0.353   3.469  12.926  0.3430  0.2800  0.1656
 4570SOL    HW125343   0.437   3.466  12.971 -0.3960 -1.0288  1.4552
 4570SOL    HW225344   0.337   3.376  12.935  1.5424 -0.1453 -2.2561
 4571SOL     OW25345   0.601   0.795  15.393  0.1889  0.2805 -0.4645
 4571SOL    HW125346   0.688   0.776  15.428 -0.9908 -3.8812  0.2910
 4571SOL    HW225347   0.532   0.756  15.447 -1.0861  1.6591 -1.1109
 4572SOL     OW25348   0.341   2.823   7.652  0.4767 -0.2516 -0.0448
 4572SOL    HW125349   0.339   2.760   7.724  1.0098 -0.1985  0.0203
 4572SOL    HW225350   0.324   2.765   7.577 -0.4971 -1.4440  1.1055
 4573SOL     OW25351   0.501   3.315   4.924  0.2843  0.2289 -0.4004
 4573SOL    HW125352   0.480   3.386   4.985  1.3513  0.5769 -0.4361
 4573SOL    HW225353   0.594   3.331   4.909  0.8371  0.0116  2.8358
 4574SOL     OW25354   2.857   1.441   7.707  0.3439  0.4757 -0.4940
 4574SOL    HW125355   2.841   1.427   7.800 -0.7036  0.3467 -0.6997
 4574SOL    HW225356   2.896   1.529   7.706  2.5251 -0.4788  1.1032
 4575SOL     OW25357   2.881   3.745   8.605 -0.8585 -0.1515 -0.7383
 4575SOL    HW125358   2.929   3.662   8.603  0.2133  0.4779 -1.0879
 4575SOL    HW225359   2.954   3.805   8.619 -1.5940  0.6524 -0.3739
 4576SOL     OW25360   3.495   3.276   9.916  0.2770  0.5297 -0.0179
 4576SOL    HW125361   3.473   3.185   9.898 -0.5677  1.6826 -4.6625
 4576SOL    HW225362   3.540   3.257   9.999  3.5336  3.3591 -1.1315
 4577SOL     OW25363   4.249   2.648  12.293  0.0631  0.0266 -0.4294
 4577SOL    HW125364   4.212   2.684  12.373 -1.3218  0.9911 -1.5175
 4577SOL    HW225365   4.343   2.667  12.297 -0.0869  1.0683 -1.9104
 4578SOL     OW25366   3.897   2.623   6.042  0.6498 -0.0866 -0.1004
 4578SOL    HW125367   3.980   2.646   6.084 -0.5852  0.9468  1.7692
 4578SOL    HW225368   3.873   2.539   6.081 -1.4676 -0.3804 -2.0492
 4579SOL     OW25369   0.323   2.248   6.837  0.0199  0.4254 -0.0082
 4579SOL    HW125370   0.391   2.314   6.826  1.4265 -0.7879  1.3946
 4579SOL    HW225371   0.262   2.293   6.897  0.3262  2.0396 -0.9325
 4580SOL     OW25372   4.259   4.486   9.758 -0.7317  0.1705  0.0686
 4580SOL    HW125373   4.303   4.485   9.673 -0.2999  2.7162  0.2660
 4580SOL    HW225374   4.331   4.484   9.821 -0.6295  2.0628  0.0216
 4581SOL     OW25375   1.657   0.723  10.364 -0.3169  0.4045  1.1491
 4581SOL    HW125376   1.602   0.653  10.327  0.8515 -0.9117  1.8891
 4581SOL    HW225377   1.608   0.793  10.321 -3.0279 -1.0170  1.8863
 4582SOL     OW25378   1.655   1.025   8.458  0.0069  0.4480 -0.6206
 4582SOL    HW125379   1.687   0.935   8.455  0.3377  0.5480 -0.1493
 4582SOL    HW225380   1.572   1.018   8.505  0.1874  0.4135 -0.3032
 4583SOL     OW25381   2.132   1.169   8.601  0.4746  0.5248  0.5646
 4583SOL    HW125382   2.153   1.148   8.692 -0.7924 -1.3384  0.4120
 4583SOL    HW225383   2.069   1.104   8.571 -0.0070  0.8247  0.9288
 4584SOL     OW25384   2.927   3.438  10.718 -0.4219  0.9643 -0.2514
 4584SOL    HW125385   2.949   3.510  10.777  0.3595  2.8438 -2.7940
 4584SOL    HW225386   2.998   3.438  10.654 -0.3437  0.2504 -0.1645
 4585SOL     OW25387   2.211   0.542  12.763  0.1320 -0.3575 -0.2984
 4585SOL    HW125388   2.183   0.594  12.688 -0.8684 -0.5346 -0.0534
 4585SOL    HW225389   2.275   0.489  12.716  1.2126  1.4056 -0.8145
 4586SOL     OW25390   1.473   4.351  12.259 -0.6510 -0.4756 -0.1270
 4586SOL    HW125391   1.518   4.337  12.343  0.7313  2.0835 -0.4387
 4586SOL    HW225392   1.484   4.446  12.260 -3.3864 -0.1420 -1.6772
 4587SOL     OW25393   0.634   0.366   5.041  0.0684  0.3445  0.1820
 4587SOL    HW125394   0.550   0.323   5.026 -0.7738  3.0901 -2.8665
 4587SOL    HW225395   0.682   0.335   4.965  1.4623  1.6058  0.5311
 4588SOL     OW25396   0.910   0.797  16.145  0.0185 -0.5187 -0.2786
 4588SOL    HW125397   0.971   0.733  16.183 -1.4718 -2.6769 -1.5245
 4588SOL    HW225398   0.854   0.817  16.220 -0.7522 -2.6719 -0.2966
 4589SOL     OW25399   0.631   2.548   2.024  0.2539 -0.0002 -0.8317
 4589SOL    HW125400   0.595   2.632   1.996  2.4397  1.3489  0.4546
 4589SOL    HW225401   0.556   2.503   2.063 -0.1037 -0.1027 -1.6426
 4590SOL     OW25402   3.971   3.741  11.432 -0.4549  0.1603 -0.2761
 4590SOL    HW125403   3.939   3.780  11.513  1.2996  0.9344  0.0422
 4590SOL    HW225404   4.065   3.758  11.431 -0.3916  0.0550  3.3642
 4591SOL     OW25405   4.309   1.941   3.085 -0.1565  0.6733 -0.4132
 4591SOL    HW125406   4.335   2.011   3.026  0.3258 -0.3389 -1.3991
 4591SOL    HW225407   4.219   1.921   3.059  0.3136 -1.0452 -0.7097
 4592SOL     OW25408   0.542   3.432   7.426  0.1120 -0.6381 -0.2025
 4592SOL    HW125409   0.607   3.372   7.463  0.7173 -0.8785 -1.6653
 4592SOL    HW225410   0.598   3.508   7.412  0.4280 -0.2239  3.1889
 4593SOL     OW25411   1.839   3.456   9.290  0.0447  0.0803  0.6217
 4593SOL    HW125412   1.780   3.476   9.363 -1.9771  1.3706 -1.3542
 4593SOL    HW225413   1.924   3.457   9.332  0.5731  0.1832 -0.4509
 4594SOL     OW25414   1.527   4.003   0.666 -0.3123 -0.8277 -0.0009
 4594SOL    HW125415   1.503   3.910   0.666 -0.6831 -0.7270  1.1553
 4594SOL    HW225416   1.446   4.044   0.695  0.7430  0.4429  1.1664
 4595SOL     OW25417   2.434   0.457   9.258 -0.6085 -0.6189 -0.5017
 4595SOL    HW125418   2.375   0.507   9.201  0.8574  1.3701 -0.2987
 4595SOL    HW225419   2.380   0.456   9.337 -0.6593 -0.9282 -0.5402
 4596SOL     OW25420   2.398   1.400   3.147  0.1460 -0.1405 -0.1845
 4596SOL    HW125421   2.488   1.411   3.177 -0.2339  0.6860  0.6500
 4596SOL    HW225422   2.413   1.363   3.060 -0.1198 -0.2416 -0.1895
 4597SOL     OW25423   2.645   2.510   6.353  0.9061  0.6095 -0.0842
 4597SOL    HW125424   2.701   2.528   6.428  0.5573  0.8616  0.1180
 4597SOL    HW225425   2.604   2.425   6.364  1.1684  0.5593  0.5177
 4598SOL     OW25426   0.065   4.219   8.297  0.0891  0.2631 -0.6348
 4598SOL    HW125427   4.707   4.199   8.287 -0.2531  1.7338 -0.4167
 4598SOL    HW225428   0.091   4.202   8.206  0.7919  3.6985 -1.0972
 4599SOL     OW25429   4.264   0.835   4.235  0.1972  0.1554 -0.4765
 4599SOL    HW125430   4.186   0.874   4.273 -0.1265  0.3711 -1.3823
 4599SOL    HW225431   4.238   0.806   4.148  0.0316  0.7558 -0.6242
 4600SOL     OW25432   2.718   0.558   6.985 -0.0669  0.1689 -0.2803
 4600SOL    HW125433   2.794   0.613   7.004  0.7682 -1.8008  2.2417
 4600SOL    HW225434   2.667   0.625   6.941  0.2634  0.3239 -0.4209
 4601SOL     OW25435   2.657   0.093   6.299  0.1286 -0.0431 -0.2497
 4601SOL    HW125436   2.678   0.078   6.207  0.7264  3.6648 -0.7124
 4601SOL    HW225437   2.661   0.003   6.332  0.9128 -0.2427 -0.8950
 4602SOL     OW25438   0.390   4.233   5.499 -0.1954  0.1066 -0.3212
 4602SOL    HW125439   0.413   4.148   5.536 -0.3463 -0.1218 -0.7544
 4602SOL    HW225440   0.450   4.232   5.424 -0.7308 -0.2619 -0.7459
 4603SOL     OW25441   3.360   4.122   4.575 -0.2605 -0.2951  0.1833
 4603SOL    HW125442   3.314   4.204   4.562  1.7230  0.5396 -1.6619
 4603SOL    HW225443   3.349   4.112   4.669 -0.1931  1.9451  0.4229
 4604SOL     OW25444   4.263   4.617  10.356  0.0526 -0.3167 -0.2858
 4604SOL    HW125445   4.183   4.599  10.307  1.9571 -0.7632 -3.2052
 4604SOL    HW225446   4.246   4.563  10.434 -0.4099 -0.1311 -0.2592
 4605SOL     OW25447   1.612   3.689   7.218  0.2595 -0.4190 -0.4484
 4605SOL    HW125448   1.663   3.641   7.283  0.0058  2.6751  2.0479
 4605SOL    HW225449   1.640   3.645   7.137 -2.3780  0.7445 -1.9802
 4606SOL     OW25450   2.831   3.205  16.593  0.1424  0.4334 -0.8343
 4606SOL    HW125451   2.845   3.171  16.505 -0.9931  0.1424 -0.9040
 4606SOL    HW225452   2.890   3.280  16.595 -1.5386  1.7581 -0.9702
 4607SOL     OW25453   0.610   3.913  14.277  0.4074  0.2569 -0.1977
 4607SOL    HW125454   0.544   3.978  14.253 -0.5419 -0.5440  0.2539
 4607SOL    HW225455   0.689   3.935  14.227 -0.1855  0.0977 -1.2107
 4608SOL     OW25456   1.963   1.501   8.255 -0.7312 -0.7904  0.4695
 4608SOL    HW125457   1.964   1.498   8.160 -0.8837 -0.1071  0.4488
 4608SOL    HW225458   1.892   1.440   8.273 -0.5496 -0.4106  2.5444
 4609SOL     OW25459   4.591   2.809   2.784 -0.4924  0.2774  0.5695
 4609SOL    HW125460   4.509   2.777   2.822 -1.4158  3.2209  1.0347
 4609SOL    HW225461   4.559   2.802   2.694  0.6833 -0.3622  0.2021
 4610SOL     OW25462   1.980   2.102   8.963  0.1189 -0.0394 -0.5014
 4610SOL    HW125463   2.048   2.053   8.918  0.8848  0.7100 -0.1431
 4610SOL    HW225464   1.903   2.047   8.947 -1.3812  0.9398  3.1596
 4611SOL     OW25465   4.130   0.290   9.843  0.3871 -0.2976 -0.0681
 4611SOL    HW125466   4.168   0.205   9.819  1.4046  0.4395 -1.0562
 4611SOL    HW225467   4.208   0.345   9.850  0.1281  0.2306 -1.4001
 4612SOL     OW25468   3.513   4.374   7.929  0.0783  0.4443  0.0446
 4612SOL    HW125469   3.453   4.448   7.919 -1.5263 -0.5345  2.6070
 4612SOL    HW225470   3.519   4.356   7.835  1.5394 -0.5617  0.3296
 4613SOL     OW25471   3.512   2.456   9.213 -0.2469 -0.1425  0.2349
 4613SOL    HW125472   3.451   2.519   9.174  1.1089  0.4381 -0.9410
 4613SOL    HW225473   3.594   2.506   9.219 -1.9246  2.8902 -1.9575
 4614SOL     OW25474   0.420   3.598   4.570 -0.0398 -1.1209  0.2380
 4614SOL    HW125475   0.330   3.568   4.559 -0.5747  1.1303 -1.6130
 4614SOL    HW225476   0.476   3.528   4.538 -0.8473 -1.5041 -0.3064
 4615SOL     OW25477   4.298   2.222  13.442 -0.3318 -0.5923  0.2337
 4615SOL    HW125478   4.296   2.147  13.383  0.1109 -1.2356  1.0316
 4615SOL    HW225479   4.390   2.231  13.467 -0.3315 -0.5717  0.2254
 4616SOL     OW25480   4.459   3.573  14.095  0.2951 -0.2897 -0.0654
 4616SOL    HW125481   4.536   3.580  14.039 -0.7390  0.5702 -1.3994
 4616SOL    HW225482   4.412   3.506  14.046 -0.5153  1.1196 -1.2430
 4617SOL     OW25483   1.999   1.945   7.276  0.1223  0.2030  0.1808
 4617SOL    HW125484   2.078   1.938   7.222  0.0523 -0.8345  0.1958
 4617SOL    HW225485   2.027   1.896   7.353 -0.8084  0.3993  0.6465
 4618SOL     OW25486   3.637   1.257   2.673  0.8735 -0.7736  0.1836
 4618SOL    HW125487   3.665   1.339   2.632  0.1459  0.3652  1.9341
 4618SOL    HW225488   3.554   1.239   2.630 -0.1429  1.6696  1.1474
 4619SOL     OW25489   1.076   1.053   5.223 -0.3118  0.2240  0.1336
 4619SOL    HW125490   1.150   1.093   5.178 -0.5351 -1.3625 -1.6690
 4619SOL    HW225491   1.118   0.994   5.285 -0.3677  1.2730  1.1587
 4620SOL     OW25492   3.222   2.537   1.971 -0.3464  0.0692 -0.3449
 4620SOL    HW125493   3.208   2.628   1.994  3.3565  0.3854  0.7357
 4620SOL    HW225494   3.265   2.501   2.048 -0.4027  0.0017 -0.3448
 4621SOL     OW25495   1.795   2.691   6.726  0.3613 -0.2865  0.4243
 4621SOL    HW125496   1.870   2.642   6.693  1.6313  0.2535  2.5121
 4621SOL    HW225497   1.732   2.647   6.669  2.4876 -0.4611 -1.7962
 4622SOL     OW25498   1.259   3.620   6.289  0.0080 -0.2320  0.3101
 4622SOL    HW125499   1.216   3.535   6.293  3.2248 -1.7425  2.3340
 4622SOL    HW225500   1.340   3.602   6.335  0.5101 -1.2838 -1.0060
 4623SOL     OW25501   2.439   0.965  12.458 -0.4405 -0.7862 -1.2579
 4623SOL    HW125502   2.486   0.882  12.465 -0.2335 -0.5728 -0.2144
 4623SOL    HW225503   2.509   1.017  12.417 -0.2907 -0.6665 -0.8493
 4624SOL     OW25504   4.517   1.365   7.598 -0.2509 -0.0030  0.5816
 4624SOL    HW125505   4.435   1.373   7.646  0.1011 -0.4230  1.2604
 4624SOL    HW225506   4.570   1.432   7.640  1.7128 -0.8655 -0.4808
 4625SOL     OW25507   2.186   3.698  10.238 -0.4169  0.6551  0.3075
 4625SOL    HW125508   2.160   3.715  10.328 -1.1129 -0.6702  0.3668
 4625SOL    HW225509   2.103   3.669  10.199  1.1674  1.3073 -3.5849
 4626SOL     OW25510   4.013   4.177  12.381 -0.0550 -0.2809  0.2259
 4626SOL    HW125511   3.998   4.271  12.393 -1.6234 -0.2935 -1.8659
 4626SOL    HW225512   3.953   4.176  12.307 -0.2166  0.3140  0.3469
 4627SOL     OW25513   0.270   4.195   4.657 -0.6074 -0.1340 -0.3218
 4627SOL    HW125514   0.326   4.269   4.678  0.8948 -1.2990 -0.2035
 4627SOL    HW225515   0.225   4.230   4.581  1.1639  2.0166 -0.3819
 4628SOL     OW25516   0.598   3.686   2.970  0.6153  0.0995 -0.1397
 4628SOL    HW125517   0.610   3.778   2.992 -0.3534 -0.2261  1.7700
 4628SOL    HW225518   0.512   3.670   3.008  1.0621 -0.7452  0.5244
 4629SOL     OW25519   3.770   3.985   4.548  0.2819  0.0026  0.0306
 4629SOL    HW125520   3.801   3.899   4.520 -1.2430 -0.0232 -1.6576
 4629SOL    HW225521   3.753   3.978   4.642 -0.8231  1.9890 -0.0227
 4630SOL     OW25522   3.508   3.913  12.497 -0.2647 -0.2750 -0.0508
 4630SOL    HW125523   3.455   3.837  12.472 -1.2434  0.0206  1.1156
 4630SOL    HW225524   3.437   3.976  12.481 -1.1196 -1.0414  0.7427
 4631SOL     OW25525   1.142   3.665   7.638 -0.2665  0.2064 -0.0107
 4631SOL    HW125526   1.058   3.700   7.608 -0.6271 -0.4998  0.1646
 4631SOL    HW225527   1.139   3.719   7.717  1.5546 -0.0486  0.2129
 4632SOL     OW25528   3.473   2.085   6.058 -0.1740  0.0101 -0.5664
 4632SOL    HW125529   3.485   2.051   5.969 -0.7113 -1.1142 -0.2068
 4632SOL    HW225530   3.426   2.019   6.109  0.0605  1.6118  1.7125
 4633SOL     OW25531   1.154   2.089   7.725  0.6241  0.5171  0.2119
 4633SOL    HW125532   1.122   2.132   7.646 -0.2678 -0.3577  0.0887
 4633SOL    HW225533   1.236   2.051   7.692 -0.8848 -1.9720 -0.6558
 4634SOL     OW25534   3.823   1.036   9.461  0.0184  0.0092 -0.1090
 4634SOL    HW125535   3.811   0.983   9.382  2.9927 -0.5534 -0.2086
 4634SOL    HW225536   3.748   1.006   9.513  1.5374 -0.6793  1.7172
 4635SOL     OW25537   3.437   0.181   0.087 -0.4573 -0.2778  0.1972
 4635SOL    HW125538   3.388   0.161   0.167 -0.8649 -0.5341 -0.1143
 4635SOL    HW225539   3.491   0.255   0.116 -1.0526 -0.8639  2.8348
 4636SOL     OW25540   3.699   3.968   6.110  0.0927  0.0787 -0.7984
 4636SOL    HW125541   3.640   4.043   6.122  1.1488  0.3780  2.5664
 4636SOL    HW225542   3.770   4.019   6.073 -0.0712  1.6704  1.0984
 4637SOL     OW25543   3.499   3.110   4.472  0.0807 -0.3758 -0.1921
 4637SOL    HW125544   3.517   3.168   4.546 -0.8573 -0.4067  0.0628
 4637SOL    HW225545   3.583   3.070   4.451 -0.0736 -0.9685  0.3602
 4638SOL     OW25546   4.403   4.045   9.553  0.9343  0.0154  0.1740
 4638SOL    HW125547   4.411   3.952   9.573  0.8352  0.0046  0.1658
 4638SOL    HW225548   4.489   4.066   9.517 -0.2842  2.7332 -1.1630
 4639SOL     OW25549   1.480   3.686   8.201  0.6288  0.5043 -0.8712
 4639SOL    HW125550   1.432   3.686   8.284  0.9777 -0.2545 -0.6682
 4639SOL    HW225551   1.570   3.704   8.228 -0.3445 -0.3113  3.0006
 4640SOL     OW25552   1.675   3.663   1.766  0.1310 -0.2204  0.5888
 4640SOL    HW125553   1.606   3.599   1.782  1.4584 -0.7277  4.2922
 4640SOL    HW225554   1.619   3.740   1.752  1.3431  0.1653 -2.2750
 4641SOL     OW25555   2.399   2.175   3.944  0.1491 -0.2744  0.0403
 4641SOL    HW125556   2.346   2.229   4.002 -0.7945 -0.3925 -0.7139
 4641SOL    HW225557   2.470   2.236   3.926  1.2744 -2.1952 -2.1503
 4642SOL     OW25558   0.605   2.731   1.200  0.1053 -0.0289  0.1529
 4642SOL    HW125559   0.517   2.768   1.203  0.2739  0.2955  1.0463
 4642SOL    HW225560   0.593   2.638   1.219 -1.1624  0.0244 -0.4014
 4643SOL     OW25561   4.223   0.564   6.870 -0.5435 -0.2191 -0.9233
 4643SOL    HW125562   4.190   0.651   6.891  0.8637 -0.2228  1.2799
 4643SOL    HW225563   4.150   0.504   6.883  0.1791 -0.4987  1.8451
 4644SOL     OW25564   0.096   1.902   7.059  0.2459  0.1244  0.4683
 4644SOL    HW125565   0.178   1.941   7.090 -1.4081  2.1223  2.2622
 4644SOL    HW225566   0.084   1.946   6.974  0.2051  1.0452  0.9478
 4645SOL     OW25567   2.797   3.155   5.055  0.2032 -0.3036 -0.8315
 4645SOL    HW125568   2.776   3.084   4.995 -1.7973  0.4664 -1.0451
 4645SOL    HW225569   2.892   3.142   5.061  0.1866 -0.8096 -1.6438
 4646SOL     OW25570   0.391   1.542   4.565  0.0495 -0.1102  0.2405
 4646SOL    HW125571   0.296   1.543   4.561 -0.0719  0.4188  3.2515
 4646SOL    HW225572   0.415   1.452   4.589 -0.4437 -0.5227 -0.8469
 4647SOL     OW25573   1.745   2.558   2.607 -0.3933  0.7792 -0.7203
 4647SOL    HW125574   1.801   2.509   2.547 -0.3278  0.2656 -0.2490
 4647SOL    HW225575   1.688   2.483   2.628  0.1461  1.4117  3.0102
 4648SOL     OW25576   0.192   3.812   3.789 -0.3003  0.4798  0.5421
 4648SOL    HW125577   0.224   3.892   3.831  0.7124 -0.2996  1.2610
 4648SOL    HW225578   0.277   3.768   3.786 -0.8082 -0.2804 -2.8353
 4649SOL     OW25579   0.901   0.637  15.785 -0.0879  0.0508  0.0226
 4649SOL    HW125580   0.847   0.577  15.837 -0.6948 -0.7638 -1.5495
 4649SOL    HW225581   0.985   0.615  15.825  0.3069  3.1041  0.8594
 4650SOL     OW25582   2.897   3.800   7.283  0.1784 -0.6526  0.4603
 4650SOL    HW125583   2.896   3.895   7.295 -3.4444 -0.7519  1.0541
 4650SOL    HW225584   2.858   3.761   7.361 -0.0501  1.4703  1.3989
 4651SOL     OW25585   4.236   4.574  10.828 -0.0865 -0.3198 -0.2978
 4651SOL    HW125586   4.316   4.584  10.878  0.4996 -1.0603 -1.0826
 4651SOL    HW225587   4.171   4.601  10.893  1.1366  2.7906 -0.3774
 4652SOL     OW25588   0.876   3.338  17.546 -0.1891  0.0628 -0.2598
 4652SOL    HW125589   0.861   3.428  17.576 -0.3563 -0.4778  1.2802
 4652SOL    HW225590   0.865   3.345  17.451  0.7857  0.4644 -0.3503
 4653SOL     OW25591   2.251   0.628   2.215 -0.2960 -0.3486 -0.2058
 4653SOL    HW125592   2.253   0.619   2.120  0.3144 -2.2077 -0.0203
 4653SOL    HW225593   2.306   0.705   2.230 -1.5490 -0.0767  3.0724
 4654SOL     OW25594   2.039   2.773  15.630 -0.2950 -0.0652 -0.4287
 4654SOL    HW125595   2.070   2.736  15.713 -0.7142 -0.3697 -0.4083
 4654SOL    HW225596   2.087   2.856  15.631  0.0140 -0.2761  2.4798
 4655SOL     OW25597   3.350   2.118   6.652 -0.3733  0.1717 -0.3252
 4655SOL    HW125598   3.433   2.088   6.689  0.0538  0.6911 -0.8517
 4655SOL    HW225599   3.374   2.211   6.655  0.4786 -0.0406 -0.6543
 4656SOL     OW25600   2.880   0.050  14.830  0.0748  0.3830 -0.7720
 4656SOL    HW125601   2.857   4.731  14.906 -3.3665 -0.3367 -2.3405
 4656SOL    HW225602   2.888   4.720  14.760  1.1407 -0.7248  0.3757
 4657SOL     OW25603   3.335   1.163   1.148 -0.1127 -0.4064  0.6741
 4657SOL    HW125604   3.326   1.253   1.116 -4.0322 -0.2800  2.0519
 4657SOL    HW225605   3.430   1.160   1.151 -0.0848  1.3954  1.6441
 4658SOL     OW25606   1.963   0.938   3.842 -0.5542 -0.0060 -0.1841
 4658SOL    HW125607   2.039   0.943   3.783 -0.6492 -1.8139 -0.4735
 4658SOL    HW225608   1.935   0.846   3.837 -2.2179  0.6722 -3.4118
 4659SOL     OW25609   4.647   2.386   5.248  0.7489 -0.9765  0.0431
 4659SOL    HW125610   4.726   2.419   5.206  1.1941 -0.3939  1.3340
 4659SOL    HW225611   4.665   2.292   5.237  2.1600 -0.6792 -0.1634
 4660SOL     OW25612   3.153   3.125   3.073 -0.7269 -0.0386 -0.1128
 4660SOL    HW125613   3.186   3.198   3.126 -0.3992  0.0826 -0.4917
 4660SOL    HW225614   3.221   3.058   3.077 -0.5992  0.1080  0.2538
 4661SOL     OW25615   0.444   1.362  12.276  0.3396  0.0187  0.4143
 4661SOL    HW125616   0.493   1.281  12.289 -2.0623 -1.5765 -0.4025
 4661SOL    HW225617   0.461   1.424  12.347  0.5244 -0.9555  1.2210
 4662SOL     OW25618   4.171   1.043  16.069 -0.4561 -0.4316  0.1254
 4662SOL    HW125619   4.121   1.124  16.057 -0.1821 -0.3763 -0.6351
 4662SOL    HW225620   4.229   1.068  16.141  2.5469  0.4176 -2.5944
 4663SOL     OW25621   3.997   1.736   5.076  0.3636 -0.3356  0.5040
 4663SOL    HW125622   3.962   1.662   5.026  1.2309 -0.5526  0.2160
 4663SOL    HW225623   4.085   1.702   5.094  0.9780  1.1890  0.3610
 4664SOL     OW25624   1.428   4.197   4.755 -0.3554  0.4118  0.2065
 4664SOL    HW125625   1.520   4.211   4.731 -0.1823 -2.4805 -0.7889
 4664SOL    HW225626   1.438   4.141   4.832 -1.6471  0.3467  0.3240
 4665SOL     OW25627   1.489   1.935   2.634  0.2094 -0.1826 -0.1921
 4665SOL    HW125628   1.556   1.886   2.587 -0.6480  0.1152 -1.6945
 4665SOL    HW225629   1.432   1.969   2.565  1.2897 -0.0748 -1.0174
 4666SOL     OW25630   2.442   4.132   5.404  0.0156 -0.1768  0.2007
 4666SOL    HW125631   2.527   4.164   5.375 -0.2812 -0.6961 -1.2471
 4666SOL    HW225632   2.471   4.062   5.463  3.7387  1.8196  0.7478
 4667SOL     OW25633   4.338   4.257   2.919  0.3951 -0.1035 -0.0344
 4667SOL    HW125634   4.300   4.232   3.003  0.3986 -2.2360 -0.6653
 4667SOL    HW225635   4.283   4.326   2.882  2.4113  2.1808  1.2682
 4668SOL     OW25636   0.872   3.324   8.496  0.3600 -0.0698  0.7552
 4668SOL    HW125637   0.845   3.298   8.408 -0.5761  1.3272  0.6329
 4668SOL    HW225638   0.960   3.360   8.484  0.0396  0.1289 -1.0392
 4669SOL     OW25639   3.972   0.260   1.582  0.1647 -0.6945  0.2630
 4669SOL    HW125640   3.961   0.327   1.649  1.3516  0.6719 -0.9142
 4669SOL    HW225641   3.885   0.220   1.575  1.0462 -2.2500 -1.6008
 4670SOL     OW25642   4.680   3.214   7.182 -0.3066 -0.1137 -0.1220
 4670SOL    HW125643   4.592   3.193   7.215 -0.0529 -1.3496 -0.2192
 4670SOL    HW225644   4.677   3.147   7.114 -0.2527 -1.2533  0.9844
 4671SOL     OW25645   2.753   4.510   0.083 -0.1815 -0.1502 -0.4566
 4671SOL    HW125646   2.684   4.444   0.088 -0.9519  0.6591 -0.3920
 4671SOL    HW225647   2.714   4.579   0.030  0.9913 -0.1505 -1.3273
 4672SOL     OW25648   4.647   1.037   9.034 -0.2780 -0.1030  0.4794
 4672SOL    HW125649   4.600   1.116   9.007  1.3843  0.3276 -1.1854
 4672SOL    HW225650   4.733   1.062   9.070  2.1974 -1.1903 -4.7027
 4673SOL     OW25651   4.625   1.680   1.752  0.2007 -0.5863  0.5084
 4673SOL    HW125652   4.587   1.602   1.790  0.4097 -0.2007  1.5183
 4673SOL    HW225653   4.547   1.731   1.775  0.4653  0.7786 -1.5156
 4674SOL     OW25654   0.481   1.626   2.708  0.6743  0.0202  0.4518
 4674SOL    HW125655   0.569   1.663   2.701  0.4117  0.7445  1.0504
 4674SOL    HW225656   0.502   1.547   2.758 -1.0106  0.3666  1.6722
 4675SOL     OW25657   3.829   2.250   5.568  0.4022  0.0287  0.6846
 4675SOL    HW125658   3.808   2.307   5.642  1.3252  0.6307  0.4858
 4675SOL    HW225659   3.834   2.316   5.499 -0.1442 -1.5327 -0.8638
 4676SOL     OW25660   1.881   3.392  13.122 -0.2468  0.3396 -0.1132
 4676SOL    HW125661   1.928   3.468  13.158  1.0276 -0.9421  0.9615
 4676SOL    HW225662   1.792   3.422  13.141  0.3485  1.2605  1.2024
 4677SOL     OW25663   3.213   2.373   4.557  0.5007  0.9426  0.1757
 4677SOL    HW125664   3.244   2.461   4.535  1.2987  1.1973  2.2775
 4677SOL    HW225665   3.293   2.348   4.603  0.1962  2.5717  1.6095
 4678SOL     OW25666   2.164   2.691  15.883  0.0167 -0.0971  0.3190
 4678SOL    HW125667   2.123   2.608  15.860  3.2459 -1.5833 -0.0557
 4678SOL    HW225668   2.128   2.718  15.967 -1.8764  2.0826 -1.1579
 4679SOL     OW25669   2.211   2.600   5.662 -0.2301 -0.1296  0.4699
 4679SOL    HW125670   2.301   2.613   5.633  0.2524  0.7398  2.3039
 4679SOL    HW225671   2.213   2.505   5.664 -3.1420 -0.2073 -0.3367
 4680SOL     OW25672   4.488   4.481  10.282  0.3635 -0.1033 -0.3506
 4680SOL    HW125673   4.430   4.412  10.249  0.5675 -0.0810 -0.7564
 4680SOL    HW225674   4.420   4.531  10.328  0.8482  0.8652 -0.6682
 4681SOL     OW25675   0.340   1.913   9.384  0.8124  0.3508 -0.0903
 4681SOL    HW125676   0.382   1.998   9.370 -0.3768  0.7742 -1.1882
 4681SOL    HW225677   0.287   1.897   9.305  2.1526  1.4060 -1.2079
 4682SOL     OW25678   4.500   3.724   4.859 -0.3123 -0.2786  0.0222
 4682SOL    HW125679   4.546   3.674   4.791 -0.8995  0.3514 -0.8448
 4682SOL    HW225680   4.497   3.662   4.931 -0.1392 -0.8157 -0.4374
 4683SOL     OW25681   1.523   0.061   4.175  0.0822  0.4398  0.5332
 4683SOL    HW125682   1.480   0.055   4.261 -1.1094  1.5124  0.0250
 4683SOL    HW225683   1.449   0.033   4.122  0.8347 -2.0279  0.7909
 4684SOL     OW25684   2.476   4.087   9.202  0.6381 -0.4354 -0.9176
 4684SOL    HW125685   2.431   4.003   9.217  0.4945 -0.1025  0.5347
 4684SOL    HW225686   2.490   4.117   9.292 -0.5240 -2.8882  0.1044
 4685SOL     OW25687   3.552   3.595   6.054 -0.0686 -0.5533  1.0713
 4685SOL    HW125688   3.604   3.656   6.003 -1.4400 -0.4176 -0.1745
 4685SOL    HW225689   3.598   3.584   6.137  1.8853 -3.1890 -0.4054
 4686SOL     OW25690   1.166   3.385   5.717  0.4497 -0.2464 -0.2572
 4686SOL    HW125691   1.120   3.320   5.771 -3.4440  0.1610 -3.0930
 4686SOL    HW225692   1.207   3.442   5.781 -2.6436 -2.8494  4.0661
 4687SOL     OW25693   2.179   2.239   1.242 -0.2898 -0.2311  0.1299
 4687SOL    HW125694   2.217   2.189   1.314 -1.7114 -0.4917  0.6908
 4687SOL    HW225695   2.263   2.263   1.201 -0.4494  0.7935  0.3926
 4688SOL     OW25696   2.665   0.268  17.612 -0.3993 -0.3346 -0.2322
 4688SOL    HW125697   2.727   0.341  17.605 -0.6002 -0.2244 -0.8265
 4688SOL    HW225698   2.667   0.270  17.708 -0.2842  1.1096 -0.2554
 4689SOL     OW25699   0.951   1.771   3.498  0.2180  0.1109 -0.4599
 4689SOL    HW125700   0.914   1.769   3.410 -0.6803 -0.6634 -0.0712
 4689SOL    HW225701   0.955   1.677   3.516  1.2917 -0.0700 -1.6649
 4690SOL     OW25702   1.702   2.186   2.199 -0.3450  0.1312 -0.0363
 4690SOL    HW125703   1.660   2.265   2.235 -0.4002 -0.1830  0.5980
 4690SOL    HW225704   1.735   2.150   2.282 -2.7199 -3.2111 -0.5404
 4691SOL     OW25705   1.654   2.103   5.253  0.0451  0.6545  0.3156
 4691SOL    HW125706   1.567   2.081   5.287 -1.0068 -0.6619 -3.2710
 4691SOL    HW225707   1.652   2.191   5.291 -1.5233  0.8337 -0.1817
 4692SOL     OW25708   1.233   1.717   7.581 -0.0070  0.1272  0.9385
 4692SOL    HW125709   1.177   1.670   7.520 -0.1016  1.8655 -0.3193
 4692SOL    HW225710   1.309   1.659   7.589  0.0386  0.2043  1.0660
 4693SOL     OW25711   3.584   4.485   6.135  0.0922  0.9435 -0.1758
 4693SOL    HW125712   3.492   4.464   6.121  0.3591 -0.1568 -0.2913
 4693SOL    HW225713   3.586   4.564   6.081  0.7752  0.8113 -0.3466
 4694SOL     OW25714   1.262   2.693   5.128  0.5743 -1.3151 -0.0010
 4694SOL    HW125715   1.318   2.732   5.061 -1.9934 -1.1805 -2.0719
 4694SOL    HW225716   1.282   2.748   5.204 -1.5549 -1.0789  0.3806
 4695SOL     OW25717   0.634   4.190  17.439  0.2154  0.6886  0.2192
 4695SOL    HW125718   0.592   4.207  17.523 -0.2501 -0.0647  0.1463
 4695SOL    HW225719   0.705   4.254  17.439  2.1346 -1.4397 -1.2299
 4696SOL     OW25720   3.355   4.099   1.161  0.2236  0.2723  0.0511
 4696SOL    HW125721   3.350   4.086   1.256 -1.2600 -0.7123 -0.1665
 4696SOL    HW225722   3.320   4.188   1.156 -2.3077 -0.9088 -3.1120
 4697SOL     OW25723   3.893   0.205   3.490  0.2375 -0.6312 -0.2450
 4697SOL    HW125724   3.887   0.137   3.558 -0.2903  0.6504  1.0087
 4697SOL    HW225725   3.860   0.162   3.412 -1.1127  2.1100 -1.1845
 4698SOL     OW25726   0.672   0.245  10.071 -0.1028 -0.0039 -0.2995
 4698SOL    HW125727   0.585   0.283  10.080  0.2663 -0.0071  2.9924
 4698SOL    HW225728   0.711   0.303  10.005  0.9565  0.6393  0.8862
 4699SOL     OW25729   2.336   0.298   3.409  0.1942  0.6734 -0.1495
 4699SOL    HW125730   2.332   0.321   3.317 -0.9648  1.0844  0.0038
 4699SOL    HW225731   2.262   0.344   3.449 -0.7345  1.3286 -2.6201
 4700SOL     OW25732   2.983   1.088  11.970  0.3738 -0.3317 -0.4143
 4700SOL    HW125733   2.975   1.170  12.018  3.2912  0.0542 -0.6176
 4700SOL    HW225734   3.074   1.090  11.942  0.3063 -0.9691 -0.6841
 4701SOL     OW25735   0.279   2.980  10.459 -0.3041  0.5500 -0.5383
 4701SOL    HW125736   0.188   2.999  10.439 -0.1946  0.3283 -1.2282
 4701SOL    HW225737   0.266   2.938  10.544 -0.2307  1.6312  0.0059
 4702SOL     OW25738   4.526   2.827   4.421 -0.5947  0.5147  0.1564
 4702SOL    HW125739   4.574   2.895   4.374 -0.0176  0.8456  1.2301
 4702SOL    HW225740   4.556   2.849   4.509 -0.1789 -0.8058  0.3445
 4703SOL     OW25741   1.781   3.142   3.098 -0.3940 -0.0316 -0.2896
 4703SOL    HW125742   1.761   3.058   3.056  0.0778  0.4844 -1.5469
 4703SOL    HW225743   1.810   3.187   3.019  1.2571 -0.0005  0.3316
 4704SOL     OW25744   3.889   4.513  16.669 -0.6600  0.4189  0.5733
 4704SOL    HW125745   3.839   4.435  16.693 -1.2289  0.4664 -0.4332
 4704SOL    HW225746   3.967   4.507  16.724 -0.3036  2.0242  0.2528
 4705SOL     OW25747   1.772   2.229   6.543 -0.4245 -0.2950  0.3270
 4705SOL    HW125748   1.806   2.180   6.468 -1.1555 -2.5947  1.5065
 4705SOL    HW225749   1.827   2.199   6.616 -0.8301 -1.7409  0.0378
 4706SOL     OW25750   1.744   0.742   7.832  0.6130 -0.4343 -0.0308
 4706SOL    HW125751   1.651   0.761   7.839  1.0531  1.5859  0.2124
 4706SOL    HW225752   1.782   0.792   7.904 -0.0881  0.7911 -0.5184
 4707SOL     OW25753   4.410   0.078   0.337  0.9884 -0.6711 -0.0038
 4707SOL    HW125754   4.477   0.084   0.269 -0.2223  1.2314 -1.0267
 4707SOL    HW225755   4.391   4.721   0.348  2.3215 -0.9505 -0.0709
 4708SOL     OW25756   1.255   2.913   4.117  0.0040  0.3568  0.6040
 4708SOL    HW125757   1.239   2.927   4.211 -2.5519 -0.3829  0.2731
 4708SOL    HW225758   1.170   2.941   4.085  0.0043  0.1635  0.4378
 4709SOL     OW25759   3.046   1.146  10.096  0.0283 -0.2402 -0.0332
 4709SOL    HW125760   2.964   1.161  10.050 -1.2452 -1.4111  1.8324
 4709SOL    HW225761   3.016   1.110  10.180  0.4295 -0.3653  0.0602
 4710SOL     OW25762   3.814   3.283   2.804  0.2162  0.4652 -0.1279
 4710SOL    HW125763   3.819   3.309   2.896 -0.0097 -1.8032  0.5255
 4710SOL    HW225764   3.810   3.366   2.755  4.4006 -0.6237 -2.2553
 4711SOL     OW25765   3.561   3.002   3.138  0.6237  0.0619 -0.3040
 4711SOL    HW125766   3.580   3.074   3.199  0.6997 -0.8039  0.6912
 4711SOL    HW225767   3.542   3.043   3.054  0.0701 -0.4721 -0.4428
 4712SOL     OW25768   2.653   0.231   7.149 -0.1165  0.5542 -0.6929
 4712SOL    HW125769   2.649   0.293   7.222 -1.8898 -0.1766 -0.1589
 4712SOL    HW225770   2.743   0.199   7.154 -0.4158 -0.0459  0.6098
 4713SOL     OW25771   4.316   1.321   5.943 -0.2430 -0.1276  0.1180
 4713SOL    HW125772   4.401   1.357   5.918 -0.1677 -0.3232  0.0908
 4713SOL    HW225773   4.339   1.228   5.935 -1.0543 -0.5160  2.1916
 4714SOL     OW25774   3.300   2.910  16.772 -0.4061 -0.3258  0.6274
 4714SOL    HW125775   3.281   2.822  16.804 -0.2128 -0.5596  0.1061
 4714SOL    HW225776   3.225   2.922  16.714  2.2991  0.3003 -2.7950
 4715SOL     OW25777   1.527   0.848   2.318 -0.7110  0.4161  0.1088
 4715SOL    HW125778   1.588   0.879   2.385  0.2380 -2.0243  0.3544
 4715SOL    HW225779   1.574   0.773   2.283 -2.0373  0.0383 -0.8765
 4716SOL     OW25780   1.940   1.784   4.249 -0.0872 -0.0340 -0.0062
 4716SOL    HW125781   2.021   1.802   4.200 -0.1994 -0.5780 -0.4006
 4716SOL    HW225782   1.910   1.700   4.212  1.2810 -0.9826  1.0146
 4717SOL     OW25783   0.627   4.326  13.381 -0.1302  0.3581  0.1578
 4717SOL    HW125784   0.589   4.243  13.355 -0.7857 -0.0070  2.2760
 4717SOL    HW225785   0.552   4.386  13.381  1.2463  2.0786  0.1034
 4718SOL     OW25786   2.417   3.879   2.909  0.2045 -0.3137  0.5398
 4718SOL    HW125787   2.491   3.940   2.914  0.0745 -0.2825  2.0068
 4718SOL    HW225788   2.449   3.810   2.967  2.0588  3.0492  3.5366
 4719SOL     OW25789   0.325   0.106   6.158 -0.0542 -0.1166 -0.2462
 4719SOL    HW125790   0.337   0.159   6.237  0.0386  0.2118 -0.4801
 4719SOL    HW225791   0.241   0.069   6.185 -1.0851  0.7003 -2.3446
 4720SOL     OW25792   0.159   0.339   5.823 -0.4170 -0.5906 -0.5140
 4720SOL    HW125793   0.087   0.289   5.864 -0.9487  0.8395  0.2912
 4720SOL    HW225794   0.186   0.392   5.898 -1.0615 -1.2450  0.2025
 4721SOL     OW25795   1.828   3.222   6.601 -0.1147  0.1052 -0.7655
 4721SOL    HW125796   1.740   3.260   6.599 -0.1896 -0.0940 -1.1630
 4721SOL    HW225797   1.864   3.250   6.685 -1.0832 -1.2115  0.0850
 4722SOL     OW25798   1.657   0.548   8.584  0.4839  0.4255 -0.1445
 4722SOL    HW125799   1.581   0.525   8.530 -0.9904  3.4895  0.6449
 4722SOL    HW225800   1.646   0.486   8.657  2.3607  0.8996  0.5514
 4723SOL     OW25801   1.152   0.048  12.975 -0.0674  0.0623  0.1309
 4723SOL    HW125802   1.239   0.020  12.948  0.1501 -0.4173  1.2924
 4723SOL    HW225803   1.109   0.007  12.900 -1.3058  0.5537  0.5626
 4724SOL     OW25804   4.636   2.585   3.624 -0.3047 -0.3036  0.2068
 4724SOL    HW125805   4.729   2.603   3.613 -0.4324 -0.2048 -0.6965
 4724SOL    HW225806   4.645   2.555   3.714 -0.0884 -1.7536 -0.3082
 4725SOL     OW25807   2.562   2.710  12.260 -0.0191  0.0571 -0.1122
 4725SOL    HW125808   2.623   2.661  12.316  1.7454  0.1805 -1.9384
 4725SOL    HW225809   2.585   2.682  12.172  1.0180 -1.1409  0.5284
 4726SOL     OW25810   1.614   4.541  13.842 -0.0659 -0.4287  0.6231
 4726SOL    HW125811   1.682   4.560  13.907  0.5749  0.0814 -0.1917
 4726SOL    HW225812   1.550   4.491  13.892 -0.1912 -0.9264 -0.0403
 4727SOL     OW25813   3.400   2.448   0.970 -0.2054  0.4402 -0.0175
 4727SOL    HW125814   3.460   2.447   0.895 -0.7424  1.0587 -0.4596
 4727SOL    HW225815   3.333   2.512   0.948 -0.5001 -0.3157 -1.3455
 4728SOL     OW25816   4.271   4.732  17.037 -0.1327  0.4237 -0.4230
 4728SOL    HW125817   4.258   4.718  17.131 -2.1917 -0.0290 -0.7807
 4728SOL    HW225818   4.249   0.089  17.034  3.3595  1.3582  1.7650
 4729SOL     OW25819   1.195   2.575  14.235 -0.3173 -0.0813  0.1332
 4729SOL    HW125820   1.142   2.506  14.195  0.2110 -0.2646 -0.2558
 4729SOL    HW225821   1.269   2.531  14.277  0.1022  0.0917 -0.4279
 4730SOL     OW25822   0.935   1.767   5.770  0.2397 -0.3000 -0.8099
 4730SOL    HW125823   0.947   1.854   5.807  0.8107  0.0695 -1.8581
 4730SOL    HW225824   0.864   1.727   5.820  0.9612 -1.0500 -0.3848
 4731SOL     OW25825   1.289   0.416   6.414 -0.9673  0.5929 -0.3168
 4731SOL    HW125826   1.349   0.420   6.340  0.2686 -0.9586  0.6269
 4731SOL    HW225827   1.274   0.322   6.420  0.2222  0.5923  2.3508
 4732SOL     OW25828   3.869   2.634  15.484  0.4693 -0.1545  0.2605
 4732SOL    HW125829   3.928   2.705  15.509  0.8202  0.6105 -2.7468
 4732SOL    HW225830   3.843   2.606  15.572  1.0501 -1.4788 -0.0013
 4733SOL     OW25831   0.723   4.484   7.895  0.1944  0.0645  0.2742
 4733SOL    HW125832   0.723   4.403   7.843  0.6118  0.0374  0.3233
 4733SOL    HW225833   0.793   4.467   7.957  1.3886 -0.4224 -1.1997
 4734SOL     OW25834   4.114   2.005   2.170 -0.4169 -0.0883 -0.0679
 4734SOL    HW125835   4.095   1.912   2.180  0.0190  0.0626  2.1463
 4734SOL    HW225836   4.177   2.030   2.237 -2.0261 -0.3497  1.5272
 4735SOL     OW25837   4.025   4.199  17.707 -0.3435  0.1431 -0.1568
 4735SOL    HW125838   4.075   4.275  17.676  2.2458 -0.5524  2.2519
 4735SOL    HW225839   4.025   4.221   0.058  0.9147 -1.4249  0.2109
 4736SOL     OW25840   1.581   4.470   5.858 -0.0017 -0.1930 -0.8091
 4736SOL    HW125841   1.546   4.560   5.858 -0.4578 -0.3776  0.3751
 4736SOL    HW225842   1.666   4.487   5.818  1.0090 -0.4186  1.2556
 4737SOL     OW25843   0.288   1.010   9.586 -0.2949 -0.0386  0.0632
 4737SOL    HW125844   0.382   1.029   9.579 -0.5984  2.1335  1.9681
 4737SOL    HW225845   0.287   0.922   9.622  0.1533 -0.3791 -0.7546
 4738SOL     OW25846   4.453   0.264  14.920  0.5342  0.0135 -0.0940
 4738SOL    HW125847   4.473   0.175  14.890 -0.4059 -0.2888  0.1892
 4738SOL    HW225848   4.394   0.291  14.850  0.1475  0.5780  0.4526
 4739SOL     OW25849   0.177   0.155   3.687 -0.6593  0.5670  0.1246
 4739SOL    HW125850   0.250   0.094   3.674 -1.1817 -0.1355  0.4924
 4739SOL    HW225851   0.127   0.090   3.736  1.4524  0.7433  2.4999
 4740SOL     OW25852   3.182   0.421   6.126  0.0019 -0.5780 -0.0418
 4740SOL    HW125853   3.245   0.368   6.078 -1.2174 -2.7403  0.7065
 4740SOL    HW225854   3.101   0.399   6.080  0.3224 -2.2382  0.2000
 4741SOL     OW25855   1.233   0.891   8.719  0.1182  0.5229  1.1496
 4741SOL    HW125856   1.303   0.876   8.655 -0.0583 -0.3216  1.1626
 4741SOL    HW225857   1.242   0.983   8.746 -0.9502  0.6985  0.9004
 4742SOL     OW25858   2.710   3.140   3.731  0.5119 -0.3981 -0.0942
 4742SOL    HW125859   2.783   3.078   3.733  1.7558  1.1092  2.4016
 4742SOL    HW225860   2.736   3.181   3.648  2.1236 -0.4493  0.3816
 4743SOL     OW25861   1.534   2.934   0.581 -0.0737 -0.2787  0.3713
 4743SOL    HW125862   1.503   2.905   0.495 -0.0427 -0.4599  0.4222
 4743SOL    HW225863   1.594   3.006   0.560  1.1653 -1.4378 -0.0515
 4744SOL     OW25864   2.411   1.428   0.060 -0.0248  0.4883  0.0559
 4744SOL    HW125865   2.341   1.446   0.123 -0.6157 -0.4252 -0.3316
 4744SOL    HW225866   2.461   1.510   0.060  2.1298 -0.8539  1.4106
 4745SOL     OW25867   1.899   1.364  15.928  0.2656 -0.1545  0.1621
 4745SOL    HW125868   1.810   1.358  15.893  0.4877  1.2228 -0.6295
 4745SOL    HW225869   1.953   1.372  15.850 -0.9030  3.8336 -0.2291
 4746SOL     OW25870   4.285   4.229  12.036 -0.3517  0.6592  0.2836
 4746SOL    HW125871   4.223   4.161  12.008  1.5781 -1.6652  1.6236
 4746SOL    HW225872   4.293   4.276  11.953 -1.1159  3.1993  1.6291
 4747SOL     OW25873   0.809   4.462   5.765 -0.3100  0.0295  0.6353
 4747SOL    HW125874   0.851   4.411   5.834 -0.0619 -0.3468  0.2015
 4747SOL    HW225875   0.727   4.492   5.804 -0.4758  2.5218 -1.6073
 4748SOL     OW25876   4.673   2.371   6.468  0.9489 -0.4907  0.3181
 4748SOL    HW125877   4.680   2.465   6.454  3.2525 -0.6193  0.4943
 4748SOL    HW225878   4.634   2.356   6.554 -2.4657 -0.3716 -1.2033
 4749SOL     OW25879   3.785   2.419   5.342  0.1430 -0.5410 -0.1600
 4749SOL    HW125880   3.723   2.477   5.385  1.5685 -0.5920  1.9551
 4749SOL    HW225881   3.809   2.480   5.271 -1.9775  0.2470 -0.2060
 4750SOL     OW25882   0.251   3.260   0.702 -0.2074  0.4434 -0.3620
 4750SOL    HW125883   0.220   3.350   0.699 -1.6011  0.0177  1.2336
 4750SOL    HW225884   0.169   3.217   0.678 -0.6944  0.3988  1.3248
 4751SOL     OW25885   3.222   0.210   9.206  0.1558 -0.3505 -0.8740
 4751SOL    HW125886   3.226   0.305   9.196 -0.9670 -0.1387  0.8085
 4751SOL    HW225887   3.143   0.200   9.259 -0.1167  1.2608 -0.9861
 4752SOL     OW25888   1.484   3.544  13.221 -0.5955  0.3178 -0.3333
 4752SOL    HW125889   1.465   3.451  13.235  1.3486 -0.3106 -1.9228
 4752SOL    HW225890   1.442   3.575  13.141 -1.4128  0.2817  0.0786
 4753SOL     OW25891   4.377   0.460  11.204  0.4811  0.5958  0.1300
 4753SOL    HW125892   4.417   0.401  11.139  0.6934  0.2859  0.5441
 4753SOL    HW225893   4.457   0.499  11.238 -0.2032  0.6178  1.7229
 4754SOL     OW25894   0.281   3.880  11.957 -0.5004 -0.3498 -0.3715
 4754SOL    HW125895   0.316   3.880  12.046  1.7201  0.2321 -1.2425
 4754SOL    HW225896   0.364   3.900  11.912 -0.7944 -0.3150 -0.8973
 4755SOL     OW25897   1.725   4.586  10.291  0.5366  0.0731  0.6662
 4755SOL    HW125898   1.697   4.570  10.381  1.5967 -0.1537  0.9565
 4755SOL    HW225899   1.679   4.670  10.283 -0.4390 -0.6081 -0.7831
 4756SOL     OW25900   4.050   0.586  10.140  0.3360 -0.2500 -0.2132
 4756SOL    HW125901   3.992   0.636  10.198  0.1294 -0.5580 -0.1555
 4756SOL    HW225902   3.979   0.527  10.116 -1.5505  1.0450  2.1509
 4757SOL     OW25903   1.024   2.240   2.269 -0.1607  0.3269  0.2384
 4757SOL    HW125904   1.022   2.193   2.185  1.2547  0.1070  0.3192
 4757SOL    HW225905   1.034   2.333   2.246 -0.8527  0.5252  0.7742
 4758SOL     OW25906   3.836   4.263   3.519  0.1243 -0.0573  0.1005
 4758SOL    HW125907   3.831   4.304   3.605 -1.5424 -3.0295  1.4063
 4758SOL    HW225908   3.883   4.334   3.476 -0.3765  1.1182  1.4862
 4759SOL     OW25909   3.747   3.737   9.560  0.1179 -0.2058  0.3417
 4759SOL    HW125910   3.817   3.786   9.517 -0.3231  1.2710  1.2885
 4759SOL    HW225911   3.673   3.797   9.573 -0.8289 -1.3014  0.0575
 4760SOL     OW25912   3.059   0.343  16.925 -0.7203 -0.0528  0.3366
 4760SOL    HW125913   3.042   0.362  16.833  0.3488  1.3098  0.4305
 4760SOL    HW225914   2.993   0.276  16.942 -0.9829 -0.1939 -1.2994
 4761SOL     OW25915   1.961   0.974   9.065  1.1433 -0.7555  0.4852
 4761SOL    HW125916   1.923   0.972   8.978  1.2594 -2.0025  0.4707
 4761SOL    HW225917   2.011   0.894   9.051 -0.1110 -1.7731  1.8657
 4762SOL     OW25918   2.538   2.513   3.632 -0.2155  0.1216 -0.1383
 4762SOL    HW125919   2.554   2.485   3.722 -2.1064  0.8794  0.4249
 4762SOL    HW225920   2.621   2.471   3.607 -0.7331 -1.0529  0.0803
 4763SOL     OW25921   3.582   1.478   3.005 -0.0525 -0.2349  0.0690
 4763SOL    HW125922   3.570   1.436   2.920 -0.6138  2.1771 -1.0449
 4763SOL    HW225923   3.619   1.414   3.066 -1.2360  0.7291  1.8091
 4764SOL     OW25924   2.717   0.407  15.998 -0.8815 -0.1250  0.1404
 4764SOL    HW125925   2.693   0.500  15.990  1.1099  0.4605  0.9098
 4764SOL    HW225926   2.808   0.424  15.975 -0.1274  0.0109  3.1125
 4765SOL     OW25927   0.251   0.412   8.775 -0.6352 -0.1121  0.0128
 4765SOL    HW125928   0.233   0.337   8.718 -2.6454  1.0256 -0.8130
 4765SOL    HW225929   0.212   0.485   8.727 -0.7447  0.4385  0.9462
 4766SOL     OW25930   0.273   3.509  10.879  0.5612 -0.6069  0.0991
 4766SOL    HW125931   0.366   3.508  10.901 -0.6216 -0.1689  4.9441
 4766SOL    HW225932   0.228   3.498  10.962  1.8953  1.5849  1.1255
 4767SOL     OW25933   3.226   2.458   2.974  0.2515 -0.1230  0.5042
 4767SOL    HW125934   3.275   2.378   2.992 -1.4312 -1.0363  1.0379
 4767SOL    HW225935   3.208   2.447   2.880  2.3269 -2.9161  0.4336
 4768SOL     OW25936   3.390   0.208   6.307 -0.0080 -0.1743 -0.3647
 4768SOL    HW125937   3.452   0.172   6.370  0.4212  0.1967 -0.5753
 4768SOL    HW225938   3.303   0.193   6.344  1.6973 -2.9942  2.5654
 4769SOL     OW25939   1.154   0.160   6.854 -0.0743 -0.4669 -0.2620
 4769SOL    HW125940   1.167   0.254   6.859 -1.1706 -0.4117  1.4753
 4769SOL    HW225941   1.226   0.147   6.792  0.5412 -0.2619  0.4136
 4770SOL     OW25942   4.364   0.879   0.484 -0.0929  1.0486 -0.5588
 4770SOL    HW125943   4.319   0.933   0.419 -0.2079  0.6410 -0.8148
 4770SOL    HW225944   4.353   0.927   0.566 -3.9007 -2.3523  0.9008
 4771SOL     OW25945   4.487   2.535   3.918  0.0109 -0.1670 -0.6098
 4771SOL    HW125946   4.479   2.445   3.885  0.8002 -0.0240 -1.1927
 4771SOL    HW225947   4.579   2.529   3.945  1.0241 -2.3280 -4.3497
 4772SOL     OW25948   3.021   2.347  10.817  0.2219  0.4382  0.1620
 4772SOL    HW125949   3.066   2.420  10.860  2.0699 -0.3198 -0.4660
 4772SOL    HW225950   2.954   2.392  10.766  0.8853  1.6244  0.3536
 4773SOL     OW25951   1.440   2.254  16.423 -0.0437  0.5322  0.2845
 4773SOL    HW125952   1.437   2.241  16.329  2.4965 -3.1215  0.7227
 4773SOL    HW225953   1.406   2.343  16.420 -0.5289  0.2990 -0.9167
 4774SOL     OW25954   0.293   0.611   1.765 -0.5404  0.1887  0.2081
 4774SOL    HW125955   0.331   0.698   1.752  0.9137 -0.7867 -2.0136
 4774SOL    HW225956   0.333   0.567   1.690  0.2651 -1.2423  1.4761
 4775SOL     OW25957   1.814   1.593   9.217 -0.1031  0.2773 -0.2760
 4775SOL    HW125958   1.881   1.526   9.230 -1.4815 -1.2394 -0.8645
 4775SOL    HW225959   1.859   1.617   9.136  0.9274  2.0044  0.8218
 4776SOL     OW25960   0.811   3.309   0.224 -0.1498  0.3950  0.0411
 4776SOL    HW125961   0.823   3.216   0.200 -1.4832 -0.3528  2.3473
 4776SOL    HW225962   0.881   3.342   0.166 -1.0228  0.7478 -0.8064
 4777SOL     OW25963   1.255   3.208   4.376  0.0654  0.0662  0.2066
 4777SOL    HW125964   1.163   3.189   4.397  0.5327 -0.8439  1.4589
 4777SOL    HW225965   1.311   3.162   4.438 -1.7485 -2.2232  0.1333
 4778SOL     OW25966   2.583   4.165   7.612 -0.1471 -0.2780 -0.3093
 4778SOL    HW125967   2.506   4.111   7.594  0.8276 -1.2399 -1.5638
 4778SOL    HW225968   2.620   4.120   7.688 -0.5331  0.8892  0.5731
 4779SOL     OW25969   3.434   1.351   3.714 -0.3824 -0.9047 -0.0384
 4779SOL    HW125970   3.518   1.334   3.672  1.2519  2.2935  1.9046
 4779SOL    HW225971   3.471   1.325   3.799 -0.1101  0.9727  0.4160
 4780SOL     OW25972   4.181   2.146   1.923 -0.4938  0.1157  0.1944
 4780SOL    HW125973   4.153   2.082   1.988 -0.9887  0.7597  0.6198
 4780SOL    HW225974   4.206   2.097   1.845  0.9978 -0.9208  1.3374
 4781SOL     OW25975   4.044   2.010   8.084 -0.1075  0.5708 -0.3612
 4781SOL    HW125976   4.083   1.994   7.998 -0.0842 -0.2940 -0.1930
 4781SOL    HW225977   4.117   2.020   8.146 -0.0499  0.2511 -0.3746
 4782SOL     OW25978   3.232   3.723   4.409  0.0526  0.4086  0.5752
 4782SOL    HW125979   3.314   3.726   4.459  0.3539  1.0031  0.0365
 4782SOL    HW225980   3.264   3.769   4.332 -2.0252 -0.1254 -0.5968
 4783SOL     OW25981   0.671   0.599   4.447  0.2201 -0.2341  0.0562
 4783SOL    HW125982   0.653   0.613   4.540 -1.0699  1.0363 -0.3847
 4783SOL    HW225983   0.766   0.585   4.449  0.3451  0.1887 -2.9221
 4784SOL     OW25984   4.467   0.932   6.812 -0.2191  0.2637  0.3101
 4784SOL    HW125985   4.410   0.905   6.884  0.4165  1.9362  1.4520
 4784SOL    HW225986   4.417   1.000   6.767  0.2330 -0.2787 -0.9998
 4785SOL     OW25987   3.343   0.183  14.434 -0.7307 -0.2884 -0.0042
 4785SOL    HW125988   3.272   0.156  14.376  0.5170 -3.7095  0.0960
 4785SOL    HW225989   3.398   0.105  14.435 -1.8441 -1.0804 -1.4579
 4786SOL     OW25990   2.592   1.716   4.846 -0.5099  0.2499 -0.1684
 4786SOL    HW125991   2.599   1.795   4.792  0.5205 -0.0252 -0.4427
 4786SOL    HW225992   2.678   1.704   4.884 -1.1192 -0.5950  0.9363
 4787SOL     OW25993   2.652   4.471   3.201 -0.2270  0.3955 -0.3786
 4787SOL    HW125994   2.597   4.478   3.279 -0.9740  1.5960 -1.0009
 4787SOL    HW225995   2.599   4.497   3.125 -1.9265  0.3924  0.8182
 4788SOL     OW25996   2.055   2.350   3.478  0.1029  0.6695 -0.2933
 4788SOL    HW125997   2.097   2.272   3.440 -1.3995 -0.4062  0.2570
 4788SOL    HW225998   2.132   2.407   3.482  1.2088 -0.8015 -0.5247
 4789SOL     OW25999   4.721   2.120   3.740 -1.0421 -0.2735 -0.1291
 4789SOL    HW126000   0.059   2.143   3.795 -0.3993 -1.0462 -0.6542
 4789SOL    HW226001   0.025   2.105   3.654 -0.0006 -0.2637  0.3522
 4790SOL     OW26002   0.370   1.529  13.919 -0.0327 -0.0404  0.1891
 4790SOL    HW126003   0.459   1.562  13.909  0.1110  0.0827  1.8054
 4790SOL    HW226004   0.397   1.437  13.919  0.5561  0.1362  0.2127
 4791SOL     OW26005   4.101   3.386  12.599 -0.1497 -0.3494  0.4792
 4791SOL    HW126006   4.147   3.442  12.536  0.3278 -1.2386  0.0330
 4791SOL    HW226007   4.180   3.362  12.648 -0.0663  1.2659  1.1402
 4792SOL     OW26008   1.722   1.797   9.377 -0.4508 -0.2520 -0.2321
 4792SOL    HW126009   1.756   1.746   9.451  0.5338  0.4945 -0.1734
 4792SOL    HW226010   1.744   1.742   9.302  0.0429 -0.4704  0.0735
 4793SOL     OW26011   0.734   1.962  10.434  0.0964 -0.0580 -0.3480
 4793SOL    HW126012   0.697   2.038  10.480  0.5373  0.3050 -0.5963
 4793SOL    HW226013   0.686   1.890  10.474 -0.3161  1.4112  1.7869
 4794SOL     OW26014   2.450   2.538   3.286  0.1446  0.0028 -0.4902
 4794SOL    HW126015   2.461   2.467   3.223  0.4992 -0.7356  0.4161
 4794SOL    HW226016   2.508   2.600   3.241 -1.5057  0.9207 -1.3445
 4795SOL     OW26017   3.643   3.396   3.809  0.1331  0.0166  0.0193
 4795SOL    HW126018   3.628   3.429   3.898  2.7122  1.3955 -0.0697
 4795SOL    HW226019   3.659   3.486   3.779  0.7199 -0.5936 -1.4753
 4796SOL     OW26020   1.391   1.235   5.723  0.0797  0.1420  0.2721
 4796SOL    HW126021   1.297   1.253   5.721  0.1595  0.5165 -0.0694
 4796SOL    HW226022   1.411   1.275   5.638 -0.7698 -0.4623 -0.2161
 4797SOL     OW26023   3.981   4.641  17.350 -0.3414 -0.3414 -0.2711
 4797SOL    HW126024   3.895   4.681  17.366  0.5324  1.4161  0.0127
 4797SOL    HW226025   4.000   4.639  17.257  0.4666 -2.3256 -0.0833
 4798SOL     OW26026   0.327   1.580   8.754  0.4631 -0.2877  0.1850
 4798SOL    HW126027   0.328   1.536   8.669  0.9457 -1.2412  0.6817
 4798SOL    HW226028   0.272   1.516   8.798 -1.8292  1.2845 -0.3992
 4799SOL     OW26029   3.266   4.552   0.718  0.2505 -0.6508  0.1244
 4799SOL    HW126030   3.295   4.638   0.746 -2.9291 -0.2708  2.2583
 4799SOL    HW226031   3.171   4.567   0.713  0.4611  0.4536 -0.3320
 4800SOL     OW26032   3.371   3.319   5.209  0.2392 -0.2150 -0.0442
 4800SOL    HW126033   3.278   3.311   5.232  0.1213  1.7378  0.1396
 4800SOL    HW226034   3.361   3.391   5.147  1.2241 -1.4719 -1.6627
 4801SOL     OW26035   0.958   1.505   4.702  0.7125  0.2215 -0.2141
 4801SOL    HW126036   0.906   1.513   4.622  2.0331 -2.5435 -1.3369
 4801SOL    HW226037   0.890   1.464   4.755  1.4251 -1.5709 -0.6830
 4802SOL     OW26038   1.329   0.542  12.977 -0.4377 -0.4778 -0.3548
 4802SOL    HW126039   1.293   0.463  13.019 -0.7610 -0.2908 -0.2820
 4802SOL    HW226040   1.397   0.500  12.924  0.0766 -1.5043  1.1020
 4803SOL     OW26041   2.924   1.600  14.888  0.0967  0.0612 -0.0756
 4803SOL    HW126042   2.936   1.641  14.973 -0.3363 -0.9915  0.4878
 4803SOL    HW226043   3.015   1.577  14.865  0.4700  1.0683  0.3947
 4804SOL     OW26044   3.441   3.085   0.594  0.4162 -0.5533 -0.1661
 4804SOL    HW126045   3.372   3.095   0.660 -1.0505  2.5359 -2.1758
 4804SOL    HW226046   3.411   3.144   0.525  2.1421 -1.1459 -1.3952
 4805SOL     OW26047   3.392   4.088  11.293  0.5079  0.4962 -0.1033
 4805SOL    HW126048   3.301   4.100  11.322 -0.0317 -2.1377 -0.7233
 4805SOL    HW226049   3.392   4.048  11.206 -2.3162  0.6439 -0.1590
 4806SOL     OW26050   4.488   2.287   3.818  0.4715 -0.6301  0.1829
 4806SOL    HW126051   4.463   2.202   3.855  1.4251 -0.6641  0.7609
 4806SOL    HW226052   4.578   2.264   3.798 -0.3970 -2.2472 -1.8318
 4807SOL     OW26053   0.233   4.690   6.475 -0.0266 -0.1237 -0.3418
 4807SOL    HW126054   0.145   4.720   6.452  0.2038 -1.0870 -2.4306
 4807SOL    HW226055   0.245   4.705   6.569 -2.9172 -0.6384  0.1329
 4808SOL     OW26056   1.091   0.836  14.799 -0.2037 -0.4342 -0.0106
 4808SOL    HW126057   1.097   0.915  14.854  1.0647 -1.5103  1.3895
 4808SOL    HW226058   1.168   0.843  14.744 -0.1779  0.8161  0.1702
 4809SOL     OW26059   0.914   4.599   3.960  0.7300 -0.2873  0.5270
 4809SOL    HW126060   0.951   4.518   3.993  2.0467 -0.4237 -1.3404
 4809SOL    HW226061   0.827   4.572   3.929  1.0645  0.2101 -0.8380
 4810SOL     OW26062   0.747   1.272   5.525  0.1990  0.2486 -0.0217
 4810SOL    HW126063   0.813   1.205   5.504 -1.5518 -0.2949 -3.8117
 4810SOL    HW226064   0.769   1.337   5.459  1.7304 -1.7724 -1.5248
 4811SOL     OW26065   2.584   1.863   7.298 -0.0928  0.4113  0.5862
 4811SOL    HW126066   2.664   1.818   7.269 -0.2996 -0.0080  0.6576
 4811SOL    HW226067   2.545   1.793   7.351 -0.3673  0.8819  1.0005
 4812SOL     OW26068   0.065   3.380   9.633  0.0698 -0.2717  0.5845
 4812SOL    HW126069   0.116   3.306   9.600 -1.3702 -0.6624 -0.7601
 4812SOL    HW226070   0.034   3.344   9.716 -1.7218 -0.0214  0.0242
 4813SOL     OW26071   1.182   1.343   4.633 -0.0242  0.2418 -0.4732
 4813SOL    HW126072   1.164   1.344   4.539  1.3665 -0.8997 -0.7476
 4813SOL    HW226073   1.114   1.402   4.667  0.2714 -0.0476  0.6054
 4814SOL     OW26074   3.101   4.016   4.101 -0.4714 -0.1377  0.5578
 4814SOL    HW126075   3.011   3.991   4.080 -0.8301  0.8668  0.9000
 4814SOL    HW226076   3.107   4.060   4.016  1.7840  0.1749  0.8753
 4815SOL     OW26077   3.480   4.443   4.437 -0.0035  0.1522  0.2983
 4815SOL    HW126078   3.532   4.372   4.473  1.7252  1.6943  0.8537
 4815SOL    HW226079   3.400   4.437   4.489  0.2961 -1.7830  0.5266
 4816SOL     OW26080   0.541   0.226  13.029  0.3554 -0.2109  0.5876
 4816SOL    HW126081   0.492   0.268  12.959 -2.8386 -0.8890  2.4219
 4816SOL    HW226082   0.491   0.146  13.040 -1.4332  0.8779  0.3151
 4817SOL     OW26083   1.630   2.165   3.443  0.2935  0.1622  0.4987
 4817SOL    HW126084   1.691   2.101   3.478 -1.2440 -2.0403 -0.8794
 4817SOL    HW226085   1.546   2.142   3.483  0.7594 -3.0239 -0.3726
 4818SOL     OW26086   3.989   2.161   6.164  0.3540  0.4386 -0.2636
 4818SOL    HW126087   4.005   2.128   6.076 -0.8158 -0.3167 -0.1957
 4818SOL    HW226088   3.927   2.093   6.189  0.6207  0.1340 -0.4496
 4819SOL     OW26089   2.200   3.053   3.061  0.0027 -0.1935 -0.2993
 4819SOL    HW126090   2.196   3.003   3.143  0.8031  0.4243  0.1163
 4819SOL    HW226091   2.170   3.136   3.098  2.9589  0.1036  1.4451
 4820SOL     OW26092   1.618   1.572  11.693 -0.4492  0.2590 -0.3706
 4820SOL    HW126093   1.531   1.537  11.672 -0.5296 -0.5991  1.3854
 4820SOL    HW226094   1.672   1.510  11.644  0.5606  2.6512 -2.2387
 4821SOL     OW26095   3.023   0.266   9.403 -0.4013 -0.1435 -0.5645
 4821SOL    HW126096   3.089   0.266   9.472 -0.8111 -0.1818 -0.1732
 4821SOL    HW226097   2.946   0.239   9.453 -0.1811 -1.4839 -0.9330
 4822SOL     OW26098   1.603   0.667   6.469  0.0742 -0.0397  0.2897
 4822SOL    HW126099   1.628   0.747   6.516  1.3519  0.7050 -1.6946
 4822SOL    HW226100   1.513   0.688   6.442  0.2311  1.0969  0.6877
 4823SOL     OW26101   2.353   1.515   6.680  0.5264 -0.8838  0.7876
 4823SOL    HW126102   2.324   1.484   6.595  0.3301  0.5008  0.3483
 4823SOL    HW226103   2.434   1.465   6.688  1.4575  0.3801 -0.7749
 4824SOL     OW26104   3.375   4.322   8.434  0.1218  0.3360  0.1672
 4824SOL    HW126105   3.442   4.388   8.414 -0.1431  0.6449  0.3007
 4824SOL    HW226106   3.298   4.376   8.455  0.3143  0.9062 -0.5952
 4825SOL     OW26107   4.208   1.643   0.805 -0.6731  0.3320 -0.3611
 4825SOL    HW126108   4.162   1.625   0.887  0.8983  0.5212  0.5608
 4825SOL    HW226109   4.202   1.553   0.771  1.0435 -0.4719  1.4219
 4826SOL     OW26110   1.286   3.978   2.766 -0.0233 -0.5379  0.0402
 4826SOL    HW126111   1.379   4.001   2.767 -0.0668 -0.4059  1.0700
 4826SOL    HW226112   1.281   3.941   2.854 -0.3055 -0.7583 -0.0692
 4827SOL     OW26113   2.628   0.250   3.098 -0.3562 -0.8480  0.1919
 4827SOL    HW126114   2.596   0.187   3.163 -2.2419  0.6110  0.6531
 4827SOL    HW226115   2.549   0.273   3.049 -0.4059  0.7685  1.0469
 4828SOL     OW26116   1.138   3.121   1.844  0.2036  0.2324  0.5990
 4828SOL    HW126117   1.140   3.217   1.850  2.6597  0.0806  1.9666
 4828SOL    HW226118   1.048   3.098   1.821 -0.1704  2.8832 -0.5779
 4829SOL     OW26119   0.317   0.696  10.394 -0.0095 -0.2116  0.1970
 4829SOL    HW126120   0.252   0.766  10.401  1.5506  1.0628  1.7357
 4829SOL    HW226121   0.371   0.736  10.326 -1.3000  1.2314 -0.0017
 4830SOL     OW26122   3.041   3.465   5.805  0.7217 -0.2973 -0.3756
 4830SOL    HW126123   3.028   3.405   5.879  0.2232 -2.2649 -2.0610
 4830SOL    HW226124   2.990   3.419   5.737  0.6933  0.5815 -0.9398
 4831SOL     OW26125   2.318   1.887   6.229 -0.7573 -0.3440  0.1850
 4831SOL    HW126126   2.244   1.857   6.177 -0.8258 -0.3569  0.2897
 4831SOL    HW226127   2.327   1.808   6.283  1.9266 -1.3177 -1.7126
 4832SOL     OW26128   4.145   1.481  15.071  0.0215  0.0257  0.1029
 4832SOL    HW126129   4.106   1.541  15.136  0.9703 -0.1641  0.8385
 4832SOL    HW226130   4.237   1.490  15.095  0.0533 -0.5367  0.1765
 4833SOL     OW26131   3.178   1.876  11.870  0.2191 -0.6483  0.5983
 4833SOL    HW126132   3.117   1.828  11.926 -0.2755 -0.0171  0.5939
 4833SOL    HW226133   3.248   1.810  11.866 -0.3043 -1.1161 -0.9163
 4834SOL     OW26134   0.243   1.231   2.849  0.7850 -0.2274 -0.3125
 4834SOL    HW126135   0.298   1.226   2.927  0.6299  1.1660 -0.1035
 4834SOL    HW226136   0.248   1.140   2.820  0.7807  0.2794 -1.8983
 4835SOL     OW26137   1.130   1.347  17.124  0.1522 -0.3695 -0.0030
 4835SOL    HW126138   1.120   1.290  17.201 -0.3359 -0.6106 -0.2444
 4835SOL    HW226139   1.108   1.437  17.151 -0.4423 -0.6041  0.3042
 4836SOL     OW26140   0.041   1.734   7.289 -0.4802 -0.2613  0.0503
 4836SOL    HW126141   0.091   1.811   7.262 -1.1875 -0.2169 -1.1079
 4836SOL    HW226142   4.710   1.730   7.221  0.7514  1.3629 -1.2653
 4837SOL     OW26143   0.782   3.590   1.624 -0.0129 -0.3187 -0.4916
 4837SOL    HW126144   0.690   3.592   1.653  0.9991 -0.5150  2.7126
 4837SOL    HW226145   0.768   3.526   1.554 -3.5270 -1.1547  0.9176
 4838SOL     OW26146   0.725   1.326   7.527 -0.0877  0.0205  0.6940
 4838SOL    HW126147   0.777   1.257   7.567  1.0751  1.0103  0.9015
 4838SOL    HW226148   0.786   1.398   7.544 -1.5450  1.0086  1.7465
 4839SOL     OW26149   2.881   0.364  11.991  0.4125 -0.4532 -0.3116
 4839SOL    HW126150   2.926   0.291  11.948 -0.4977 -1.7789  0.9893
 4839SOL    HW226151   2.810   0.376  11.928 -0.7988  0.3632  1.2047
 4840SOL     OW26152   2.352   2.286   7.414 -0.1996 -0.1491  0.1728
 4840SOL    HW126153   2.352   2.203   7.368 -1.5096 -0.0271 -0.0495
 4840SOL    HW226154   2.414   2.336   7.362  1.7418 -1.6144  1.1194
 4841SOL     OW26155   2.008   1.633  14.410 -0.1985  0.0681  0.4947
 4841SOL    HW126156   1.931   1.659  14.359  0.9923 -2.7961 -2.7305
 4841SOL    HW226157   1.994   1.541  14.390  0.4241 -0.3198  1.8478
 4842SOL     OW26158   3.190   2.032   2.888  0.2434  0.1950 -0.6392
 4842SOL    HW126159   3.142   2.057   2.967  0.2490 -0.3347 -0.4711
 4842SOL    HW226160   3.247   2.109   2.878 -0.9605  1.1715 -0.0305
 4843SOL     OW26161   2.681   4.266  17.342 -0.2717  0.1591  0.5047
 4843SOL    HW126162   2.683   4.281  17.247 -3.3798 -1.7618  0.1320
 4843SOL    HW226163   2.685   4.171  17.353  0.6579  0.1434  0.0349
 4844SOL     OW26164   4.380   0.832   8.747 -0.5038  0.5195  0.4208
 4844SOL    HW126165   4.475   0.828   8.745 -0.5897 -0.5850 -1.4598
 4844SOL    HW226166   4.355   0.907   8.801 -2.2828 -0.4921  0.9872
 4845SOL     OW26167   0.027   0.179   5.066  0.3707 -0.2791 -0.2134
 4845SOL    HW126168   0.050   0.187   5.159  4.4852 -1.6776 -1.0999
 4845SOL    HW226169   0.064   0.095   5.038  1.1187 -0.4467  1.2331
 4846SOL     OW26170   3.815   4.583   7.834 -0.3461  0.1538 -0.5703
 4846SOL    HW126171   3.820   4.488   7.827  1.6773  0.1411  0.7538
 4846SOL    HW226172   3.847   4.599   7.923 -0.5396 -1.3723 -0.2348
 4847SOL     OW26173   4.031   4.625   2.659  0.2509  0.2069 -0.1010
 4847SOL    HW126174   4.001   4.663   2.577 -0.4179  1.2805  0.6260
 4847SOL    HW226175   3.947   4.590   2.689  0.2408  0.0229 -0.3484
 4848SOL     OW26176   4.005   1.331   6.585  0.4005  0.1444  0.0141
 4848SOL    HW126177   4.028   1.344   6.493  0.6743 -0.6111 -0.0229
 4848SOL    HW226178   4.005   1.422   6.615 -4.8027 -0.5248  1.9739
 4849SOL     OW26179   3.814   1.566  15.478  0.1395 -0.3603 -0.2987
 4849SOL    HW126180   3.858   1.643  15.514  1.2944 -1.3639  0.4831
 4849SOL    HW226181   3.876   1.527  15.416  1.4877 -2.8416  2.5699
 4850SOL     OW26182   3.923   2.774   9.977  0.4521  0.3270 -0.1712
 4850SOL    HW126183   3.976   2.796   9.901  0.6957 -0.5553 -0.2561
 4850SOL    HW226184   3.848   2.832   9.962  0.7497  0.3631 -1.4883
 4851SOL     OW26185   3.713   4.594   3.461  0.1374  0.6545  0.2530
 4851SOL    HW126186   3.642   4.542   3.422  0.3847 -0.2699  1.0259
 4851SOL    HW226187   3.724   4.667   3.400 -1.1157  1.3060  0.8045
 4852SOL     OW26188   3.944   0.382   8.543 -0.0911  0.3326 -0.1396
 4852SOL    HW126189   4.020   0.360   8.488 -1.3822  1.5373 -2.4323
 4852SOL    HW226190   3.964   0.337   8.625  0.9538 -0.3059 -0.7398
 4853SOL     OW26191   0.514   1.031   3.847  0.3204  0.5765  0.1526
 4853SOL    HW126192   0.563   1.113   3.860 -0.1092  0.8265  0.2217
 4853SOL    HW226193   0.531   0.980   3.926  0.0838 -0.4431 -0.4704
 4854SOL     OW26194   4.707   1.895  14.210  0.4182 -0.2808 -0.6008
 4854SOL    HW126195   4.696   1.848  14.293  2.1188 -0.6794 -0.6035
 4854SOL    HW226196   4.727   1.814  14.163  2.5350 -0.2955  0.3575
 4855SOL     OW26197   3.131   2.709   6.894 -0.8243 -0.1289 -0.3313
 4855SOL    HW126198   3.172   2.624   6.912 -0.0087  0.3482  0.0532
 4855SOL    HW226199   3.214   2.756   6.898 -0.6520 -0.4070 -0.5696
 4856SOL     OW26200   0.569   2.698   8.791 -0.5776 -0.4248  0.2607
 4856SOL    HW126201   0.497   2.754   8.820 -0.1741 -0.3690  1.1572
 4856SOL    HW226202   0.525   2.614   8.786 -1.4835 -0.0438  1.7763
 4857SOL     OW26203   2.748   1.921  14.957 -0.1963 -0.3170 -0.3761
 4857SOL    HW126204   2.770   1.894  14.868 -3.3174 -0.3428 -1.1537
 4857SOL    HW226205   2.686   1.990  14.933 -0.0820 -0.7215 -1.8397
 4858SOL     OW26206   1.494   2.328  11.372 -0.3724 -0.8145  0.1668
 4858SOL    HW126207   1.410   2.356  11.409 -0.1624  2.4015 -1.8724
 4858SOL    HW226208   1.477   2.297  11.283 -0.3128 -0.0003 -0.1278
 4859SOL     OW26209   3.730   0.522   4.075 -0.3166 -0.1006  0.0797
 4859SOL    HW126210   3.644   0.506   4.037 -0.2890 -0.3761  0.1379
 4859SOL    HW226211   3.791   0.465   4.027  1.6223  1.5434  0.5456
 4860SOL     OW26212   0.797   1.647   9.416  0.2471 -0.3618  0.3724
 4860SOL    HW126213   0.813   1.553   9.408 -0.0768 -0.4964  1.3320
 4860SOL    HW226214   0.835   1.682   9.335  1.1536 -3.1834 -0.4211
 4861SOL     OW26215   1.810   0.036   9.321 -0.4539 -0.1084 -0.2948
 4861SOL    HW126216   1.721   0.059   9.346 -1.6121 -3.2406 -1.6119
 4861SOL    HW226217   1.828   0.122   9.283  0.4343 -0.9983 -1.9018
 4862SOL     OW26218   3.779   1.301   2.059 -0.2101 -0.1647 -0.2027
 4862SOL    HW126219   3.703   1.322   2.114 -1.6211 -1.0346 -1.8301
 4862SOL    HW226220   3.768   1.209   2.037  1.3303 -0.2897 -0.4214
 4863SOL     OW26221   0.748   2.756  15.277 -0.4152 -0.3368  0.4133
 4863SOL    HW126222   0.825   2.761  15.221  1.5856 -0.3796  3.1304
 4863SOL    HW226223   0.787   2.691  15.336 -1.2173 -0.4274  0.8495
 4864SOL     OW26224   1.171   0.088   2.166 -0.2698  0.1371 -0.2291
 4864SOL    HW126225   1.230   0.068   2.094  0.7032  2.1359  0.0297
 4864SOL    HW226226   1.097   0.029   2.153 -0.6933  0.5393  0.3333
 4865SOL     OW26227   1.800   1.586   7.335  0.3937 -0.1840  0.4047
 4865SOL    HW126228   1.815   1.608   7.426 -0.6928  1.2883  0.2305
 4865SOL    HW226229   1.761   1.667   7.303  0.2788  0.1048  1.3030
 4866SOL     OW26230   4.492   4.042  16.591  0.0427 -0.0725 -0.2921
 4866SOL    HW126231   4.551   4.065  16.519 -0.5570 -0.2722 -0.8438
 4866SOL    HW226232   4.451   4.128  16.587  0.9121  0.3625  0.1021
 4867SOL     OW26233   2.489   2.808  11.868 -0.6244 -0.0685 -0.4442
 4867SOL    HW126234   2.491   2.892  11.915  0.7268 -0.8686  0.9096
 4867SOL    HW226235   2.546   2.760  11.928  0.3172  0.1599 -1.1524
 4868SOL     OW26236   0.458   3.187   2.215 -0.1891  0.2412  0.3162
 4868SOL    HW126237   0.497   3.162   2.298 -1.1340 -0.6492  0.4931
 4868SOL    HW226238   0.414   3.270   2.235 -1.8129 -1.0774  2.1272
 4869SOL     OW26239   3.117   3.272   7.628 -0.2235  0.0202  0.2598
 4869SOL    HW126240   3.125   3.355   7.676  0.9606  1.5637 -2.6141
 4869SOL    HW226241   3.108   3.297   7.536 -1.1944  0.6276  0.5091
 4870SOL     OW26242   4.543   2.522   7.840 -0.1633 -0.3016  0.8004
 4870SOL    HW126243   4.503   2.534   7.926  0.5222 -0.9788  1.2161
 4870SOL    HW226244   4.610   2.589   7.855 -0.0727 -0.7253  2.3138
 4871SOL     OW26245   4.108   0.268  10.936  0.3277  0.1986 -0.4874
 4871SOL    HW126246   4.146   0.211  10.869  1.7482 -0.4308  0.8615
 4871SOL    HW226247   4.172   0.260  11.006 -1.4311  0.7062  1.1963
 4872SOL     OW26248   3.113   0.177   2.513  0.6876 -0.4808  0.1370
 4872SOL    HW126249   3.043   0.166   2.578 -0.4783 -2.0962 -1.3802
 4872SOL    HW226250   3.063   0.176   2.431  1.5021  0.7247 -0.3782
 4873SOL     OW26251   4.733   2.365  10.817 -0.4652 -0.0884 -0.0249
 4873SOL    HW126252   0.063   2.327  10.760  1.2648  0.6283  1.4922
 4873SOL    HW226253   4.655   2.350  10.764 -0.6924 -0.2123  0.3410
 4874SOL     OW26254   3.921   2.100  16.017  0.6670 -0.3323  0.0496
 4874SOL    HW126255   3.932   2.018  15.969  3.0176 -0.5545  0.9492
 4874SOL    HW226256   3.876   2.158  15.957  2.8443  0.2055 -1.0824
 4875SOL     OW26257   2.532   2.483   2.056  0.1491 -0.2059 -0.1855
 4875SOL    HW126258   2.529   2.406   2.113 -1.3589 -1.1302 -1.5430
 4875SOL    HW226259   2.573   2.444   1.979  3.6007  3.4603 -0.2517
 4876SOL     OW26260   4.354   3.331  12.701  0.3709 -0.4318 -0.0152
 4876SOL    HW126261   4.359   3.242  12.734  0.9758 -0.7212 -0.8882
 4876SOL    HW226262   4.449   3.341  12.700  0.2678  0.5709 -0.3798
 4877SOL     OW26263   2.712   2.513   5.485  0.8143 -0.1183 -0.4257
 4877SOL    HW126264   2.681   2.424   5.500 -0.4386  0.4998  0.6269
 4877SOL    HW226265   2.702   2.526   5.390 -0.9679  2.6402  0.1499
 4878SOL     OW26266   3.645   0.304   5.315 -0.4353  0.0388  0.0179
 4878SOL    HW126267   3.728   0.259   5.304 -0.4513 -0.6489  2.7073
 4878SOL    HW226268   3.644   0.321   5.409 -0.6092 -2.5266  0.4802
 4879SOL     OW26269   1.658   0.262   2.033 -0.6579  0.6713  0.4524
 4879SOL    HW126270   1.599   0.323   2.077 -1.1448  1.6810 -1.5999
 4879SOL    HW226271   1.655   0.190   2.096 -1.1184 -1.4572 -1.9945
 4880SOL     OW26272   4.517   4.045   8.792  0.3956 -0.1314  0.1560
 4880SOL    HW126273   4.608   4.063   8.817  0.4001  1.7127 -1.1590
 4880SOL    HW226274   4.533   3.959   8.753  2.7567  1.0743 -1.5665
 4881SOL     OW26275   2.945   4.026  17.581  0.2193 -0.3294 -0.1434
 4881SOL    HW126276   2.999   4.070  17.516  0.0642  0.2913  0.1462
 4881SOL    HW226277   3.007   3.956  17.598  0.7204  0.0142 -0.5405
 4882SOL     OW26278   3.762   4.526   5.213 -0.1506 -0.2826  0.0000
 4882SOL    HW126279   3.744   4.435   5.238  0.5447  0.4358  3.1289
 4882SOL    HW226280   3.677   4.569   5.222  0.3098  0.8643 -1.1942
 4883SOL     OW26281   0.399   2.558  11.051  0.3652  0.3819  0.3895
 4883SOL    HW126282   0.323   2.556  10.994  0.9389  0.2413 -0.3651
 4883SOL    HW226283   0.391   2.644  11.094 -0.6912  1.1277 -1.3305
 4884SOL     OW26284   2.827   4.491   3.406  0.0001 -0.5090 -0.4686
 4884SOL    HW126285   2.785   4.558   3.460  1.5486 -0.5466  0.8070
 4884SOL    HW226286   2.764   4.489   3.335 -1.7813 -1.4965  1.1562
 4885SOL     OW26287   1.832   2.628   4.048 -0.2820 -0.2143 -0.2310
 4885SOL    HW126288   1.896   2.562   4.075  0.8405  1.2956  0.8484
 4885SOL    HW226289   1.847   2.617   3.954 -0.8806 -1.9874 -0.1027
 4886SOL     OW26290   3.136   3.958   5.363 -0.6710 -0.1086  0.9126
 4886SOL    HW126291   3.048   3.993   5.354 -0.9621 -1.0954 -0.1888
 4886SOL    HW226292   3.162   4.012   5.288 -0.2486 -1.6125 -0.0310
 4887SOL     OW26293   0.467   1.738  15.529  0.6007  0.1430 -0.0808
 4887SOL    HW126294   0.437   1.690  15.452  0.9134 -0.2636  0.0449
 4887SOL    HW226295   0.477   1.670  15.596  1.0682 -1.1379 -1.4504
 4888SOL     OW26296   0.751   1.441   5.893  0.5574  0.4652 -0.1787
 4888SOL    HW126297   0.804   1.363   5.911 -2.0927 -1.1820  0.5240
 4888SOL    HW226298   0.759   1.478   5.980 -2.6137  0.3543  0.1519
 4889SOL     OW26299   1.421   1.700   8.693 -0.2710  0.4771 -0.3721
 4889SOL    HW126300   1.354   1.650   8.739  0.4697  1.3219  1.6151
 4889SOL    HW226301   1.433   1.648   8.614 -1.5389 -0.1929 -0.1215
 4890SOL     OW26302   3.298   2.896   3.096  0.3212 -0.3176  0.4507
 4890SOL    HW126303   3.374   2.847   3.065  0.0330 -0.9154  0.6902
 4890SOL    HW226304   3.231   2.849   3.046 -0.6008 -0.2330  1.6256
 4891SOL     OW26305   2.191   3.756   0.600 -0.2638 -0.2908 -0.5189
 4891SOL    HW126306   2.123   3.760   0.667  0.0009  2.1458 -0.4230
 4891SOL    HW226307   2.269   3.775   0.653 -0.7603  1.1409 -0.3298
 4892SOL     OW26308   2.798   4.193   7.830  0.5323 -0.4888 -0.0562
 4892SOL    HW126309   2.746   4.203   7.910  0.4760 -0.6355 -0.0732
 4892SOL    HW226310   2.860   4.123   7.850  0.5268 -0.8509 -1.2787
 4893SOL     OW26311   2.823   0.127   3.857  0.8448 -0.3833  0.0938
 4893SOL    HW126312   2.773   0.208   3.854  0.3557 -0.6051  2.5788
 4893SOL    HW226313   2.746   0.070   3.863  1.2275 -1.1417 -2.0110
 4894SOL     OW26314   1.184   1.847   8.256  0.1925  0.0541 -0.5071
 4894SOL    HW126315   1.092   1.846   8.284  0.2700  3.2811 -0.1456
 4894SOL    HW226316   1.218   1.868   8.343  0.6661 -1.8718 -0.2344
 4895SOL     OW26317   0.803   3.142   2.831 -0.1275  0.2024 -0.2871
 4895SOL    HW126318   0.765   3.128   2.917  0.2723 -0.1769 -0.1716
 4895SOL    HW226319   0.828   3.234   2.835  1.9170 -0.2993 -1.5081
 4896SOL     OW26320   3.353   3.451   4.512  0.3245  0.3344 -0.1404
 4896SOL    HW126321   3.384   3.384   4.573 -0.5002  0.2378  0.1774
 4896SOL    HW226322   3.369   3.533   4.559 -0.0868  1.1861 -1.4611
 4897SOL     OW26323   4.381   1.948   8.463 -0.4340 -0.2414 -0.2751
 4897SOL    HW126324   4.349   1.989   8.543  1.4007 -0.1275  0.3934
 4897SOL    HW226325   4.366   1.856   8.481 -0.9080  0.4690  2.9906
 4898SOL     OW26326   1.308   1.670   4.895 -0.3344  0.5618 -0.0609
 4898SOL    HW126327   1.264   1.697   4.814 -3.8241 -0.8832  1.3517
 4898SOL    HW226328   1.367   1.745   4.902 -2.1343  1.9074  0.8035
 4899SOL     OW26329   3.337   3.282  11.841 -0.4570 -0.8578 -0.2502
 4899SOL    HW126330   3.314   3.228  11.766 -0.8733 -2.0982  0.7697
 4899SOL    HW226331   3.415   3.242  11.881 -0.1404 -0.6497 -0.6528
 4900SOL     OW26332   3.610   1.017   8.772  0.1727 -0.0052 -0.3536
 4900SOL    HW126333   3.648   0.930   8.756  1.1327  0.2558  0.5140
 4900SOL    HW226334   3.514   1.015   8.768  0.2590 -1.1480 -1.9935
 4901SOL     OW26335   1.752   1.313   5.476 -0.0528  0.1558  1.0766
 4901SOL    HW126336   1.840   1.337   5.505 -0.2385 -0.0610  1.8302
 4901SOL    HW226337   1.712   1.306   5.563 -0.1017  0.3027  1.0655
 4902SOL     OW26338   0.436   3.274   8.684 -0.0846  0.3120  0.3488
 4902SOL    HW126339   0.391   3.271   8.599 -0.8674 -0.7271  0.8094
 4902SOL    HW226340   0.470   3.184   8.683  1.7668  1.0006  1.8296
 4903SOL     OW26341   4.264   1.757   6.319  0.0160  0.2636 -0.0112
 4903SOL    HW126342   4.298   1.728   6.404 -1.1163  0.7319  0.6012
 4903SOL    HW226343   4.306   1.842   6.308  1.4763 -0.7899 -2.6343
 4904SOL     OW26344   2.289   3.941   2.309 -0.1467  0.2812  0.7159
 4904SOL    HW126345   2.371   3.970   2.349  1.1651 -0.1200 -1.6472
 4904SOL    HW226346   2.308   3.848   2.311  0.6714  0.4949  2.3779
 4905SOL     OW26347   2.625   4.166   2.705  0.3680  0.3135  0.1170
 4905SOL    HW126348   2.708   4.118   2.710  1.4372  2.0706 -0.6042
 4905SOL    HW226349   2.584   4.134   2.785  0.7789 -0.5741 -0.0308
 4906SOL     OW26350   1.110   4.015   3.891 -0.2150 -0.2306  0.1157
 4906SOL    HW126351   1.072   4.055   3.969  3.3960 -1.1176  2.3067
 4906SOL    HW226352   1.166   3.947   3.929  2.5284  0.4967 -2.6700
 4907SOL     OW26353   3.434   4.417  12.745  0.0997 -0.3723  0.1464
 4907SOL    HW126354   3.456   4.492  12.688  2.0418 -1.1573 -0.1255
 4907SOL    HW226355   3.429   4.351  12.675  0.1725  0.3304 -0.5282
 4908SOL     OW26356   3.721   0.559  12.074  0.1799  0.2540 -0.3776
 4908SOL    HW126357   3.633   0.523  12.081 -0.2409  1.4015  0.3105
 4908SOL    HW226358   3.716   0.613  11.995  1.2041 -1.4171 -1.5790
 4909SOL     OW26359   0.887   0.593   5.490 -0.0682  0.4301  0.4524
 4909SOL    HW126360   0.835   0.513   5.495  0.6636 -0.0026  1.0566
 4909SOL    HW226361   0.871   0.631   5.576 -1.7766 -1.3715  0.9299
 4910SOL     OW26362   3.626   2.034  16.944 -0.1608  0.1124  0.1665
 4910SOL    HW126363   3.555   2.096  16.959 -1.9177 -2.3663  2.0083
 4910SOL    HW226364   3.666   2.047  17.030  0.4712  1.5515 -0.3281
 4911SOL     OW26365   3.956   3.059   0.123  0.2191  0.2075  0.2981
 4911SOL    HW126366   3.934   3.039   0.214  1.6952 -2.3044  0.0835
 4911SOL    HW226367   4.048   3.086   0.119 -0.1784  1.2935 -1.7916
 4912SOL     OW26368   2.235   0.819  12.292 -0.5737 -0.4384 -0.3639
 4912SOL    HW126369   2.299   0.858  12.353 -0.6434  0.7667 -1.0543
 4912SOL    HW226370   2.253   0.869  12.212  0.6180 -0.0764  0.1303
 4913SOL     OW26371   0.521   0.960   3.197 -0.0468 -0.6970 -0.1264
 4913SOL    HW126372   0.599   0.910   3.175 -1.2330 -2.1105 -1.1205
 4913SOL    HW226373   0.544   0.991   3.284 -0.8626 -0.5447  0.0282
 4914SOL     OW26374   0.097   0.814   9.453 -0.1613  0.4144 -0.5127
 4914SOL    HW126375   0.110   0.762   9.532  2.7102  1.2538 -0.4420
 4914SOL    HW226376   0.164   0.883   9.454  1.3179 -0.9857 -2.5793
 4915SOL     OW26377   4.152   1.081  13.339  0.0824 -0.2200  0.1301
 4915SOL    HW126378   4.084   1.099  13.274  0.1437  0.8211  0.3457
 4915SOL    HW226379   4.164   1.160  13.392  0.4114  0.3597 -0.7879
 4916SOL     OW26380   2.566   2.331   2.751  0.1816 -0.3930  0.4543
 4916SOL    HW126381   2.543   2.245   2.716 -1.2882 -0.4458  1.5428
 4916SOL    HW226382   2.484   2.358   2.792  1.4609  0.3357  2.5853
 4917SOL     OW26383   2.228   1.427  14.375  0.1479 -0.6353 -0.2889
 4917SOL    HW126384   2.133   1.418  14.375  0.0740  0.0539  0.0505
 4917SOL    HW226385   2.246   1.393  14.288  0.3270  0.4515 -0.6756
 4918SOL     OW26386   1.804   4.470  12.781 -0.0807 -0.2956  0.0912
 4918SOL    HW126387   1.818   4.417  12.702  0.5568  2.0334 -1.3616
 4918SOL    HW226388   1.872   4.538  12.780 -0.0410 -0.3294  1.5484
 4919SOL     OW26389   0.630   0.617   7.420  0.3901 -0.1614 -0.3270
 4919SOL    HW126390   0.665   0.530   7.437  1.1364  0.3949  0.9698
 4919SOL    HW226391   0.654   0.629   7.328 -0.7732  1.9557 -0.3683
 4920SOL     OW26392   1.401   2.360   2.503 -0.3189  0.0572  0.2700
 4920SOL    HW126393   1.453   2.357   2.423 -1.4963  0.4530 -0.5007
 4920SOL    HW226394   1.350   2.435   2.474 -1.7110 -0.5049  1.2541
 4921SOL     OW26395   0.339   2.716   4.270  0.5607  0.2849 -0.5357
 4921SOL    HW126396   0.361   2.808   4.261  0.0859  0.4991  0.4410
 4921SOL    HW226397   0.363   2.676   4.186 -1.4996  0.5619 -1.2626
 4922SOL     OW26398   0.193   0.700   9.957 -0.1454 -0.3019  0.2640
 4922SOL    HW126399   0.245   0.725  10.033 -0.0943  0.2697  0.0364
 4922SOL    HW226400   0.104   0.723   9.983 -0.8810  1.5640 -3.7822
 4923SOL     OW26401   0.697   3.321   6.763 -0.0807 -0.0356  1.1639
 4923SOL    HW126402   0.612   3.304   6.803  0.4764 -0.9015  1.9841
 4923SOL    HW226403   0.734   3.232   6.759 -3.3895 -1.3362 -1.3903
 4924SOL     OW26404   4.491   1.022   9.677  0.3265 -0.2739  0.2865
 4924SOL    HW126405   4.404   1.048   9.644  0.3021 -0.0039  0.5624
 4924SOL    HW226406   4.521   0.985   9.594 -0.5966  1.1798 -0.7042
 4925SOL     OW26407   3.103   0.255  13.532 -0.4191 -0.1353 -0.9253
 4925SOL    HW126408   3.008   0.267  13.526 -0.4958  0.0334  0.6409
 4925SOL    HW226409   3.120   0.342  13.496  0.1162  0.6867  1.2751
 4926SOL     OW26410   3.491   4.046  10.605  0.0454 -0.0248 -0.4049
 4926SOL    HW126411   3.465   3.954  10.615 -1.4213  0.5437  1.1078
 4926SOL    HW226412   3.574   4.031  10.560  0.0795 -0.4013 -0.2205
 4927SOL     OW26413   0.607   1.541  14.158  0.0169 -0.3039 -0.4671
 4927SOL    HW126414   0.674   1.604  14.131  0.2007 -1.4230 -2.6286
 4927SOL    HW226415   0.567   1.591  14.229  0.0071  0.1176 -0.7693
 4928SOL     OW26416   1.646   3.418   3.283  0.4676 -0.4518 -0.4887
 4928SOL    HW126417   1.705   3.464   3.342  1.8841 -0.9388 -1.5259
 4928SOL    HW226418   1.672   3.451   3.197  1.1029 -3.2737 -1.3739
 4929SOL     OW26419   0.806   3.627   8.191  0.0319 -0.4500  0.1034
 4929SOL    HW126420   0.889   3.671   8.211  0.0042  0.4845 -1.8979
 4929SOL    HW226421   0.828   3.597   8.103  2.5057  0.7751  0.2941
 4930SOL     OW26422   2.103   3.446   7.061  0.2435 -0.3743 -0.3644
 4930SOL    HW126423   2.137   3.360   7.037  2.1920 -0.3288  2.2138
 4930SOL    HW226424   2.162   3.500   7.008  0.1962 -0.0510 -0.0876
 4931SOL     OW26425   3.039   2.762   3.367 -0.1599  0.4882  0.0627
 4931SOL    HW126426   2.961   2.791   3.414  0.5473  1.0648  0.8868
 4931SOL    HW226427   3.087   2.721   3.439  0.2633 -1.0603 -1.1156
 4932SOL     OW26428   3.009   0.163   8.908  0.2706 -0.8537  0.0769
 4932SOL    HW126429   2.988   0.125   8.993 -0.4736 -1.5069 -0.4005
 4932SOL    HW226430   3.034   0.252   8.935 -1.2515 -0.7732  1.1765
 4933SOL     OW26431   2.156   2.438   2.550 -0.4963  0.2302  0.0921
 4933SOL    HW126432   2.065   2.433   2.522  0.0881 -0.4897 -1.6956
 4933SOL    HW226433   2.164   2.496   2.625  0.4824  2.0824 -1.4337
 4934SOL     OW26434   2.187   3.214   6.551  0.2259  0.2633  0.0292
 4934SOL    HW126435   2.146   3.164   6.622  0.1572  1.8677  1.1177
 4934SOL    HW226436   2.272   3.169   6.551 -0.0102 -0.1818  1.3675
 4935SOL     OW26437   4.039   1.304   0.845 -0.0491  0.2969  0.3276
 4935SOL    HW126438   4.013   1.351   0.924  0.1492  0.0479  0.5473
 4935SOL    HW226439   3.965   1.247   0.828  0.5783 -0.3807 -0.1410
 4936SOL     OW26440   3.695   3.041   2.078  0.0986  0.1285  0.1958
 4936SOL    HW126441   3.723   2.950   2.070  1.1168  0.6916 -2.4797
 4936SOL    HW226442   3.644   3.042   2.160 -1.1136  3.2697 -0.6067
 4937SOL     OW26443   1.877   2.967  17.456  0.5633  0.0404 -0.1348
 4937SOL    HW126444   1.819   3.042  17.442 -1.5315 -1.5712 -0.0700
 4937SOL    HW226445   1.920   2.991  17.538  0.1600  0.5998 -0.0862
 4938SOL     OW26446   0.581   0.761   1.174  0.2000  0.1332  0.5550
 4938SOL    HW126447   0.584   0.799   1.086 -1.9236 -1.9820 -0.4312
 4938SOL    HW226448   0.672   0.748   1.200  0.9423  1.0175 -1.6363
 4939SOL     OW26449   3.469   1.283   2.088 -1.1031 -0.1112 -0.4024
 4939SOL    HW126450   3.462   1.273   2.183  0.8067 -0.6980 -0.3060
 4939SOL    HW226451   3.454   1.376   2.071  1.8455  0.6421  0.9948
 4940SOL     OW26452   1.319   2.176   6.289  0.0201 -0.1911  0.4524
 4940SOL    HW126453   1.380   2.235   6.334  1.8538  0.2282 -2.5446
 4940SOL    HW226454   1.317   2.102   6.350 -0.2807 -3.2186 -3.2328
 4941SOL     OW26455   3.206   1.173   5.973  0.3683  0.0025 -0.0682
 4941SOL    HW126456   3.227   1.156   5.881 -0.8842 -1.6261 -0.0502
 4941SOL    HW226457   3.289   1.148   6.014 -0.7361  0.3446  2.3947
 4942SOL     OW26458   0.987   2.773   2.915  0.4705 -0.5891  0.2270
 4942SOL    HW126459   0.934   2.808   2.843  1.3956  0.2583 -0.0410
 4942SOL    HW226460   1.008   2.853   2.963 -1.7894  1.3627 -2.0227
 4943SOL     OW26461   2.572   4.663  10.863 -0.6992  0.0736  0.2637
 4943SOL    HW126462   2.607   4.574  10.865  0.1221  0.4224  1.3958
 4943SOL    HW226463   2.480   4.653  10.888 -0.0417 -0.2514  2.5233
 4944SOL     OW26464   0.714   0.950  11.921  0.4926 -0.2926  0.4868
 4944SOL    HW126465   0.655   0.875  11.918 -0.8868  0.8146 -0.6441
 4944SOL    HW226466   0.697   0.997  11.839  0.7144 -2.9020 -1.0609
 4945SOL     OW26467   1.652   0.272  11.953  0.5090 -0.3764  0.0827
 4945SOL    HW126468   1.605   0.295  12.033  1.9598 -0.3957  0.9304
 4945SOL    HW226469   1.637   0.177  11.953 -1.6668 -0.0357  1.2354
 4946SOL     OW26470   1.187   2.470   5.873  0.1902  0.2428 -0.3437
 4946SOL    HW126471   1.242   2.464   5.951 -0.4673 -0.7195  0.0402
 4946SOL    HW226472   1.156   2.379   5.873 -2.1900  1.0542 -0.7795
 4947SOL     OW26473   4.672   3.033   7.730  0.7369 -1.1001  0.2887
 4947SOL    HW126474   4.579   3.039   7.708  0.4824 -3.3114  0.7313
 4947SOL    HW226475   4.671   3.083   7.812  3.3801 -0.9739  0.2507
 4948SOL     OW26476   4.242   2.965   8.901 -0.6424 -0.0416 -0.7982
 4948SOL    HW126477   4.301   2.890   8.903 -0.3828  0.1522 -1.1576
 4948SOL    HW226478   4.165   2.909   8.892  0.1539 -2.0153  4.8148
 4949SOL     OW26479   3.904   3.094   4.060 -0.1387 -0.7879 -0.5678
 4949SOL    HW126480   3.888   3.074   3.968  1.8126 -1.4265 -0.7619
 4949SOL    HW226481   3.857   3.177   4.069 -1.1534 -1.5175  0.7798
 4950SOL     OW26482   2.899   3.959   3.198  0.4952 -0.2791  0.3042
 4950SOL    HW126483   2.960   3.886   3.203 -0.3363 -1.0285 -0.5133
 4950SOL    HW226484   2.963   4.027   3.178 -0.3382  0.7276  1.0485
 4951SOL     OW26485   2.445   1.298   8.624  0.1766  0.2281 -0.2723
 4951SOL    HW126486   2.444   1.242   8.547  0.1879  2.6404 -2.0450
 4951SOL    HW226487   2.457   1.236   8.695  2.1705  1.7140  0.7139
 4952SOL     OW26488   2.894   3.108  16.341 -0.4761  0.0737  0.0752
 4952SOL    HW126489   2.976   3.062  16.319  0.1270  1.2358 -0.1500
 4952SOL    HW226490   2.905   3.174  16.273  0.0173 -1.1382 -1.0349
 4953SOL     OW26491   1.005   0.136  17.249 -0.2029  0.2037  0.6864
 4953SOL    HW126492   1.067   0.179  17.308  0.5201  0.9557 -0.6307
 4953SOL    HW226493   1.049   0.052  17.257  1.5139  0.8721 -1.6603
 4954SOL     OW26494   4.275   4.291  10.218 -0.0403 -0.2216  0.0567
 4954SOL    HW126495   4.182   4.287  10.240  0.0016 -0.5282  0.1784
 4954SOL    HW226496   4.282   4.235  10.141 -0.0892  1.1933 -0.9946
 4955SOL     OW26497   2.528   2.516   7.454 -0.1060 -0.4288 -0.1067
 4955SOL    HW126498   2.497   2.466   7.530  1.4050 -1.7469 -0.3755
 4955SOL    HW226499   2.554   2.597   7.497  1.2544 -1.5114  1.0853
 4956SOL     OW26500   3.905   0.972   3.247 -0.1238  0.2757  0.2384
 4956SOL    HW126501   3.963   1.019   3.187  2.1462 -3.2582 -0.3242
 4956SOL    HW226502   3.938   0.883   3.250  0.1490  0.4418  2.3570
 4957SOL     OW26503   3.333   3.337   3.166  0.1573  0.3744 -0.5283
 4957SOL    HW126504   3.381   3.411   3.204 -1.8595  1.4102  0.0148
 4957SOL    HW226505   3.399   3.292   3.115  0.3033 -0.2162  0.1731
 4958SOL     OW26506   4.226   4.724  17.309 -0.0265  0.8146  0.5838
 4958SOL    HW126507   4.159   4.667  17.344 -0.8680  0.6258 -1.3334
 4958SOL    HW226508   4.205   0.072  17.350  0.7245  0.5158  1.5877
 4959SOL     OW26509   2.146   0.042  15.647 -0.2490 -0.7420  0.0134
 4959SOL    HW126510   2.200   0.061  15.724 -0.3410  2.8419 -0.7947
 4959SOL    HW226511   2.072   4.729  15.682 -0.1056 -1.0425 -0.1061
 4960SOL     OW26512   4.442   1.972   9.165  0.4903 -0.2411  0.2845
 4960SOL    HW126513   4.459   2.032   9.092 -0.0613 -2.4540 -1.6768
 4960SOL    HW226514   4.531   1.966   9.198 -0.5684 -0.6767  3.0105
 4961SOL     OW26515   4.480   1.756   2.184 -0.7267 -0.3407  0.1945
 4961SOL    HW126516   4.429   1.689   2.139  2.7919 -2.1438 -1.1324
 4961SOL    HW226517   4.555   1.701   2.206 -1.0828 -0.0631  2.1210
 4962SOL     OW26518   1.090   2.172   9.215 -0.1956  0.5129 -0.3546
 4962SOL    HW126519   1.181   2.144   9.230 -0.9381 -1.0409  1.1223
 4962SOL    HW226520   1.087   2.147   9.123  0.2881  0.5621 -0.3883
 4963SOL     OW26521   3.042   0.936   0.516  0.4678  0.1555 -0.1239
 4963SOL    HW126522   3.046   0.926   0.611 -2.5226  0.9047  0.0894
 4963SOL    HW226523   3.103   1.008   0.503  0.8021 -0.0485  0.3081
 4964SOL     OW26524   0.794   2.294  16.194  0.0967  0.7941  0.2469
 4964SOL    HW126525   0.884   2.269  16.172 -0.6428 -0.9065 -0.8466
 4964SOL    HW226526   0.810   2.385  16.219 -0.0539  0.7998  0.3201
 4965SOL     OW26527   4.733   4.686   2.988  0.1693 -0.2779 -0.2830
 4965SOL    HW126528   4.701   0.040   2.972  0.3899  0.1264  1.4863
 4965SOL    HW226529   4.670   4.629   2.945  0.7453 -0.1608 -1.2707
 4966SOL     OW26530   3.148   0.408   0.062 -0.2830  0.0189  0.2450
 4966SOL    HW126531   3.212   0.430  17.736 -1.6067 -2.9137 -1.9507
 4966SOL    HW226532   3.107   0.492   0.079  0.2849  1.2029 -4.2051
 4967SOL     OW26533   0.245   4.721   5.087 -0.2423 -0.4137  0.3603
 4967SOL    HW126534   0.272   4.641   5.042  0.2951 -0.6555  1.1179
 4967SOL    HW226535   0.261   4.702   5.180  1.0921  2.5517  0.7330
 4968SOL     OW26536   0.384   3.774   4.074  0.0936 -0.2797  0.6030
 4968SOL    HW126537   0.455   3.717   4.046 -1.1223 -1.8167  0.6094
 4968SOL    HW226538   0.322   3.708   4.106 -2.7802  1.5683 -1.0641
 4969SOL     OW26539   0.985   3.984   4.158 -0.3252 -0.4163 -0.2395
 4969SOL    HW126540   1.075   3.955   4.147  0.3163  1.2015  0.8209
 4969SOL    HW226541   0.961   3.970   4.250  0.0332 -0.0337 -0.0902
 4970SOL     OW26542   3.944   1.651   9.259  0.0555  0.3586  0.0035
 4970SOL    HW126543   4.000   1.641   9.182  0.9815 -1.1003  0.8636
 4970SOL    HW226544   3.945   1.746   9.255  0.6803  0.3560  0.0891
 4971SOL     OW26545   3.603   0.971  10.264 -0.1382 -0.2017  0.0917
 4971SOL    HW126546   3.620   0.883  10.231  0.4860  0.4304 -1.2685
 4971SOL    HW226547   3.677   0.976  10.324  0.1596  1.4489 -0.4057
 4972SOL     OW26548   3.479   1.974   3.272  0.9108 -0.2887 -0.6247
 4972SOL    HW126549   3.516   1.923   3.345  0.3153  2.6178  1.7088
 4972SOL    HW226550   3.431   1.902   3.232  0.1743  0.2520 -0.7046
 4973SOL     OW26551   3.792   3.434   4.616  0.7262 -0.1296 -0.1366
 4973SOL    HW126552   3.822   3.506   4.672 -1.7091 -0.3233  1.4237
 4973SOL    HW226553   3.698   3.445   4.610  0.7413 -0.2183 -0.4909
 4974SOL     OW26554   0.594   0.776   8.688 -0.4495  0.2988 -0.0132
 4974SOL    HW126555   0.517   0.722   8.708 -0.1852  0.2816  0.9319
 4974SOL    HW226556   0.644   0.788   8.768 -0.8991  0.4631  0.2414
 4975SOL     OW26557   2.801   3.080  16.007  0.0117 -0.1690 -0.1091
 4975SOL    HW126558   2.820   3.141  15.936  3.1546 -1.6971 -0.5592
 4975SOL    HW226559   2.705   3.070  16.002 -0.1072  0.5602  0.6937
 4976SOL     OW26560   1.593   0.649   6.014  0.0656  0.1243  0.5647
 4976SOL    HW126561   1.556   0.692   6.091 -0.1169 -2.1321  1.7278
 4976SOL    HW226562   1.514   0.663   5.962 -0.0488  0.1404  0.7426
 4977SOL     OW26563   2.040   1.989   2.189  0.2277 -0.2795  0.0042
 4977SOL    HW126564   1.984   1.920   2.223  0.0331  1.5074  3.2772
 4977SOL    HW226565   1.976   2.051   2.153  1.1157  0.9402  0.5099
 4978SOL     OW26566   0.156   0.840  12.944 -0.3840 -0.1242  0.0335
 4978SOL    HW126567   0.142   0.746  12.935 -2.3094  0.0409  1.1900
 4978SOL    HW226568   0.224   0.855  12.878  1.0243 -0.1405  1.4763
 4979SOL     OW26569   1.641   3.349   0.671  0.1712  0.0613  0.2678
 4979SOL    HW126570   1.699   3.288   0.627  0.8416 -1.7459  3.6592
 4979SOL    HW226571   1.561   3.297   0.675  1.7452 -2.1422  2.7153
 4980SOL     OW26572   4.405   0.082   7.671 -0.2617  0.0034 -0.4743
 4980SOL    HW126573   4.472   0.019   7.645 -2.3233 -1.3997 -2.3459
 4980SOL    HW226574   4.380   0.040   7.754  1.2729 -1.5946 -0.8220
 4981SOL     OW26575   3.683   0.549   5.961  0.0365  0.4471 -0.6120
 4981SOL    HW126576   3.718   0.489   6.027  0.1513  0.9542 -0.2086
 4981SOL    HW226577   3.760   0.603   5.940  0.1498  0.1100 -1.0546
 4982SOL     OW26578   1.241   1.494   8.429  0.4200  0.3117  0.0979
 4982SOL    HW126579   1.163   1.543   8.454  1.9613  3.4761 -1.2984
 4982SOL    HW226580   1.227   1.485   8.335 -0.8391  0.5129  0.2694
 4983SOL     OW26581   0.335   3.924  14.942  0.0239 -0.5438  0.0040
 4983SOL    HW126582   0.397   3.973  14.888  0.7608 -1.9467 -0.4205
 4983SOL    HW226583   0.369   3.838  14.920 -1.4740 -0.9474 -0.7085
 4984SOL     OW26584   4.415   4.716   3.180  0.5145  0.0374  0.3938
 4984SOL    HW126585   4.370   0.002   3.098 -0.2579  0.1917  0.8635
 4984SOL    HW226586   4.463   4.635   3.160 -2.3790 -1.2574 -1.3066
 4985SOL     OW26587   4.296   3.553   5.354 -0.1474 -0.3120 -0.1273
 4985SOL    HW126588   4.319   3.509   5.436  0.1163 -0.9247 -0.5243
 4985SOL    HW226589   4.357   3.623   5.332  0.0804 -0.3215  0.4920
 4986SOL     OW26590   4.155   0.774   2.158  0.1837  0.3476  0.0242
 4986SOL    HW126591   4.139   0.842   2.224  1.5525  1.0386 -0.3648
 4986SOL    HW226592   4.209   0.736   2.227 -0.6112 -1.3138 -0.2552
 4987SOL     OW26593   4.300   2.042   3.897 -0.1842 -0.1661 -0.1763
 4987SOL    HW126594   4.291   1.946   3.901 -0.5447 -0.2005 -1.7285
 4987SOL    HW226595   4.313   2.059   3.990  1.6905 -0.4330 -0.3885
 4988SOL     OW26596   4.464   2.952   6.930  0.0515  0.0872 -0.1157
 4988SOL    HW126597   4.557   2.936   6.917 -0.4052 -0.4055 -2.8385
 4988SOL    HW226598   4.446   3.037   6.971 -1.1280 -1.0579  1.7592
 4989SOL     OW26599   0.713   0.811   7.183  0.4296  0.6887  0.6255
 4989SOL    HW126600   0.761   0.876   7.131  2.3483 -0.8275  0.5407
 4989SOL    HW226601   0.636   0.864   7.205 -1.5431 -1.3095 -1.5131
 4990SOL     OW26602   4.604   1.722   4.797 -0.2780  0.4372 -0.0400
 4990SOL    HW126603   4.614   1.637   4.754 -2.2689  0.6295 -0.8561
 4990SOL    HW226604   4.647   1.709   4.882  0.4317  1.5446 -0.2264
 4991SOL     OW26605   0.349   0.397   1.019 -0.0785 -0.5487  0.0190
 4991SOL    HW126606   0.311   0.482   0.998 -2.1163 -1.1501  1.2619
 4991SOL    HW226607   0.332   0.356   0.934  2.1731  1.2693 -1.3168
 4992SOL     OW26608   2.216   1.833   7.471 -0.3520  0.3661  0.1016
 4992SOL    HW126609   2.290   1.774   7.455  0.2349  0.7667  1.3505
 4992SOL    HW226610   2.264   1.895   7.526 -0.1849  0.6321 -0.3441
 4993SOL     OW26611   2.593   0.172   1.632 -0.0262  0.3290 -0.2766
 4993SOL    HW126612   2.521   0.231   1.610 -1.4656 -1.3916 -0.2057
 4993SOL    HW226613   2.661   0.238   1.638  1.6339 -1.6016  2.3138
 4994SOL     OW26614   4.506   4.303  10.952  0.0996 -0.0096 -0.0353
 4994SOL    HW126615   4.519   4.395  10.929  1.0597 -0.2644 -0.5536
 4994SOL    HW226616   4.478   4.305  11.043 -1.7897  1.5832 -0.6729
 4995SOL     OW26617   3.748   1.586   8.440  0.0062 -0.2275 -0.5263
 4995SOL    HW126618   3.722   1.668   8.398  0.0515  0.1221  0.1171
 4995SOL    HW226619   3.756   1.531   8.362  0.2000 -1.1220  0.1275
 4996SOL     OW26620   0.089   2.724   3.997 -0.8709 -0.7229 -0.5103
 4996SOL    HW126621   0.062   2.654   3.939  1.7268 -1.6411 -0.5931
 4996SOL    HW226622   0.014   2.779   3.974 -0.7879  0.1576  1.2722
 4997SOL     OW26623   0.296   0.449   0.452  0.5383  0.0781  0.2646
 4997SOL    HW126624   0.384   0.469   0.484  0.3251 -0.6879  1.3581
 4997SOL    HW226625   0.312   0.463   0.359  0.5973  0.3849  0.3177
 4998SOL     OW26626   2.775   4.577   5.716  0.0594 -0.0555 -0.6239
 4998SOL    HW126627   2.719   4.600   5.790  0.6681 -0.9632  0.1031
 4998SOL    HW226628   2.820   4.660   5.702 -0.5270  0.4322  0.4390
 4999SOL     OW26629   1.008   4.257  11.414  0.2249  0.5613  0.1623
 4999SOL    HW126630   1.002   4.162  11.425 -1.1635  0.4345 -1.7236
 4999SOL    HW226631   0.923   4.289  11.444  0.9484  0.6471  2.0944
 5000SOL     OW26632   2.344   4.084   9.604  0.2576  0.3852  0.1245
 5000SOL    HW126633   2.432   4.110   9.579  0.3489  0.2724  0.3220
 5000SOL    HW226634   2.302   4.168   9.623 -1.9611 -1.1376  2.0853
 5001SOL     OW26635   2.284   4.466  12.674 -0.1688  0.3829 -0.0596
 5001SOL    HW126636   2.222   4.456  12.602 -1.2188  3.1181  0.4480
 5001SOL    HW226637   2.244   4.435  12.755  0.8097  0.5822  0.5071
 5002SOL     OW26638   0.508   1.223  16.388 -0.5235 -0.2066 -0.4031
 5002SOL    HW126639   0.556   1.179  16.317  0.1773 -0.8821  0.4935
 5002SOL    HW226640   0.494   1.140  16.432 -0.4028 -1.6594 -3.1268
 5003SOL     OW26641   4.204   2.178   7.131 -0.0027 -0.0573 -0.2215
 5003SOL    HW126642   4.198   2.084   7.149  0.9351  0.2267  1.6414
 5003SOL    HW226643   4.220   2.162   7.038 -0.0030  2.5313 -0.6504
 5004SOL     OW26644   0.129   0.532   6.469 -1.3976  0.7802 -0.0157
 5004SOL    HW126645   0.185   0.479   6.525  0.2458  0.5985 -1.8283
 5004SOL    HW226646   0.153   0.623   6.490 -0.1860  0.4777 -0.0673
 5005SOL     OW26647   1.214   3.841   1.774  0.1517 -0.3492 -0.1968
 5005SOL    HW126648   1.127   3.801   1.775 -0.5756  1.2196 -1.5971
 5005SOL    HW226649   1.189   3.933   1.769 -0.2243 -0.4198  0.3658
 5006SOL     OW26650   4.326   3.757   3.091  0.3860 -0.6330 -0.5733
 5006SOL    HW126651   4.367   3.756   3.178 -0.3431 -0.5762 -0.2267
 5006SOL    HW226652   4.294   3.667   3.077  0.1567 -0.6932  0.3202
 5007SOL     OW26653   1.693   3.316  11.208  1.1642 -0.2760 -0.4579
 5007SOL    HW126654   1.622   3.369  11.245  2.0780  1.8299 -1.7760
 5007SOL    HW226655   1.774   3.356  11.240  0.1122  2.5569 -1.3764
 5008SOL     OW26656   3.398   1.505   5.445 -0.3219 -0.2622 -0.3109
 5008SOL    HW126657   3.372   1.431   5.391 -1.6372 -0.0451  0.0326
 5008SOL    HW226658   3.485   1.474   5.472  0.9228  1.3391 -2.4402
 5009SOL     OW26659   3.769   1.728   4.591  0.7241  0.2289  0.0375
 5009SOL    HW126660   3.728   1.792   4.648  0.4530 -0.2817  0.4148
 5009SOL    HW226661   3.766   1.656   4.653  0.3623 -0.7613 -1.1246
 5010SOL     OW26662   4.322   4.603   8.420 -0.0679 -0.0946  0.0539
 5010SOL    HW126663   4.305   4.509   8.417  2.7812 -0.7192  3.0309
 5010SOL    HW226664   4.411   4.601   8.456  1.5476  1.5512 -3.8651
 5011SOL     OW26665   4.428   1.416   1.628 -0.2644  0.8751 -0.1217
 5011SOL    HW126666   4.428   1.486   1.563  0.3622  2.1029  1.1884
 5011SOL    HW226667   4.414   1.336   1.577  0.3147 -1.0122  2.6323
 5012SOL     OW26668   0.032   0.286   9.120 -0.1484 -0.4380  0.5475
 5012SOL    HW126669   4.681   0.262   9.086 -0.2456 -1.8510  1.8121
 5012SOL    HW226670   0.092   0.236   9.065 -0.0213 -0.4350  0.6836
 5013SOL     OW26671   0.520   0.879   5.103  0.4794  0.5475 -0.4471
 5013SOL    HW126672   0.615   0.886   5.104  0.6013 -1.4749  1.5000
 5013SOL    HW226673   0.515   0.790   5.069 -0.3821  0.6013 -0.4675
 5014SOL     OW26674   0.921   0.302  11.414 -0.0491 -0.4420 -0.4331
 5014SOL    HW126675   0.882   0.215  11.416  1.7402 -1.2575 -0.9198
 5014SOL    HW226676   0.846   0.360  11.426 -0.0203  0.0144 -2.4083
 5015SOL     OW26677   2.574   2.074   6.971  0.6058 -0.6374  0.0592
 5015SOL    HW126678   2.522   2.154   6.972 -1.2810 -1.8577  0.6311
 5015SOL    HW226679   2.509   2.012   7.004 -0.1346  0.2286  0.2245
 5016SOL     OW26680   3.022   1.959   7.161  0.3643  0.0870 -0.8005
 5016SOL    HW126681   2.990   1.974   7.072  0.4535  0.9871 -0.6778
 5016SOL    HW226682   3.014   2.046   7.198  1.0542 -0.1794 -0.0124
 5017SOL     OW26683   3.567   3.772   9.286 -0.8873 -0.2578  0.4391
 5017SOL    HW126684   3.582   3.814   9.202  0.6247  1.2879  1.4761
 5017SOL    HW226685   3.607   3.835   9.347  2.3859 -2.7533  0.8767
 5018SOL     OW26686   4.534   0.072   1.316  0.0856 -0.0590  0.3142
 5018SOL    HW126687   4.457   0.129   1.314 -1.2217 -1.8623 -0.4502
 5018SOL    HW226688   4.563   0.073   1.225  3.8651 -1.8401  1.4700
 5019SOL     OW26689   2.704   4.290   9.381  0.5905 -0.3358 -0.1326
 5019SOL    HW126690   2.676   4.285   9.289  1.3362 -2.4912 -0.2606
 5019SOL    HW226691   2.790   4.329   9.361 -0.2493  1.0630 -1.0237
 5020SOL     OW26692   1.455   4.501   2.405 -0.5550  0.4530 -0.1572
 5020SOL    HW126693   1.395   4.432   2.434 -0.9112  1.3863  1.3397
 5020SOL    HW226694   1.396   4.569   2.373  0.5149  1.0009 -0.9777
 5021SOL     OW26695   3.699   0.959   3.454  0.4786 -0.7216  0.4854
 5021SOL    HW126696   3.760   0.978   3.383  0.1022 -2.4341 -0.2981
 5021SOL    HW226697   3.637   0.900   3.411 -2.0194  2.0350  0.2782
 5022SOL     OW26698   3.678   0.441   8.847  0.2140  0.0393 -0.4855
 5022SOL    HW126699   3.637   0.396   8.921 -1.5185 -1.3119 -2.2244
 5022SOL    HW226700   3.739   0.482   8.907  0.5190 -1.2037  0.0413
 5023SOL     OW26701   3.937   0.469   1.795  0.2154 -0.4000  0.7610
 5023SOL    HW126702   3.975   0.511   1.872 -1.4763  1.8222  0.4022
 5023SOL    HW226703   3.876   0.539   1.771  0.4378 -0.2006  0.7866
 5024SOL     OW26704   0.949   0.070  16.815  0.0360  0.1837  0.0423
 5024SOL    HW126705   0.867   0.106  16.848 -0.6287 -1.9014  0.6781
 5024SOL    HW226706   1.009   0.130  16.860  1.9265 -1.1664 -0.6613
 5025SOL     OW26707   0.422   4.646   7.876  0.3752  0.1264 -0.4318
 5025SOL    HW126708   0.428   4.667   7.783  1.0394 -0.6918 -0.5754
 5025SOL    HW226709   0.513   4.627   7.900  0.2661 -0.0530 -0.1477
 5026SOL     OW26710   3.726   1.897   8.768 -0.0166 -0.3586  0.0251
 5026SOL    HW126711   3.764   1.817   8.805  1.4793 -0.1553 -1.0721
 5026SOL    HW226712   3.632   1.884   8.783 -0.0787  1.2761  1.1013
 5027SOL     OW26713   0.036   0.364   8.438 -0.2721  0.5286  0.4363
 5027SOL    HW126714   0.007   0.351   8.348  0.2294 -2.4383  0.6783
 5027SOL    HW226715   0.067   0.454   8.432 -0.2044  0.3359 -2.0938
 5028SOL     OW26716   1.992   1.469   3.180 -0.3140  0.0047 -0.0820
 5028SOL    HW126717   1.944   1.495   3.258 -0.1160 -0.6570  0.2578
 5028SOL    HW226718   1.923   1.421   3.135 -1.1276 -0.6297  1.8587
 5029SOL     OW26719   2.575   4.080  10.722 -0.0556  0.0424 -0.4067
 5029SOL    HW126720   2.667   4.089  10.696 -0.8904 -0.3668 -3.4982
 5029SOL    HW226721   2.572   4.115  10.811 -2.7681 -1.5179  0.1213
 5030SOL     OW26722   0.090   0.025   7.118  0.7624 -0.0609 -0.5264
 5030SOL    HW126723   0.084   0.004   7.025  0.1147  1.9610 -0.9384
 5030SOL    HW226724   0.063   4.677   7.157  0.8375 -0.1491 -0.6660
 5031SOL     OW26725   1.243   2.267  17.321  0.0777 -0.0537 -0.0104
 5031SOL    HW126726   1.220   2.220  17.241  0.9066 -1.9495  0.8835
 5031SOL    HW226727   1.322   2.222  17.349 -0.7659 -0.8668  1.0265
 5032SOL     OW26728   1.013   2.067   0.499  0.2674  0.0141  0.1612
 5032SOL    HW126729   1.001   2.090   0.407  0.0231  1.6864  0.6211
 5032SOL    HW226730   1.099   2.105   0.518  0.1255  0.2475  0.3240
 5033SOL     OW26731   1.837   3.650  17.053 -0.4132 -0.8919  0.8944
 5033SOL    HW126732   1.893   3.689  17.121 -3.8516  0.4334  2.9881
 5033SOL    HW226733   1.765   3.713  17.048 -0.2194 -0.5852  1.8864
 5034SOL     OW26734   3.236   2.475   7.001 -0.0116 -0.2939  0.2841
 5034SOL    HW126735   3.152   2.443   7.035 -1.0564  1.9757 -0.1656
 5034SOL    HW226736   3.271   2.529   7.072  2.3219  0.1309 -1.1864
 5035SOL     OW26737   1.573   2.641   7.600 -0.2487 -0.5363  0.2557
 5035SOL    HW126738   1.556   2.670   7.690 -0.9134 -2.5475  0.7789
 5035SOL    HW226739   1.559   2.721   7.549  0.9517 -0.4723  0.0206
 5036SOL     OW26740   3.272   2.726   2.484  0.5152 -0.0799  0.4889
 5036SOL    HW126741   3.193   2.774   2.504  0.3015 -0.3537  0.3084
 5036SOL    HW226742   3.307   2.756   2.400  0.1792 -0.7142  0.1227
 5037SOL     OW26743   2.179   1.410   9.473 -0.7872 -0.0191 -0.3743
 5037SOL    HW126744   2.249   1.473   9.491 -0.6610  0.1270 -1.4138
 5037SOL    HW226745   2.106   1.438   9.528 -0.3344 -0.8804  0.6825
 5038SOL     OW26746   0.001   0.780   4.021 -0.0419  0.0901 -0.1758
 5038SOL    HW126747   4.710   0.868   4.046 -0.8636 -0.2117 -0.0071
 5038SOL    HW226748   4.677   0.730   4.076 -0.7137  0.4705 -0.5733
 5039SOL     OW26749   1.592   3.826   5.480 -0.2327 -0.3465 -0.0788
 5039SOL    HW126750   1.565   3.890   5.414  0.4106  0.8226  0.7904
 5039SOL    HW226751   1.561   3.744   5.441  0.6019  0.4134 -2.3830
 5040SOL     OW26752   2.347   2.064   5.741  0.3874  0.2093  0.1854
 5040SOL    HW126753   2.313   2.028   5.659  0.1256 -0.9131  0.7895
 5040SOL    HW226754   2.401   1.994   5.776 -1.2610 -1.1498 -0.0252
 5041SOL     OW26755   2.052   4.522   1.782  0.5386 -0.6433 -0.0479
 5041SOL    HW126756   2.016   4.452   1.729 -0.4178 -0.7591  0.7433
 5041SOL    HW226757   2.023   4.490   1.867 -1.1364 -0.1993 -0.4574
 5042SOL     OW26758   3.339   0.818   4.499  0.0342 -0.2375  0.0024
 5042SOL    HW126759   3.432   0.808   4.517 -0.3905 -0.4703  2.0274
 5042SOL    HW226760   3.327   0.781   4.411  0.9197  0.5737 -0.4554
 5043SOL     OW26761   1.841   1.690   3.362 -0.0478  0.0454  0.4014
 5043SOL    HW126762   1.756   1.718   3.329  0.2643  0.4852 -0.0360
 5043SOL    HW226763   1.908   1.752   3.333  1.9023 -1.2799  2.0723
 5044SOL     OW26764   3.809   3.197   5.165 -0.3115 -0.3379 -0.1189
 5044SOL    HW126765   3.766   3.112   5.162 -1.4282  0.2206 -0.0879
 5044SOL    HW226766   3.898   3.183   5.132 -0.1760 -0.3166  0.2331
 5045SOL     OW26767   2.441   2.581   8.941 -0.1389  0.0845 -0.0784
 5045SOL    HW126768   2.400   2.666   8.958  1.2211  0.9804 -1.3005
 5045SOL    HW226769   2.534   2.589   8.964  0.4474 -2.0786 -1.7350
 5046SOL     OW26770   1.729   2.091   8.030 -0.5148 -0.0202 -0.0558
 5046SOL    HW126771   1.738   2.182   8.060 -0.2748 -0.8962  2.5226
 5046SOL    HW226772   1.803   2.094   7.970  1.3224  0.4412  2.2108
 5047SOL     OW26773   1.124   2.567   8.373  0.6722 -0.2368 -0.0734
 5047SOL    HW126774   1.099   2.506   8.304 -0.1069 -1.5907  1.4211
 5047SOL    HW226775   1.117   2.646   8.319  0.3617 -0.1080  0.1550
 5048SOL     OW26776   4.254   0.267   6.940  0.1969 -0.3589 -0.1221
 5048SOL    HW126777   4.174   0.214   6.932 -0.6964  1.2802 -2.1863
 5048SOL    HW226778   4.317   0.219   6.993  1.0051  1.9301  1.0001
 5049SOL     OW26779   4.378   2.318  16.503  0.3041 -0.6937 -0.0491
 5049SOL    HW126780   4.413   2.383  16.442  0.2944  0.7739  1.5231
 5049SOL    HW226781   4.440   2.333  16.574  2.5807 -3.1589 -1.5137
 5050SOL     OW26782   2.723   0.987  15.404 -0.6287  0.2038 -0.3521
 5050SOL    HW126783   2.743   1.080  15.410 -0.6709  0.0950  1.5598
 5050SOL    HW226784   2.640   0.979  15.451 -1.2101  0.5034 -1.3310
 5051SOL     OW26785   3.966   3.862  16.309 -0.0653 -0.1127  0.6153
 5051SOL    HW126786   3.995   3.924  16.376 -0.7500  2.6822 -1.6790
 5051SOL    HW226787   4.035   3.858  16.243  0.2152 -0.1047  0.9075
 5052SOL     OW26788   4.116   3.897   2.969 -0.3794 -0.1735  0.6539
 5052SOL    HW126789   4.078   3.834   2.907 -0.1128  1.2036 -0.9335
 5052SOL    HW226790   4.192   3.851   3.002  0.3780  0.4805 -0.1751
 5053SOL     OW26791   1.287   0.396  13.655 -0.0984  0.1320  0.1617
 5053SOL    HW126792   1.238   0.408  13.736 -1.2978 -0.7628 -0.4244
 5053SOL    HW226793   1.375   0.392  13.690 -0.1522 -1.7909  0.0663
 5054SOL     OW26794   1.900   0.799  15.596 -0.8228  0.6132 -0.6770
 5054SOL    HW126795   1.916   0.716  15.641 -0.5093  1.2813  0.4453
 5054SOL    HW226796   1.986   0.819  15.559 -2.1704  3.1617 -2.4051
 5055SOL     OW26797   1.842   3.295   4.235 -0.2731 -0.3254  0.1931
 5055SOL    HW126798   1.767   3.306   4.294  0.1594  1.3597  0.4420
 5055SOL    HW226799   1.838   3.376   4.185 -2.5749  1.1407  2.7666
 5056SOL     OW26800   0.286   1.134   1.814 -0.1391 -0.2194  0.5810
 5056SOL    HW126801   0.330   1.196   1.756 -1.0672  0.2130  0.3530
 5056SOL    HW226802   0.227   1.190   1.863  0.8060 -0.4008  1.9375
 5057SOL     OW26803   2.139   0.193   8.851 -0.3159  0.0623  0.3562
 5057SOL    HW126804   2.125   0.204   8.757  2.2494  0.6561  0.0278
 5057SOL    HW226805   2.089   0.264   8.890 -0.1540  0.8543 -0.8729
 5058SOL     OW26806   1.240   3.107   7.075 -0.2771  0.7587  0.3767
 5058SOL    HW126807   1.192   3.176   7.029  2.1585  0.1720 -3.0847
 5058SOL    HW226808   1.189   3.100   7.155  1.2328  1.9622  1.4329
 5059SOL     OW26809   0.781   2.876  15.782  0.2316  0.8669  0.4286
 5059SOL    HW126810   0.749   2.965  15.769 -0.5794  0.7928  1.9235
 5059SOL    HW226811   0.841   2.871  15.707  1.1508 -0.7843  1.2607
 5060SOL     OW26812   1.188   0.151   3.777  0.0991  0.1467  0.3087
 5060SOL    HW126813   1.190   0.172   3.871  0.2444 -0.2352  0.3901
 5060SOL    HW226814   1.145   0.065   3.780  1.1464 -0.3901 -0.1713
 5061SOL     OW26815   2.141   2.483   4.595 -0.4370  0.0388 -0.3081
 5061SOL    HW126816   2.109   2.549   4.656  0.4518  0.3629 -0.1938
 5061SOL    HW226817   2.234   2.494   4.616 -0.9351 -0.9179  2.4766
 5062SOL     OW26818   3.124   3.490   8.412 -0.1113 -0.0978 -0.3980
 5062SOL    HW126819   3.033   3.498   8.382 -0.6640 -0.3271  1.2023
 5062SOL    HW226820   3.112   3.452   8.499 -0.3897 -2.2396 -1.3753
 5063SOL     OW26821   4.147   3.463   6.729  0.5633  0.0202 -0.2635
 5063SOL    HW126822   4.163   3.441   6.638  0.3193 -0.1078 -0.2768
 5063SOL    HW226823   4.173   3.555   6.722 -1.0571  0.4319 -0.9081
 5064SOL     OW26824   3.859   3.782   0.030 -0.1618 -0.5216 -0.5278
 5064SOL    HW126825   3.861   3.849  17.704  1.3242  0.6032  0.6210
 5064SOL    HW226826   3.940   3.806   0.076 -1.4925 -0.8964  2.0072
 5065SOL     OW26827   0.020   3.100   8.721 -0.3222  0.5882  0.5934
 5065SOL    HW126828   0.107   3.120   8.688 -0.0439  0.4909  1.2717
 5065SOL    HW226829   0.023   3.124   8.814 -0.4145  0.7924  0.5427
 5066SOL     OW26830   0.095   1.034  12.206 -0.2475 -0.9048  0.2395
 5066SOL    HW126831   0.028   0.966  12.199 -0.3074 -0.7763 -0.4384
 5066SOL    HW226832   0.080   1.079  12.123 -0.2508 -1.7718 -0.2347
 5067SOL     OW26833   1.905   1.908   2.949 -0.7197 -0.0232  0.1186
 5067SOL    HW126834   1.825   1.912   2.897 -1.0516 -1.4870  0.5148
 5067SOL    HW226835   1.960   1.941   2.879  1.5052  0.0464  1.8920
 5068SOL     OW26836   3.603   1.150   1.142 -0.3453 -0.4158 -0.2569
 5068SOL    HW126837   3.641   1.229   1.181  2.2800 -2.1598  0.7683
 5068SOL    HW226838   3.678   1.102   1.107  0.9780  2.5936 -1.6063
 5069SOL     OW26839   4.474   0.444   5.176 -0.0981 -0.4607 -0.0143
 5069SOL    HW126840   4.466   0.485   5.262  0.2885  1.0309 -0.6937
 5069SOL    HW226841   4.384   0.427   5.150 -0.5561  1.6723  0.2194
 5070SOL     OW26842   2.226   4.588   0.051  0.0365 -0.2645 -0.6569
 5070SOL    HW126843   2.168   4.522   0.016 -1.4479  1.7104 -1.9177
 5070SOL    HW226844   2.163   4.632   0.107 -0.0937  0.1892 -1.1579
 5071SOL     OW26845   2.028   2.906   4.896 -0.4831  0.1639  0.0006
 5071SOL    HW126846   2.011   2.990   4.852 -0.2120 -0.3833 -1.1497
 5071SOL    HW226847   2.020   2.935   4.987  1.7617 -1.4142  0.6927
 5072SOL     OW26848   3.526   2.795   4.651  0.7644 -0.1749  0.0849
 5072SOL    HW126849   3.431   2.783   4.647  0.6196  0.7069  0.8731
 5072SOL    HW226850   3.561   2.769   4.566 -1.6178 -1.8470 -0.3920
 5073SOL     OW26851   1.839   1.313   3.015 -0.0363  0.7331  0.0718
 5073SOL    HW126852   1.816   1.223   3.037 -3.6687  1.6725  0.2142
 5073SOL    HW226853   1.866   1.314   2.923 -0.8514 -2.9474 -0.2023
 5074SOL     OW26854   0.048   2.943  15.113  0.8457  0.3402  0.1463
 5074SOL    HW126855   4.716   2.927  15.047  0.9625  1.1321 -0.1653
 5074SOL    HW226856   0.047   2.857  15.154 -1.3182 -0.0200 -0.6742
 5075SOL     OW26857   1.225   0.507   5.297  0.2956  0.1918 -0.8529
 5075SOL    HW126858   1.299   0.487   5.240  2.7763  0.0113  2.3781
 5075SOL    HW226859   1.170   0.429   5.303 -1.0756  1.2570  0.4871
 5076SOL     OW26860   3.550   1.006   5.816 -0.0210 -0.0024  0.6005
 5076SOL    HW126861   3.475   1.005   5.874  0.1422  1.7295  0.8367
 5076SOL    HW226862   3.615   0.968   5.876  2.2751 -0.6033 -2.2505
 5077SOL     OW26863   2.943   1.423  14.477  0.2676  0.0412 -0.7614
 5077SOL    HW126864   2.890   1.498  14.448 -0.2734 -0.2708 -0.5735
 5077SOL    HW226865   3.015   1.471  14.518 -0.1838 -1.2399  1.4873
 5078SOL     OW26866   3.300   0.883   8.489 -0.1314  0.0656  0.3318
 5078SOL    HW126867   3.383   0.920   8.460 -0.2701 -0.1798 -0.3732
 5078SOL    HW226868   3.326   0.793   8.505 -1.0995 -0.4480 -1.0055
 5079SOL     OW26869   3.992   1.783  15.534 -0.5460  0.3808  0.5799
 5079SOL    HW126870   4.004   1.777  15.629 -0.4224 -0.6692  0.5015
 5079SOL    HW226871   3.940   1.863  15.526  1.6268  1.8627  1.5145
 5080SOL     OW26872   2.096   3.917   0.211  0.1478 -0.6633 -0.0179
 5080SOL    HW126873   2.185   3.884   0.219  0.2524 -0.5185 -0.5403
 5080SOL    HW226874   2.044   3.888   0.286  0.6440 -1.5142 -0.0034
 5081SOL     OW26875   3.125   0.767  14.497  0.2386 -0.0521 -0.2764
 5081SOL    HW126876   3.151   0.720  14.417 -1.8481 -1.9850  0.1948
 5081SOL    HW226877   3.163   0.712  14.566 -0.9071 -0.0349  0.3601
 5082SOL     OW26878   2.860   1.819  13.008 -0.1664 -0.5336 -0.0629
 5082SOL    HW126879   2.836   1.843  13.098 -1.7842  1.0097 -0.9132
 5082SOL    HW226880   2.937   1.874  12.997  0.6551 -1.6292  0.2077
 5083SOL     OW26881   3.469   4.112   6.780 -0.3196 -0.4323  0.4564
 5083SOL    HW126882   3.498   4.173   6.712 -2.8918  0.3875  0.0854
 5083SOL    HW226883   3.525   4.037   6.764  0.6789 -0.5517  4.6146
 5084SOL     OW26884   3.475   2.529   4.169 -0.0032 -0.2199  0.0168
 5084SOL    HW126885   3.386   2.514   4.136 -0.9672  2.4105  1.5080
 5084SOL    HW226886   3.504   2.442   4.141 -1.1527 -0.1573 -1.4087
 5085SOL     OW26887   4.238   4.424   4.233 -0.0800 -0.6176  0.1529
 5085SOL    HW126888   4.153   4.379   4.229 -1.1252  1.3162  0.4726
 5085SOL    HW226889   4.279   4.356   4.286 -0.2141 -0.2962  0.6690
 5086SOL     OW26890   2.716   2.916   4.896  0.4921 -0.3690 -0.0674
 5086SOL    HW126891   2.628   2.903   4.863  0.2736  1.4901 -0.2289
 5086SOL    HW226892   2.757   2.911   4.809 -0.7203 -0.4658 -0.6309
 5087SOL     OW26893   1.527   2.638  17.604 -0.7631 -0.4576 -0.1433
 5087SOL    HW126894   1.536   2.730  17.630 -4.3406  0.0558 -0.7566
 5087SOL    HW226895   1.440   2.643  17.565  0.4413  1.0714 -2.6630
 5088SOL     OW26896   1.860   3.022   7.230 -0.1138  0.5418 -0.4570
 5088SOL    HW126897   1.901   2.947   7.273  0.1557  0.6877 -0.4600
 5088SOL    HW226898   1.807   3.047   7.307 -0.7486 -0.6564 -0.5024
 5089SOL     OW26899   1.655   0.889   6.594  0.2643 -0.1331 -0.3304
 5089SOL    HW126900   1.694   0.970   6.561 -2.3761  0.9405 -0.8564
 5089SOL    HW226901   1.713   0.879   6.670 -2.0830  1.2710  1.6682
 5090SOL     OW26902   2.000   0.595   8.299  0.5514 -0.2242 -0.5224
 5090SOL    HW126903   1.927   0.607   8.237  0.5853  1.8944 -0.1472
 5090SOL    HW226904   2.028   0.684   8.320  0.4326 -0.9328  2.6244
 5091SOL     OW26905   2.660   2.945  12.405  0.6062 -0.3684  0.1384
 5091SOL    HW126906   2.608   2.876  12.365  0.2254 -0.4661  0.8016
 5091SOL    HW226907   2.708   2.900  12.474  1.4054  1.3273  0.7080
 5092SOL     OW26908   0.941   1.634   2.566  0.3336 -0.8794  0.0841
 5092SOL    HW126909   1.029   1.611   2.537  1.0908  0.4711  1.3289
 5092SOL    HW226910   0.885   1.557   2.557 -1.2311  0.6857 -3.7296
 5093SOL     OW26911   0.856   2.792   5.759 -0.1371 -0.2159 -0.0788
 5093SOL    HW126912   0.893   2.785   5.671 -0.7880 -1.2991 -0.2671
 5093SOL    HW226913   0.791   2.860   5.744 -1.0794 -1.0348  0.2714
 5094SOL     OW26914   0.754   4.292  17.675 -0.0041  0.1898  0.1497
 5094SOL    HW126915   0.840   4.334  17.665  0.8585 -1.1709  1.8964
 5094SOL    HW226916   0.763   4.252   0.019 -2.2439  1.3822  0.9301
 5095SOL     OW26917   4.452   3.785   9.550 -0.2361  0.3049  0.8820
 5095SOL    HW126918   4.518   3.787   9.481  0.3786  1.8663  1.5296
 5095SOL    HW226919   4.485   3.712   9.602 -0.6593 -0.2337  0.3946
 5096SOL     OW26920   1.551   3.605   8.702  0.1482  0.3145  0.2211
 5096SOL    HW126921   1.554   3.591   8.797  0.7184  2.5575  0.5402
 5096SOL    HW226922   1.570   3.516   8.672 -1.4975  1.1089 -3.1340
 5097SOL     OW26923   3.923   0.428  15.069  0.3911  0.2277 -0.2522
 5097SOL    HW126924   3.873   0.475  15.003  1.5037  2.3921  0.4646
 5097SOL    HW226925   3.860   0.384  15.125 -0.2013  1.2544 -0.1267
 5098SOL     OW26926   4.340   3.280  12.341 -0.2386  0.7793 -0.4766
 5098SOL    HW126927   4.297   3.366  12.342 -0.5450  0.5899  3.6000
 5098SOL    HW226928   4.431   3.307  12.353 -1.3290  4.5039 -0.4092
 5099SOL     OW26929   2.575   1.892  13.960 -0.4631 -0.5066 -0.3926
 5099SOL    HW126930   2.515   1.853  14.024 -1.0759 -0.4972 -0.9528
 5099SOL    HW226931   2.533   1.978  13.952  1.6327  0.3372 -2.0865
 5100SOL     OW26932   0.804   1.121   3.145 -0.0452  0.3236 -0.0930
 5100SOL    HW126933   0.773   1.210   3.160 -0.1663 -0.3219  3.6424
 5100SOL    HW226934   0.845   1.098   3.229 -1.5734 -1.0919  0.2633
 5101SOL     OW26935   2.725   3.981   6.556 -0.4239 -0.0575  0.8535
 5101SOL    HW126936   2.725   4.026   6.641  1.9931 -0.6018  1.1600
 5101SOL    HW226937   2.653   4.030   6.517  0.1970 -0.8551 -1.3058
 5102SOL     OW26938   1.054   4.555  16.863  0.6861 -0.3077  0.1052
 5102SOL    HW126939   1.006   4.635  16.840 -0.7126 -1.3316 -0.5216
 5102SOL    HW226940   1.004   4.523  16.938 -0.7556  0.5307 -0.4834
 5103SOL     OW26941   3.581   2.606   5.459  0.9791  0.2408  0.3637
 5103SOL    HW126942   3.555   2.683   5.409 -0.9471 -0.6611 -0.0048
 5103SOL    HW226943   3.496   2.584   5.496  0.1943  1.0267 -0.9537
 5104SOL     OW26944   0.478   1.963   7.621 -0.4291  0.1211  0.7388
 5104SOL    HW126945   0.488   1.950   7.715  0.2435 -0.4758  0.5860
 5104SOL    HW226946   0.439   2.050   7.619  0.6198  0.5697 -0.3421
 5105SOL     OW26947   0.589   0.595   4.700  0.1745  0.1121 -0.1815
 5105SOL    HW126948   0.513   0.609   4.756 -2.1886 -2.0543 -2.8671
 5105SOL    HW226949   0.614   0.506   4.726  2.0719  0.8222  0.4767
 5106SOL     OW26950   1.158   0.710   8.188  0.7391  0.1077  0.6209
 5106SOL    HW126951   1.089   0.694   8.252 -2.1100  1.6449 -2.1063
 5106SOL    HW226952   1.185   0.795   8.223  1.5614  0.5127 -0.9908
 5107SOL     OW26953   4.279   0.042   5.064  0.5511 -0.1580 -0.1770
 5107SOL    HW126954   4.319   0.017   5.148 -0.2894 -0.1259  0.2337
 5107SOL    HW226955   4.352   0.090   5.027  0.5412  1.2023  1.5870
 5108SOL     OW26956   2.798   3.653   6.055 -0.2205 -0.5116 -0.0424
 5108SOL    HW126957   2.894   3.651   6.054 -0.2200  0.6215 -1.5915
 5108SOL    HW226958   2.771   3.718   5.990 -3.3933 -0.8189  0.9845
 5109SOL     OW26959   3.674   3.866   4.234 -0.2197 -0.6153  0.6391
 5109SOL    HW126960   3.651   3.784   4.278 -2.4526 -0.8431 -0.9105
 5109SOL    HW226961   3.644   3.926   4.302  0.0543 -0.6493  0.7857
 5110SOL     OW26962   4.494   3.304   1.534 -0.7771  0.1366  0.3743
 5110SOL    HW126963   4.568   3.298   1.474  0.5836 -1.2823  2.1654
 5110SOL    HW226964   4.527   3.370   1.596 -1.3400  1.8802 -1.2008
 5111SOL     OW26965   0.530   2.507   6.081  0.1627 -0.3261 -0.3358
 5111SOL    HW126966   0.583   2.538   6.154  0.1940 -0.9659 -0.0856
 5111SOL    HW226967   0.467   2.458   6.134  0.0730 -1.6434 -1.6492
 5112SOL     OW26968   1.805   2.609   7.328 -1.3009  0.3189 -0.5252
 5112SOL    HW126969   1.750   2.544   7.372 -0.9496  0.6800  0.4392
 5112SOL    HW226970   1.772   2.693   7.360 -0.4961  0.2836  0.3845
 5113SOL     OW26971   2.494   0.968   1.820 -0.3788  0.3283  0.5590
 5113SOL    HW126972   2.584   0.942   1.837 -0.5679  0.1324  1.2600
 5113SOL    HW226973   2.476   1.005   1.906 -0.5732  0.0282  0.6472
 5114SOL     OW26974   3.541   3.329   2.490  0.1955  0.3839  0.1607
 5114SOL    HW126975   3.474   3.301   2.428  1.9613 -0.1338 -1.5335
 5114SOL    HW226976   3.496   3.314   2.573  0.3239 -0.7532  0.0282
 5115SOL     OW26977   1.133   2.500  12.197  0.3094 -0.6079  0.0949
 5115SOL    HW126978   1.157   2.483  12.106 -0.4824 -0.3492 -0.1702
 5115SOL    HW226979   1.042   2.527  12.179  0.5801  0.1303 -0.1873
 5116SOL     OW26980   2.720   0.162  15.148 -0.0161 -0.2367  0.1404
 5116SOL    HW126981   2.626   0.144  15.143  0.6692 -3.3803 -1.2452
 5116SOL    HW226982   2.763   0.093  15.097 -1.8191 -0.3114 -1.2605
 5117SOL     OW26983   4.299   4.007   5.880  0.0590  0.7618 -0.5893
 5117SOL    HW126984   4.259   3.981   5.797 -1.7792  1.6600  0.0147
 5117SOL    HW226985   4.250   3.951   5.942  0.4429 -0.3680 -1.3166
 5118SOL     OW26986   4.719   3.842   7.940 -0.0266 -0.3748  0.0770
 5118SOL    HW126987   0.066   3.862   7.897 -0.3812 -0.1332 -0.5068
 5118SOL    HW226988   0.003   3.859   8.032  0.6992 -1.2521  0.0777
 5119SOL     OW26989   0.174   3.456   3.995 -0.3597  0.1232  0.1216
 5119SOL    HW126990   0.205   3.503   4.072  0.0699  1.3228 -0.7839
 5119SOL    HW226991   0.124   3.385   4.035 -0.4958  0.5246  0.6625
 5120SOL     OW26992   3.881   2.210   1.603 -0.0974  0.1410 -0.0095
 5120SOL    HW126993   3.813   2.207   1.670  2.7543 -2.3137  2.7917
 5120SOL    HW226994   3.886   2.120   1.570 -0.4599 -1.5686  4.5911
 5121SOL     OW26995   0.795   3.305  10.421 -1.0344 -0.2247  0.1410
 5121SOL    HW126996   0.787   3.228  10.477 -0.2162  0.2401  0.8858
 5121SOL    HW226997   0.765   3.371  10.484  0.2584  0.6856 -0.2016
 5122SOL     OW26998   1.975   4.397  11.406 -0.9045 -0.1985 -0.4236
 5122SOL    HW126999   2.028   4.463  11.362 -0.7349  0.9749  1.5527
 5122SOL    HW227000   1.953   4.341  11.331  1.5059 -2.5971  0.6592
 5123SOL     OW27001   2.689   2.690   8.218 -0.1445  0.2869 -0.2296
 5123SOL    HW127002   2.715   2.605   8.181  0.8299  1.5489 -2.4480
 5123SOL    HW227003   2.595   2.680   8.204 -0.1798 -1.3149  1.1241
 5124SOL     OW27004   1.983   3.685   5.391 -0.0264  0.4815  0.3984
 5124SOL    HW127005   1.924   3.690   5.466  0.9614  0.6792  1.1691
 5124SOL    HW227006   1.993   3.779   5.374  0.3538 -0.0730 -2.5106
 5125SOL     OW27007   2.974   2.237  17.321 -0.1697 -0.3620  0.1107
 5125SOL    HW127008   2.980   2.141  17.315 -0.3520 -0.4172  0.8409
 5125SOL    HW227009   2.965   2.269  17.231 -0.8235  0.0177  0.3121
 5126SOL     OW27010   0.372   4.475   3.264 -0.1291  0.5592  0.0617
 5126SOL    HW127011   0.315   4.500   3.191  1.3163  0.0155 -1.2547
 5126SOL    HW227012   0.389   4.554   3.315 -2.7809  1.7687 -0.9064
 5127SOL     OW27013   1.494   2.489  16.905  0.1934 -0.2418 -0.6277
 5127SOL    HW127014   1.437   2.444  16.968 -1.8717  0.0172 -2.2743
 5127SOL    HW227015   1.505   2.568  16.957  0.8856  1.0192 -2.6818
 5128SOL     OW27016   3.832   0.712   4.586  0.0155  0.2276 -0.4173
 5128SOL    HW127017   3.846   0.626   4.546  0.2570 -0.7031  1.6233
 5128SOL    HW227018   3.910   0.720   4.640  0.1119  2.0013 -0.8439
 5129SOL     OW27019   0.777   4.091   3.073 -0.3989 -0.6615  0.0454
 5129SOL    HW127020   0.717   4.085   2.998 -1.6748  0.9090  0.9351
 5129SOL    HW227021   0.777   4.187   3.080 -1.7832 -0.7424  1.0575
 5130SOL     OW27022   3.246   3.558   1.849 -0.5405 -0.0718  0.2129
 5130SOL    HW127023   3.228   3.468   1.823  1.6777 -0.9647  1.8112
 5130SOL    HW227024   3.312   3.585   1.784 -0.0927  1.3077  1.2359
 5131SOL     OW27025   2.585   1.805   6.161  0.1319  0.2341 -0.3336
 5131SOL    HW127026   2.613   1.896   6.158  0.3650  0.1654 -0.1744
 5131SOL    HW227027   2.492   1.822   6.176 -0.1505 -1.8424  0.3652
 5132SOL     OW27028   0.285   1.292   1.126  0.2728 -0.4225  0.0563
 5132SOL    HW127029   0.226   1.309   1.199 -1.2661 -2.9209 -0.6284
 5132SOL    HW227030   0.365   1.336   1.154 -0.3046 -0.3826  1.6079
 5133SOL     OW27031   0.224   3.398   5.131 -0.0229  0.3149 -0.9236
 5133SOL    HW127032   0.307   3.443   5.144 -0.0872  0.5210 -1.2309
 5133SOL    HW227033   0.199   3.413   5.040 -0.5551 -0.5768 -0.9236
 5134SOL     OW27034   1.627   2.362   3.889 -0.1641  0.7055  1.1241
 5134SOL    HW127035   1.579   2.288   3.926  2.6996 -3.0187 -2.6153
 5134SOL    HW227036   1.558   2.422   3.861 -0.2829 -0.5245 -1.2839
 5135SOL     OW27037   3.712   3.069   7.810 -0.2555  0.6644  0.2568
 5135SOL    HW127038   3.617   3.071   7.799 -0.3625  1.5093  1.3672
 5135SOL    HW227039   3.735   3.023   7.891  1.6022  0.0418 -0.6131
 5136SOL     OW27040   1.675   0.647  10.646  0.4916 -0.0084  0.0981
 5136SOL    HW127041   1.686   0.666  10.553 -0.0740  1.1383  0.2605
 5136SOL    HW227042   1.743   0.581  10.652  0.3072 -0.0688  1.6697
 5137SOL     OW27043   2.689   1.587  17.665  0.1929  0.4321 -0.4704
 5137SOL    HW127044   2.632   1.618  17.735 -0.1053 -0.5545 -0.2820
 5137SOL    HW227045   2.769   1.624  17.703  0.4130 -0.7400  0.2056
 5138SOL     OW27046   4.391   2.475   3.036  0.2941 -0.1553 -0.1836
 5138SOL    HW127047   4.393   2.493   3.130  2.2039  0.0446 -0.2622
 5138SOL    HW227048   4.483   2.494   3.019  0.5809 -4.1050 -3.0857
 5139SOL     OW27049   1.787   4.242   8.264 -0.0986 -0.3047  0.8252
 5139SOL    HW127050   1.856   4.259   8.329  1.2611  2.4086 -1.2844
 5139SOL    HW227051   1.753   4.159   8.296  0.3860 -1.7080 -2.3181
 5140SOL     OW27052   3.768   2.260   1.349  0.4686  0.0385 -0.4782
 5140SOL    HW127053   3.761   2.350   1.381  2.5035 -0.0814  0.3119
 5140SOL    HW227054   3.806   2.217   1.426  1.0395  3.7939  1.3142
 5141SOL     OW27055   1.304   2.695  17.274  0.4947 -0.2885  0.1293
 5141SOL    HW127056   1.318   2.662  17.363  1.0847  1.0482  0.5413
 5141SOL    HW227057   1.212   2.675  17.259  0.7576  0.0916 -2.0289
 5142SOL     OW27058   1.835   1.474   6.574  0.0246 -0.4365 -0.5159
 5142SOL    HW127059   1.789   1.402   6.617  1.9311 -0.1006  2.0792
 5142SOL    HW227060   1.919   1.462   6.618 -0.1077 -0.6618 -0.3220
 5143SOL     OW27061   0.729   0.652   3.988 -0.2181 -0.0732  0.1453
 5143SOL    HW127062   0.817   0.621   3.963 -0.0914  0.1983  0.2522
 5143SOL    HW227063   0.675   0.598   3.929 -0.6907 -1.1146  1.5366
 5144SOL     OW27064   1.163   1.426   2.666 -0.2647  0.3887  0.0365
 5144SOL    HW127065   1.250   1.411   2.629  1.3645  3.3452  2.5610
 5144SOL    HW227066   1.177   1.514   2.702  0.0195  0.3410  0.0378
 5145SOL     OW27067   3.120   4.043   8.345  0.2006 -0.6124 -0.2420
 5145SOL    HW127068   3.148   3.968   8.293 -1.2441 -0.6436 -0.9792
 5145SOL    HW227069   3.079   4.087   8.271 -0.2318 -0.6534 -0.0258
 5146SOL     OW27070   2.194   3.666   2.798  0.0500  0.0343 -0.1570
 5146SOL    HW127071   2.248   3.733   2.841 -1.0800 -0.9093  2.7219
 5146SOL    HW227072   2.258   3.598   2.781  1.4481  1.3744 -0.2736
 5147SOL     OW27073   4.735   0.908   7.336 -0.1269 -0.5409  0.0599
 5147SOL    HW127074   0.043   0.831   7.371  0.2344 -0.4622 -0.2201
 5147SOL    HW227075   4.662   0.912   7.398 -2.2354  0.8044 -2.5229
 5148SOL     OW27076   2.291   3.843   4.445  0.3181 -0.5126 -0.1580
 5148SOL    HW127077   2.290   3.868   4.353 -0.4540  1.7811  0.4857
 5148SOL    HW227078   2.300   3.748   4.456 -0.2109 -0.4818  0.5936
 5149SOL     OW27079   2.166   0.816   4.630  1.1319 -0.3803  0.2916
 5149SOL    HW127080   2.096   0.868   4.671  1.0706 -0.2595  0.0354
 5149SOL    HW227081   2.118   0.780   4.555 -0.0380 -1.1355  1.3904
 5150SOL     OW27082   0.761   1.670   2.788 -0.2996  1.1134 -0.2425
 5150SOL    HW127083   0.808   1.680   2.706  0.7604  1.6537  0.4392
 5150SOL    HW227084   0.802   1.595   2.832 -2.3002  0.4262  0.4546
 5151SOL     OW27085   4.446   4.057   5.191 -0.2783 -0.3366  0.3068
 5151SOL    HW127086   4.366   4.015   5.162 -1.3509  1.2452  1.0007
 5151SOL    HW227087   4.420   4.145   5.165 -0.2772 -1.0099 -2.0122
 5152SOL     OW27088   0.145   4.209  11.666 -0.0715 -0.3842 -0.4780
 5152SOL    HW127089   0.082   4.191  11.736  2.6024 -0.4711  1.8940
 5152SOL    HW227090   0.227   4.178  11.704  1.5382  3.3537 -0.9146
 5153SOL     OW27091   3.126   4.155   8.844  1.5099 -0.5887 -0.4068
 5153SOL    HW127092   3.167   4.069   8.853 -2.2395 -2.1406  1.8146
 5153SOL    HW227093   3.200   4.216   8.852  1.0034 -0.2909  2.2151
 5154SOL     OW27094   2.944   1.312  17.019 -0.2794 -0.0297  0.3457
 5154SOL    HW127095   2.951   1.398  16.977 -1.0965  0.0492  0.3613
 5154SOL    HW227096   2.897   1.322  17.102  2.3320 -0.2112  1.8347
 5155SOL     OW27097   0.098   4.226   2.336 -0.0298 -0.5810  0.5402
 5155SOL    HW127098   0.050   4.169   2.397  1.3474  0.0011  2.1839
 5155SOL    HW227099   0.158   4.274   2.393  0.1121  1.9056 -1.7028
 5156SOL     OW27100   2.668   2.581  14.474 -0.1679  0.0924 -0.4595
 5156SOL    HW127101   2.735   2.515  14.494 -1.9161 -1.0636  1.5197
 5156SOL    HW227102   2.629   2.540  14.397  0.8324  2.0148 -2.0131
 5157SOL     OW27103   3.988   1.657   8.600  0.7547  0.2128  0.0290
 5157SOL    HW127104   4.028   1.569   8.602 -1.7772 -0.9354 -0.2262
 5157SOL    HW227105   3.904   1.642   8.557 -0.1476  1.7127  1.2639
 5158SOL     OW27106   1.859   1.266  14.096  0.0594  0.3346 -0.3913
 5158SOL    HW127107   1.931   1.242  14.038  0.4457 -0.5989  0.4927
 5158SOL    HW227108   1.832   1.184  14.138  4.5647  0.2965  2.4001
 5159SOL     OW27109   2.154   0.695  10.529  0.9022 -0.6309 -0.1859
 5159SOL    HW127110   2.067   0.696  10.488  0.5217 -0.3573  0.6132
 5159SOL    HW227111   2.213   0.692  10.455  0.2047 -0.3616 -0.7567
 5160SOL     OW27112   3.841   3.956   6.362  0.0708 -0.3107 -0.0385
 5160SOL    HW127113   3.780   3.907   6.307  0.8543 -0.0865 -1.0910
 5160SOL    HW227114   3.909   3.973   6.298 -2.4857 -1.3058 -3.0302
 5161SOL     OW27115   0.143   3.100   8.063 -0.0604  0.3328 -0.2789
 5161SOL    HW127116   0.182   3.079   8.148  1.1802  1.6468 -0.5413
 5161SOL    HW227117   0.112   3.190   8.069 -0.3441  0.2928 -1.2672
 5162SOL     OW27118   0.220   0.139   3.366  0.0649 -0.6275  0.0158
 5162SOL    HW127119   0.309   0.124   3.333  0.2370  0.4469  0.0008
 5162SOL    HW227120   0.206   0.053   3.407  2.7989 -0.8918  0.4072
 5163SOL     OW27121   0.174   3.869   5.521 -0.6319 -0.1613 -0.5021
 5163SOL    HW127122   0.133   3.927   5.458 -0.9927  0.1619  0.0280
 5163SOL    HW227123   0.166   3.794   5.462  1.4616 -0.7521 -0.0329
 5164SOL     OW27124   0.924   2.562   6.572  0.2371 -0.3720 -0.6455
 5164SOL    HW127125   0.851   2.500   6.566  0.9043 -0.9796 -2.4548
 5164SOL    HW227126   0.987   2.510   6.621 -0.3721 -2.5588 -2.1918
 5165SOL     OW27127   3.952   3.040  13.303 -0.5787 -0.0068 -0.6080
 5165SOL    HW127128   4.045   3.024  13.320 -0.6865 -1.6593 -1.6571
 5165SOL    HW227129   3.944   2.973  13.236  1.5024  0.7335 -1.5990
 5166SOL     OW27130   3.535   3.637   6.358  0.2399  0.0785 -0.5165
 5166SOL    HW127131   3.456   3.588   6.380  0.4011 -0.0184 -0.1604
 5166SOL    HW227132   3.507   3.725   6.382  1.3185  0.3541 -0.3043
 5167SOL     OW27133   3.640   2.024   5.596  0.2429 -0.1022  0.5087
 5167SOL    HW127134   3.703   2.095   5.582 -0.5059  0.1034 -1.7012
 5167SOL    HW227135   3.704   1.953   5.597 -0.8190 -1.0571  2.0212
 5168SOL     OW27136   0.686   3.438  10.012 -0.4488 -1.0301  0.2994
 5168SOL    HW127137   0.655   3.360  10.059 -0.7452 -0.3104  1.2790
 5168SOL    HW227138   0.699   3.498  10.084  2.1043 -0.4542 -0.6348
 5169SOL     OW27139   0.792   2.441   3.861  0.2229  0.6284  0.0281
 5169SOL    HW127140   0.752   2.488   3.788  1.7941  3.0207  0.7181
 5169SOL    HW227141   0.833   2.363   3.823 -2.2853 -1.1118  0.9133
 5170SOL     OW27142   1.018   2.503   2.236 -0.5188 -0.4297 -0.2341
 5170SOL    HW127143   0.937   2.551   2.250  1.3688  1.7127  3.3370
 5170SOL    HW227144   1.046   2.538   2.151 -3.0256  0.2166 -0.7908
 5171SOL     OW27145   3.398   0.600   0.928  0.1948 -0.4656 -0.3131
 5171SOL    HW127146   3.352   0.595   0.844  0.6548 -0.0916 -0.5831
 5171SOL    HW227147   3.387   0.694   0.944  1.7780 -0.2385 -0.5538
 5172SOL     OW27148   2.966   0.041   5.587  0.4066  0.0532  0.7759
 5172SOL    HW127149   2.967   0.135   5.606 -1.3105  0.5168 -1.5498
 5172SOL    HW227150   3.050   0.030   5.543 -0.4115 -2.9416 -0.0553
 5173SOL     OW27151   4.512   1.043   2.858 -0.3532 -0.3324  0.0104
 5173SOL    HW127152   4.464   1.048   2.941 -0.4066  0.1550 -0.0504
 5173SOL    HW227153   4.595   1.088   2.876 -1.4646  3.0345 -3.2899
 5174SOL     OW27154   1.256   1.440   7.989 -0.3056 -0.9954  0.0389
 5174SOL    HW127155   1.273   1.532   8.008  0.8493 -1.4879  1.3525
 5174SOL    HW227156   1.240   1.409   8.078  0.7802  1.5929  1.1426
 5175SOL     OW27157   0.362   2.566   8.566 -0.0148  0.2283  0.2670
 5175SOL    HW127158   0.451   2.531   8.566 -0.5687 -1.2013 -0.8882
 5175SOL    HW227159   0.318   2.511   8.500 -0.6771 -1.8697  2.4679
 5176SOL     OW27160   3.826   3.626  16.444  0.3460 -0.3003  0.4455
 5176SOL    HW127161   3.900   3.686  16.437  0.0258  0.0201 -0.1283
 5176SOL    HW227162   3.857   3.537  16.427  3.0244  0.5472  0.7824
 5177SOL     OW27163   0.962   2.883   7.908 -0.1036  0.4842 -0.0672
 5177SOL    HW127164   0.964   2.787   7.910 -0.8729  0.4914  1.4279
 5177SOL    HW227165   0.890   2.892   7.971  0.4605  2.7694  0.2375
 5178SOL     OW27166   1.607   2.599   0.184  0.3474 -0.6932  0.2262
 5178SOL    HW127167   1.695   2.588   0.218  0.7819  0.4841 -0.5284
 5178SOL    HW227168   1.618   2.609   0.089 -0.7748  0.8150  0.2588
 5179SOL     OW27169   3.361   3.918   9.736  0.0529  0.0789 -0.3182
 5179SOL    HW127170   3.342   4.012   9.734  2.3476  0.5592  0.2302
 5179SOL    HW227171   3.277   3.877   9.717  0.5290 -0.7464 -0.6532
 5180SOL     OW27172   0.831   2.709  10.395  0.2062  0.2987  0.2116
 5180SOL    HW127173   0.744   2.747  10.395 -0.0247 -0.2375  0.7538
 5180SOL    HW227174   0.876   2.773  10.339 -0.1597 -0.4924 -0.9914
 5181SOL     OW27175   0.616   4.239   6.726 -0.3919 -0.3797 -0.4918
 5181SOL    HW127176   0.547   4.187   6.686 -2.0675  0.6203  1.0883
 5181SOL    HW227177   0.591   4.227   6.818  1.0666 -1.0138 -0.1683
 5182SOL     OW27178   4.356   0.379  16.936  0.7102  0.1937 -0.2168
 5182SOL    HW127179   4.266   0.347  16.945  1.5500 -2.3628 -0.9012
 5182SOL    HW227180   4.339   0.473  16.930  0.6306  0.1980  0.0819
 5183SOL     OW27181   2.520   2.298  13.728  0.0769  0.1217 -0.5406
 5183SOL    HW127182   2.463   2.266  13.658  0.3082 -1.8695  0.1819
 5183SOL    HW227183   2.571   2.361  13.678 -0.1735  1.1635  0.5138
 5184SOL     OW27184   4.310   3.606   1.614  0.2088 -0.2647 -0.0593
 5184SOL    HW127185   4.356   3.679   1.573 -0.9084 -0.2041 -1.1914
 5184SOL    HW227186   4.377   3.562   1.666 -0.2399  0.8960  1.4979
 5185SOL     OW27187   0.506   3.138  10.890  0.0661  0.3617  0.0756
 5185SOL    HW127188   0.495   3.232  10.880  0.8119  0.4714  0.3311
 5185SOL    HW227189   0.556   3.113  10.812 -1.9641 -1.7792 -0.5681
 5186SOL     OW27190   0.922   1.372   8.604  0.6617 -0.1293 -0.2864
 5186SOL    HW127191   0.853   1.417   8.653  0.1037 -2.3441  0.9733
 5186SOL    HW227192   0.930   1.287   8.646  0.7961  0.4550  0.8904
 5187SOL     OW27193   1.020   1.726   4.122 -0.0993  0.7540 -0.8845
 5187SOL    HW127194   0.940   1.702   4.170 -0.4110  1.2581 -1.1455
 5187SOL    HW227195   1.049   1.805   4.169  1.2261 -0.6290  0.5935
 5188SOL     OW27196   4.271   0.416  12.083 -0.4759 -0.2498  0.1194
 5188SOL    HW127197   4.301   0.352  12.148 -0.0726  0.7280  0.8951
 5188SOL    HW227198   4.196   0.364  12.054  0.6793 -0.6353 -2.1665
 5189SOL     OW27199   4.437   2.416   7.408  1.2306  0.1468 -0.3493
 5189SOL    HW127200   4.349   2.388   7.384  0.2851  3.7499 -1.1438
 5189SOL    HW227201   4.445   2.501   7.365 -1.4523  0.4953 -0.1680
 5190SOL     OW27202   0.199   0.690  16.549  0.0007  0.5740  0.2685
 5190SOL    HW127203   0.252   0.760  16.511  2.1442 -1.5514 -0.6763
 5190SOL    HW227204   0.257   0.615  16.559  1.2899  1.5950  0.3386
 5191SOL     OW27205   1.077   3.491   5.485 -0.0719  0.1345 -0.1830
 5191SOL    HW127206   1.132   3.435   5.431  0.8062  0.5580  0.2825
 5191SOL    HW227207   1.097   3.455   5.571  1.9337  0.6523 -0.4476
 5192SOL     OW27208   1.655   1.167   1.682  0.0874 -0.9908 -0.5000
 5192SOL    HW127209   1.715   1.092   1.688  2.8758  1.2962  0.6598
 5192SOL    HW227210   1.723   1.224   1.645 -1.0653  0.2043 -0.7701
 5193SOL     OW27211   3.249   3.903   3.672  0.4200 -0.0140  0.1276
 5193SOL    HW127212   3.230   3.853   3.752 -0.0910  0.3144  0.2129
 5193SOL    HW227213   3.314   3.841   3.639  0.6398  0.2167  0.1326
 5194SOL     OW27214   1.420   1.680   4.232 -0.1181  0.5996 -0.7935
 5194SOL    HW127215   1.477   1.614   4.271 -0.3398 -0.0697 -1.6193
 5194SOL    HW227216   1.389   1.728   4.309 -0.3064 -0.1852 -0.3829
 5195SOL     OW27217   1.283   0.874   3.573  0.4473 -0.5478  0.0466
 5195SOL    HW127218   1.210   0.922   3.611 -0.4548 -2.0134  0.1773
 5195SOL    HW227219   1.244   0.824   3.500 -1.0661 -3.3286  2.7390
 5196SOL     OW27220   1.106   2.883   0.829 -0.6355 -0.1879 -0.1370
 5196SOL    HW127221   1.057   2.959   0.798  0.8648  0.2740 -1.3680
 5196SOL    HW227222   1.198   2.899   0.811 -0.9003  0.4702 -0.9563
 5197SOL     OW27223   3.536   2.264   8.137  0.4485  0.0053  0.2162
 5197SOL    HW127224   3.626   2.251   8.106  0.4322  0.9285 -0.2427
 5197SOL    HW227225   3.488   2.182   8.126 -0.7996  0.6804  0.5712
 5198SOL     OW27226   2.725   2.269   4.392  0.5599  0.0749 -0.3482
 5198SOL    HW127227   2.781   2.194   4.372 -1.0295 -0.7162 -1.8886
 5198SOL    HW227228   2.649   2.225   4.429 -0.0490  0.6448 -0.9297
 5199SOL     OW27229   1.627   4.561   3.477 -0.4602 -0.1081 -0.1856
 5199SOL    HW127230   1.657   4.494   3.415 -0.7372 -0.9741  0.6222
 5199SOL    HW227231   1.714   4.581   3.513 -0.2300 -0.8636 -0.3276
 5200SOL     OW27232   3.784   4.245   8.276 -0.0473 -0.6100 -0.2324
 5200SOL    HW127233   3.704   4.206   8.312 -0.3213  2.7521  2.7993
 5200SOL    HW227234   3.854   4.207   8.329  0.3962 -0.1227 -0.4756
 5201SOL     OW27235   0.437   2.887   3.061  0.4497  0.7766 -0.5470
 5201SOL    HW127236   0.499   2.817   3.039  1.5573  1.8225 -0.7699
 5201SOL    HW227237   0.426   2.926   2.974  0.8662 -2.4527 -2.0255
 5202SOL     OW27238   0.218   0.642   5.820  0.1707 -0.2900 -0.0357
 5202SOL    HW127239   0.270   0.706   5.771  1.3070 -0.7397  0.5732
 5202SOL    HW227240   0.284   0.623   5.887  1.6450 -0.4034 -1.5281
 5203SOL     OW27241   4.313   2.725   2.921 -0.2729 -0.1368  0.4822
 5203SOL    HW127242   4.339   2.643   2.963  1.0595  0.1004  0.1188
 5203SOL    HW227243   4.227   2.741   2.959 -0.1184  2.8776 -0.3886
 5204SOL     OW27244   1.328   2.200   0.198  0.5321  0.2814 -0.2709
 5204SOL    HW127245   1.341   2.107   0.178 -0.0007  0.3715 -1.0531
 5204SOL    HW227246   1.376   2.218   0.278  0.5334  1.6656 -0.5861
 5205SOL     OW27247   3.806   4.389   5.808 -0.0352  0.2941  0.6866
 5205SOL    HW127248   3.827   4.376   5.716  2.1722 -1.2277  1.4274
 5205SOL    HW227249   3.710   4.385   5.804  0.1948 -2.3037 -1.4588
 5206SOL     OW27250   1.647   1.025   2.997 -0.0918  0.2193 -0.1953
 5206SOL    HW127251   1.575   1.087   2.988  1.0809  1.3679 -1.7899
 5206SOL    HW227252   1.687   1.049   3.081  2.7429 -1.5820 -1.0295
 5207SOL     OW27253   2.205   0.726  11.186 -0.1755 -0.0288 -0.2223
 5207SOL    HW127254   2.192   0.756  11.276  2.3671  0.7286 -0.0872
 5207SOL    HW227255   2.184   0.805  11.136  0.4915  0.9240  0.9866
 5208SOL     OW27256   1.123   3.730   3.495 -0.2626  0.3295 -0.1832
 5208SOL    HW127257   1.159   3.803   3.545 -0.1690 -0.5758  1.0483
 5208SOL    HW227258   1.037   3.724   3.536  0.2396  1.7421  1.0673
 5209SOL     OW27259   1.592   4.245  15.195 -0.3949  0.2018  0.0300
 5209SOL    HW127260   1.565   4.288  15.276  0.6233  1.7295 -0.4255
 5209SOL    HW227261   1.585   4.316  15.130 -0.4803  0.5135  0.3796
 5210SOL     OW27262   4.558   1.531   7.158 -0.4561  0.1764 -0.2251
 5210SOL    HW127263   4.534   1.457   7.214  0.9915 -0.8056 -0.9066
 5210SOL    HW227264   4.653   1.521   7.158 -0.2424  2.1587  1.5664
 5211SOL     OW27265   4.619   0.526   7.469 -0.0876 -0.2734  0.2196
 5211SOL    HW127266   4.531   0.553   7.498 -0.9392  0.5696 -3.2284
 5211SOL    HW227267   4.593   0.450   7.417  0.4522  0.1350 -0.6375
 5212SOL     OW27268   3.260   3.737   3.888 -0.1609  0.4243 -0.7526
 5212SOL    HW127269   3.216   3.668   3.938  0.9679  0.3361  0.1172
 5212SOL    HW227270   3.347   3.706   3.865  0.4177  1.0072  0.6197
 5213SOL     OW27271   2.063   3.120   3.892  0.0477 -0.4395  0.3447
 5213SOL    HW127272   2.088   3.177   3.965 -1.9093 -0.1463  0.7761
 5213SOL    HW227273   2.065   3.037   3.940 -1.8220 -0.7598 -0.1588
 5214SOL     OW27274   3.455   0.991   6.888  0.3504  0.1309 -0.0434
 5214SOL    HW127275   3.509   1.062   6.923  0.6344 -0.0579 -0.1005
 5214SOL    HW227276   3.362   1.015   6.886  0.3290 -0.1752 -1.9660
 5215SOL     OW27277   3.935   1.684  16.302  0.5111 -0.2879 -0.1634
 5215SOL    HW127278   3.877   1.735  16.360  0.1397 -0.3984 -0.4390
 5215SOL    HW227279   3.977   1.753  16.251  0.5435  0.9543  1.5483
 5216SOL     OW27280   1.208   4.239  16.581  0.0988  0.3197  0.0206
 5216SOL    HW127281   1.205   4.156  16.628  0.4397  0.1956 -0.1735
 5216SOL    HW227282   1.295   4.277  16.597 -0.2651  1.4001 -0.5349
 5217SOL     OW27283   4.536   0.813   3.532 -0.1487 -0.4128 -0.1461
 5217SOL    HW127284   4.631   0.810   3.525 -0.1283 -0.2789  0.1059
 5217SOL    HW227285   4.523   0.726   3.570  0.6244  0.6328  2.5100
 5218SOL     OW27286   4.621   2.436   6.043  0.2888  0.4936 -0.5066
 5218SOL    HW127287   4.594   2.441   5.951  1.7624 -0.6920 -0.9859
 5218SOL    HW227288   4.682   2.508   6.029  2.0711 -1.0552 -0.6326
 5219SOL     OW27289   4.226   3.918   8.463 -0.1302 -0.5591  0.1642
 5219SOL    HW127290   4.254   3.833   8.497 -0.6052 -0.2280  1.3728
 5219SOL    HW227291   4.229   3.906   8.368  1.7025 -1.0369  0.2775
 5220SOL     OW27292   0.509   2.735  15.497  0.0381  0.2962 -0.1849
 5220SOL    HW127293   0.496   2.829  15.512 -2.1413 -0.0923  0.3927
 5220SOL    HW227294   0.583   2.740  15.436  1.4668 -0.0824  1.5234
 5221SOL     OW27295   2.292   3.302   4.387 -0.0402  0.3470  0.1496
 5221SOL    HW127296   2.224   3.241   4.356  2.4732 -1.6529 -1.4059
 5221SOL    HW227297   2.323   3.253   4.463  0.0430  2.6542  1.5723
 5222SOL     OW27298   1.262   1.948   4.661  0.8106  0.2674 -0.0892
 5222SOL    HW127299   1.292   1.976   4.747 -3.0542  2.0749  0.6818
 5222SOL    HW227300   1.191   1.889   4.689  1.8007 -1.9792 -2.2597
 5223SOL     OW27301   3.239   1.284  15.258  0.5387  0.5333 -0.1302
 5223SOL    HW127302   3.333   1.280  15.243  0.7405  3.3262  0.3952
 5223SOL    HW227303   3.234   1.206  15.314  2.4757  0.6111  0.1555
 5224SOL     OW27304   3.582   1.021  13.259  0.1311  0.3495  0.3008
 5224SOL    HW127305   3.630   1.091  13.304 -0.2256 -0.2810  1.6676
 5224SOL    HW227306   3.502   1.069  13.237 -1.2247 -1.9140  0.3706
 5225SOL     OW27307   1.565   2.952   7.698 -0.2218 -0.3719 -0.6036
 5225SOL    HW127308   1.483   2.919   7.663  0.2465 -1.4165 -0.7043
 5225SOL    HW227309   1.549   3.041   7.665  0.1092 -0.0414  0.1095
 5226SOL     OW27310   4.126   2.723   2.600  0.2404 -0.3493  0.1826
 5226SOL    HW127311   4.174   2.641   2.592 -1.7220 -1.6577  1.8274
 5226SOL    HW227312   4.091   2.741   2.512  1.7352  0.5971 -0.2266
 5227SOL     OW27313   2.198   4.083   6.653  0.4337  0.4877 -0.0399
 5227SOL    HW127314   2.127   4.139   6.687  0.0984 -1.5272  2.5467
 5227SOL    HW227315   2.193   4.105   6.560  2.9339  4.5875  0.8121
 5228SOL     OW27316   4.308   0.471  14.067  0.4678 -0.2975 -0.4989
 5228SOL    HW127317   4.383   0.491  14.122  0.9394  0.6827 -1.5126
 5228SOL    HW227318   4.316   0.536  13.997  1.2374  1.1182  0.9011
 5229SOL     OW27319   4.430   1.944  13.698  0.5837 -0.4076  0.2540
 5229SOL    HW127320   4.513   1.992  13.704  0.6287 -0.5308  0.6231
 5229SOL    HW227321   4.381   1.949  13.780 -0.1181 -2.2291 -0.0419
 5230SOL     OW27322   0.177   2.330   3.127 -0.8135  0.3049  0.7142
 5230SOL    HW127323   0.242   2.317   3.057 -0.7672 -0.3344  0.8774
 5230SOL    HW227324   0.218   2.409   3.163 -0.5559  1.3177 -1.7974
 5231SOL     OW27325   2.042   0.809   8.859 -0.1140 -0.2118  0.7158
 5231SOL    HW127326   2.084   0.894   8.848  0.4850 -0.6524 -0.3125
 5231SOL    HW227327   2.118   0.754   8.842  0.2490 -0.5878  3.5147
 5232SOL     OW27328   0.614   1.278   8.876 -0.1081  0.9100  0.4099
 5232SOL    HW127329   0.547   1.244   8.818  3.5405 -1.2605 -2.5298
 5232SOL    HW227330   0.669   1.200   8.890 -1.7032  0.0504  1.9473
 5233SOL     OW27331   3.126   1.888   6.121  0.5618  0.2532  0.0085
 5233SOL    HW127332   3.124   1.954   6.191 -0.3039  0.6908 -0.4253
 5233SOL    HW227333   3.050   1.923   6.075  1.6372  1.8286 -0.5909
 5234SOL     OW27334   3.967   1.755  17.730 -0.3130  0.7993  0.0004
 5234SOL    HW127335   4.013   1.806  17.664  0.5173  0.9140  0.6773
 5234SOL    HW227336   3.892   1.719  17.683 -1.6045  2.3299  0.8932
 5235SOL     OW27337   0.344   0.892   9.263 -0.1012 -0.4634  0.4085
 5235SOL    HW127338   0.379   0.815   9.307 -1.0466 -0.6396  0.8615
 5235SOL    HW227339   0.415   0.954   9.249 -2.3722  2.5028  2.1608
 5236SOL     OW27340   3.114   4.108  11.344  0.0039  0.4384  0.2741
 5236SOL    HW127341   3.078   4.050  11.277  2.5227 -0.1354 -0.5923
 5236SOL    HW227342   3.030   4.120  11.387 -0.5221 -0.3251 -0.5492
 5237SOL     OW27343   2.134   1.451  17.102  0.1067 -0.8088  0.1014
 5237SOL    HW127344   2.098   1.467  17.190 -0.6187  2.1702 -0.7451
 5237SOL    HW227345   2.188   1.528  17.085 -0.1396 -1.0625 -1.8139
 5238SOL     OW27346   1.712   3.061  17.703  0.1075 -0.0785  0.4339
 5238SOL    HW127347   1.805   3.061  17.683 -0.2973  2.1227 -1.4797
 5238SOL    HW227348   1.692   3.127  17.637  0.6448  0.0696  0.4209
 5239SOL     OW27349   2.493   0.998  13.508 -0.5134  0.4118 -0.4878
 5239SOL    HW127350   2.454   1.086  13.513 -1.5598 -0.2127  2.3324
 5239SOL    HW227351   2.411   0.949  13.512 -0.3144  0.2083  1.0467
 5240SOL     OW27352   2.378   0.499   0.520 -0.1617  0.2511 -0.3231
 5240SOL    HW127353   2.450   0.499   0.583  1.2562 -0.6054 -1.9334
 5240SOL    HW227354   2.299   0.513   0.572 -0.0061  0.7333 -0.2138
 5241SOL     OW27355   1.996   2.459   7.242 -0.1118 -0.1401 -0.3817
 5241SOL    HW127356   1.931   2.529   7.251 -0.4193 -0.4250 -0.4309
 5241SOL    HW227357   1.992   2.427   7.332 -3.0378 -0.2396 -0.5369
 5242SOL     OW27358   2.151   2.083   4.281  0.0248  0.0324 -0.2094
 5242SOL    HW127359   2.222   2.145   4.300  0.3908 -0.8922  1.4165
 5242SOL    HW227360   2.165   2.018   4.350  2.6630  1.1347  0.3136
 5243SOL     OW27361   3.224   3.377   2.377  0.2128 -0.0979 -0.0065
 5243SOL    HW127362   3.211   3.437   2.304 -0.1433  1.6091  1.4705
 5243SOL    HW227363   3.183   3.407   2.459  0.6035  0.5235 -0.0364
 5244SOL     OW27364   3.859   4.207   9.113 -0.2344  0.1666  0.0420
 5244SOL    HW127365   3.888   4.270   9.047 -0.8321 -1.5310 -1.8147
 5244SOL    HW227366   3.868   4.247   9.200 -2.8710  1.2340 -0.1738
 5245SOL     OW27367   1.158   0.983  15.753  0.4654  0.0855  0.0035
 5245SOL    HW127368   1.079   0.974  15.806  1.0983  0.9039  1.0792
 5245SOL    HW227369   1.216   1.038  15.806  0.5735  2.1396 -2.2765
 5246SOL     OW27370   1.566   3.762   6.871 -0.3105 -0.3289  0.1079
 5246SOL    HW127371   1.647   3.800   6.907  0.5259 -1.3380 -0.6882
 5246SOL    HW227372   1.577   3.778   6.777  0.0624  0.2929  0.2550
 5247SOL     OW27373   1.102   1.041   9.360 -0.0299  0.5234 -0.2371
 5247SOL    HW127374   1.023   1.044   9.413  1.5752 -2.0491  2.3509
 5247SOL    HW227375   1.121   1.134   9.346  0.7990  0.1736 -1.4642
 5248SOL     OW27376   3.989   2.478  15.291 -0.3744 -0.0946 -0.4309
 5248SOL    HW127377   4.032   2.551  15.247  0.3204  0.1745  0.6841
 5248SOL    HW227378   3.937   2.529  15.353 -2.0599 -1.7757 -0.4586
 5249SOL     OW27379   2.498   3.170  10.873  0.0758  0.0668  0.2206
 5249SOL    HW127380   2.527   3.133  10.956  0.7012  0.0833  0.0104
 5249SOL    HW227381   2.579   3.218  10.853 -0.1206  0.7553  1.0982
 5250SOL     OW27382   4.101   4.645   9.157 -0.2133 -0.1856  0.1049
 5250SOL    HW127383   4.148   4.670   9.237  1.9650 -0.6438 -1.0267
 5250SOL    HW227384   4.153   4.697   9.097  1.2314 -0.3224  1.2448
 5251SOL     OW27385   4.347   3.349   4.687 -0.2901 -0.4164 -0.1196
 5251SOL    HW127386   4.406   3.353   4.612  0.2196  1.4345  0.3787
 5251SOL    HW227387   4.298   3.272   4.659  0.4373 -0.7740 -0.4143
 5252SOL     OW27388   2.031   1.697  15.607 -0.2756  0.4301  0.4625
 5252SOL    HW127389   2.086   1.652  15.542  0.3383  0.8353  0.6995
 5252SOL    HW227390   2.072   1.665  15.687  0.7511  1.3812  0.3130
 5253SOL     OW27391   2.880   0.566   2.104 -0.0868 -0.1033 -0.4827
 5253SOL    HW127392   2.902   0.473   2.113 -0.6043 -0.2691 -0.9190
 5253SOL    HW227393   2.898   0.584   2.012  1.0048 -2.5474 -0.7544
 5254SOL     OW27394   4.582   0.356  11.041  0.3310  0.4708 -0.1085
 5254SOL    HW127395   4.556   0.386  10.953 -1.1790  1.3372  0.6181
 5254SOL    HW227396   4.589   0.262  11.026  0.9414  0.1165  2.4309
 5255SOL     OW27397   0.493   3.425  17.202  0.3311 -0.2872  0.3225
 5255SOL    HW127398   0.417   3.457  17.250 -0.7291 -0.7412 -1.0725
 5255SOL    HW227399   0.453   3.409  17.117 -0.1638  1.7174  0.1787
 5256SOL     OW27400   0.150   3.099   4.616  0.0051 -0.3477  0.6217
 5256SOL    HW127401   0.186   3.012   4.599  1.3216 -0.0325  1.7415
 5256SOL    HW227402   0.208   3.128   4.686  1.2252  0.5423 -0.7565
 5257SOL     OW27403   2.192   0.199   5.879 -0.7344  0.0816 -0.4430
 5257SOL    HW127404   2.209   0.150   5.798  0.5725  0.1746 -0.2248
 5257SOL    HW227405   2.238   0.139   5.938 -0.1904 -1.4949 -2.4839
 5258SOL     OW27406   0.198   3.324   1.698 -0.1030 -0.4651  0.1244
 5258SOL    HW127407   0.246   3.272   1.634 -1.3279  0.7952 -1.8072
 5258SOL    HW227408   0.113   3.283   1.688 -1.0548  1.2866  0.9298
 5259SOL     OW27409   2.269   4.104   2.875  0.6270  0.0368  0.4526
 5259SOL    HW127410   2.256   4.114   2.780 -0.2509 -1.2099  0.4449
 5259SOL    HW227411   2.310   4.018   2.877  2.6846  0.9834 -0.9546
 5260SOL     OW27412   3.759   3.461   3.159  0.0480  0.2746 -0.1961
 5260SOL    HW127413   3.843   3.430   3.125 -0.5285 -0.0592 -1.3300
 5260SOL    HW227414   3.720   3.387   3.205  1.8049  0.1745  1.1174
 5261SOL     OW27415   2.168   2.765  15.203  0.2280 -0.3928  0.2346
 5261SOL    HW127416   2.126   2.709  15.138  0.6821 -0.6188  0.1306
 5261SOL    HW227417   2.102   2.758  15.272 -1.1984 -0.3703 -1.1222
 5262SOL     OW27418   2.167   1.851   3.584 -0.0972  0.2826 -0.1796
 5262SOL    HW127419   2.169   1.809   3.499 -0.0551 -0.3354  0.1257
 5262SOL    HW227420   2.086   1.902   3.585  0.7989  1.7091  0.8793
 5263SOL     OW27421   3.131   4.531   7.008 -0.0238 -0.5314 -0.1807
 5263SOL    HW127422   3.072   4.592   7.054  0.9319  0.1848  0.0846
 5263SOL    HW227423   3.205   4.591   7.006  0.4371 -1.1197 -1.2341
 5264SOL     OW27424   2.858   2.832   2.894  0.4408  0.2230  0.7780
 5264SOL    HW127425   2.880   2.825   2.987  0.3981 -1.2090  0.6748
 5264SOL    HW227426   2.909   2.766   2.847 -0.5289  0.3206 -0.4136
 5265SOL     OW27427   4.578   3.855   7.702  0.1963  0.4313  0.1462
 5265SOL    HW127428   4.653   3.876   7.647  0.4531 -2.8792 -0.7965
 5265SOL    HW227429   4.616   3.853   7.790  0.9804  0.3205 -0.1975
 5266SOL     OW27430   1.966   4.671   9.098  0.4150  0.0226 -0.1575
 5266SOL    HW127431   1.911   4.714   9.163  0.8107  0.4024 -0.0681
 5266SOL    HW227432   1.979   4.595   9.154  3.4831  0.8320  0.2315
 5267SOL     OW27433   0.979   3.406  14.786 -0.1271 -0.2167  0.8025
 5267SOL    HW127434   1.073   3.413  14.766 -0.0694  0.6445  1.4131
 5267SOL    HW227435   0.975   3.435  14.876 -1.3809  1.9934  0.0220
 5268SOL     OW27436   4.448   3.314   9.017 -0.3410 -0.0853  0.1498
 5268SOL    HW127437   4.408   3.338   8.933 -1.5860 -0.6192  0.5965
 5268SOL    HW227438   4.540   3.319   8.990 -0.0071  1.3916  1.5739
 5269SOL     OW27439   3.684   0.815  17.456  0.3743  0.1846 -0.3450
 5269SOL    HW127440   3.623   0.819  17.382 -0.0462 -0.8671 -0.0623
 5269SOL    HW227441   3.719   0.903  17.452  1.1527 -0.1541 -0.9872
 5270SOL     OW27442   3.071   1.248  12.779 -0.1200  0.2556 -0.3233
 5270SOL    HW127443   3.006   1.315  12.798 -1.5103 -0.8445 -1.1735
 5270SOL    HW227444   3.021   1.197  12.715  2.0952 -0.9500 -1.1147
 5271SOL     OW27445   1.910   0.478   7.272 -0.2164 -0.4638 -0.8986
 5271SOL    HW127446   1.850   0.552   7.263 -0.6677 -0.8891 -1.3913
 5271SOL    HW227447   1.859   0.405   7.236  0.0979 -0.3439 -1.5904
 5272SOL     OW27448   3.535   2.211   9.319 -0.1876 -0.4063  0.8004
 5272SOL    HW127449   3.546   2.248   9.406 -1.9151  0.0977  0.8147
 5272SOL    HW227450   3.504   2.288   9.270  2.4690  0.5134  0.5619
 5273SOL     OW27451   0.122   2.276   2.532 -0.1395 -0.6586 -0.2920
 5273SOL    HW127452   0.081   2.198   2.570 -0.6004 -0.0936  0.3790
 5273SOL    HW227453   0.204   2.282   2.582  0.8011 -2.6063 -1.5846
 5274SOL     OW27454   0.571   1.279   0.020 -0.1078  0.4305 -0.3042
 5274SOL    HW127455   0.496   1.329  17.727 -0.5467 -1.2261 -1.6976
 5274SOL    HW227456   0.540   1.251   0.106  1.6879 -1.9895 -0.4636
 5275SOL     OW27457   4.144   2.997   3.024 -0.0814  0.3069  0.9629
 5275SOL    HW127458   4.222   3.052   3.013  1.5765 -2.4293 -0.8734
 5275SOL    HW227459   4.120   2.973   2.934 -0.0916  2.4015  0.4011
 5276SOL     OW27460   3.923   2.151   5.163 -0.1473  0.5278  0.2741
 5276SOL    HW127461   3.875   2.160   5.081 -0.4496 -3.1677  0.0308
 5276SOL    HW227462   3.854   2.120   5.222 -0.0623 -0.8678 -0.3516
 5277SOL     OW27463   1.644   1.089   7.054 -0.5516 -0.2653 -0.5884
 5277SOL    HW127464   1.614   1.106   7.143  2.3642  0.9514  0.1777
 5277SOL    HW227465   1.559   1.078   7.012 -0.9566  1.1592 -0.1551
 5278SOL     OW27466   2.981   2.520   3.731 -0.0402  0.4039  0.1671
 5278SOL    HW127467   2.904   2.493   3.682  0.2698  0.1208 -0.1627
 5278SOL    HW227468   3.006   2.431   3.754  0.1026 -0.3848 -2.9932
 5279SOL     OW27469   1.669   4.103  15.552 -0.2240  0.4668  1.2754
 5279SOL    HW127470   1.741   4.158  15.519  0.9189 -1.3859  0.6554
 5279SOL    HW227471   1.602   4.110  15.484  0.7630 -1.4536  0.0760
 5280SOL     OW27472   4.396   2.301   6.315  0.3819 -0.9305  0.5651
 5280SOL    HW127473   4.480   2.300   6.361  1.1224  2.5100 -0.6709
 5280SOL    HW227474   4.407   2.384   6.269  0.4457 -0.9572  0.5333
 5281SOL     OW27475   0.980   3.781  14.144  0.1793  0.1362 -0.4182
 5281SOL    HW127476   0.941   3.862  14.111  0.0037  0.0981 -0.3050
 5281SOL    HW227477   0.954   3.788  14.236 -1.2631 -4.4402 -0.4474
 5282SOL     OW27478   1.647   0.603   2.397 -0.2111 -0.2687  0.1857
 5282SOL    HW127479   1.573   0.634   2.449  0.5781  0.0053  1.1431
 5282SOL    HW227480   1.686   0.532   2.448 -0.6114  1.1161  2.4396
 5283SOL     OW27481   1.782   2.600  11.375  0.3082  0.3535 -0.2894
 5283SOL    HW127482   1.826   2.596  11.290 -1.1613 -0.8640 -0.9819
 5283SOL    HW227483   1.794   2.690  11.405  0.4414  1.0059 -2.3201
 5284SOL     OW27484   2.059   3.341  13.559  0.5041  0.3191 -0.2343
 5284SOL    HW127485   2.085   3.253  13.587 -2.2536  0.1565  1.8535
 5284SOL    HW227486   2.064   3.331  13.464 -0.0943  3.2503 -0.5813
 5285SOL     OW27487   4.583   1.932  15.996  0.1420 -0.5402  0.0435
 5285SOL    HW127488   4.563   1.920  16.089 -1.2050  1.3917  0.0082
 5285SOL    HW227489   4.556   1.851  15.952  1.3093  0.0028 -1.7039
 5286SOL     OW27490   1.974   4.288   3.709  0.0226  0.0990  0.3587
 5286SOL    HW127491   1.981   4.199   3.673  3.8401 -1.0448  3.9244
 5286SOL    HW227492   2.019   4.281   3.793 -1.3724 -0.7463  1.0455
 5287SOL     OW27493   0.522   4.514   3.699 -0.1672  0.2527  0.0103
 5287SOL    HW127494   0.574   4.496   3.778  1.7061 -1.6452 -1.6452
 5287SOL    HW227495   0.467   4.585   3.731  0.4327  0.6596  0.1431
 5288SOL     OW27496   0.925   2.547   1.526  0.4194 -0.5993  0.3185
 5288SOL    HW127497   0.866   2.477   1.556  1.4036 -1.4906  0.1924
 5288SOL    HW227498   0.905   2.619   1.586 -0.1848 -0.9532  0.5477
 5289SOL     OW27499   0.995   2.725   7.139  0.1477 -0.7307 -0.2379
 5289SOL    HW127500   1.066   2.764   7.088 -1.1125  1.2667 -0.4681
 5289SOL    HW227501   1.046   2.668   7.197 -0.6041 -1.2543 -0.0871
 5290SOL     OW27502   2.713   1.119  16.792 -0.3691  1.0911 -0.0113
 5290SOL    HW127503   2.669   1.183  16.737 -0.7440  1.4156  0.6667
 5290SOL    HW227504   2.720   1.171  16.872 -0.3001  2.8347 -1.1680
 5291SOL     OW27505   3.449   1.323   2.349 -0.6004  0.2502  0.9016
 5291SOL    HW127506   3.363   1.366   2.342 -1.0563 -0.9177 -0.6069
 5291SOL    HW227507   3.451   1.291   2.439 -0.4148 -0.7592  0.5300
 5292SOL     OW27508   1.956   3.218   7.823  0.4401  0.2853  0.3104
 5292SOL    HW127509   1.958   3.202   7.918  1.6964 -0.5856  0.1241
 5292SOL    HW227510   2.038   3.265   7.807  0.7704  0.5143  2.6886
 5293SOL     OW27511   1.901   4.706   6.902 -0.2247  0.1940 -0.2423
 5293SOL    HW127512   1.867   4.618   6.885 -1.0944  0.5615 -0.4110
 5293SOL    HW227513   1.838   4.735   6.967 -0.1508  1.1284 -0.5919
 5294SOL     OW27514   1.561   0.089  13.812 -0.1306 -0.1455 -0.4306
 5294SOL    HW127515   1.603   0.006  13.791 -1.7551 -1.8441  2.9198
 5294SOL    HW227516   1.562   0.132  13.727  0.6783  1.1835  0.2568
 5295SOL     OW27517   3.704   2.166   0.849  0.5202 -0.1255 -0.2399
 5295SOL    HW127518   3.748   2.139   0.768  0.1655  0.2236 -0.5448
 5295SOL    HW227519   3.623   2.115   0.844  2.2549 -3.0279  0.6238
 5296SOL     OW27520   3.293   3.551   6.469 -0.1276  0.0940  0.3615
 5296SOL    HW127521   3.203   3.525   6.449 -0.7089  1.6133  0.9951
 5296SOL    HW227522   3.282   3.646   6.467  0.0132  0.1409  1.6127
 5297SOL     OW27523   0.082   4.399   2.811 -0.6244 -0.1671 -0.0901
 5297SOL    HW127524   0.151   4.429   2.753 -0.0549 -1.4830 -0.0951
 5297SOL    HW227525   0.010   4.407   2.748 -0.1827  0.9323 -0.4568
 5298SOL     OW27526   1.618   0.839  13.948  0.2319  0.0508 -0.2194
 5298SOL    HW127527   1.582   0.901  14.012  0.8804 -0.0572  0.2499
 5298SOL    HW227528   1.552   0.770  13.943  0.4047  0.0654 -2.9186
 5299SOL     OW27529   1.687   2.987   2.089 -0.1530 -0.6069  0.2391
 5299SOL    HW127530   1.750   3.029   2.029 -2.8091  1.1836 -1.3138
 5299SOL    HW227531   1.628   2.950   2.024 -0.9841  1.0287  0.0538
 5300SOL     OW27532   0.697   3.557   6.551  0.0499  0.7259 -0.0745
 5300SOL    HW127533   0.604   3.562   6.570 -0.1547 -0.4942 -0.7657
 5300SOL    HW227534   0.707   3.636   6.498  1.4248  0.4530 -0.2159
 5301SOL     OW27535   3.771   1.295   8.607  0.1992 -0.3757  0.0442
 5301SOL    HW127536   3.719   1.222   8.573  0.0179  0.0329 -0.5616
 5301SOL    HW227537   3.722   1.353   8.665  0.4744  0.1662 -0.2569
 5302SOL     OW27538   0.535   2.390   5.850 -0.3217 -0.3772 -0.2488
 5302SOL    HW127539   0.548   2.422   5.939  0.4154  2.9863 -1.5572
 5302SOL    HW227540   0.557   2.472   5.805  1.9078 -0.8775 -0.0282
 5303SOL     OW27541   4.549   0.536   5.781  0.4228  0.0096 -0.0562
 5303SOL    HW127542   4.531   0.443   5.774 -1.0737  0.2290  0.8525
 5303SOL    HW227543   4.622   0.543   5.720  0.7807 -1.0445  0.2564
 5304SOL     OW27544   4.081   1.683   7.547 -0.3264  0.0022  0.2083
 5304SOL    HW127545   4.173   1.657   7.542 -0.7587 -1.6585  0.6053
 5304SOL    HW227546   4.051   1.620   7.613 -0.0826 -1.3695 -0.9731
 5305SOL     OW27547   3.587   0.517   0.395  0.2018  0.0545  0.4938
 5305SOL    HW127548   3.492   0.520   0.390  0.4768  3.0239 -2.7423
 5305SOL    HW227549   3.615   0.587   0.336  0.6840 -0.6175 -0.0878
 5306SOL     OW27550   4.466   1.030   7.892  0.0594  0.1139  0.6016
 5306SOL    HW127551   4.394   0.969   7.910 -1.6611  2.5022  1.7131
 5306SOL    HW227552   4.477   1.052   7.985 -0.7272 -1.5230  1.0888
 5307SOL     OW27553   0.133   0.802   1.262 -0.2576 -0.5192  0.8427
 5307SOL    HW127554   0.044   0.834   1.274 -0.3121 -0.4471  0.2664
 5307SOL    HW227555   0.181   0.883   1.244 -0.3227 -0.6313  0.1624
 5308SOL     OW27556   3.534   4.288   7.650  0.3530  0.4344 -0.0939
 5308SOL    HW127557   3.469   4.304   7.582 -0.5618 -2.2669  0.1439
 5308SOL    HW227558   3.550   4.194   7.644 -1.7625  0.2189 -2.3226
 5309SOL     OW27559   4.306   3.774  11.145 -0.2196  0.1587 -0.1406
 5309SOL    HW127560   4.344   3.748  11.229 -0.4228 -0.9918 -0.4002
 5309SOL    HW227561   4.373   3.833  11.111  1.7304 -1.9000  0.1264
 5310SOL     OW27562   2.660   2.335  14.286  0.4528  0.2082 -0.3204
 5310SOL    HW127563   2.576   2.292  14.270  1.4285 -0.7810 -2.7171
 5310SOL    HW227564   2.692   2.285  14.361 -1.8706 -1.2292 -0.2986
 5311SOL     OW27565   0.467   1.640  14.389 -0.0139  0.1497 -0.1292
 5311SOL    HW127566   0.378   1.604  14.383 -0.2419  1.1273 -2.5293
 5311SOL    HW227567   0.517   1.580  14.444 -0.0334 -0.7322 -1.0536
 5312SOL     OW27568   4.259   4.715   4.166  0.2596 -0.6187  0.1418
 5312SOL    HW127569   4.186   0.030   4.131  0.5447 -1.1175 -1.2164
 5312SOL    HW227570   4.209   4.633   4.161 -2.1282  0.8235  0.7706
 5313SOL     OW27571   0.340   2.764   7.390  0.1321 -0.6730 -0.0709
 5313SOL    HW127572   0.289   2.785   7.311 -0.0336 -0.6911  0.0306
 5313SOL    HW227573   0.429   2.796   7.375 -0.9369  2.5976  0.7331
 5314SOL     OW27574   4.292   1.440   8.611  0.0188 -0.4594 -0.2333
 5314SOL    HW127575   4.231   1.432   8.539 -0.7224 -0.1881  0.3640
 5314SOL    HW227576   4.351   1.515   8.602  2.1506 -2.0469  0.4510
 5315SOL     OW27577   1.547   3.306   6.551 -0.9715 -0.2567  0.9129
 5315SOL    HW127578   1.477   3.330   6.490  1.8020  0.4729 -1.9726
 5315SOL    HW227579   1.499   3.267   6.623  0.7270  0.2601  2.3209
 5316SOL     OW27580   0.166   1.782   6.660 -0.1954  0.6584 -0.2328
 5316SOL    HW127581   0.171   1.875   6.682  0.0645  0.3933  0.8247
 5316SOL    HW227582   0.145   1.782   6.567  0.1079  0.4122 -0.2978
 5317SOL     OW27583   3.288   1.982   2.232 -0.5434 -0.0998  0.5155
 5317SOL    HW127584   3.227   2.051   2.257 -1.2506 -0.5431  0.0260
 5317SOL    HW227585   3.322   2.015   2.148 -1.7545  1.9859  0.8441
 5318SOL     OW27586   3.300   0.954   6.408  0.6152 -0.1157 -0.3207
 5318SOL    HW127587   3.387   0.917   6.396  0.5816 -0.2589 -0.1213
 5318SOL    HW227588   3.281   0.936   6.500 -1.2339  1.9668 -0.2814
 5319SOL     OW27589   2.425   3.419  12.290 -0.1440 -0.0394  0.3816
 5319SOL    HW127590   2.413   3.488  12.355 -1.2863  0.5197 -0.4245
 5319SOL    HW227591   2.402   3.333  12.325  0.5662  0.1693  1.3577
 5320SOL     OW27592   3.813   1.916  17.114 -0.1567  0.3288 -0.3733
 5320SOL    HW127593   3.739   1.856  17.120  0.4066 -0.0690  2.1988
 5320SOL    HW227594   3.874   1.855  17.072  1.8395  1.0443  1.5347
 5321SOL     OW27595   4.142   1.393   1.973  0.3777  0.4275 -0.8805
 5321SOL    HW127596   4.104   1.307   1.956 -0.0154  0.0424  2.0883
 5321SOL    HW227597   4.196   1.359   2.044 -0.7114  2.0365  0.7113
 5322SOL     OW27598   2.001   3.096   5.928 -0.7840  0.0950  0.8784
 5322SOL    HW127599   1.967   3.180   5.896  0.3186  0.8461  1.6846
 5322SOL    HW227600   1.943   3.038   5.879  0.2501  0.5486 -0.8782
 5323SOL     OW27601   3.707   0.529   9.447  0.0204 -0.0215 -0.1168
 5323SOL    HW127602   3.791   0.563   9.476  0.1300 -0.8643  0.5262
 5323SOL    HW227603   3.735   0.449   9.403 -0.3867  0.2455 -0.8669
 5324SOL     OW27604   1.232   4.051   5.249 -0.0265  0.1680 -0.0104
 5324SOL    HW127605   1.193   4.011   5.172  0.6958 -1.2171  0.3450
 5324SOL    HW227606   1.202   4.142   5.241 -1.6451 -0.2924  1.0661
 5325SOL     OW27607   1.764   1.924   5.507 -0.5756 -0.0277  0.2763
 5325SOL    HW127608   1.695   1.876   5.461 -0.8725  0.1088  0.5836
 5325SOL    HW227609   1.840   1.888   5.462 -0.2473 -1.1142  1.7154
 5326SOL     OW27610   0.811   3.986  17.443 -0.2155  0.0686 -0.0728
 5326SOL    HW127611   0.758   3.911  17.472  0.1500  0.7106  2.1748
 5326SOL    HW227612   0.748   4.057  17.433  1.5757  1.9386  1.9487
 5327SOL     OW27613   1.802   1.717   5.783  0.7543  0.5012 -0.6540
 5327SOL    HW127614   1.736   1.649   5.799  0.7341  0.8665  0.8065
 5327SOL    HW227615   1.743   1.789   5.760 -2.9873 -2.0830  0.8817
 5328SOL     OW27616   3.964   4.287   2.767 -0.4509  0.0460  0.2315
 5328SOL    HW127617   3.968   4.261   2.859  1.0158  1.0075  0.4355
 5328SOL    HW227618   3.891   4.347   2.779 -0.8795 -0.3701 -0.3326
 5329SOL     OW27619   2.147   2.173   6.898  0.4745  0.3408  0.2872
 5329SOL    HW127620   2.221   2.149   6.843  0.4698  2.7610 -0.7846
 5329SOL    HW227621   2.175   2.264   6.909 -0.6297  0.7339 -0.1176
 5330SOL     OW27622   3.404   1.941  13.319  0.6440  0.1317  0.7009
 5330SOL    HW127623   3.363   1.921  13.403 -0.0327 -1.4286 -0.0096
 5330SOL    HW227624   3.475   1.877  13.312  0.4692 -0.0598  0.6742
 5331SOL     OW27625   4.634   1.030   4.081 -0.0459 -0.0451  0.1131
 5331SOL    HW127626   4.562   1.041   4.144  1.4508 -1.7936  2.0857
 5331SOL    HW227627   4.640   1.115   4.036  1.1358 -1.3190 -2.0829
 5332SOL     OW27628   2.289   3.930  14.294 -0.2389 -0.1713 -0.1409
 5332SOL    HW127629   2.296   3.885  14.210  0.9839  1.2305 -0.7848
 5332SOL    HW227630   2.352   4.000  14.280 -1.5910  0.7491 -1.5424
 5333SOL     OW27631   4.565   2.757   7.570 -0.0631  0.2536 -0.5293
 5333SOL    HW127632   4.545   2.700   7.644  2.3724  0.4602  0.3001
 5333SOL    HW227633   4.544   2.845   7.602  3.0427 -0.0403  2.2947
 5334SOL     OW27634   4.437   0.838   8.175 -0.1462 -1.2760 -0.2754
 5334SOL    HW127635   4.370   0.828   8.108 -1.9528 -1.9253  1.6371
 5334SOL    HW227636   4.400   0.807   8.258  1.3030  0.0406  0.8774
 5335SOL     OW27637   0.821   3.434  13.522  0.1807  0.0034 -0.1957
 5335SOL    HW127638   0.910   3.399  13.533 -0.5557 -1.3933  1.4441
 5335SOL    HW227639   0.819   3.479  13.606  1.7933  0.5790 -0.4740
 5336SOL     OW27640   3.124   0.154  14.289 -0.0325 -0.7062 -0.6580
 5336SOL    HW127641   3.143   0.202  14.209 -0.7595 -0.7133 -0.8352
 5336SOL    HW227642   3.065   0.083  14.263 -0.4125 -0.6471  0.0267
 5337SOL     OW27643   4.140   2.955   2.747  0.3382  0.0453 -0.5537
 5337SOL    HW127644   4.172   2.878   2.699 -0.4878 -1.8770  1.9446
 5337SOL    HW227645   4.095   3.005   2.680  0.2324  0.7012  0.0107
 5338SOL     OW27646   0.597   2.237   2.648  0.2641  0.1833 -0.1777
 5338SOL    HW127647   0.672   2.271   2.599 -1.8399  1.5682 -2.4238
 5338SOL    HW227648   0.595   2.142   2.633 -2.8882 -0.0065  1.4952
 5339SOL     OW27649   3.191   0.889   7.187  0.1791 -0.0270  0.7784
 5339SOL    HW127650   3.266   0.906   7.243 -0.7666 -0.4401  2.1637
 5339SOL    HW227651   3.156   0.978   7.183  0.8081  0.1764 -0.3259
 5340SOL     OW27652   4.524   0.271   6.158  0.1409 -0.2371 -0.3723
 5340SOL    HW127653   4.451   0.275   6.220 -1.6006 -0.5084 -2.3967
 5340SOL    HW227654   4.585   0.330   6.201  0.4741 -1.0929  0.3265
 5341SOL     OW27655   2.957   4.197   9.089  0.4694  0.2785 -0.3042
 5341SOL    HW127656   3.028   4.133   9.093 -1.8695 -2.3950 -1.2785
 5341SOL    HW227657   3.007   4.274   9.116 -0.2306  1.0257 -1.1370
 5342SOL     OW27658   1.658   4.320  10.195  0.5535 -0.0445  0.3538
 5342SOL    HW127659   1.694   4.407  10.212 -2.8810  1.1047  1.5950
 5342SOL    HW227660   1.665   4.317  10.100 -3.9645 -2.1332  0.0768
 5343SOL     OW27661   1.736   1.452   3.307  0.1355 -0.2530 -0.5361
 5343SOL    HW127662   1.770   1.537   3.334  0.8381  0.0134 -2.3284
 5343SOL    HW227663   1.700   1.428   3.393 -0.7859  1.2059 -0.5218
 5344SOL     OW27664   3.884   0.179   3.070 -0.3151  0.7599  0.0863
 5344SOL    HW127665   3.832   0.231   3.009  1.0947  1.9478 -0.0880
 5344SOL    HW227666   3.943   0.250   3.096 -0.6285  1.0565 -0.0225
 5345SOL     OW27667   0.186   4.121  12.195 -0.1143 -0.6001  0.2423
 5345SOL    HW127668   0.116   4.062  12.222 -2.1911  2.2366  1.0464
 5345SOL    HW227669   0.201   4.162  12.280  1.4586 -0.4249 -0.1142
 5346SOL     OW27670   4.693   0.095  16.484 -0.0136  0.1097 -0.1636
 5346SOL    HW127671   4.717   0.150  16.559 -0.3428 -0.1241  0.1084
 5346SOL    HW227672   0.040   0.053  16.460 -0.6969 -1.5232  0.3301
 5347SOL     OW27673   3.618   3.553   5.514  0.3258 -0.3663 -0.4072
 5347SOL    HW127674   3.602   3.479   5.574  1.1542  1.4907  2.1149
 5347SOL    HW227675   3.683   3.505   5.464  0.4016  0.0962 -0.7520
 5348SOL     OW27676   3.547   1.763   6.784 -0.0711 -0.6874  0.1982
 5348SOL    HW127677   3.524   1.696   6.848  2.1126 -0.9473  0.7195
 5348SOL    HW227678   3.633   1.791   6.817  0.4238 -0.7461 -1.0000
 5349SOL     OW27679   4.103   1.483  14.537  0.3487  0.4995  0.0435
 5349SOL    HW127680   4.053   1.401  14.537 -0.5691  1.0570  1.2533
 5349SOL    HW227681   4.032   1.539  14.504 -1.9744 -3.0337 -1.0029
 5350SOL     OW27682   3.999   4.064   6.869  0.3790 -0.2892 -1.2978
 5350SOL    HW127683   4.002   4.061   6.774 -1.1991  1.2172 -1.3800
 5350SOL    HW227684   3.935   3.995   6.885 -0.2765  1.2636  2.7393
 5351SOL     OW27685   2.483   2.378   6.613  0.4080  0.0413 -0.2043
 5351SOL    HW127686   2.444   2.386   6.700 -0.9045  0.5124 -0.8375
 5351SOL    HW227687   2.543   2.312   6.649  0.8031  1.7250  2.2163
 5352SOL     OW27688   1.525   0.420   6.210  0.7458 -0.5246 -0.3993
 5352SOL    HW127689   1.560   0.488   6.152 -2.1706 -1.3251 -3.0717
 5352SOL    HW227690   1.587   0.421   6.283 -0.2899 -2.3523  0.5023
 5353SOL     OW27691   2.555   1.067   1.506 -0.0640 -0.3469  0.1033
 5353SOL    HW127692   2.576   0.980   1.539  1.3587  0.6552  1.8657
 5353SOL    HW227693   2.630   1.120   1.533  0.0597 -0.7823  0.6171
 5354SOL     OW27694   3.258   2.059  16.195 -0.3862  0.1999  0.4137
 5354SOL    HW127695   3.185   2.039  16.138  2.0662 -0.8649 -2.3419
 5354SOL    HW227696   3.294   2.137  16.153  0.4498 -0.5110 -0.1766
 5355SOL     OW27697   4.156   0.176   7.593  0.0553  0.1812  0.0351
 5355SOL    HW127698   4.116   0.090   7.584  1.4207 -0.1841 -2.6186
 5355SOL    HW227699   4.238   0.142   7.628  0.8988 -0.3453 -2.5233
 5356SOL     OW27700   1.903   3.717   0.690  0.3016 -0.5291  0.3819
 5356SOL    HW127701   1.862   3.791   0.734  0.0300 -1.4359  1.6506
 5356SOL    HW227702   1.970   3.682   0.748 -0.0637 -2.7420 -0.4974
 5357SOL     OW27703   1.352   4.311   1.953 -0.7261 -0.5946 -0.3307
 5357SOL    HW127704   1.402   4.379   1.907 -0.9978  0.5549  1.0759
 5357SOL    HW227705   1.427   4.277   2.002  0.5884  1.8048 -0.6652
 5358SOL     OW27706   1.037   2.053  17.506  0.2683 -0.1138  0.0240
 5358SOL    HW127707   1.045   2.043  17.412 -0.6043  2.5803 -0.3500
 5358SOL    HW227708   1.062   2.144  17.524  1.5973 -0.7063  1.1327
 5359SOL     OW27709   2.602   0.727   8.164 -0.2640 -1.6480  0.0472
 5359SOL    HW127710   2.601   0.634   8.187  3.4574 -1.6811 -0.0020
 5359SOL    HW227711   2.622   0.715   8.071  2.7874  1.2387  0.3233
 5360SOL     OW27712   0.389   3.881   6.343  0.0102 -0.3006 -0.3862
 5360SOL    HW127713   0.432   3.966   6.351  1.5008 -1.2526  1.5807
 5360SOL    HW227714   0.433   3.870   6.258 -2.3325  0.7885 -1.7269
 5361SOL     OW27715   3.505   3.000  13.177  0.0779  0.2989 -0.3339
 5361SOL    HW127716   3.453   2.945  13.117 -1.8754  0.2801  1.3910
 5361SOL    HW227717   3.527   2.942  13.249  0.2831 -0.1431 -0.7506
 5362SOL     OW27718   2.880   4.730   6.824 -0.5040 -0.4451  0.0881
 5362SOL    HW127719   2.956   4.708   6.769 -0.8280  0.3314 -0.6665
 5362SOL    HW227720   2.892   4.669   6.896  0.9694  0.4746  0.6166
 5363SOL     OW27721   0.610   1.570   3.355  0.3043 -0.4951 -0.3061
 5363SOL    HW127722   0.617   1.665   3.363  0.9339 -0.5509 -0.1895
 5363SOL    HW227723   0.560   1.544   3.432  2.5015 -0.3524  1.1462
 5364SOL     OW27724   0.593   2.612   8.088 -0.1504  0.4889  0.1220
 5364SOL    HW127725   0.550   2.530   8.063  0.9413  0.4077 -1.4891
 5364SOL    HW227726   0.592   2.598   8.183  0.6723 -0.6950 -0.0534
 5365SOL     OW27727   2.916   0.513   8.220  0.1001  0.3933 -0.0686
 5365SOL    HW127728   3.005   0.544   8.203 -0.0418  0.6736 -0.3054
 5365SOL    HW227729   2.897   0.473   8.135  0.6718 -1.0475  0.4891
 5366SOL     OW27730   0.990   4.146   2.792  0.0297 -0.2263 -0.6925
 5366SOL    HW127731   0.991   4.224   2.848 -0.5383 -0.9509  0.3427
 5366SOL    HW227732   1.031   4.080   2.849 -2.5695  0.6882  2.2161
 5367SOL     OW27733   3.216   3.803   7.921  0.3343  0.1621  0.0237
 5367SOL    HW127734   3.238   3.874   7.981  0.7995 -0.3325  0.4336
 5367SOL    HW227735   3.234   3.720   7.964  1.0448  0.0261 -0.5171
 5368SOL     OW27736   0.567   4.123  10.428 -0.2069 -0.2312 -0.1113
 5368SOL    HW127737   0.500   4.134  10.497  1.1675 -1.8428  1.4772
 5368SOL    HW227738   0.635   4.079  10.478  0.3907  1.8074  0.8485
 5369SOL     OW27739   4.644   4.667   7.507 -0.1419 -0.0952 -0.4315
 5369SOL    HW127740   4.717   4.615   7.540 -1.3510 -1.1271  0.6044
 5369SOL    HW227741   4.673   0.022   7.512  1.1070 -0.3733 -2.4803
 5370SOL     OW27742   3.931   3.451   7.569  0.2603  0.3871  0.5360
 5370SOL    HW127743   3.918   3.365   7.610  3.3577  0.7969  2.3915
 5370SOL    HW227744   3.946   3.510   7.643  1.2952 -0.3924  0.9441
 5371SOL     OW27745   4.453   4.270   5.406 -0.2336  0.2523  0.1252
 5371SOL    HW127746   4.415   4.306   5.326 -0.2070  0.8747  0.3925
 5371SOL    HW227747   4.419   4.319   5.481 -1.8649  0.3969 -0.7040
 5372SOL     OW27748   4.268   4.024  16.985 -0.2309 -0.2022  0.3596
 5372SOL    HW127749   4.226   3.940  16.964 -1.3806  0.0409  1.6586
 5372SOL    HW227750   4.356   3.995  17.008  0.1172 -1.1248 -2.1057
 5373SOL     OW27751   3.071   3.574   4.226 -0.2468 -0.6766 -0.8134
 5373SOL    HW127752   3.133   3.623   4.280  0.5516  0.7203 -3.0197
 5373SOL    HW227753   2.999   3.636   4.213 -0.2807 -0.3422  0.9560
 5374SOL     OW27754   4.254   3.440   5.108 -0.0687  0.4515  0.1871
 5374SOL    HW127755   4.273   3.476   5.195  2.9541  1.3933 -0.8392
 5374SOL    HW227756   4.169   3.479   5.090 -1.4201 -1.2608  2.9092
 5375SOL     OW27757   2.496   2.414   7.727 -0.1298 -0.0511 -0.1912
 5375SOL    HW127758   2.512   2.353   7.799  2.5866 -0.0491 -0.8110
 5375SOL    HW227759   2.402   2.423   7.740 -0.2695  0.0789 -1.2977
 5376SOL     OW27760   3.224   3.778   2.499 -0.3077 -0.5115 -0.6074
 5376SOL    HW127761   3.164   3.714   2.461 -1.2309 -0.6990  1.1692
 5376SOL    HW227762   3.309   3.746   2.469  0.4402  0.4296  0.5329
 5377SOL     OW27763   1.108   3.381   7.704 -0.3858  0.1887 -0.0880
 5377SOL    HW127764   1.184   3.354   7.755 -0.0711 -1.6147 -1.4807
 5377SOL    HW227765   1.129   3.474   7.693 -0.8363  0.2418 -0.5455
 5378SOL     OW27766   3.415   3.069  14.793  0.3010  0.2888 -0.3404
 5378SOL    HW127767   3.384   2.982  14.819 -2.1315  0.7087 -1.8856
 5378SOL    HW227768   3.497   3.051  14.746  0.4986  0.2268  0.0218
 5379SOL     OW27769   3.751   1.278   4.147 -0.6108  0.5528 -0.2632
 5379SOL    HW127770   3.740   1.188   4.176 -1.9635  1.0140  0.6784
 5379SOL    HW227771   3.751   1.322   4.233 -0.0608  0.7947 -0.3910
 5380SOL     OW27772   4.538   0.225   4.244 -0.0854 -0.4639 -0.4506
 5380SOL    HW127773   4.536   0.249   4.337  0.5028 -0.5480 -0.4101
 5380SOL    HW227774   4.620   0.269   4.219 -0.6002 -0.9737 -2.9512
 5381SOL     OW27775   2.754   1.072   9.961 -0.0813 -0.4129 -0.2102
 5381SOL    HW127776   2.694   1.096  10.032  0.1599 -0.8111  0.1324
 5381SOL    HW227777   2.704   1.005   9.914 -0.3039 -0.4191  0.0366
 5382SOL     OW27778   2.790   3.804   8.340  0.1483 -0.0956  0.5152
 5382SOL    HW127779   2.816   3.895   8.328  0.5008 -0.5493 -2.0878
 5382SOL    HW227780   2.824   3.800   8.430 -0.1744 -2.8368  0.5148
 5383SOL     OW27781   1.427   4.175   3.233 -0.9273  0.2602 -0.8300
 5383SOL    HW127782   1.458   4.137   3.151  1.6237  0.5039  0.0293
 5383SOL    HW227783   1.453   4.266   3.221 -1.5640  0.8656  2.3827
 5384SOL     OW27784   0.671   3.027  10.022 -0.3126 -0.1347  0.3883
 5384SOL    HW127785   0.627   3.071  10.094  0.3042  2.5388 -0.8751
 5384SOL    HW227786   0.753   3.077  10.032  1.3570 -2.6815 -0.5591
 5385SOL     OW27787   1.787   1.992   3.913  0.1644 -0.5534 -0.4085
 5385SOL    HW127788   1.877   1.992   3.881  0.0543  2.2127 -0.6781
 5385SOL    HW227789   1.757   2.073   3.872  0.2847 -0.0759  0.4410
 5386SOL     OW27790   3.413   4.166   3.684  0.3347  0.3535 -0.3685
 5386SOL    HW127791   3.383   4.242   3.734  2.1847  1.0619 -0.3168
 5386SOL    HW227792   3.344   4.103   3.700  0.9493 -0.2706 -0.1611
 5387SOL     OW27793   0.126   4.502   4.760 -0.4918  0.0720 -0.2837
 5387SOL    HW127794   0.083   4.417   4.749 -0.4697  0.4348 -3.4148
 5387SOL    HW227795   0.132   4.513   4.854  0.6449  0.1702 -0.3638
 5388SOL     OW27796   1.196   2.242   4.017  0.4459 -0.2165  0.0994
 5388SOL    HW127797   1.270   2.197   4.060  0.3226  0.0538  0.5897
 5388SOL    HW227798   1.142   2.171   3.984  0.1093  0.2826 -0.4155
 5389SOL     OW27799   3.549   1.805  14.171  0.3518 -0.0212  0.2630
 5389SOL    HW127800   3.584   1.889  14.202  1.0269 -1.6084  3.7507
 5389SOL    HW227801   3.587   1.741  14.231 -2.0124 -0.5165  1.1981
 5390SOL     OW27802   3.165   3.801  12.640  0.3026  0.4796  0.1110
 5390SOL    HW127803   3.171   3.759  12.554  0.1921  0.8867 -0.0966
 5390SOL    HW227804   3.121   3.733  12.691 -0.1460  0.2929 -0.5172
 5391SOL     OW27805   2.210   1.738  12.214 -0.9076 -0.2573  0.2875
 5391SOL    HW127806   2.128   1.705  12.250 -1.4398  2.2396  1.4031
 5391SOL    HW227807   2.260   1.773  12.288  1.3082 -1.1631 -0.7883
 5392SOL     OW27808   4.164   4.427   3.140 -0.0386 -0.0907  0.0769
 5392SOL    HW127809   4.116   4.389   3.067 -0.2992  1.2911 -0.4626
 5392SOL    HW227810   4.142   4.520   3.135  0.4488  0.0080 -0.2089
 5393SOL     OW27811   0.998   2.175   1.992 -0.2960  0.3936 -0.2505
 5393SOL    HW127812   0.928   2.222   1.947 -0.6826  1.2970  1.3076
 5393SOL    HW227813   1.072   2.183   1.931  0.4907  1.0947  0.8031
 5394SOL     OW27814   4.135   2.642   1.733  0.4740 -0.2528  0.5542
 5394SOL    HW127815   4.177   2.728   1.742 -0.8821  0.6483 -1.6981
 5394SOL    HW227816   4.066   2.656   1.798 -0.6330  1.7602 -1.0454
 5395SOL     OW27817   0.835   2.275   5.970  0.4495 -0.2190  0.6710
 5395SOL    HW127818   0.901   2.288   6.038  1.4633 -3.2024  0.2559
 5395SOL    HW227819   0.828   2.363   5.933  1.4228 -0.1134  0.7383
 5396SOL     OW27820   2.879   0.357   6.112  0.0615  0.0890  0.0188
 5396SOL    HW127821   2.802   0.412   6.122  0.0239 -0.2267  1.5129
 5396SOL    HW227822   2.889   0.322   6.201 -1.1205  0.5928  0.3518
 5397SOL     OW27823   0.845   3.697   7.723 -0.1487 -0.1312  0.1832
 5397SOL    HW127824   0.766   3.701   7.669 -0.7777  1.2595  1.1861
 5397SOL    HW227825   0.846   3.787   7.757 -0.2294 -0.7803  1.9010
 5398SOL     OW27826   1.114   0.004  14.072  1.0217 -0.1111  0.5341
 5398SOL    HW127827   1.052   4.729  14.145 -3.2173  0.1791 -2.9906
 5398SOL    HW227828   1.116   4.654  14.031  3.0533  0.1425  0.1024
 5399SOL     OW27829   1.716   1.154  10.278 -0.5779  0.2081  0.2545
 5399SOL    HW127830   1.725   1.091  10.349  2.9162  0.4869  0.0556
 5399SOL    HW227831   1.632   1.124  10.244 -1.0713 -0.3389  1.9574
 5400SOL     OW27832   4.624   0.044   2.197 -0.2731 -0.1145  0.1355
 5400SOL    HW127833   4.643   0.065   2.105 -0.2516  1.1978  0.4435
 5400SOL    HW227834   4.584   4.693   2.186 -0.1966 -0.2390  0.8350
 5401SOL     OW27835   2.171   1.871  11.408  0.1757 -0.4544  0.1586
 5401SOL    HW127836   2.140   1.825  11.330  0.5406 -0.3729 -0.0348
 5401SOL    HW227837   2.085   1.895  11.444  0.4657 -0.0591  0.5914
 5402SOL     OW27838   0.113   1.167   7.724  0.1269  0.4405 -0.0664
 5402SOL    HW127839   0.097   1.072   7.720  1.0429  0.2055  1.6029
 5402SOL    HW227840   0.053   1.196   7.793 -0.9972 -1.6061 -0.1780
 5403SOL     OW27841   2.831   3.909   2.659  0.5819  0.0328 -0.0542
 5403SOL    HW127842   2.904   3.853   2.684 -0.0198  0.1598  1.9868
 5403SOL    HW227843   2.879   3.992   2.658 -1.7418  1.4237  1.4659
 5404SOL     OW27844   3.988   1.284   6.891  0.4449  0.0636  0.1077
 5404SOL    HW127845   4.011   1.335   6.814 -0.5753 -0.3456 -0.4682
 5404SOL    HW227846   4.004   1.339   6.967  0.3636  0.5349 -0.2201
 5405SOL     OW27847   2.354   3.856   6.604 -0.4039  0.0259 -0.3704
 5405SOL    HW127848   2.298   3.790   6.565 -1.8668  0.8950  0.2434
 5405SOL    HW227849   2.294   3.930   6.615  0.3985  0.9159 -1.8719
 5406SOL     OW27850   3.948   0.651   1.236 -0.0582 -0.5086 -0.1912
 5406SOL    HW127851   3.888   0.595   1.187  0.6120 -1.2331 -0.1810
 5406SOL    HW227852   4.024   0.629   1.182 -0.7654 -1.1580 -0.9192
 5407SOL     OW27853   1.139   1.620   7.102 -0.3005  0.3997  0.0189
 5407SOL    HW127854   1.091   1.694   7.139  1.1654  0.1060  2.5243
 5407SOL    HW227855   1.086   1.591   7.028  1.4374 -1.2554 -0.5929
 5408SOL     OW27856   0.974   4.430   9.096 -0.0291 -0.0344  0.4734
 5408SOL    HW127857   0.945   4.469   9.178 -3.7545 -0.2150 -0.7762
 5408SOL    HW227858   1.060   4.473   9.105  1.0210 -1.7212 -1.3821
 5409SOL     OW27859   0.443   3.865   7.338  0.4543  0.2550  0.4504
 5409SOL    HW127860   0.465   3.795   7.276  2.1817  0.9784  0.2352
 5409SOL    HW227861   0.518   3.925   7.331  0.9373 -0.3095  0.7299
 5410SOL     OW27862   4.388   2.362   9.089  0.2660 -0.1120  0.0472
 5410SOL    HW127863   4.351   2.430   9.145  1.0057  0.2596  0.0894
 5410SOL    HW227864   4.444   2.417   9.034 -0.1432 -0.2439 -0.5083
 5411SOL     OW27865   1.131   3.429   4.663 -0.0952  0.3180 -0.6725
 5411SOL    HW127866   1.089   3.365   4.606 -0.8170  0.4976 -0.3437
 5411SOL    HW227867   1.095   3.398   4.745  3.7820 -3.5053 -0.4125
 5412SOL     OW27868   3.375   0.534   5.573 -0.3684 -0.3167  0.1525
 5412SOL    HW127869   3.335   0.526   5.486 -0.2246  0.4547  0.0121
 5412SOL    HW227870   3.468   0.519   5.555 -0.5588 -1.9109  0.4959
 5413SOL     OW27871   1.195   2.394   4.932  0.0539 -0.1286  0.4265
 5413SOL    HW127872   1.274   2.341   4.946 -0.4878 -0.8453  0.7516
 5413SOL    HW227873   1.230   2.476   4.967 -0.4175  0.1708  0.1882
 5414SOL     OW27874   1.442   0.874   9.534 -0.0816  0.6507  0.3178
 5414SOL    HW127875   1.389   0.836   9.464 -3.0522  1.7879  1.9493
 5414SOL    HW227876   1.444   0.796   9.589 -1.0588  0.5214  0.1726
 5415SOL     OW27877   4.028   1.649   6.319  0.2245 -0.2754 -0.3846
 5415SOL    HW127878   4.113   1.690   6.305 -0.0655  0.6539  0.5835
 5415SOL    HW227879   4.070   1.564   6.333  1.6539  0.6479  0.9484
 5416SOL     OW27880   2.548   2.566   6.930  0.2928  0.4937  0.0459
 5416SOL    HW127881   2.543   2.611   6.845 -0.4636 -0.4422 -0.4129
 5416SOL    HW227882   2.619   2.605   6.980  0.4428 -0.0410  0.2556
 5417SOL     OW27883   3.509   0.232   8.173 -0.2938 -0.3191  0.0673
 5417SOL    HW127884   3.446   0.161   8.186 -0.4343 -0.4134 -1.0988
 5417SOL    HW227885   3.588   0.180   8.186 -1.6982 -2.9170 -1.9697
 5418SOL     OW27886   3.255   2.296  17.170 -0.7814  0.4170  0.1492
 5418SOL    HW127887   3.236   2.387  17.146 -3.4887  0.3764  2.1781
 5418SOL    HW227888   3.257   2.310  17.265  0.1733  0.6216  0.0974
 5419SOL     OW27889   1.775   2.939   2.940  0.1905 -0.5896 -0.2798
 5419SOL    HW127890   1.805   2.866   2.887 -0.0491  0.6539 -2.1175
 5419SOL    HW227891   1.682   2.944   2.920 -0.4129 -1.2759  2.3004
 5420SOL     OW27892   1.917   3.585   4.826 -0.1374 -0.4219 -0.5679
 5420SOL    HW127893   1.937   3.643   4.899 -0.5645  0.8352 -1.4464
 5420SOL    HW227894   2.004   3.584   4.788  1.4811  0.4688  3.1495
 5421SOL     OW27895   0.409   1.634   7.982 -0.6453  0.4798 -0.2551
 5421SOL    HW127896   0.415   1.708   7.922 -0.8285  1.1342  0.5278
 5421SOL    HW227897   0.496   1.640   8.023 -0.3905  1.0827 -0.8849
 5422SOL     OW27898   2.099   4.310   3.444  0.1302  1.2113  0.5286
 5422SOL    HW127899   2.050   4.324   3.524  1.0270  0.4394  1.2132
 5422SOL    HW227900   2.032   4.278   3.384  1.8728 -2.2040  0.3494
 5423SOL     OW27901   4.453   3.723  10.288  0.0929 -0.5940  0.2510
 5423SOL    HW127902   4.408   3.799  10.249 -0.5183  1.0471  4.1011
 5423SOL    HW227903   4.443   3.659  10.218  0.2625 -1.2491  0.8286
 5424SOL     OW27904   2.104   1.438   6.746 -0.7429  0.5029  0.4839
 5424SOL    HW127905   2.191   1.478   6.740 -1.3942  1.7582 -0.6143
 5424SOL    HW227906   2.125   1.345   6.745 -1.7991  0.2822 -0.8658
 5425SOL     OW27907   3.263   1.680   2.422  0.1078  0.6383  0.1415
 5425SOL    HW127908   3.238   1.589   2.402 -1.8595  0.5677  2.9710
 5425SOL    HW227909   3.336   1.695   2.362 -0.2410  0.2001 -0.3947
 5426SOL     OW27910   3.281   0.579  14.355 -0.2105  0.1207 -0.5658
 5426SOL    HW127911   3.353   0.637  14.328  1.6555 -0.6672  2.7986
 5426SOL    HW227912   3.320   0.492  14.364 -1.0304 -0.0086  1.6817
 5427SOL     OW27913   3.294   4.484   6.076  0.5518  0.4925  0.2528
 5427SOL    HW127914   3.263   4.543   6.006 -0.6995  0.2316  0.5902
 5427SOL    HW227915   3.275   4.538   6.153 -1.5107  0.9855 -0.5920
 5428SOL     OW27916   3.682   0.655  14.058  0.1053 -0.0489  0.2418
 5428SOL    HW127917   3.624   0.702  13.997  1.1335  0.9033 -0.0007
 5428SOL    HW227918   3.663   0.709  14.134 -1.0363 -1.0421  0.6567
 5429SOL     OW27919   0.211   2.814   3.189 -0.3670 -0.4480  0.5521
 5429SOL    HW127920   0.294   2.845   3.151  0.6808 -3.3923  0.4749
 5429SOL    HW227921   0.164   2.823   3.106  0.9269 -1.2349 -0.2573
 5430SOL     OW27922   4.605   2.691   5.187 -0.0211  0.7161  0.3645
 5430SOL    HW127923   4.590   2.604   5.224 -0.6154 -0.3266 -2.2602
 5430SOL    HW227924   4.549   2.690   5.109 -0.8776  0.6125  0.9835
 5431SOL     OW27925   4.413   3.330   6.776  0.3840 -0.5940  0.4949
 5431SOL    HW127926   4.499   3.328   6.734 -0.2584  0.0376 -0.8553
 5431SOL    HW227927   4.367   3.391   6.719 -0.5234  0.8428  2.7805
 5432SOL     OW27928   0.723   4.572   6.518  0.4082 -0.0142 -0.1641
 5432SOL    HW127929   0.720   4.661   6.483 -4.0689  0.0234  0.2442
 5432SOL    HW227930   0.653   4.525   6.472  0.0353 -1.4986  1.9356
 5433SOL     OW27931   1.701   0.886   2.533  0.5786 -0.6951 -0.1717
 5433SOL    HW127932   1.676   0.937   2.611  2.2148 -1.5448  0.9220
 5433SOL    HW227933   1.759   0.820   2.572 -0.3591 -2.2588 -1.4560
 5434SOL     OW27934   2.064   1.847   5.393  0.0134 -0.9115 -0.1497
 5434SOL    HW127935   2.141   1.804   5.357  0.3042  1.4136 -2.3186
 5434SOL    HW227936   2.064   1.811   5.482  2.8674  0.7371  0.5239
 5435SOL     OW27937   0.546   0.350  16.098  0.4767  0.0825  0.3893
 5435SOL    HW127938   0.583   0.435  16.122 -1.5121  0.4288  2.2563
 5435SOL    HW227939   0.593   0.284  16.149  0.3638  0.1681  0.6057
 5436SOL     OW27940   0.734   2.097   8.227 -0.4941 -0.2747  0.0742
 5436SOL    HW127941   0.801   2.165   8.233 -0.8702  0.2562 -1.6901
 5436SOL    HW227942   0.657   2.154   8.231 -0.2418  0.2821 -2.9469
 5437SOL     OW27943   4.289   4.698   6.414  0.0155  0.5269  0.4058
 5437SOL    HW127944   4.308   0.055   6.423 -0.0759  0.3159  2.7509
 5437SOL    HW227945   4.224   4.696   6.484  0.3952 -0.2698  0.7354
 5438SOL     OW27946   1.707   3.797   8.559  0.6390  0.3809  0.5569
 5438SOL    HW127947   1.730   3.753   8.477 -0.4787  2.0963 -0.6860
 5438SOL    HW227948   1.637   3.745   8.599  0.7120  2.5168  3.3892
 5439SOL     OW27949   0.474   1.000   4.301 -0.0028 -0.2167  0.1140
 5439SOL    HW127950   0.494   0.909   4.323 -2.0830 -0.5161  0.7553
 5439SOL    HW227951   0.479   1.006   4.206  2.0984  3.8323  0.4790
 5440SOL     OW27952   0.095   2.196   5.537  0.1131 -0.6862  0.2854
 5440SOL    HW127953   0.157   2.263   5.508  1.1016 -1.5787  0.3499
 5440SOL    HW227954   0.130   2.122   5.487  0.8128 -0.7885  0.9215
 5441SOL     OW27955   3.679   4.072  16.919 -0.2189 -0.2074  0.0759
 5441SOL    HW127956   3.656   3.997  16.864  2.2517 -1.3879  0.6339
 5441SOL    HW227957   3.703   4.031  17.003  0.9425  2.5150  1.0896
 5442SOL     OW27958   3.856   0.114   7.308 -0.1748  0.1516 -0.5062
 5442SOL    HW127959   3.844   0.135   7.401 -0.6609 -2.3218 -0.0220
 5442SOL    HW227960   3.827   0.024   7.315 -0.1480  0.3046  1.5225
 5443SOL     OW27961   2.772   2.327  16.514  0.2282  0.7706  0.6333
 5443SOL    HW127962   2.696   2.384  16.502  1.6465  2.3660 -0.7675
 5443SOL    HW227963   2.768   2.284  16.429  1.1848 -1.4372  1.7024
 5444SOL     OW27964   2.804   2.922   4.294  0.0108  0.0630  0.1565
 5444SOL    HW127965   2.863   2.981   4.341  0.2095 -0.2584  0.3166
 5444SOL    HW227966   2.719   2.953   4.324 -0.5349  0.3343 -1.6747
 5445SOL     OW27967   2.881   2.407  14.525 -0.0267 -0.4315  0.3638
 5445SOL    HW127968   2.933   2.472  14.572 -0.9759  1.7206 -1.5987
 5445SOL    HW227969   2.933   2.329  14.547  0.4715  0.3493  1.9343
 5446SOL     OW27970   3.626   0.261   1.581 -0.5092 -0.6697  0.3395
 5446SOL    HW127971   3.563   0.332   1.574 -1.0164 -1.1330  0.2318
 5446SOL    HW227972   3.645   0.247   1.489  0.9222  1.4948  0.3088
 5447SOL     OW27973   2.574   3.576   6.216 -0.1784  0.1298  0.0448
 5447SOL    HW127974   2.603   3.652   6.267  0.6626  0.6868 -1.2618
 5447SOL    HW227975   2.624   3.587   6.135  0.6260 -1.7030  0.2911
 5448SOL     OW27976   0.618   3.744   8.975 -0.0120  0.0237  0.0490
 5448SOL    HW127977   0.668   3.698   9.042  0.1530 -1.2905 -0.9904
 5448SOL    HW227978   0.698   3.767   8.927  0.4477 -0.9526  0.3559
 5449SOL     OW27979   2.625   1.732   8.166  0.3058 -0.0612 -0.2627
 5449SOL    HW127980   2.686   1.665   8.196 -1.1648 -1.0379  0.5798
 5449SOL    HW227981   2.551   1.704   8.221  2.1484 -4.5117 -0.1247
 5450SOL     OW27982   1.452   0.588   8.197 -0.7525 -0.5369  0.1886
 5450SOL    HW127983   1.435   0.496   8.178 -0.6856 -0.4785 -0.1571
 5450SOL    HW227984   1.359   0.603   8.210 -0.3321  1.2871  1.0793
 5451SOL     OW27985   0.145   0.294   1.421  0.6301  0.0367 -0.5181
 5451SOL    HW127986   0.123   0.210   1.459  1.1967 -0.5489 -1.4752
 5451SOL    HW227987   0.136   0.349   1.498 -2.5291 -0.5300 -0.5027
 5452SOL     OW27988   1.660   0.611   3.548 -0.3168  0.6569  0.1771
 5452SOL    HW127989   1.642   0.531   3.498  0.8557  0.3722  0.1863
 5452SOL    HW227990   1.705   0.577   3.626 -1.1151 -0.3949  0.1761
 5453SOL     OW27991   3.333   4.089   3.226  0.6455  0.0816  1.3293
 5453SOL    HW127992   3.316   4.154   3.294  0.4548  0.0082  1.3532
 5453SOL    HW227993   3.393   4.131   3.164 -1.1623  1.4655  0.5311
 5454SOL     OW27994   4.279   3.801   1.295  0.4763  0.7387 -0.0840
 5454SOL    HW127995   4.353   3.793   1.355 -0.2258  0.5498  0.7633
 5454SOL    HW227996   4.241   3.713   1.302  0.9170  0.4889 -0.8189
 5455SOL     OW27997   3.344   1.301   4.227 -0.4285 -0.3139  0.6064
 5455SOL    HW127998   3.362   1.208   4.213 -1.1045 -0.2361 -0.7349
 5455SOL    HW227999   3.387   1.333   4.148 -2.2502  3.2215  1.0594
 5456SOL     OW28000   1.983   1.853  17.354 -0.1801  0.3836  0.0682
 5456SOL    HW128001   1.984   1.870  17.260 -1.3543  0.1479  0.0150
 5456SOL    HW228002   2.022   1.934  17.388  1.2905 -1.6015  3.0723
 5457SOL     OW28003   4.469   0.563   5.440 -0.0754  0.3558  0.1639
 5457SOL    HW128004   4.374   0.566   5.429  0.1743 -2.1746 -2.8999
 5457SOL    HW228005   4.495   0.647   5.477  2.5336  0.1828 -1.2608
 5458SOL     OW28006   1.807   1.136   3.663 -0.1081  0.5296  1.1042
 5458SOL    HW128007   1.893   1.174   3.647  0.2442  0.1045  1.9838
 5458SOL    HW228008   1.831   1.061   3.717 -0.2312  0.6833  1.3759
 5459SOL     OW28009   3.874   0.214   3.875 -0.0873  0.0379 -0.3541
 5459SOL    HW128010   3.820   0.286   3.844 -1.2178 -0.9660 -0.7157
 5459SOL    HW228011   3.959   0.218   3.831 -1.1276  4.4130 -1.9785
 5460SOL     OW28012   4.312   0.218  14.178  0.2792  0.4938  0.0945
 5460SOL    HW128013   4.301   0.287  14.113 -2.2965 -1.1224 -1.2023
 5460SOL    HW228014   4.227   0.174  14.172  1.1223 -1.0922 -0.2503
 5461SOL     OW28015   3.662   4.332   5.552 -0.3204 -0.2079  0.1298
 5461SOL    HW128016   3.582   4.287   5.524 -1.7071  1.7500  0.9365
 5461SOL    HW228017   3.725   4.325   5.481  0.1781 -0.6469  0.6126
 5462SOL     OW28018   2.769   2.682   7.077 -0.4357  0.1712 -0.1236
 5462SOL    HW128019   2.728   2.765   7.100 -0.5991 -0.0781  0.4701
 5462SOL    HW228020   2.759   2.626   7.154 -0.3723  1.3576  0.7374
 5463SOL     OW28021   3.449   3.703   4.581  0.3599 -0.2214  0.4197
 5463SOL    HW128022   3.464   3.717   4.675 -1.6325  1.3888  0.5032
 5463SOL    HW228023   3.491   3.780   4.542 -1.5124  1.4180  1.6243
 5464SOL     OW28024   4.678   3.369   5.169 -0.2191  0.2059 -0.3512
 5464SOL    HW128025   4.692   3.298   5.232 -1.7442  0.9053  0.7711
 5464SOL    HW228026   0.034   3.393   5.153 -0.3307  0.8046 -0.0825
 5465SOL     OW28027   2.136   3.235   5.486  0.4341  0.1051  0.0184
 5465SOL    HW128028   2.146   3.325   5.516  0.3172  0.6133 -1.4903
 5465SOL    HW228029   2.211   3.184   5.517  0.7982 -0.4494 -1.7855
 5466SOL     OW28030   2.925   1.056   7.015  0.2327 -0.2506 -0.4846
 5466SOL    HW128031   2.913   1.069   7.109  0.7076  2.7241 -0.8324
 5466SOL    HW228032   2.894   1.143   6.990  2.7982  0.5509 -0.8137
 5467SOL     OW28033   0.633   2.586   0.159  0.6935 -0.0881  0.2098
 5467SOL    HW128034   0.557   2.534   0.135  0.3735  1.3197 -1.7687
 5467SOL    HW228035   0.594   2.643   0.224 -0.0062 -1.2884  0.8490
 5468SOL     OW28036   1.073   3.939   7.453 -0.7112 -0.5289  0.7553
 5468SOL    HW128037   1.167   3.932   7.438 -0.5756 -2.1340  2.2741
 5468SOL    HW228038   1.066   4.015   7.511  1.6973  0.2981 -0.0832
 5469SOL     OW28039   2.645   0.209   6.611 -0.5676 -0.1725  0.5634
 5469SOL    HW128040   2.638   0.189   6.517  0.6605  2.0359  0.0003
 5469SOL    HW228041   2.597   0.136   6.649  0.7535 -0.8336  0.9373
 5470SOL     OW28042   2.473   2.703   4.209  0.0082 -0.3618 -0.3881
 5470SOL    HW128043   2.476   2.722   4.115  2.3900  0.9979 -0.0304
 5470SOL    HW228044   2.427   2.781   4.239  0.0182 -0.4814 -0.0624
 5471SOL     OW28045   2.736   1.700   5.898  0.4697 -0.1598  0.3088
 5471SOL    HW128046   2.797   1.689   5.971 -0.8459 -0.0190  1.4368
 5471SOL    HW228047   2.712   1.793   5.895 -0.0941 -0.3779 -2.5976
 5472SOL     OW28048   4.104   1.242   7.694 -0.0038  0.3163  0.2517
 5472SOL    HW128049   4.189   1.259   7.734 -0.3583  0.7540  0.8322
 5472SOL    HW228050   4.099   1.147   7.707 -0.6600  0.4553  1.0200
 5473SOL     OW28051   2.895   3.224   4.085 -0.4777 -0.3395 -0.3701
 5473SOL    HW128052   2.821   3.165   4.097 -0.0819 -0.4140  1.8023
 5473SOL    HW228053   2.928   3.231   4.175  1.5420  1.1225 -1.2331
 5474SOL     OW28054   1.961   1.394   4.297  0.5349  0.3066  0.1904
 5474SOL    HW128055   2.028   1.437   4.351  3.3600 -0.2311 -2.8964
 5474SOL    HW228056   1.938   1.467   4.240  0.8498 -0.4979 -0.9549
 5475SOL     OW28057   3.980   0.920   4.240  0.2377  0.3014 -0.0576
 5475SOL    HW128058   3.927   0.840   4.235 -2.2673  1.9677 -0.5586
 5475SOL    HW228059   3.967   0.940   4.333  0.7090  1.6956 -0.2873
 5476SOL     OW28060   4.296   2.312   9.502 -0.4006 -0.3125  0.2125
 5476SOL    HW128061   4.336   2.225   9.497  0.7926  0.2068  0.8075
 5476SOL    HW228062   4.229   2.298   9.435  0.2881  1.2270 -0.7853
 5477SOL     OW28063   4.589   2.043  14.030 -0.3759  0.7074 -0.1253
 5477SOL    HW128064   4.511   1.993  14.005  0.9052 -0.3838 -1.9426
 5477SOL    HW228065   4.629   1.990  14.099 -0.4723 -0.3634 -0.8920
 5478SOL     OW28066   3.523   4.187   3.427  0.5859  0.3683 -0.5316
 5478SOL    HW128067   3.594   4.160   3.485 -0.1659 -0.5391 -0.0470
 5478SOL    HW228068   3.452   4.173   3.489  0.7391  0.7686 -0.2618
 5479SOL     OW28069   0.703   4.427  16.930 -0.5204 -0.1079 -0.0223
 5479SOL    HW128070   0.637   4.462  16.871  0.5064  1.3339 -0.3228
 5479SOL    HW228071   0.742   4.503  16.973  1.8528 -0.9804 -0.5903
 5480SOL     OW28072   3.140   3.621   5.184 -0.1176  0.7485 -0.1071
 5480SOL    HW128073   3.131   3.651   5.274  1.7062 -0.3862  0.4496
 5480SOL    HW228074   3.056   3.649   5.149 -0.3363  1.0930  0.7013
 5481SOL     OW28075   0.882   3.610   9.125  0.1329 -0.4248  0.3781
 5481SOL    HW128076   0.932   3.631   9.047  1.4123 -0.2280  1.2529
 5481SOL    HW228077   0.859   3.526   9.086 -0.7150 -0.0055 -0.0433
 5482SOL     OW28078   0.331   2.564   2.603 -0.5861  0.0060 -0.4203
 5482SOL    HW128079   0.326   2.535   2.694 -1.7674  2.3269  0.2310
 5482SOL    HW228080   0.238   2.576   2.581 -0.0595  2.4280 -1.3070
 5483SOL     OW28081   3.298   1.381  17.043 -0.5383 -0.1952  0.0381
 5483SOL    HW128082   3.263   1.299  17.006  0.8419 -0.7557 -0.0025
 5483SOL    HW228083   3.259   1.451  16.991 -1.9382 -1.3256 -0.4510
 5484SOL     OW28084   2.002   3.605  12.975  0.3308  0.9341 -0.1135
 5484SOL    HW128085   2.086   3.626  12.934  0.9177 -0.1090  0.5243
 5484SOL    HW228086   1.975   3.526  12.929 -2.5498  1.2187  1.0806
 5485SOL     OW28087   3.030   1.510   9.675  0.5751  0.7717  0.6123
 5485SOL    HW128088   3.027   1.430   9.623  0.1840  1.1815  0.0032
 5485SOL    HW228089   2.998   1.578   9.616 -0.8487  0.0553  0.5641
 5486SOL     OW28090   1.508   1.463   5.602  0.0196  0.6829 -0.2346
 5486SOL    HW128091   1.536   1.507   5.522  0.9730 -0.6505 -0.6346
 5486SOL    HW228092   1.421   1.503   5.603 -0.2380  0.1142  0.5364
 5487SOL     OW28093   1.702   1.937  14.190 -0.4517  0.0159 -0.2019
 5487SOL    HW128094   1.630   1.967  14.246  1.2024  1.1304  1.3523
 5487SOL    HW228095   1.670   1.925  14.101 -2.8932 -0.2676  0.7196
 5488SOL     OW28096   0.907   2.992   1.944 -0.6629  0.4478  0.4701
 5488SOL    HW128097   0.979   3.003   2.007 -0.7841  0.3091  0.6334
 5488SOL    HW228098   0.846   2.954   2.007  1.7075  0.1451  2.5885
 5489SOL     OW28099   4.484   0.195  10.594 -0.4519  0.7752 -0.0850
 5489SOL    HW128100   4.559   0.163  10.544 -1.4836  0.8673 -1.6638
 5489SOL    HW228101   4.423   0.192  10.521  0.3809 -0.8527 -0.7229
 5490SOL     OW28102   3.279   0.621  12.596 -0.6550  0.6627  0.1437
 5490SOL    HW128103   3.193   0.650  12.564 -0.5029  1.0093  0.0491
 5490SOL    HW228104   3.262   0.569  12.674  0.5683  0.3056  0.1717
 5491SOL     OW28105   3.399   3.845   5.978  0.0940 -0.0194  0.0897
 5491SOL    HW128106   3.478   3.815   5.933  1.6411  1.2191  2.0167
 5491SOL    HW228107   3.414   3.800   6.061 -1.7606  1.3574  1.1604
 5492SOL     OW28108   4.400   1.220   5.355 -0.0650 -0.1822  0.0549
 5492SOL    HW128109   4.449   1.160   5.299  0.3118  1.1812 -1.0715
 5492SOL    HW228110   4.471   1.275   5.388 -1.0523  0.7603  0.6122
 5493SOL     OW28111   2.025   0.049   1.797  0.1963  0.5576  0.4841
 5493SOL    HW128112   1.931   0.042   1.814  0.2766  1.9332  1.4417
 5493SOL    HW228113   2.036   4.690   1.787 -2.2622  0.4584 -1.2959
 5494SOL     OW28114   4.253   1.364  16.478 -0.0364 -0.2319  0.1105
 5494SOL    HW128115   4.248   1.367  16.574 -0.9689  1.4645  0.0013
 5494SOL    HW228116   4.202   1.445  16.479  1.1237  0.4657  2.3954
 5495SOL     OW28117   4.667   2.932   8.386 -0.1088 -0.1001  0.3348
 5495SOL    HW128118   4.674   2.846   8.426  0.2338  0.7802  2.1431
 5495SOL    HW228119   0.001   2.984   8.425  0.1316 -0.7946  0.8333
 5496SOL     OW28120   4.706   1.362   8.721  0.5508 -0.3434 -0.6079
 5496SOL    HW128121   4.733   1.388   8.809  0.1408 -0.1654 -0.5378
 5496SOL    HW228122   0.018   1.416   8.659 -0.4291 -0.3890 -1.3937
 5497SOL     OW28123   3.165   1.270   6.395  0.0961  0.1106  0.3140
 5497SOL    HW128124   3.177   1.365   6.400 -1.0053  0.3314 -1.4998
 5497SOL    HW228125   3.247   1.236   6.361 -0.5002 -2.1481  1.1813
 5498SOL     OW28126   1.265   2.835   7.135 -0.7173 -0.1218 -0.0789
 5498SOL    HW128127   1.263   2.929   7.114  0.4917 -0.0168  0.2541
 5498SOL    HW228128   1.309   2.829   7.219  1.4747 -0.3797 -1.2220
 5499SOL     OW28129   0.744   2.123   5.643 -0.2050 -0.6134 -0.4663
 5499SOL    HW128130   0.748   2.138   5.549 -0.4984 -0.6984 -0.4918
 5499SOL    HW228131   0.828   2.165   5.662 -0.7325  0.4434 -0.4651
 5500SOL     OW28132   2.141   0.779  16.575  0.3993  0.3790 -0.0166
 5500SOL    HW128133   2.178   0.786  16.662  1.8828  1.3644 -0.7272
 5500SOL    HW228134   2.147   0.687  16.550  0.4459  0.0984  1.0302
 5501SOL     OW28135   2.683   3.859   5.305 -0.4986 -0.6187  0.6741
 5501SOL    HW128136   2.593   3.825   5.302 -0.9958  0.6945  1.0180
 5501SOL    HW228137   2.714   3.812   5.383  2.2130 -0.4584 -0.3166
 5502SOL     OW28138   3.683   2.857   7.230 -0.1377  0.0904 -0.2501
 5502SOL    HW128139   3.688   2.784   7.292  1.9998  1.4293  1.1817
 5502SOL    HW228140   3.746   2.832   7.163  0.3341  1.3057 -0.2671
 5503SOL     OW28141   3.667   0.730   5.648  0.0543  0.1437 -0.6582
 5503SOL    HW128142   3.578   0.765   5.649  1.5154  3.8759 -0.2801
 5503SOL    HW228143   3.713   0.814   5.646 -0.1991  0.2422 -2.3873
 5504SOL     OW28144   1.403   3.000  14.168  0.0003 -0.3430 -0.8703
 5504SOL    HW128145   1.435   3.064  14.105  2.7035  0.2541  1.1365
 5504SOL    HW228146   1.310   3.022  14.175  0.3894  1.2692 -0.7753
 5505SOL     OW28147   3.733   2.909   4.784 -0.5467 -0.0936  0.2490
 5505SOL    HW128148   3.671   2.873   4.720 -0.3579  0.7050 -0.3764
 5505SOL    HW228149   3.813   2.908   4.733  0.5807  0.7670  2.0052
 5506SOL     OW28150   3.791   3.837  10.234 -0.2357  0.2338 -0.2362
 5506SOL    HW128151   3.803   3.869  10.145  0.5893  1.7008  0.4047
 5506SOL    HW228152   3.813   3.746  10.216  0.9075  0.0946  1.9439
 5507SOL     OW28153   4.379   1.289   7.052 -0.1036  0.0467  0.2693
 5507SOL    HW128154   4.457   1.279   7.108  1.1081  1.5266 -1.1643
 5507SOL    HW228155   4.400   1.364   6.997 -1.1170  0.8677  1.0203
 5508SOL     OW28156   1.739   0.623   9.205  0.2097 -0.6904 -0.0079
 5508SOL    HW128157   1.699   0.693   9.256  1.1018 -1.0181  1.1528
 5508SOL    HW228158   1.673   0.555   9.218  0.3406 -1.0439 -1.2083
 5509SOL     OW28159   2.420   0.737   4.731  0.0101  0.0560  0.6837
 5509SOL    HW128160   2.338   0.776   4.699  0.5740  0.8682  0.2298
 5509SOL    HW228161   2.460   0.728   4.645 -2.0321  2.7362 -0.5697
 5510SOL     OW28162   4.678   4.608  10.122 -0.5009 -0.1060  0.1345
 5510SOL    HW128163   4.705   4.672  10.188  1.5317 -1.5539  0.7146
 5510SOL    HW228164   4.617   4.556  10.174 -0.3322  1.4944  1.8947
 5511SOL     OW28165   3.308   1.268  16.785  0.0718  0.2665  0.4440
 5511SOL    HW128166   3.342   1.249  16.697 -1.2075  0.6940 -0.1613
 5511SOL    HW228167   3.390   1.269  16.834 -1.0723 -3.5568  2.4632
 5512SOL     OW28168   2.500   0.948   9.862  0.2307 -0.1372 -0.6402
 5512SOL    HW128169   2.431   0.960   9.928  0.6478  2.1277 -0.6037
 5512SOL    HW228170   2.468   1.005   9.792  0.1300 -0.0740 -0.5445
 5513SOL     OW28171   1.826   4.331   2.871  0.0358 -0.0331 -0.4739
 5513SOL    HW128172   1.798   4.271   2.802 -0.7490 -0.7024  0.4340
 5513SOL    HW228173   1.900   4.281   2.906  0.3605  0.0864 -0.9810
 5514SOL     OW28174   2.213   0.742   1.519  0.0464  0.1274 -0.2224
 5514SOL    HW128175   2.257   0.773   1.598 -0.9793 -0.1666  0.4578
 5514SOL    HW228176   2.274   0.754   1.446 -0.6081 -0.7576 -0.9115
 5515SOL     OW28177   2.075   4.309  11.664 -0.3327  0.2947  0.1445
 5515SOL    HW128178   2.092   4.215  11.650  1.8742  0.5751  0.8880
 5515SOL    HW228179   2.085   4.329  11.571  0.5912  0.2925  0.2439
 5516SOL     OW28180   1.336   3.675   3.916 -0.0382  0.8694 -0.3441
 5516SOL    HW128181   1.367   3.602   3.969  1.1925  0.6129 -1.4240
 5516SOL    HW228182   1.286   3.621   3.854  0.4949 -1.1962  1.0584
 5517SOL     OW28183   3.934   1.005   6.063  0.0750  0.0208 -0.0964
 5517SOL    HW128184   3.985   1.059   6.003  0.3248 -0.5549 -0.3968
 5517SOL    HW228185   3.923   1.065   6.137  1.0075  2.0781 -1.6527
 5518SOL     OW28186   3.697   0.471  11.571  0.1069  0.3334 -0.2415
 5518SOL    HW128187   3.685   0.391  11.520 -1.2009 -0.3824  1.1916
 5518SOL    HW228188   3.777   0.499  11.527  0.6268  1.8097  1.6630
 5519SOL     OW28189   3.844   1.476   2.774  1.0176 -0.0721  0.0999
 5519SOL    HW128190   3.858   1.563   2.736  1.7272 -0.3810 -0.3554
 5519SOL    HW228191   3.856   1.492   2.868 -0.8205  0.6331  0.2004
 5520SOL     OW28192   1.530   3.280   7.168  0.2005 -0.0313 -0.0170
 5520SOL    HW128193   1.517   3.292   7.262  3.5634 -1.7866  0.6684
 5520SOL    HW228194   1.480   3.355   7.134  2.8544  0.5258 -2.6888
 5521SOL     OW28195   2.283   4.505   5.345  0.7854 -0.0775  0.1508
 5521SOL    HW128196   2.311   4.591   5.312  0.9816 -0.5359 -0.8677
 5521SOL    HW228197   2.253   4.472   5.260 -2.6404  0.4512  1.1301
 5522SOL     OW28198   4.516   3.280   7.635 -0.4774 -0.4060 -0.0459
 5522SOL    HW128199   4.502   3.185   7.641  0.0765 -0.4821  0.0378
 5522SOL    HW228200   4.610   3.285   7.617 -0.7181 -0.1271 -1.2293
 5523SOL     OW28201   2.040   4.710   8.201 -0.2017 -0.1640  0.1996
 5523SOL    HW128202   2.105   0.041   8.177 -0.8184 -0.5131 -2.3413
 5523SOL    HW228203   2.007   4.697   8.112  0.7703 -0.4275 -0.1249
 5524SOL     OW28204   2.638   0.301   4.577  0.4184  0.1812  0.3254
 5524SOL    HW128205   2.703   0.242   4.538  0.7997 -0.1657  1.5114
 5524SOL    HW228206   2.559   0.277   4.528  1.4743 -3.7917  0.5748
 5525SOL     OW28207   2.060   2.415  15.222 -0.3791 -0.0267 -0.5470
 5525SOL    HW128208   2.075   2.462  15.304 -0.0406  2.8822 -2.3133
 5525SOL    HW228209   1.964   2.415  15.226 -0.2177  0.8352  3.7729
 5526SOL     OW28210   3.765   2.932   8.706  0.6501 -0.3325 -0.2245
 5526SOL    HW128211   3.721   3.011   8.737 -0.4037 -1.1287  0.3208
 5526SOL    HW228212   3.698   2.912   8.640 -0.2384  1.3259  0.1682
 5527SOL     OW28213   2.038   4.006   8.326  0.6550  0.3084 -0.4526
 5527SOL    HW128214   1.999   4.046   8.404 -1.1191 -1.0294 -0.6648
 5527SOL    HW228215   2.132   4.025   8.328  1.2248 -2.6804  0.8018
 5528SOL     OW28216   1.875   0.543  14.641 -0.1506  0.0052 -0.6547
 5528SOL    HW128217   1.925   0.614  14.600  1.5435 -1.0638 -0.4301
 5528SOL    HW228218   1.925   0.462  14.641 -1.3124 -0.7225 -1.4913
 5529SOL     OW28219   2.967   3.335   7.383 -0.0135 -0.0602 -0.1916
 5529SOL    HW128220   2.883   3.299   7.411  0.9850 -2.9340 -0.8884
 5529SOL    HW228221   2.996   3.268   7.322 -2.3597 -0.1681 -1.1820
 5530SOL     OW28222   0.559   0.031  16.070  0.1153  0.2494 -0.3361
 5530SOL    HW128223   0.611   4.705  16.019  0.6655  0.6471 -0.2592
 5530SOL    HW228224   0.488   0.061  16.013  1.6826  1.0180 -1.8838
 5531SOL     OW28225   2.196   0.136  14.728 -0.8905 -0.2141 -0.7900
 5531SOL    HW128226   2.103   0.126  14.752 -0.1054 -0.5854  2.0997
 5531SOL    HW228227   2.179   0.197  14.656 -2.8658  1.2011  0.8544
 5532SOL     OW28228   0.564   2.089   6.692 -0.0160  0.3585 -0.2540
 5532SOL    HW128229   0.585   2.168   6.742  0.5299  0.0452  0.0111
 5532SOL    HW228230   0.592   2.019   6.751 -0.9502  0.9982  0.9264
 5533SOL     OW28231   0.275   2.082   4.456 -0.4635 -0.2027  0.1541
 5533SOL    HW128232   0.194   2.034   4.444 -1.6376  2.3849 -2.1531
 5533SOL    HW228233   0.258   2.128   4.539 -0.6981 -1.3849  0.7711
 5534SOL     OW28234   0.586   2.258  10.494  0.7449 -0.2917 -0.0521
 5534SOL    HW128235   0.675   2.288  10.475  1.1403 -0.9332  0.7949
 5534SOL    HW228236   0.555   2.217  10.413  1.5447 -2.2081  0.6220
 5535SOL     OW28237   3.884   0.597   7.324  0.5562 -0.2752 -0.1541
 5535SOL    HW128238   3.791   0.615   7.338  0.1358 -1.0364 -2.0377
 5535SOL    HW228239   3.895   0.645   7.242 -2.0099 -0.7413 -0.7808
 5536SOL     OW28240   0.775   4.389  11.464 -0.0459 -0.3493 -0.0300
 5536SOL    HW128241   0.707   4.376  11.397  0.0231 -2.2200  0.2640
 5536SOL    HW228242   0.728   4.435  11.534  0.4466 -1.9754  1.3533
 5537SOL     OW28243   1.166   3.988   5.564  0.6633 -0.8152 -0.0774
 5537SOL    HW128244   1.082   3.960   5.526  0.0389  1.2776 -0.2460
 5537SOL    HW228245   1.213   3.992   5.481 -0.6913  0.6047 -0.7856
 5538SOL     OW28246   4.297   1.283  11.301 -0.8672  0.5805  0.0891
 5538SOL    HW128247   4.333   1.345  11.364  1.9875  0.6093 -1.5468
 5538SOL    HW228248   4.277   1.212  11.361  2.2447 -0.8860 -0.5808
 5539SOL     OW28249   2.545   2.341   9.612 -0.1868 -0.3524  0.1244
 5539SOL    HW128250   2.504   2.370   9.531  0.7401 -0.9947 -0.5604
 5539SOL    HW228251   2.494   2.394   9.674  1.2989 -0.6871  1.6580
 5540SOL     OW28252   0.694   3.990   7.372 -0.3250  0.4268 -0.1294
 5540SOL    HW128253   0.785   3.979   7.347 -0.1991  0.5856  0.2606
 5540SOL    HW228254   0.675   4.064   7.314  0.5244 -0.0750 -1.0339
 5541SOL     OW28255   3.017   4.608  14.366 -0.5000 -0.6169  0.6443
 5541SOL    HW128256   3.072   4.593  14.289  0.5649  2.1075  0.8868
 5541SOL    HW228257   2.977   4.521  14.368  1.1896 -1.2612  4.5425
 5542SOL     OW28258   1.095   0.757   3.399 -0.3995 -0.5837  0.2811
 5542SOL    HW128259   1.042   0.687   3.437 -1.2598  0.8016  1.6262
 5542SOL    HW228260   1.056   0.754   3.311 -0.6918  0.6878  0.3705
 5543SOL     OW28261   4.483   3.268   8.148  0.7232  0.4782  0.4690
 5543SOL    HW128262   4.485   3.176   8.174 -0.0411 -0.4152 -2.5920
 5543SOL    HW228263   4.544   3.255   8.075 -1.3520 -0.6359 -1.0529
 5544SOL     OW28264   3.645   2.684   6.903  0.1232  0.8433 -0.7644
 5544SOL    HW128265   3.662   2.700   6.810  3.1061  0.1997 -0.3284
 5544SOL    HW228266   3.620   2.592   6.896 -1.4724  1.1533  0.9566
 5545SOL     OW28267   0.693   0.357   4.757 -0.1808  0.4123 -0.3689
 5545SOL    HW128268   0.788   0.353   4.760 -0.2281  0.1015  0.5091
 5545SOL    HW228269   0.664   0.301   4.684  1.2545  0.5230 -1.0127
 5546SOL     OW28270   2.413   0.549   1.391 -0.3301  0.2800 -0.1924
 5546SOL    HW128271   2.354   0.514   1.325  1.1659  0.5373 -1.6428
 5546SOL    HW228272   2.384   0.641   1.393 -0.9170  0.0616  1.4950
 5547SOL     OW28273   1.007   4.351   4.061  0.0866  0.2980  0.0651
 5547SOL    HW128274   1.029   4.401   4.139 -1.3866  2.9390 -1.2069
 5547SOL    HW228275   1.068   4.278   4.068  0.9052  1.2667  2.9471
 5548SOL     OW28276   3.541   0.074   8.521 -0.1737 -0.0376 -0.3765
 5548SOL    HW128277   3.611   0.030   8.472 -0.1425 -2.4829  1.8231
 5548SOL    HW228278   3.588   0.083   8.605 -0.5512  1.6590 -0.3522
 5549SOL     OW28279   0.193   3.936   2.080  0.2466 -0.1098 -0.1216
 5549SOL    HW128280   0.104   3.967   2.061 -0.7227 -0.4159  3.9846
 5549SOL    HW228281   0.198   3.946   2.175  1.3580 -1.7270 -0.0203
 5550SOL     OW28282   4.327   1.084   1.943 -0.1234  0.8025  0.3140
 5550SOL    HW128283   4.399   1.054   1.999  1.3432 -1.2828 -2.7107
 5550SOL    HW228284   4.260   1.089   2.012 -0.2339 -0.7147  0.3239
 5551SOL     OW28285   4.410   0.927   9.126 -0.3842  0.3809 -0.2015
 5551SOL    HW128286   4.495   0.965   9.102 -0.0709 -1.2383 -1.6664
 5551SOL    HW228287   4.361   0.933   9.044  3.3820  4.2266 -2.2147
 5552SOL     OW28288   0.633   0.574   5.408  0.6661 -0.2513 -0.9806
 5552SOL    HW128289   0.718   0.617   5.412 -0.0561  1.0845  0.0601
 5552SOL    HW228290   0.656   0.500   5.465 -1.2808 -0.5132 -0.5240
 5553SOL     OW28291   1.163   1.035  14.450  0.4686 -0.2505  0.1503
 5553SOL    HW128292   1.071   1.009  14.448  0.7452 -1.1411 -0.7655
 5553SOL    HW228293   1.170   1.069  14.361  0.0949  0.2068  0.2916
 5554SOL     OW28294   4.371   0.594   1.276 -0.0391  0.4357 -0.2642
 5554SOL    HW128295   4.399   0.503   1.284 -0.0978  0.4302 -0.1221
 5554SOL    HW228296   4.438   0.636   1.330 -2.0549  0.6694  2.0606
 5555SOL     OW28297   2.226   0.227   7.882  0.5441 -0.2082  0.0233
 5555SOL    HW128298   2.233   0.283   7.805 -2.1201 -0.4192 -0.3697
 5555SOL    HW228299   2.266   0.148   7.844  2.7489 -0.5122  2.9806
 5556SOL     OW28300   3.762   1.143   2.896  0.8726 -0.5107 -0.5839
 5556SOL    HW128301   3.693   1.171   2.837 -1.1739  1.6404  2.8181
 5556SOL    HW228302   3.818   1.220   2.902  0.5105 -0.3779  1.1650
 5557SOL     OW28303   1.352   2.430   6.090  0.5216  0.1201 -0.6287
 5557SOL    HW128304   1.380   2.475   6.170 -0.5675  1.3820 -0.9585
 5557SOL    HW228305   1.439   2.417   6.051  0.7088  2.4801 -0.9920
 5558SOL     OW28306   2.428   0.599  16.539  0.2445  0.1377 -0.2999
 5558SOL    HW128307   2.341   0.563  16.559 -0.3545  0.7704 -1.7334
 5558SOL    HW228308   2.433   0.667  16.607 -3.2613  2.2082 -2.1015
 5559SOL     OW28309   0.547   0.900   3.591 -0.0569 -0.0836  0.3399
 5559SOL    HW128310   0.546   0.963   3.663  3.6755  0.3592 -0.0312
 5559SOL    HW228311   0.454   0.891   3.570  0.0515 -1.7482  0.5705
 5560SOL     OW28312   2.554   1.730   8.633 -0.0683  0.6017 -0.5540
 5560SOL    HW128313   2.635   1.695   8.599  0.1751  0.8066 -0.1847
 5560SOL    HW228314   2.535   1.800   8.570  1.9080  0.2291 -1.5442
 5561SOL     OW28315   3.120   3.238   3.856 -0.1832  0.1571 -0.5688
 5561SOL    HW128316   3.040   3.202   3.817 -1.1026 -2.4540  3.7419
 5561SOL    HW228317   3.097   3.241   3.949 -1.8377 -0.7841 -0.9520
 5562SOL     OW28318   0.550   0.402   6.292  0.0826 -0.1335  0.1782
 5562SOL    HW128319   0.529   0.486   6.334 -0.9221 -0.6029  0.6043
 5562SOL    HW228320   0.474   0.358   6.329  1.2760 -2.4136 -0.1093
 5563SOL     OW28321   4.638   1.603   4.413 -0.7815  0.2248  0.3643
 5563SOL    HW128322   4.616   1.663   4.342  0.5439 -0.7009 -0.8236
 5563SOL    HW228323   4.681   1.536   4.360  0.3412  0.2552  1.2507
 5564SOL     OW28324   3.215   2.774   2.853  0.0680 -0.0325 -0.1297
 5564SOL    HW128325   3.122   2.755   2.840  0.1370  0.5295 -1.4407
 5564SOL    HW228326   3.256   2.689   2.839 -0.3722 -0.0919 -1.0388
 5565SOL     OW28327   1.839   3.971   4.883  0.2213 -0.0250 -0.2572
 5565SOL    HW128328   1.804   3.923   4.958 -0.3342  1.9291  0.7413
 5565SOL    HW228329   1.822   4.060   4.916 -1.1305 -0.8906  1.4321
 5566SOL     OW28330   2.438   0.742  16.214  0.2285  0.3019 -0.1226
 5566SOL    HW128331   2.420   0.689  16.137  0.8058  3.0418 -2.1173
 5566SOL    HW228332   2.499   0.685  16.261  1.2339  0.3276 -1.4099
 5567SOL     OW28333   0.980   0.851   6.343  0.1399  0.2772  0.0487
 5567SOL    HW128334   0.992   0.785   6.275  1.5486 -0.3943  0.9572
 5567SOL    HW228335   1.073   0.860   6.364  0.5267 -1.5973 -0.8889
 5568SOL     OW28336   1.478   0.600   0.219 -0.2157 -0.0610  0.2709
 5568SOL    HW128337   1.411   0.534   0.201  0.7406 -1.5686  2.3614
 5568SOL    HW228338   1.559   0.549   0.221 -0.8710 -1.0306  1.3984
 5569SOL     OW28339   0.266   3.565  14.292 -0.5845 -0.1563 -0.1881
 5569SOL    HW128340   0.342   3.517  14.262 -0.7183 -1.8221  2.1378
 5569SOL    HW228341   0.272   3.640  14.232  0.9623 -0.8244 -0.8431
 5570SOL     OW28342   0.241   3.605   3.382 -0.4140  0.2929  0.0061
 5570SOL    HW128343   0.174   3.655   3.429  0.2856  1.2939 -0.0646
 5570SOL    HW228344   0.314   3.663   3.363  0.4224 -0.7935 -0.1205
 5571SOL     OW28345   1.751   1.142   3.222 -0.2895  0.1312 -0.1933
 5571SOL    HW128346   1.722   1.225   3.260  0.1991  0.6044 -0.8424
 5571SOL    HW228347   1.798   1.100   3.293 -2.1618 -0.7731  0.4936
 5572SOL     OW28348   0.622   2.969   3.628 -0.7738  0.3605 -0.0656
 5572SOL    HW128349   0.679   2.937   3.698  1.0322  0.2540 -1.5820
 5572SOL    HW228350   0.664   3.053   3.612  1.3032 -0.4648  1.0169
 5573SOL     OW28351   1.991   0.231   5.325 -0.3018 -0.0310  1.0310
 5573SOL    HW128352   1.916   0.290   5.334 -1.1815 -0.9211 -0.4791
 5573SOL    HW228353   2.046   0.267   5.395 -0.8642 -0.3458  1.6258
 5574SOL     OW28354   0.132   3.456   3.695  0.1039  1.2682 -0.0324
 5574SOL    HW128355   0.216   3.445   3.650  0.8924 -1.5145  2.0866
 5574SOL    HW228356   0.147   3.486   3.784  2.2692  0.5034 -0.1366
 5575SOL     OW28357   0.693   3.472   7.084  0.2356  0.5010 -0.7387
 5575SOL    HW128358   0.656   3.391   7.117 -0.1156  0.6433 -0.7855
 5575SOL    HW228359   0.623   3.510   7.030 -1.1465  0.8943  1.3310
 5576SOL     OW28360   1.867   1.538   8.545 -0.1096 -0.1545 -0.7228
 5576SOL    HW128361   1.853   1.623   8.586 -0.6304  0.1044 -1.4311
 5576SOL    HW228362   1.896   1.557   8.456 -1.3233 -0.5325 -1.1917
 5577SOL     OW28363   0.908   3.628  17.655  0.3763  0.1033 -0.1972
 5577SOL    HW128364   0.818   3.658  17.645 -0.2562 -1.6115  0.2606
 5577SOL    HW228365   0.952   3.654  17.574  0.0026  0.8844 -0.1482
 5578SOL     OW28366   1.489   3.272   3.020  0.2298 -0.4275 -0.8838
 5578SOL    HW128367   1.411   3.320   3.047  1.7182  1.0158  0.7983
 5578SOL    HW228368   1.544   3.289   3.096 -0.2281 -0.4466 -0.5500
 5579SOL     OW28369   3.704   3.651  11.410  0.2636  0.2703  0.5493
 5579SOL    HW128370   3.660   3.709  11.471  1.2662  1.6464 -0.0391
 5579SOL    HW228371   3.788   3.696  11.410  1.4264 -1.8628 -1.7461
 5580SOL     OW28372   0.835   1.508   1.741 -0.4422  0.1935  0.0531
 5580SOL    HW128373   0.867   1.591   1.777  0.3617 -1.4336  3.1017
 5580SOL    HW228374   0.876   1.500   1.655  0.8097 -0.6822  0.7247
 5581SOL     OW28375   3.499   3.840  15.101  0.0777  0.2473  0.2964
 5581SOL    HW128376   3.413   3.839  15.060 -0.0639  0.4325  0.5844
 5581SOL    HW228377   3.508   3.926  15.142  0.9569  0.9680 -1.4067
 5582SOL     OW28378   0.495   3.697   2.284  0.1677  0.3344  0.4082
 5582SOL    HW128379   0.405   3.705   2.314 -0.1537 -0.4622 -0.3439
 5582SOL    HW228380   0.534   3.737   2.362  0.9651 -0.7613  0.5676
 5583SOL     OW28381   4.587   2.418   3.284  0.2045 -0.3313  0.0787
 5583SOL    HW128382   4.637   2.410   3.365 -1.7612  0.2600  1.3619
 5583SOL    HW228383   4.604   2.511   3.272 -0.9797  0.0683  1.4491
 5584SOL     OW28384   4.431   1.077   2.587  0.3978 -0.2261 -0.1262
 5584SOL    HW128385   4.505   1.087   2.647 -0.5141  1.0269  0.7981
 5584SOL    HW228386   4.467   1.075   2.499  1.4744  0.9711  0.2990
 5585SOL     OW28387   2.049   1.210   3.696  0.0793  0.1040  0.3236
 5585SOL    HW128388   2.095   1.157   3.631  0.0820 -0.5496  0.8618
 5585SOL    HW228389   2.108   1.185   3.766  0.1944 -1.3587 -0.2985
 5586SOL     OW28390   4.386   1.461  16.271  0.3397  0.2447 -0.0611
 5586SOL    HW128391   4.327   1.453  16.346  1.2038  2.8679  0.9325
 5586SOL    HW228392   4.377   1.377  16.226  1.0123  0.2697 -0.2426
 5587SOL     OW28393   0.813   0.087   9.516  0.3719 -0.0645  0.0341
 5587SOL    HW128394   0.754   0.132   9.456 -1.4587 -0.9375  1.1703
 5587SOL    HW228395   0.896   0.080   9.469  0.6385 -0.3299  0.5375
 5588SOL     OW28396   0.635   4.331   9.914  0.1340 -0.0600  0.5116
 5588SOL    HW128397   0.572   4.278   9.864 -0.4725  0.2663  0.9344
 5588SOL    HW228398   0.578   4.356   9.986  2.1912  1.6086  1.5513
 5589SOL     OW28399   2.986   0.797   9.761 -0.1415  0.0313  0.0809
 5589SOL    HW128400   2.959   0.738   9.832  0.4253 -1.0632 -0.6192
 5589SOL    HW228401   2.902   0.836   9.736 -0.8781 -1.2659  0.5311
 5590SOL     OW28402   2.232   4.702   5.701 -0.0188  0.2013  0.1597
 5590SOL    HW128403   2.298   4.652   5.652 -0.0819 -1.3776  1.7020
 5590SOL    HW228404   2.253   4.675   5.790 -1.2487 -0.1702  0.3357
 5591SOL     OW28405   2.226   3.524   5.131  0.1701  0.0716 -0.2892
 5591SOL    HW128406   2.310   3.565   5.152  0.4756 -1.5503  1.7413
 5591SOL    HW228407   2.245   3.431   5.145 -0.4763 -0.4196 -2.6531
 5592SOL     OW28408   4.632   0.784   8.858  0.3753 -0.2197 -0.4324
 5592SOL    HW128409   4.654   0.862   8.910 -3.3941  1.1151 -0.7748
 5592SOL    HW228410   4.647   0.722   8.929 -0.8571  1.0891  0.9789
 5593SOL     OW28411   3.420   2.404  13.374  0.3167  0.3732 -0.1343
 5593SOL    HW128412   3.502   2.454  13.377  1.6074 -1.6896 -1.2321
 5593SOL    HW228413   3.439   2.328  13.319 -2.2687  1.2331 -2.1941
 5594SOL     OW28414   0.552   2.096   0.060 -0.2453 -0.2994  0.0280
 5594SOL    HW128415   0.464   2.134   0.065  0.6047  1.7325 -0.4158
 5594SOL    HW228416   0.529   2.005   0.074 -1.1346 -0.7302 -4.1109
 5595SOL     OW28417   0.508   0.350   9.123 -0.0229  0.4520  0.1668
 5595SOL    HW128418   0.515   0.294   9.046 -0.8381  1.3483 -0.5681
 5595SOL    HW228419   0.414   0.357   9.138  0.1722 -0.7343  1.9785
 5596SOL     OW28420   1.271   1.639   6.466 -0.0577 -0.1433  0.5083
 5596SOL    HW128421   1.304   1.554   6.439 -0.3145  0.8066 -2.7943
 5596SOL    HW228422   1.315   1.702   6.408 -1.9853 -0.1457 -0.9613
 5597SOL     OW28423   0.195   3.556  10.288 -0.2824 -0.9834 -0.3269
 5597SOL    HW128424   0.148   3.475  10.309 -1.7146  0.0242  0.3578
 5597SOL    HW228425   0.167   3.607  10.364  2.0121 -0.0289 -0.1254
 5598SOL     OW28426   3.122   1.133   2.417  0.3125  0.1969  0.0920
 5598SOL    HW128427   3.205   1.181   2.414  1.6524 -2.0192  1.8295
 5598SOL    HW228428   3.059   1.194   2.378  0.3848  2.1074  2.9574
 5599SOL     OW28429   0.586   0.863   2.546  0.1483 -0.7876  0.1166
 5599SOL    HW128430   0.519   0.819   2.598 -0.7813  1.3883  0.7444
 5599SOL    HW228431   0.590   0.813   2.464 -1.5638 -0.7150 -0.0065
 5600SOL     OW28432   3.665   2.293  17.712 -0.0222 -0.4802 -0.4598
 5600SOL    HW128433   3.614   2.373  17.723  0.6860  0.0102 -0.7746
 5600SOL    HW228434   3.753   2.326  17.694  0.0754  1.5265  3.6280
 5601SOL     OW28435   0.631   1.184  12.333 -0.0690 -0.0925 -0.1937
 5601SOL    HW128436   0.705   1.178  12.393  1.5661  3.2787 -1.8754
 5601SOL    HW228437   0.617   1.090  12.320  0.9997 -0.3804  0.7653
 5602SOL     OW28438   2.618   4.053   2.948  0.8730 -0.0452 -0.3670
 5602SOL    HW128439   2.641   4.011   3.031  0.3113 -1.3425 -0.8649
 5602SOL    HW228440   2.654   4.140   2.967  1.1175 -0.0756 -0.6819
 5603SOL     OW28441   3.725   4.732   4.966  0.4093 -0.5511 -0.5718
 5603SOL    HW128442   3.772   4.686   5.036 -0.7198 -0.6784  0.0994
 5603SOL    HW228443   3.788   4.715   4.895 -0.3057  1.9714 -1.8133
 5604SOL     OW28444   0.048   2.992   5.374  0.3790  0.1373 -0.3674
 5604SOL    HW128445   0.126   3.020   5.326 -0.0942 -0.1677 -1.3021
 5604SOL    HW228446   0.015   3.081   5.389 -0.9321 -0.3243 -0.5249
 5605SOL     OW28447   4.709   3.003   9.398 -0.0501  0.0079  0.3828
 5605SOL    HW128448   4.646   2.936   9.425  1.1286 -1.2805 -0.0819
 5605SOL    HW228449   4.678   3.087   9.433 -1.7095 -0.3612 -0.1852
 5606SOL     OW28450   2.792   1.336  14.995 -0.3318 -0.0456  0.0379
 5606SOL    HW128451   2.852   1.330  15.069 -0.4055  4.1960  0.4666
 5606SOL    HW228452   2.750   1.422  14.996  0.5259  0.4129 -2.1002
 5607SOL     OW28453   0.617   2.385  14.723 -0.7962  0.2564 -0.7365
 5607SOL    HW128454   0.628   2.442  14.799 -1.1073  0.1761 -0.6316
 5607SOL    HW228455   0.523   2.373  14.738 -0.7177 -2.2595 -2.1565
 5608SOL     OW28456   4.612   4.185   7.970 -0.2893 -0.2960 -0.2608
 5608SOL    HW128457   4.578   4.170   8.058  0.2177  0.3163  0.0408
 5608SOL    HW228458   4.706   4.183   7.984 -0.4159 -1.1021  0.4136
 5609SOL     OW28459   3.462   3.129   1.613 -0.1957 -0.5597  0.4242
 5609SOL    HW128460   3.492   3.139   1.703  1.7635  0.5117 -0.3730
 5609SOL    HW228461   3.436   3.036   1.610 -0.7189 -0.3648 -1.3998
 5610SOL     OW28462   2.401   1.067  11.497  0.5914 -0.2073 -0.4223
 5610SOL    HW128463   2.338   1.138  11.509 -0.8101 -1.4862 -0.2501
 5610SOL    HW228464   2.456   1.093  11.423  0.5734 -1.9709 -1.0339
 5611SOL     OW28465   0.266   3.419  17.395 -0.1109 -0.4994  0.9150
 5611SOL    HW128466   0.314   3.363  17.455  1.4641 -1.8750 -1.6148
 5611SOL    HW228467   0.188   3.368  17.377 -1.0264  0.4612  2.1932
 5612SOL     OW28468   0.294   3.795   4.969 -0.3095  0.3195 -0.4374
 5612SOL    HW128469   0.327   3.796   4.879 -2.0522 -0.9730 -1.0993
 5612SOL    HW228470   0.257   3.883   4.971  0.2755  0.5538  0.1117
 5613SOL     OW28471   4.466   3.788   1.990 -0.1129  0.4060  0.1834
 5613SOL    HW128472   4.465   3.883   1.999 -1.1821  0.4992 -0.9614
 5613SOL    HW228473   4.381   3.781   1.948  0.2185 -0.5964 -0.3395
 5614SOL     OW28474   4.147   3.035  14.973  0.2410 -0.1467 -0.1498
 5614SOL    HW128475   4.211   3.018  15.042 -0.7305 -2.0210  0.2894
 5614SOL    HW228476   4.201   3.060  14.898  0.5539 -0.3299  0.0167
 5615SOL     OW28477   4.550   0.239   5.746  0.6722 -0.2669  0.2620
 5615SOL    HW128478   4.493   0.162   5.741  1.6275 -1.0268  1.1381
 5615SOL    HW228479   4.561   0.255   5.652  0.8780 -0.6717  0.2190
 5616SOL     OW28480   0.621   2.756   7.357 -0.1197 -0.7498  0.4273
 5616SOL    HW128481   0.692   2.812   7.326  0.5590 -1.7536  0.2175
 5616SOL    HW228482   0.665   2.672   7.349  1.6956 -0.0127  2.6451
 5617SOL     OW28483   4.111   0.617   2.545  0.5131 -0.1141  0.4112
 5617SOL    HW128484   4.128   0.710   2.559  0.1357  0.0595 -0.3162
 5617SOL    HW228485   4.035   0.623   2.487  2.2967  1.6987 -1.7408
 5618SOL     OW28486   3.977   0.125   6.067  0.7154  0.1443 -0.2534
 5618SOL    HW128487   3.964   0.103   5.974 -2.2696  0.8866  0.0116
 5618SOL    HW228488   4.003   0.217   6.058 -0.2360  0.3872 -0.4919
 5619SOL     OW28489   4.356   0.184  10.359  0.0537 -0.0606  0.2242
 5619SOL    HW128490   4.341   0.275  10.335 -0.2443 -0.3972 -0.8732
 5619SOL    HW228491   4.270   0.142  10.370  0.9978 -2.7125 -2.2803
 5620SOL     OW28492   2.222   0.406  10.828  0.2612  0.0518 -0.1026
 5620SOL    HW128493   2.195   0.475  10.888  0.5255 -1.8866  2.2578
 5620SOL    HW228494   2.168   0.333  10.860 -0.7627 -0.0322 -2.0669
 5621SOL     OW28495   4.033   3.827   3.641 -0.1415 -0.0138 -0.0690
 5621SOL    HW128496   3.985   3.747   3.665 -0.5245 -0.3057 -1.7949
 5621SOL    HW228497   3.963   3.877   3.597  1.6690  3.2118  0.7284
 5622SOL     OW28498   4.163   0.366  13.067 -0.7000 -0.1725  0.4427
 5622SOL    HW128499   4.218   0.354  13.145 -0.9427 -3.1049  0.1547
 5622SOL    HW228500   4.216   0.329  12.997 -0.3343 -0.3763  0.8247
 5623SOL     OW28501   4.216   2.869   7.023  0.0382 -0.3478  0.2266
 5623SOL    HW128502   4.306   2.881   6.993  0.3504  0.7376  1.6503
 5623SOL    HW228503   4.171   2.896   6.943  2.0395  1.5673 -0.2433
 5624SOL     OW28504   2.225   2.478   8.813  0.2303  0.3052  0.0400
 5624SOL    HW128505   2.146   2.447   8.857 -0.0157  1.1214  0.1673
 5624SOL    HW228506   2.292   2.483   8.881 -1.8922 -0.6005  2.1858
 5625SOL     OW28507   4.551   1.564   3.233  0.8347  0.0754 -0.1198
 5625SOL    HW128508   4.595   1.600   3.310 -2.2424  1.0589  1.2036
 5625SOL    HW228509   4.459   1.555   3.260  0.3501  0.4143 -1.6279
 5626SOL     OW28510   4.100   2.862   1.883  0.3615 -0.5346 -0.0490
 5626SOL    HW128511   4.151   2.922   1.937 -0.7205  1.2894 -1.0542
 5626SOL    HW228512   4.012   2.895   1.903  1.2174  1.6315  0.1788
 5627SOL     OW28513   1.087   0.357   5.508  0.6682 -0.4070  0.1065
 5627SOL    HW128514   1.025   0.367   5.435 -0.3625 -2.4082  0.7011
 5627SOL    HW228515   1.128   0.441   5.492 -0.3159  0.0264 -0.1771
 5628SOL     OW28516   3.210   2.959   9.063 -0.0895 -0.5936 -0.0807
 5628SOL    HW128517   3.286   2.928   9.012  0.3507  0.5283 -0.1019
 5628SOL    HW228518   3.152   2.883   9.067 -0.4559 -0.1613  2.7343
 5629SOL     OW28519   1.437   0.714   4.826 -0.1441  0.6135  0.2631
 5629SOL    HW128520   1.533   0.710   4.827 -0.1312  0.9726  0.3882
 5629SOL    HW228521   1.425   0.765   4.746  1.2862  1.8460  0.8425
 5630SOL     OW28522   3.883   4.056   7.979 -0.0022 -0.1820  0.5538
 5630SOL    HW128523   3.923   4.023   8.060 -0.0280  0.3230  0.7751
 5630SOL    HW228524   3.852   3.972   7.945 -1.0507  0.3148  0.2904
 5631SOL     OW28525   1.429   0.524  16.335  0.3340  0.5636 -0.1132
 5631SOL    HW128526   1.356   0.567  16.379 -1.5968 -3.6166  0.8029
 5631SOL    HW228527   1.451   0.590  16.269 -2.0750 -0.1608 -1.6253
 5632SOL     OW28528   4.237   2.550   4.332 -0.2083 -0.5937  0.0765
 5632SOL    HW128529   4.162   2.570   4.277  0.4061 -1.1656 -0.9620
 5632SOL    HW228530   4.288   2.629   4.317 -0.5798 -0.5673 -1.0449
 5633SOL     OW28531   2.515   4.590   0.950 -0.2800 -0.0523  0.6527
 5633SOL    HW128532   2.540   4.636   1.030  3.3789  0.5047 -0.8155
 5633SOL    HW228533   2.539   4.653   0.883  1.0085 -1.7357 -0.4609
 5634SOL     OW28534   0.707   2.509   7.288 -0.1721 -0.3394  0.2321
 5634SOL    HW128535   0.789   2.466   7.266 -0.4907 -0.7986 -0.0647
 5634SOL    HW228536   0.674   2.496   7.199 -1.6139 -0.9588  0.8502
 5635SOL     OW28537   1.849   1.112   7.302  0.3054  0.2982  0.4932
 5635SOL    HW128538   1.840   1.198   7.262  2.1088 -0.2030 -0.9686
 5635SOL    HW228539   1.762   1.105   7.341  0.4950  3.2953  1.4323
 5636SOL     OW28540   3.390   1.294   8.571 -0.0625 -0.2966  0.1416
 5636SOL    HW128541   3.400   1.382   8.608  0.7837 -0.7515  1.0248
 5636SOL    HW228542   3.385   1.244   8.652 -0.6799 -0.7764 -0.1944
 5637SOL     OW28543   3.521   0.944   8.313 -0.1588  0.1588  0.6007
 5637SOL    HW128544   3.587   0.938   8.245  0.6796  1.3649  1.3197
 5637SOL    HW228545   3.456   1.004   8.276  0.5096 -0.0201 -0.8453
 5638SOL     OW28546   0.115   1.471   1.241 -0.1976  0.4790  0.0124
 5638SOL    HW128547   0.070   1.552   1.217 -0.8725 -0.3938 -1.6350
 5638SOL    HW228548   0.072   1.460   1.326 -0.6317 -0.8870 -0.3883
 5639SOL     OW28549   4.093   4.094   9.681  0.6385 -0.3822 -0.2327
 5639SOL    HW128550   4.177   4.111   9.638  0.8467 -0.1315  0.2732
 5639SOL    HW228551   4.093   4.000   9.663 -0.3193 -0.7835  1.9470
 5640SOL     OW28552   2.801   3.882   7.996 -0.3627 -0.1478 -0.6500
 5640SOL    HW128553   2.783   3.814   8.061  1.0967 -0.5842 -0.6873
 5640SOL    HW228554   2.729   3.945   7.999  1.3314  1.8005 -0.9206
 5641SOL     OW28555   3.128   1.125   3.487  0.7511 -0.2254  0.0743
 5641SOL    HW128556   3.055   1.101   3.545  0.9103 -0.1005  0.3280
 5641SOL    HW228557   3.155   1.205   3.532  0.4268  0.4691 -0.9680
 5642SOL     OW28558   4.644   4.202   9.560 -0.1058 -0.1394  0.7594
 5642SOL    HW128559   4.588   4.259   9.613 -0.4168  0.9769 -0.7409
 5642SOL    HW228560   4.690   4.154   9.628 -0.1296  2.3394  2.5113
 5643SOL     OW28561   0.222   0.135  12.296 -0.6296  0.3576 -0.3080
 5643SOL    HW128562   0.237   0.042  12.277  0.1662  0.2079  1.0720
 5643SOL    HW228563   0.298   0.151  12.352 -0.3023  1.1858 -0.9912
 5644SOL     OW28564   4.255   3.815   1.826 -0.0515  0.1543  0.1046
 5644SOL    HW128565   4.258   3.767   1.743  1.2146 -0.8333  0.7217
 5644SOL    HW228566   4.210   3.897   1.803  0.3944  0.0553 -1.1325
 5645SOL     OW28567   0.897   3.095  17.372  0.1911  0.2431  0.3233
 5645SOL    HW128568   0.983   3.058  17.392 -0.1419  0.6123  2.4640
 5645SOL    HW228569   0.873   3.135  17.455  1.4698  0.6185  0.5119
 5646SOL     OW28570   2.582   4.647   4.183  0.2480 -0.1074  0.0279
 5646SOL    HW128571   2.601   4.564   4.139 -0.7192 -1.3802  2.0072
 5646SOL    HW228572   2.600   4.696   4.103 -1.1222  0.7717  0.2771
 5647SOL     OW28573   2.768   4.694   6.086 -0.1008  0.2364 -0.7191
 5647SOL    HW128574   2.858   4.724   6.073  0.8753 -3.1778 -1.8566
 5647SOL    HW228575   2.722   0.004   6.015 -2.1970 -0.7793 -0.0180
 5648SOL     OW28576   1.198   3.312   6.043  0.7981  0.3647  0.2293
 5648SOL    HW128577   1.275   3.259   6.064  0.2638 -0.8692 -0.8911
 5648SOL    HW228578   1.241   3.391   6.010  0.3160  0.8582  0.7789
 5649SOL     OW28579   1.613   2.809   4.551 -0.2717 -0.2884 -0.3996
 5649SOL    HW128580   1.571   2.894   4.554 -2.5543 -1.4263 -0.2798
 5649SOL    HW228581   1.642   2.812   4.460  0.7902 -0.3476 -0.0734
 5650SOL     OW28582   3.317   0.005   1.052  0.1970  0.1711 -0.5429
 5650SOL    HW128583   3.350   0.091   1.077  2.5815 -1.7351  2.8863
 5650SOL    HW228584   3.362   4.728   0.969  0.2087 -0.7014 -0.4039
 5651SOL     OW28585   3.350   4.285  10.644  0.0221  0.0063  0.3188
 5651SOL    HW128586   3.294   4.289  10.721 -1.3315 -0.0124 -0.6663
 5651SOL    HW228587   3.381   4.194  10.651 -1.0455 -0.2766  1.2546
 5652SOL     OW28588   3.031   4.076   9.358 -0.2658  0.4653 -1.1587
 5652SOL    HW128589   3.070   4.053   9.274  1.2907 -1.0012 -0.0471
 5652SOL    HW228590   3.050   4.169   9.351 -4.6331  1.5057  0.6412
 5653SOL     OW28591   0.628   3.342   1.683  0.3323 -0.1228  0.2259
 5653SOL    HW128592   0.574   3.419   1.698  1.0224  0.2477  0.7577
 5653SOL    HW228593   0.596   3.286   1.754 -1.3392 -0.7559 -1.0107
 5654SOL     OW28594   3.511   2.335   5.070  0.0723  0.8378 -0.1739
 5654SOL    HW128595   3.602   2.310   5.055  0.0039 -0.4373  1.4758
 5654SOL    HW228596   3.511   2.430   5.057 -1.0780  0.9709  0.8396
 5655SOL     OW28597   3.984   0.782   5.700  0.1240  0.1753 -0.0252
 5655SOL    HW128598   3.989   0.752   5.791 -3.2549 -0.2705  0.0080
 5655SOL    HW228599   3.960   0.709   5.644 -0.0780 -0.1714  0.5177
 5656SOL     OW28600   1.925   3.636  10.780 -0.1447  0.1046  0.1503
 5656SOL    HW128601   1.930   3.702  10.849 -1.1541  0.7049 -0.3577
 5656SOL    HW228602   2.017   3.611  10.769  0.0414  0.3408  1.1102
 5657SOL     OW28603   1.215   2.364   0.633 -0.1188 -0.4809  0.3160
 5657SOL    HW128604   1.248   2.412   0.709 -0.8153 -1.4787  1.2534
 5657SOL    HW228605   1.222   2.422   0.557  2.0505 -1.0861  0.0519
 5658SOL     OW28606   3.572   2.180   4.532  0.5563 -0.3071  0.5335
 5658SOL    HW128607   3.546   2.092   4.558  1.5662  0.0248  2.6977
 5658SOL    HW228608   3.529   2.229   4.602 -0.5291  1.1296 -1.1483
 5659SOL     OW28609   0.524   0.746  17.727  0.3449  0.1787  0.3809
 5659SOL    HW128610   0.548   0.830  17.690 -0.8202  0.9588  1.3985
 5659SOL    HW228611   0.578   0.747   0.064 -1.2334 -0.2520  1.4928
 5660SOL     OW28612   2.453   2.880   4.766 -0.1145 -0.1876 -0.3872
 5660SOL    HW128613   2.446   2.823   4.690 -0.5454 -0.8037  0.1168
 5660SOL    HW228614   2.444   2.963   4.719  1.1574  0.0552 -0.2182
 5661SOL     OW28615   4.541   2.882   6.511  0.2076  0.4578  0.5767
 5661SOL    HW128616   4.458   2.905   6.552 -1.0405 -1.6654 -0.7569
 5661SOL    HW228617   4.579   2.958   6.466  0.7382 -0.2909 -0.2460
 5662SOL     OW28618   3.978   0.587   8.765 -0.1395  0.2108 -0.0812
 5662SOL    HW128619   3.926   0.546   8.697 -1.1955  1.3117  0.0602
 5662SOL    HW228620   4.028   0.651   8.714  0.6044  1.5461  2.2855
 5663SOL     OW28621   1.588   2.658   2.891 -0.3327  0.6570  0.3694
 5663SOL    HW128622   1.547   2.681   2.807  0.6411  2.0882  0.2886
 5663SOL    HW228623   1.680   2.652   2.867 -0.2515  0.3351  0.7719
 5664SOL     OW28624   2.915   2.789   8.307 -0.1521 -0.4974  0.0400
 5664SOL    HW128625   2.832   2.764   8.266 -0.4919 -1.5656  1.3594
 5664SOL    HW228626   2.983   2.725   8.285 -0.5560 -0.0114 -2.5604
 5665SOL     OW28627   0.120   3.437   2.426 -0.9465 -0.2897 -0.3156
 5665SOL    HW128628   0.078   3.500   2.484 -0.1580  0.1901 -0.2743
 5665SOL    HW228629   0.040   3.405   2.385 -0.7507  0.9730 -1.6821
 5666SOL     OW28630   0.455   1.238   7.790  0.8695 -0.3726  0.1275
 5666SOL    HW128631   0.496   1.175   7.850  1.1193  0.1555  0.5067
 5666SOL    HW228632   0.523   1.301   7.767  0.6143 -0.0922  0.1525
 5667SOL     OW28633   3.461   1.471   5.805  0.3431 -0.3014 -0.2470
 5667SOL    HW128634   3.538   1.515   5.840  0.6229 -0.0412 -1.1890
 5667SOL    HW228635   3.489   1.459   5.714  1.8099 -0.9425  0.2762
 5668SOL     OW28636   3.622   3.175   7.200 -0.3197 -0.3872 -0.0768
 5668SOL    HW128637   3.658   3.088   7.215  0.5341 -0.4927 -2.7832
 5668SOL    HW228638   3.639   3.215   7.285  0.1544 -1.5355  0.3608
 5669SOL     OW28639   2.729   0.654   9.433  0.4124  0.0489 -0.5143
 5669SOL    HW128640   2.795   0.714   9.398  0.7007 -0.4013 -0.7329
 5669SOL    HW228641   2.689   0.703   9.504  1.8768  0.0072  0.3240
 5670SOL     OW28642   2.919   3.465   1.434 -0.7143  0.2853  0.0079
 5670SOL    HW128643   2.869   3.457   1.515  0.8223  2.6044  1.2041
 5670SOL    HW228644   2.892   3.387   1.387  0.1347 -0.1177  0.1985
 5671SOL     OW28645   1.537   4.424  14.980  0.3157  0.0554  0.5883
 5671SOL    HW128646   1.618   4.472  14.996  0.6078  0.1618 -1.1090
 5671SOL    HW228647   1.480   4.498  14.957 -2.0570 -1.7166  0.7450
 5672SOL     OW28648   1.487   3.592   6.442 -0.1698  0.5281  0.2304
 5672SOL    HW128649   1.498   3.684   6.418  0.7410  0.4081  0.1863
 5672SOL    HW228650   1.557   3.584   6.507 -0.5620 -0.0489  0.5811
 5673SOL     OW28651   2.205   3.372   3.496  0.1416 -0.5276  0.0364
 5673SOL    HW128652   2.120   3.330   3.482 -0.9322  1.2450  1.1975
 5673SOL    HW228653   2.187   3.465   3.487 -0.4601 -0.6459 -0.0050
 5674SOL     OW28654   4.633   1.312  12.850 -0.4814  0.2653  0.1740
 5674SOL    HW128655   4.581   1.277  12.777 -1.1530  1.9103 -0.1433
 5674SOL    HW228656   4.659   1.230  12.893  1.6513  0.3782 -0.8706
 5675SOL     OW28657   1.664   0.311  15.062 -0.2590 -0.9141 -0.1191
 5675SOL    HW128658   1.685   0.379  14.998 -0.1239  1.0144  1.9561
 5675SOL    HW228659   1.648   0.364  15.140 -0.7634  0.9492 -1.4805
 5676SOL     OW28660   3.198   4.308   2.901  0.3786 -0.1616  0.0359
 5676SOL    HW128661   3.284   4.350   2.900  0.1547  0.3112  0.9406
 5676SOL    HW228662   3.154   4.354   2.829 -0.4644 -1.0096  0.0226
 5677SOL     OW28663   0.963   3.091   3.738  0.1806  0.1879 -0.0765
 5677SOL    HW128664   0.882   3.140   3.721 -1.4676 -2.3591  0.3179
 5677SOL    HW228665   1.002   3.086   3.651  0.2898  0.9053 -0.0670
 5678SOL     OW28666   0.665   1.809   6.404  0.1578  0.2834 -0.1418
 5678SOL    HW128667   0.586   1.856   6.379  1.3556  2.4920  0.2156
 5678SOL    HW228668   0.716   1.888   6.423  0.6506  0.3734 -1.8732
 5679SOL     OW28669   4.515   2.080   9.490  0.2752 -0.2845 -0.6859
 5679SOL    HW128670   4.480   2.007   9.439 -0.0580  0.3174 -1.3221
 5679SOL    HW228671   4.538   2.028   9.567 -0.0141  0.4896 -0.0676
 5680SOL     OW28672   4.673   2.151   2.725 -0.0492  0.3012  0.5040
 5680SOL    HW128673   4.658   2.193   2.810  0.0844 -0.2892  0.8197
 5680SOL    HW228674   4.720   2.077   2.764  1.2587  0.6241 -0.4532
 5681SOL     OW28675   2.939   2.374   3.314  0.3155  0.0098 -0.0750
 5681SOL    HW128676   3.031   2.355   3.334 -0.2331 -0.2022  2.2202
 5681SOL    HW228677   2.936   2.390   3.219  1.0017  0.2441 -0.0601
 5682SOL     OW28678   2.637   2.840   8.677 -0.1208  0.4706 -0.2397
 5682SOL    HW128679   2.722   2.854   8.635  0.2045 -1.2170 -0.1493
 5682SOL    HW228680   2.603   2.929   8.676  0.4364  0.6879  0.5856
 5683SOL     OW28681   3.438   3.560   3.287 -0.4248  0.6639 -0.2675
 5683SOL    HW128682   3.511   3.593   3.235  0.5657 -0.6617  0.2964
 5683SOL    HW228683   3.415   3.643   3.331 -0.0725  1.5663 -1.8060
 5684SOL     OW28684   4.259   3.342   7.986 -0.5070 -0.4027 -0.1208
 5684SOL    HW128685   4.250   3.251   7.956  1.8489 -0.4717 -0.6142
 5684SOL    HW228686   4.305   3.326   8.068  0.9419 -0.0526 -0.8716
 5685SOL     OW28687   1.021   1.373  16.838  0.2792 -0.3037 -0.2259
 5685SOL    HW128688   1.043   1.281  16.823  0.0812 -0.4350  0.2651
 5685SOL    HW228689   1.066   1.390  16.921  0.4036 -2.6175  0.1795
 5686SOL     OW28690   4.370   3.095   2.793  0.1382 -0.4188 -0.4995
 5686SOL    HW128691   4.299   3.032   2.785 -0.2111 -0.0463 -0.3833
 5686SOL    HW228692   4.424   3.057   2.724  0.1180 -1.1577 -0.1004
 5687SOL     OW28693   2.737   4.531  16.452  0.1847  0.1963  0.0689
 5687SOL    HW128694   2.758   4.491  16.536  2.1265 -0.5166 -0.7519
 5687SOL    HW228695   2.644   4.550  16.459  0.0604 -0.7939  1.1041
 5688SOL     OW28696   0.002   1.717   1.251 -0.3773  0.0168  0.0980
 5688SOL    HW128697   4.649   1.736   1.221 -0.2192 -2.5162 -1.9655
 5688SOL    HW228698   4.730   1.736   1.345  2.6612 -0.3703  0.4212
 5689SOL     OW28699   3.902   3.398   2.291 -0.2166 -0.0582 -0.0614
 5689SOL    HW128700   3.867   3.469   2.238  1.7531  0.4208 -0.7278
 5689SOL    HW228701   3.924   3.453   2.367  3.3439 -2.4833  0.6894
 5690SOL     OW28702   4.521   2.687  10.713 -0.5474 -0.3574 -0.2009
 5690SOL    HW128703   4.510   2.593  10.699  0.3045 -0.2901 -1.3069
 5690SOL    HW228704   4.429   2.708  10.729 -1.1471 -3.0244 -0.1073
 5691SOL     OW28705   0.828   1.962   7.434 -0.1379  0.3878 -0.0392
 5691SOL    HW128706   0.913   1.980   7.396  1.3565 -2.0104  2.1098
 5691SOL    HW228707   0.854   1.949   7.526  3.1151 -1.5783 -1.2325
 5692SOL     OW28708   3.728   0.164   9.512  0.2246 -0.2650 -0.0623
 5692SOL    HW128709   3.770   0.082   9.538 -0.6654 -0.0878  1.9466
 5692SOL    HW228710   3.778   0.221   9.571 -0.4184 -1.1954  1.3741
 5693SOL     OW28711   2.146   1.553  15.788  0.8618  1.1824  0.3705
 5693SOL    HW128712   2.190   1.496  15.851 -3.3684 -1.6690  0.7506
 5693SOL    HW228713   2.107   1.484  15.734  0.7302  1.4625  0.1055
 5694SOL     OW28714   4.382   2.691   5.861 -0.0318  0.1025 -0.1857
 5694SOL    HW128715   4.401   2.753   5.790 -0.3131  0.0744 -0.2862
 5694SOL    HW228716   4.418   2.612   5.822 -1.3396 -0.7472  0.3420
 5695SOL     OW28717   2.620   2.682   2.228 -0.0823 -0.1988 -0.6405
 5695SOL    HW128718   2.577   2.621   2.168 -2.8123 -0.8896  2.0504
 5695SOL    HW228719   2.708   2.645   2.220 -0.9529 -1.9461 -2.0806
 5696SOL     OW28720   0.826   0.737   1.285  0.3961 -0.2328 -0.5906
 5696SOL    HW128721   0.842   0.736   1.380 -1.8085 -3.9770 -0.2681
 5696SOL    HW228722   0.819   0.831   1.270  0.9136  0.2616  2.1997
 5697SOL     OW28723   3.358   2.706  14.603 -0.3543  0.3049  0.7875
 5697SOL    HW128724   3.370   2.737  14.693 -0.0153  0.3533  0.7257
 5697SOL    HW228725   3.383   2.615  14.617  1.0829  0.1338 -2.9705
 5698SOL     OW28726   2.674   3.564   2.440  0.4839 -0.3224 -0.7910
 5698SOL    HW128727   2.674   3.514   2.521  0.8050 -2.2249 -1.9488
 5698SOL    HW228728   2.661   3.492   2.377 -0.0199 -0.7900 -0.1494
 5699SOL     OW28729   4.500   3.689  14.847 -0.7374 -0.1743  0.4061
 5699SOL    HW128730   4.476   3.660  14.759 -2.3897 -1.5208  1.2989
 5699SOL    HW228731   4.506   3.785  14.844 -2.1659 -0.1327 -1.0803
 5700SOL     OW28732   2.767   4.694   7.730 -0.1735 -0.7218  0.2064
 5700SOL    HW128733   2.809   4.608   7.738  1.4068 -0.1529 -1.9373
 5700SOL    HW228734   2.722   4.701   7.814  0.3262 -1.2499  0.5246
 5701SOL     OW28735   0.775   2.041  11.474  0.0755  0.0602  0.4172
 5701SOL    HW128736   0.680   2.039  11.481  0.1275 -2.2948  0.4769
 5701SOL    HW228737   0.805   1.985  11.545 -0.5108 -3.3431 -2.0138
 5702SOL     OW28738   2.511   1.719   3.733  0.0385 -0.0418  0.2263
 5702SOL    HW128739   2.493   1.794   3.676  0.6050  0.5170  0.7893
 5702SOL    HW228740   2.496   1.764   3.816 -1.1427  0.3031 -0.1650
 5703SOL     OW28741   0.681   0.975   6.760 -0.1592  0.1543 -0.3590
 5703SOL    HW128742   0.603   0.947   6.808  0.4433 -0.0767  0.4679
 5703SOL    HW228743   0.677   0.930   6.675  4.1771 -0.2063 -0.3653
 5704SOL     OW28744   3.946   2.375   2.599 -0.0553 -0.2763 -0.2894
 5704SOL    HW128745   3.999   2.401   2.524  0.8951 -0.2893  0.3794
 5704SOL    HW228746   4.012   2.349   2.664  1.3474 -0.6351 -1.8636
 5705SOL     OW28747   0.720   3.272   2.379 -0.3111 -0.3116  0.1169
 5705SOL    HW128748   0.811   3.279   2.409  0.3424 -0.5214 -1.8185
 5705SOL    HW228749   0.666   3.304   2.451  0.6890  1.7337 -0.0384
 5706SOL     OW28750   2.227   1.299   3.924 -0.1863 -0.5246  0.2890
 5706SOL    HW128751   2.174   1.300   4.003 -0.4547  1.6921  0.0821
 5706SOL    HW228752   2.205   1.385   3.887 -2.8583 -1.4924 -0.3429
 5707SOL     OW28753   3.445   3.142  12.433 -0.0089  0.9065  0.2624
 5707SOL    HW128754   3.444   3.167  12.525  0.8811 -2.9677  1.3070
 5707SOL    HW228755   3.504   3.207  12.394  0.9300  1.5706  2.7639
 5708SOL     OW28756   3.445   0.135   6.753 -0.0332  0.0397 -0.0597
 5708SOL    HW128757   3.459   0.161   6.662 -0.1789 -0.9475 -0.3642
 5708SOL    HW228758   3.441   0.221   6.795 -0.5610 -0.5730  1.1304
 5709SOL     OW28759   3.655   3.816  16.443 -0.6247  0.1900 -0.2923
 5709SOL    HW128760   3.589   3.768  16.492 -0.1834  1.9486  2.0904
 5709SOL    HW228761   3.728   3.754  16.440  0.4898  1.5065 -0.5981
 5710SOL     OW28762   1.971   1.525  16.141 -0.1881 -0.3446  0.1591
 5710SOL    HW128763   1.948   1.460  16.075  1.7765 -0.3473 -0.5132
 5710SOL    HW228764   1.943   1.606  16.098  0.4660 -0.8141 -1.1277
 5711SOL     OW28765   1.495   3.203   7.633 -0.1429 -0.6134  0.4904
 5711SOL    HW128766   1.472   3.274   7.573  2.1506  0.8040  1.2750
 5711SOL    HW228767   1.440   3.218   7.710  0.4182 -1.4961  1.0690
 5712SOL     OW28768   1.943   2.741  15.380  0.5368 -0.2519 -0.1781
 5712SOL    HW128769   1.959   2.741  15.475 -0.5833  0.0428  0.0177
 5712SOL    HW228770   1.850   2.719  15.377  0.0683  1.7694 -0.5933
 5713SOL     OW28771   0.580   2.716   9.242 -0.7903 -0.4732  0.3974
 5713SOL    HW128772   0.533   2.673   9.313  0.5313  0.6472  1.9473
 5713SOL    HW228773   0.543   2.666   9.169 -1.8715  1.3320 -0.2769
 5714SOL     OW28774   2.376   3.505  12.557 -0.5312  0.2796  0.2702
 5714SOL    HW128775   2.311   3.571  12.532 -1.4194 -0.2933  1.1071
 5714SOL    HW228776   2.323   3.430  12.530  2.0474 -0.7900 -1.9468
 5715SOL     OW28777   1.884   4.626   7.458  0.0444  1.2236  0.2940
 5715SOL    HW128778   1.964   4.609   7.408  0.3162  1.3489  0.6949
 5715SOL    HW228779   1.829   4.675   7.396  0.7787  1.6466 -0.0278
 5716SOL     OW28780   3.643   2.865   7.612 -0.1986 -0.2345 -0.3282
 5716SOL    HW128781   3.617   2.942   7.562  0.4445  0.9954  1.2427
 5716SOL    HW228782   3.705   2.910   7.669  0.2156 -0.7532 -0.3679
 5717SOL     OW28783   3.526   1.052   2.330 -0.1897  0.1978 -0.0100
 5717SOL    HW128784   3.508   1.146   2.340 -1.5899  0.0311 -0.9331
 5717SOL    HW228785   3.477   1.041   2.248  0.2918  2.1689 -0.5554
 5718SOL     OW28786   0.016   1.409   3.809  0.7894  0.1418 -0.1755
 5718SOL    HW128787   4.722   1.493   3.846  0.2688  1.0900 -2.7187
 5718SOL    HW228788   4.682   1.416   3.743  1.0999  0.3717 -0.4835
 5719SOL     OW28789   2.821   1.831   2.811 -0.0552 -0.5760 -0.6531
 5719SOL    HW128790   2.728   1.825   2.789 -0.3577 -1.3323  0.8513
 5719SOL    HW228791   2.853   1.757   2.759 -1.0693 -2.3749  1.2642
 5720SOL     OW28792   3.593   1.007   0.887 -0.0615 -0.8529 -0.1176
 5720SOL    HW128793   3.575   0.948   0.813 -1.0164 -0.9742  0.2053
 5720SOL    HW228794   3.522   0.991   0.949 -0.5809 -3.6459 -1.4463
 5721SOL     OW28795   2.739   4.150  15.133 -0.1721 -0.1464 -0.3687
 5721SOL    HW128796   2.686   4.121  15.059 -3.2231  1.2366  1.2653
 5721SOL    HW228797   2.728   4.070  15.184 -0.1283  0.2475  0.2587
 5722SOL     OW28798   1.235   2.451   5.615  0.2028 -0.2693  0.1806
 5722SOL    HW128799   1.239   2.462   5.710  0.2483 -1.3107  0.3003
 5722SOL    HW228800   1.148   2.411   5.608 -0.1527  0.2315  1.7654
 5723SOL     OW28801   3.103   1.853   9.509 -0.8775  0.1712  0.6445
 5723SOL    HW128802   3.049   1.865   9.587  0.4090  0.8203  1.4276
 5723SOL    HW228803   3.165   1.921   9.533  0.7884 -1.5002  1.0874
 5724SOL     OW28804   1.016   0.707   0.961 -0.1042  0.3508  0.1474
 5724SOL    HW128805   0.966   0.716   0.880 -0.5714  1.1999  0.5374
 5724SOL    HW228806   1.036   0.794   0.996  0.6325  0.1369  0.2407
 5725SOL     OW28807   2.851   2.063   6.523  0.1447  0.1719  0.2627
 5725SOL    HW128808   2.812   2.047   6.608 -1.1202 -0.1068 -0.3811
 5725SOL    HW228809   2.944   2.054   6.545  0.0944  2.3684  1.4270
 5726SOL     OW28810   4.430   3.607  14.599 -0.0209 -0.0499 -0.3172
 5726SOL    HW128811   4.438   3.679  14.536  0.1295 -0.1404 -0.4022
 5726SOL    HW228812   4.476   3.540  14.548  0.9218  0.1790  0.2456
 5727SOL     OW28813   4.620   2.801  11.589 -0.7389  0.2370 -0.5856
 5727SOL    HW128814   4.627   2.871  11.654 -2.8308  0.0212 -0.1229
 5727SOL    HW228815   4.708   2.776  11.563 -0.8873  0.6751 -1.4952
 5728SOL     OW28816   2.395   3.111   2.426 -0.0878  0.1690 -0.0139
 5728SOL    HW128817   2.339   3.071   2.493 -0.2862  0.3484 -0.0741
 5728SOL    HW228818   2.433   3.031   2.388 -0.7892  0.0830 -0.5404
 5729SOL     OW28819   3.556   4.276  10.152  0.1210 -0.5453  0.7104
 5729SOL    HW128820   3.493   4.288  10.081 -0.5989 -0.0589  1.4350
 5729SOL    HW228821   3.503   4.237  10.222  1.4028 -0.3273  1.8054
 5730SOL     OW28822   4.066   3.733   8.762 -0.1787  0.1194 -0.1584
 5730SOL    HW128823   4.125   3.783   8.705  3.1102 -1.5918  1.7169
 5730SOL    HW228824   4.072   3.642   8.733 -3.0066  0.6933 -2.5274
 5731SOL     OW28825   2.678   4.684   3.517  0.1869  0.0120 -0.1663
 5731SOL    HW128826   2.648   0.039   3.522  2.6303  0.7769  0.4295
 5731SOL    HW228827   2.597   4.633   3.530 -0.8492  1.5572 -0.5151
 5732SOL     OW28828   1.994   1.010   4.387 -0.9871 -0.0382  0.3116
 5732SOL    HW128829   2.004   0.930   4.335 -1.1853  0.3346 -0.3021
 5732SOL    HW228830   2.061   1.068   4.352 -1.4791  0.7093  0.6209
 5733SOL     OW28831   1.169   3.152   6.465 -0.5620  0.0916  0.1595
 5733SOL    HW128832   1.253   3.107   6.478 -1.2051 -1.9119 -2.5946
 5733SOL    HW228833   1.116   3.102   6.527 -0.5963 -0.4268 -0.2897
 5734SOL     OW28834   0.165   2.573   0.756  0.4680 -0.2955  0.4738
 5734SOL    HW128835   0.190   2.651   0.706  1.8899  0.7266  2.7585
 5734SOL    HW228836   0.086   2.600   0.802 -0.2974 -0.1586 -0.9070
 5735SOL     OW28837   3.392   0.989   6.057  0.8544  0.1128  0.2497
 5735SOL    HW128838   3.421   1.056   6.119 -1.9884  2.3087 -0.8178
 5735SOL    HW228839   3.460   0.928   6.088  0.4084 -1.0837 -1.1251
 5736SOL     OW28840   3.030   4.317  10.577 -0.1517 -0.9167 -0.8636
 5736SOL    HW128841   2.982   4.397  10.595 -0.5868 -1.5214  0.6751
 5736SOL    HW228842   3.036   4.341  10.485  1.0733  1.9143 -0.0467
 5737SOL     OW28843   3.464   4.727   0.574  0.0270  0.3141 -0.4153
 5737SOL    HW128844   3.518   0.070   0.565 -0.4022  0.8295  1.4641
 5737SOL    HW228845   3.381   0.010   0.530 -0.2418  0.9177  0.3363
 5738SOL     OW28846   3.424   0.080   9.093  0.3593 -0.3809 -0.2616
 5738SOL    HW128847   3.450   0.054   9.182  1.2103  1.1038 -0.0701
 5738SOL    HW228848   3.350   0.133   9.121 -0.1821 -0.6108 -1.2353
 5739SOL     OW28849   3.751   3.851   3.984  0.7099  0.0034 -0.2264
 5739SOL    HW128850   3.702   3.915   3.934 -0.2408 -0.8278 -0.3599
 5739SOL    HW228851   3.722   3.864   4.074  0.9323  2.1508 -0.4772
 5740SOL     OW28852   3.708   1.639   6.245 -0.2347 -0.8838  0.1862
 5740SOL    HW128853   3.792   1.646   6.199 -0.4762 -0.1853 -0.1525
 5740SOL    HW228854   3.736   1.637   6.336  1.2302 -0.3721 -0.2511
 5741SOL     OW28855   0.531   3.072   8.897  0.6199 -0.0056  1.2803
 5741SOL    HW128856   0.599   3.041   8.837  0.5006 -0.7122  1.5193
 5741SOL    HW228857   0.456   3.018   8.874  0.7591  0.8037 -1.0565
 5742SOL     OW28858   3.645   2.126   7.601  0.2770 -0.0876 -0.0538
 5742SOL    HW128859   3.715   2.139   7.537 -0.5528  0.0451 -0.9364
 5742SOL    HW228860   3.646   2.031   7.594  2.4101  0.0878 -1.7885
 5743SOL     OW28861   0.537   1.026   1.909 -0.2587 -0.1368 -0.3279
 5743SOL    HW128862   0.571   1.112   1.932  0.5828 -0.5542  0.0014
 5743SOL    HW228863   0.449   1.035   1.873 -0.7397 -3.3547 -0.0201
 5744SOL     OW28864   0.305   3.191   1.496 -0.0156 -0.8124 -0.2227
 5744SOL    HW128865   0.329   3.255   1.429 -0.5973 -0.1427  0.2201
 5744SOL    HW228866   0.379   3.130   1.490 -0.7972 -1.6549 -1.5164
 5745SOL     OW28867   0.539   2.838   5.338  0.5935  0.0066  0.1854
 5745SOL    HW128868   0.599   2.847   5.264 -0.3814  0.5399 -0.5312
 5745SOL    HW228869   0.521   2.930   5.360 -0.3590 -0.3563  0.9364
 5746SOL     OW28870   0.879   2.147   2.485  0.1003 -0.0014  0.3746
 5746SOL    HW128871   0.879   2.209   2.412 -1.3646  0.7867  1.0507
 5746SOL    HW228872   0.970   2.164   2.512  0.0672 -2.2864  1.8875
 5747SOL     OW28873   0.673   2.083   3.829  0.6444  0.7816 -0.5121
 5747SOL    HW128874   0.714   2.080   3.743 -0.8458  0.4295 -1.2109
 5747SOL    HW228875   0.678   1.990   3.848 -0.5642  0.4488 -1.7937
 5748SOL     OW28876   4.001   3.874   5.491  0.0504  0.3291 -0.4259
 5748SOL    HW128877   4.002   3.784   5.459  0.8678  0.3888 -0.5678
 5748SOL    HW228878   3.930   3.917   5.442  0.9548  1.3090 -0.8928
 5749SOL     OW28879   2.388   0.088   8.634 -0.2312 -0.4292  0.1935
 5749SOL    HW128880   2.468   0.044   8.605 -0.3296 -0.7399  0.4008
 5749SOL    HW228881   2.432   0.159   8.680 -2.4430  0.7284  0.5386
 5750SOL     OW28882   2.139   1.080  14.276 -0.2357  0.4262  0.1901
 5750SOL    HW128883   2.097   1.137  14.341 -1.0715  0.5311 -0.4426
 5750SOL    HW228884   2.189   1.150  14.233  2.8374 -2.7925 -1.4920
 5751SOL     OW28885   0.055   1.598   0.597  0.9286  0.1771  0.0458
 5751SOL    HW128886   0.000   1.571   0.523  1.3741  1.0044 -0.5831
 5751SOL    HW228887   0.080   1.685   0.566 -0.9251  0.3333 -1.0049
 5752SOL     OW28888   2.622   2.941   5.340 -0.0178 -0.9136 -0.0467
 5752SOL    HW128889   2.538   2.896   5.331 -1.6259  2.1441 -0.5288
 5752SOL    HW228890   2.658   2.887   5.410  2.4143 -1.9058 -2.0855
 5753SOL     OW28891   2.871   0.021   9.125  0.4429  0.1456  0.0898
 5753SOL    HW128892   2.839   4.680   9.078  1.5305  0.1098 -0.5798
 5753SOL    HW228893   2.855   4.728   9.215 -0.6621  0.4195 -0.0129
 5754SOL     OW28894   2.451   2.429  12.884  0.2594  0.0031 -0.5287
 5754SOL    HW128895   2.388   2.427  12.957 -0.0550  0.8967 -0.7813
 5754SOL    HW228896   2.481   2.338  12.884  4.1440  1.3017 -2.7843
 5755SOL     OW28897   3.028   0.815   0.820  0.3162  0.7394 -0.0034
 5755SOL    HW128898   3.007   0.810   0.913  0.7885  0.0111  0.0644
 5755SOL    HW228899   3.067   0.902   0.812 -3.2075  2.1440 -1.7284
 5756SOL     OW28900   1.546   3.326   9.774 -0.0643  0.4453  0.1799
 5756SOL    HW128901   1.500   3.354   9.695  2.6055  0.4539 -1.3583
 5756SOL    HW228902   1.559   3.233   9.759 -0.5470  0.4513 -0.2569
 5757SOL     OW28903   1.883   2.087  11.210 -0.2453  0.0872 -0.7401
 5757SOL    HW128904   1.954   2.138  11.170 -0.3714  0.3048 -0.6902
 5757SOL    HW228905   1.888   1.994  11.191  0.2327 -0.0318 -0.0172
 5758SOL     OW28906   2.929   2.039   0.170  0.8219 -0.0952  0.3915
 5758SOL    HW128907   2.883   2.122   0.153 -0.9033 -1.4380 -1.4326
 5758SOL    HW228908   3.013   2.053   0.127 -0.3281 -0.0669 -1.8325
 5759SOL     OW28909   3.613   4.297   2.602  0.4750 -0.3545  0.1251
 5759SOL    HW128910   3.599   4.223   2.661 -1.6874  0.1516  0.2341
 5759SOL    HW228911   3.528   4.306   2.559  1.1322 -1.3646 -1.3983
 5760SOL     OW28912   3.114   1.859  10.915  0.4926  0.5650  0.1955
 5760SOL    HW128913   3.133   1.774  10.954 -0.3177  0.7684  1.0293
 5760SOL    HW228914   3.054   1.891  10.982 -1.8441 -0.0169 -1.6265
 5761SOL     OW28915   2.739   0.101   7.505 -0.0885  0.3359  0.6506
 5761SOL    HW128916   2.762   0.043   7.578 -2.0126 -1.7719 -0.4003
 5761SOL    HW228917   2.754   0.184   7.550  2.3005  0.6372 -0.7251
 5762SOL     OW28918   3.247   3.551   6.759 -0.3582  0.2603 -0.2690
 5762SOL    HW128919   3.253   3.525   6.668  2.7345 -0.4399  0.1566
 5762SOL    HW228920   3.338   3.530   6.778 -0.8133  0.0596  1.7909
 5763SOL     OW28921   3.076   1.492   0.772  0.0448  0.2380  0.9474
 5763SOL    HW128922   2.994   1.541   0.780  0.9260  2.3222 -2.6060
 5763SOL    HW228923   3.062   1.429   0.701  0.6846  1.3510 -0.1771
 5764SOL     OW28924   0.582   4.639   5.333  0.0179 -0.8603 -0.1186
 5764SOL    HW128925   0.654   4.634   5.396  0.1161  1.0329 -0.1010
 5764SOL    HW228926   0.586   4.548   5.302  1.1688 -0.4892 -1.0470
 5765SOL     OW28927   1.021   1.203   8.958 -0.2985  0.8147 -0.7250
 5765SOL    HW128928   0.986   1.149   8.887 -0.2825  0.4110 -0.4311
 5765SOL    HW228929   0.947   1.247   8.999 -0.2531 -1.4210  1.8101
 5766SOL     OW28930   0.025   0.234   2.766 -0.4475 -0.0230 -0.9657
 5766SOL    HW128931   0.009   0.325   2.740  1.1530  0.0013 -1.8189
 5766SOL    HW228932   0.101   0.240   2.824 -0.4044 -2.5027 -0.7624
 5767SOL     OW28933   4.570   4.115   6.234  0.2718  0.4602  0.2823
 5767SOL    HW128934   4.555   4.121   6.139 -0.9260  0.8240  0.4953
 5767SOL    HW228935   4.478   4.116   6.261  0.4979  2.5712  0.9393
 5768SOL     OW28936   2.233   0.916  16.342 -0.5891  0.2603 -0.0861
 5768SOL    HW128937   2.308   0.868  16.308 -0.8876  0.4294 -0.9765
 5768SOL    HW228938   2.198   0.853  16.405 -2.6283  1.2367 -0.2228
 5769SOL     OW28939   0.485   0.027  17.054  0.3798 -0.0512  0.3704
 5769SOL    HW128940   0.435   4.686  17.026  1.5239 -0.5436 -0.3064
 5769SOL    HW228941   0.420   0.094  17.034  0.1177 -0.3386  0.2612
 5770SOL     OW28942   3.156   0.670   7.366 -0.4105  0.4780  0.2139
 5770SOL    HW128943   3.088   0.723   7.407 -0.9926  0.1856 -0.3709
 5770SOL    HW228944   3.192   0.741   7.313  2.8714 -0.3395  1.2938
 5771SOL     OW28945   0.210   4.280   4.116 -0.0713 -0.0263  0.2830
 5771SOL    HW128946   0.135   4.268   4.057  0.5004  0.1872 -0.4922
 5771SOL    HW228947   0.249   4.192   4.113  0.4205  0.1777  0.7531
 5772SOL     OW28948   3.739   2.290   6.796  0.5974 -0.6648 -0.3184
 5772SOL    HW128949   3.671   2.325   6.853  0.7705  0.2116 -0.6551
 5772SOL    HW228950   3.691   2.215   6.761 -0.3129 -0.4944  0.5479
 5773SOL     OW28951   0.241   4.150  10.137  0.2349 -0.9331 -0.2010
 5773SOL    HW128952   0.283   4.088  10.197  0.7873  1.0463  1.4483
 5773SOL    HW228953   0.293   4.145  10.056  2.2795  2.0353  0.9548
 5774SOL     OW28954   4.357   1.333   8.043 -0.0310  0.8305  1.0190
 5774SOL    HW128955   4.408   1.394   8.096  1.6731 -0.6245  1.0552
 5774SOL    HW228956   4.312   1.289   8.115  1.6859  1.5417  2.5316
 5775SOL     OW28957   2.520   3.357   7.118  0.1955 -0.2787 -0.1662
 5775SOL    HW128958   2.573   3.413   7.175  1.3982 -0.0640 -1.4932
 5775SOL    HW228959   2.491   3.415   7.048  0.0901  0.5159  0.5406
 5776SOL     OW28960   1.709   1.282   6.168 -0.0356 -0.0060  0.0259
 5776SOL    HW128961   1.669   1.286   6.081  0.1174  1.5540  0.0292
 5776SOL    HW228962   1.649   1.218   6.205  0.0457  0.4216  0.8827
 5777SOL     OW28963   4.410   4.326   4.876 -0.1564 -0.0466 -0.3911
 5777SOL    HW128964   4.343   4.322   4.808  1.1175  0.3778 -1.6731
 5777SOL    HW228965   4.481   4.276   4.835  1.8954  1.8488  0.8578
 5778SOL     OW28966   4.611   4.348   9.034 -0.0891  0.2318  0.1784
 5778SOL    HW128967   4.656   4.274   9.073  0.2878 -0.5642 -1.7857
 5778SOL    HW228968   4.539   4.368   9.095  1.3150  1.4998  1.4262
 5779SOL     OW28969   2.228   1.676   9.028 -0.1552  0.3211  0.0201
 5779SOL    HW128970   2.252   1.681   8.935  1.3764  2.3484  0.5187
 5779SOL    HW228971   2.313   1.695   9.067  0.2082 -0.9911 -0.1547
 5780SOL     OW28972   4.700   4.461   3.366 -0.2379  0.1756 -0.3013
 5780SOL    HW128973   4.630   4.452   3.429  0.7571  1.3548  0.9643
 5780SOL    HW228974   4.647   4.462   3.286  1.9576 -0.6574 -1.8094
 5781SOL     OW28975   3.048   0.796  10.673 -0.2741 -0.1650  0.7113
 5781SOL    HW128976   3.138   0.829  10.679 -0.4058  0.3416 -0.1601
 5781SOL    HW228977   3.048   0.706  10.705 -1.2438 -0.9740 -1.5690
 5782SOL     OW28978   0.855   0.754   5.710 -0.4567  0.5757  0.5336
 5782SOL    HW128979   0.855   0.847   5.731 -0.3059  0.9677 -1.2432
 5782SOL    HW228980   0.775   0.723   5.753  0.1378 -2.5469 -0.5679
 5783SOL     OW28981   0.444   2.392   2.171 -0.2528  0.1861  0.9372
 5783SOL    HW128982   0.464   2.327   2.239  2.4221  1.0014  0.9040
 5783SOL    HW228983   0.352   2.393   2.198 -0.9269  0.7914 -1.3575
 5784SOL     OW28984   0.700   2.984  17.668  0.3818 -0.2013  0.3726
 5784SOL    HW128985   0.697   2.891  17.687  1.1027 -0.7199 -2.0809
 5784SOL    HW228986   0.710   3.013   0.017  2.4554 -0.5385  0.2537
 5785SOL     OW28987   0.524   4.336   7.524  0.1399 -0.9939 -0.8064
 5785SOL    HW128988   0.612   4.328   7.485  1.9029  2.7416  2.4396
 5785SOL    HW228989   0.497   4.246   7.542 -0.2325 -0.7031  0.0229
 5786SOL     OW28990   3.254   2.248  10.207  0.8286  0.0208  0.1173
 5786SOL    HW128991   3.221   2.338  10.202 -0.2306 -0.2601  2.4535
 5786SOL    HW228992   3.175   2.196  10.215  0.4898  0.5537  0.2032
 5787SOL     OW28993   3.726   0.013   1.428 -0.3280 -0.3125 -0.4783
 5787SOL    HW128994   3.635   4.728   1.407 -0.8716  0.3250  1.3217
 5787SOL    HW228995   3.729   0.092   1.374  0.9687  0.2825  0.4730
 5788SOL     OW28996   2.986   3.646   1.909  0.0423  0.0529  0.0244
 5788SOL    HW128997   3.079   3.630   1.891  0.0045  1.6337 -1.6143
 5788SOL    HW228998   2.972   3.638   2.003 -2.7311  0.0566 -0.3726
 5789SOL     OW28999   2.972   1.305   9.520  0.6404 -0.9827 -0.2288
 5789SOL    HW129000   2.925   1.232   9.481  0.1914 -1.1653  0.6649
 5789SOL    HW229001   3.018   1.341   9.444 -0.7560  2.1886  0.4096
 5790SOL     OW29002   2.153   3.063  13.616 -0.9682  0.2635  0.3691
 5790SOL    HW129003   2.072   3.039  13.570 -0.1357 -1.0651 -0.3785
 5790SOL    HW229004   2.139   3.007  13.692  0.5974 -2.2086 -1.1570
 5791SOL     OW29005   1.095   1.793  14.676 -0.5511  0.8654 -0.6185
 5791SOL    HW129006   1.063   1.879  14.701 -0.0232  0.7374  0.5328
 5791SOL    HW229007   1.190   1.808  14.675 -0.4105  0.0365  0.1394
 5792SOL     OW29008   4.607   4.563   7.017  0.4224  0.5119  0.0802
 5792SOL    HW129009   4.634   4.477   7.049  0.3829  0.7074  0.6485
 5792SOL    HW229010   4.529   4.537   6.969  0.9539 -0.8628 -0.0227
 5793SOL     OW29011   4.719   3.925  14.909 -0.2373  0.6140 -0.5938
 5793SOL    HW129012   0.005   3.877  14.830 -1.7394 -2.4931  0.8853
 5793SOL    HW229013   4.631   3.957  14.891 -0.3627  2.0144  2.5320
 5794SOL     OW29014   1.016   4.141   1.602 -0.7958 -0.5469  0.3584
 5794SOL    HW129015   0.946   4.137   1.666 -0.1997 -1.7096  0.9391
 5794SOL    HW229016   1.095   4.126   1.653 -1.6610 -0.0120  1.8356
 5795SOL     OW29017   0.689   4.259   2.008  0.1365 -0.5241 -0.2184
 5795SOL    HW129018   0.686   4.352   2.032  1.2266 -0.9752  1.7278
 5795SOL    HW229019   0.597   4.231   2.004  0.7250 -2.1083 -2.2920
 5796SOL     OW29020   4.051   3.977  12.589 -0.2705 -0.3482  0.0019
 5796SOL    HW129021   4.063   4.037  12.516  2.2957 -0.6483  0.1686
 5796SOL    HW229022   3.955   3.974  12.589 -0.2263 -1.6574 -0.3740
 5797SOL     OW29023   1.921   4.535   8.875 -0.1971 -0.1661  0.2158
 5797SOL    HW129024   2.010   4.535   8.839  0.1600 -0.3646  1.1039
 5797SOL    HW229025   1.937   4.579   8.958  1.0270  1.9387 -1.1392
 5798SOL     OW29026   1.351   3.166   5.648 -0.3333 -0.2201 -0.3271
 5798SOL    HW129027   1.315   3.104   5.712  0.3832 -0.2390  0.0582
 5798SOL    HW229028   1.277   3.223   5.628 -1.1591 -1.6576 -1.4210
 5799SOL     OW29029   1.318   0.163   6.052  0.3983  0.5669  0.7008
 5799SOL    HW129030   1.261   0.177   6.128 -0.5454  2.2696 -0.3188
 5799SOL    HW229031   1.379   0.100   6.089 -1.9318 -0.7243  2.3945
 5800SOL     OW29032   3.006   2.906   5.499 -0.2758  0.0543 -0.2312
 5800SOL    HW129033   3.040   2.841   5.560  0.0917 -0.4621 -0.9899
 5800SOL    HW229034   2.993   2.854   5.420 -1.1340 -1.9965  1.2435
 5801SOL     OW29035   0.096   3.704  10.760 -0.1251 -0.4882 -0.2705
 5801SOL    HW129036   0.085   3.785  10.811 -0.8295  0.6694 -2.2859
 5801SOL    HW229037   0.138   3.637  10.815  0.4435  0.0576 -0.0524
 5802SOL     OW29038   0.130   0.286   7.028 -0.3843 -0.4748  0.8327
 5802SOL    HW129039   0.127   0.193   7.053 -0.8054 -0.4150  0.9999
 5802SOL    HW229040   0.217   0.288   6.989  0.3337  1.2320  2.5594
 5803SOL     OW29041   0.421   0.858   5.359 -0.3001 -0.1942  0.0921
 5803SOL    HW129042   0.382   0.776   5.329 -3.8964  1.5542  0.0137
 5803SOL    HW229043   0.481   0.880   5.287 -1.9520  3.4128 -0.2022
 5804SOL     OW29044   2.523   2.647  12.766  0.0931 -0.3042  0.0992
 5804SOL    HW129045   2.487   2.569  12.808 -0.7339  1.3480  2.5051
 5804SOL    HW229046   2.594   2.671  12.825 -1.2900 -1.9224  2.4232
 5805SOL     OW29047   0.798   2.210   4.177 -0.1272  0.0157 -0.1231
 5805SOL    HW129048   0.847   2.280   4.219 -0.2372  0.9398 -1.5405
 5805SOL    HW229049   0.856   2.182   4.106  0.6213  0.7410  0.2019
 5806SOL     OW29050   2.499   2.074   8.743 -0.1592 -0.2163 -0.6903
 5806SOL    HW129051   2.435   2.100   8.809  1.4717  1.8553  0.0996
 5806SOL    HW229052   2.470   2.113   8.660 -0.6556 -1.8224 -1.2625
 5807SOL     OW29053   3.818   2.453   7.412  0.5950 -0.0601 -0.7783
 5807SOL    HW129054   3.841   2.399   7.336 -1.9481 -0.1511 -1.4732
 5807SOL    HW229055   3.811   2.389   7.483  2.3140  0.7189  0.0761
 5808SOL     OW29056   0.245   1.845  11.782  0.2921  0.4927 -0.2396
 5808SOL    HW129057   0.178   1.904  11.745  0.8328  0.8124 -0.7102
 5808SOL    HW229058   0.263   1.787  11.708  0.2583  2.0519 -1.4750
 5809SOL     OW29059   0.305   1.070   5.120 -0.2908  0.3939 -0.7199
 5809SOL    HW129060   0.378   1.008   5.110 -2.4486 -2.1193 -0.8423
 5809SOL    HW229061   0.346   1.156   5.126  0.4465  0.2742 -3.5921
 5810SOL     OW29062   2.122   2.527   9.155 -0.3107  0.0344 -0.5472
 5810SOL    HW129063   2.189   2.476   9.200 -0.5998 -0.1524 -0.3314
 5810SOL    HW229064   2.116   2.472   9.077 -2.9255 -1.9798  1.0634
 5811SOL     OW29065   4.213   2.148   3.595 -0.0617 -0.1016  0.1539
 5811SOL    HW129066   4.299   2.185   3.572  0.8105 -3.0369 -1.2417
 5811SOL    HW229067   4.208   2.166   3.689  1.9725 -1.3861  0.5150
 5812SOL     OW29068   2.624   0.909  16.119 -0.8891  0.6295  0.4649
 5812SOL    HW129069   2.603   1.002  16.118 -1.7839  0.4179 -0.1170
 5812SOL    HW229070   2.547   0.863  16.151 -1.3604 -0.1125 -1.7108
 5813SOL     OW29071   1.275   4.655  12.149  0.4396 -0.2631 -0.1508
 5813SOL    HW129072   1.228   4.723  12.199  1.8209  1.7947 -1.6339
 5813SOL    HW229073   1.344   4.641  12.213  0.6082  1.3025  0.0189
 5814SOL     OW29074   2.776   4.663   1.641 -0.5206 -0.3500  0.6861
 5814SOL    HW129075   2.766   4.584   1.693 -2.5053  0.3980  1.4356
 5814SOL    HW229076   2.721   4.729   1.684  1.1762  1.6478 -0.2266
 5815SOL     OW29077   0.839   3.460   5.378  0.0921  0.4857  0.1734
 5815SOL    HW129078   0.922   3.477   5.423 -0.1279  0.8076  0.4560
 5815SOL    HW229079   0.842   3.521   5.304 -0.8350 -3.2438 -2.9642
 5816SOL     OW29080   1.988   3.777   4.531 -0.5832 -0.1183 -0.3837
 5816SOL    HW129081   1.976   3.782   4.626  1.5394  1.8929 -0.2174
 5816SOL    HW229082   2.082   3.795   4.526 -0.5150 -0.6508 -0.9315
 5817SOL     OW29083   2.565   3.728   7.255  0.2481 -0.9927  0.3192
 5817SOL    HW129084   2.502   3.682   7.311 -0.5068 -0.6456 -0.2476
 5817SOL    HW229085   2.627   3.658   7.236 -0.1390 -0.7139 -1.9686
 5818SOL     OW29086   0.814   1.838   1.608 -0.7303  0.2508  0.0290
 5818SOL    HW129087   0.816   1.814   1.700  0.6534 -2.7898 -0.8027
 5818SOL    HW229088   0.719   1.827   1.599 -0.5732 -2.0021  1.1746
 5819SOL     OW29089   0.781   2.232   0.078  0.0522 -0.8740  0.0799
 5819SOL    HW129090   0.736   2.252   0.160  0.6055 -0.4166  0.2724
 5819SOL    HW229091   0.724   2.171   0.031  0.2217  0.3637 -1.7358
 5820SOL     OW29092   1.822   1.260   4.493  0.1925 -0.2751  0.5852
 5820SOL    HW129093   1.840   1.327   4.427 -2.2638  0.1011  0.2979
 5820SOL    HW229094   1.848   1.179   4.449 -0.3593 -1.1960  1.9656
 5821SOL     OW29095   0.835   3.110   6.902  0.2087 -0.1875 -0.1898
 5821SOL    HW129096   0.805   3.023   6.877  0.2868  0.0436 -1.0901
 5821SOL    HW229097   0.821   3.120   6.996  0.9627  0.2702 -0.1261
 5822SOL     OW29098   2.513   3.725   3.425  0.1100 -0.1758  0.3326
 5822SOL    HW129099   2.576   3.653   3.426  2.4563  1.8969 -2.1738
 5822SOL    HW229100   2.559   3.787   3.482 -0.2005 -1.5925  2.1195
 5823SOL     OW29101   0.592   4.122  10.873 -0.2779 -0.7010 -0.1385
 5823SOL    HW129102   0.685   4.144  10.871 -0.7884  1.4945 -0.2866
 5823SOL    HW229103   0.573   4.129  10.966 -0.2595 -0.2227 -0.1712
 5824SOL     OW29104   3.581   2.795   1.026 -0.0555 -0.1859  0.5559
 5824SOL    HW129105   3.636   2.719   1.042 -1.8535 -1.5225  0.3870
 5824SOL    HW229106   3.496   2.753   1.018 -0.3631  0.4340  0.5775
 5825SOL     OW29107   1.323   2.662   0.758  0.1310  0.5300  0.2885
 5825SOL    HW129108   1.289   2.696   0.675 -1.0515  0.0815  0.5839
 5825SOL    HW229109   1.239   2.622   0.783  0.1968  0.5252  0.5017
 5826SOL     OW29110   3.656   1.570   3.920  0.5598  0.3922 -0.0420
 5826SOL    HW129111   3.591   1.639   3.907  0.5532  0.4115  0.0934
 5826SOL    HW229112   3.711   1.611   3.987 -0.4596  0.9340  0.4480
 5827SOL     OW29113   3.435   0.734  11.743  0.0267 -0.4103  0.6101
 5827SOL    HW129114   3.414   0.777  11.660 -1.6188  1.3055  1.9008
 5827SOL    HW229115   3.347   0.711  11.775 -0.7300  1.1090 -0.3737
 5828SOL     OW29116   1.513   0.146   7.653  0.3637 -0.0474 -0.2695
 5828SOL    HW129117   1.462   0.177   7.579  0.8226  0.2684 -0.4586
 5828SOL    HW229118   1.509   0.052   7.636 -0.6402 -0.0386 -0.0297
 5829SOL     OW29119   3.174   0.990   9.862 -0.2488 -1.0549  0.3921
 5829SOL    HW129120   3.121   0.921   9.822 -1.6843 -0.0310  0.5364
 5829SOL    HW229121   3.114   1.026   9.927 -0.2122  0.2389 -0.3116
 5830SOL     OW29122   2.739   4.199   3.340 -0.4290  0.2199 -0.6030
 5830SOL    HW129123   2.730   4.236   3.252  0.3332 -1.2809 -1.3233
 5830SOL    HW229124   2.652   4.167   3.364 -0.9555  1.5807 -0.7124
 5831SOL     OW29125   4.034   2.644   5.711  0.1857  0.3844  0.0021
 5831SOL    HW129126   4.065   2.640   5.620 -0.4166 -0.4205 -0.1605
 5831SOL    HW229127   4.068   2.561   5.743 -0.1938 -0.2248 -1.1641
 5832SOL     OW29128   2.943   2.135   0.673 -0.2919 -0.5226  0.7338
 5832SOL    HW129129   2.900   2.064   0.625 -1.4119  0.9303 -0.4200
 5832SOL    HW229130   2.930   2.204   0.608  0.6018 -1.0756 -0.0236
 5833SOL     OW29131   1.388   4.049  11.816 -0.3113  0.1716 -0.4910
 5833SOL    HW129132   1.392   4.107  11.891  1.9513  0.4469 -0.8434
 5833SOL    HW229133   1.319   3.986  11.840  0.5875 -0.6891 -0.1626
 5834SOL     OW29134   4.634   0.030   2.630 -0.2705  0.9508 -0.4476
 5834SOL    HW129135   4.683   0.096   2.680 -0.7837  1.1663 -0.2278
 5834SOL    HW229136   4.702   4.699   2.632 -0.3811  0.8473 -0.0123
 5835SOL     OW29137   0.474   1.001   1.039 -0.5327 -0.4187 -0.3811
 5835SOL    HW129138   0.439   1.088   1.020  0.6235 -0.1381 -1.2857
 5835SOL    HW229139   0.409   0.975   1.104  0.0457  3.1576  1.6521
 5836SOL     OW29140   4.628   2.360   7.618  0.2019 -0.2286  0.0087
 5836SOL    HW129141   4.595   2.381   7.530  1.3362 -0.8951 -0.5807
 5836SOL    HW229142   4.565   2.402   7.676  1.1932 -2.2080  2.4911
 5837SOL     OW29143   3.369   2.243   2.619  0.5074  0.1528 -0.6403
 5837SOL    HW129144   3.437   2.260   2.684 -0.3382 -1.8074  0.7428
 5837SOL    HW229145   3.389   2.154   2.589  1.3982  0.2614 -0.3508
 5838SOL     OW29146   0.901   0.811   1.567  0.5204 -0.2335 -0.4132
 5838SOL    HW129147   0.831   0.876   1.566  2.4327  1.7939 -1.2408
 5838SOL    HW229148   0.882   0.773   1.653 -4.5035 -1.2884 -1.9754
 5839SOL     OW29149   2.149   4.593   7.356  0.4163 -0.5307  0.5161
 5839SOL    HW129150   2.202   4.603   7.277  0.1582 -2.4896  0.0776
 5839SOL    HW229151   2.152   4.674   7.407 -1.7071  0.6380 -1.2087
 5840SOL     OW29152   1.425   1.225   2.985  0.1134 -0.5348 -0.7260
 5840SOL    HW129153   1.334   1.215   2.958 -1.5985  0.8738  4.5468
 5840SOL    HW229154   1.399   1.256   3.071 -0.2716 -0.1486 -0.9833
 5841SOL     OW29155   3.248   0.029   0.430 -0.6395 -0.7163 -0.4518
 5841SOL    HW129156   3.212   0.080   0.358  1.4956  0.0317 -1.0021
 5841SOL    HW229157   3.205   4.680   0.417 -1.7613 -0.2347  0.1840
 5842SOL     OW29158   4.461   3.930   6.943  0.2090  0.6616  0.4618
 5842SOL    HW129159   4.388   3.868   6.940  0.5161  0.3464 -0.7345
 5842SOL    HW229160   4.410   4.009   6.922  1.6632  1.6005  0.4546
 5843SOL     OW29161   2.457   0.839  15.237 -0.6994 -0.2726  0.0943
 5843SOL    HW129162   2.497   0.882  15.313 -1.4291 -1.8809  1.3765
 5843SOL    HW229163   2.502   0.877  15.162 -0.3340  0.0488  0.4766
 5844SOL     OW29164   1.724   2.836   4.297 -0.1725 -0.0762 -0.0912
 5844SOL    HW129165   1.675   2.762   4.261  1.4694 -1.7022  1.0122
 5844SOL    HW229166   1.744   2.888   4.220  1.1863 -2.0623 -1.0648
 5845SOL     OW29167   4.014   2.851  17.387 -0.4973  0.6664 -0.1458
 5845SOL    HW129168   4.108   2.853  17.403 -0.5215  3.6175 -0.4102
 5845SOL    HW229169   4.010   2.760  17.359 -0.3078  0.3896  0.7391
 5846SOL     OW29170   3.530   3.138   5.072 -0.3805  0.1426  0.0026
 5846SOL    HW129171   3.610   3.191   5.066  0.9967 -1.7216  2.2807
 5846SOL    HW229172   3.472   3.196   5.121  0.2121 -0.1311  1.0252
 5847SOL     OW29173   1.897   2.472   2.387  0.0020 -0.0409 -0.1183
 5847SOL    HW129174   1.919   2.553   2.341 -2.0792  0.0289 -0.9656
 5847SOL    HW229175   1.936   2.411   2.324 -0.2874  0.3981 -0.7294
 5848SOL     OW29176   3.527   1.345   3.975  0.3358  0.2346 -0.0958
 5848SOL    HW129177   3.584   1.313   4.044 -0.8613  0.4362  0.9829
 5848SOL    HW229178   3.587   1.411   3.940  1.3551 -0.7935 -0.3272
 5849SOL     OW29179   3.459   4.195   6.169  0.3511  0.1566  0.0545
 5849SOL    HW129180   3.533   4.251   6.193  0.4450  0.2662 -0.4944
 5849SOL    HW229181   3.389   4.218   6.229 -0.9910  1.1467 -1.9046
 5850SOL     OW29182   1.151   3.051   5.124 -0.2479 -0.0645 -0.5717
 5850SOL    HW129183   1.138   2.983   5.057  2.3382 -1.1767  0.0606
 5850SOL    HW229184   1.246   3.051   5.116 -0.1624 -0.3744  0.5463
 5851SOL     OW29185   4.608   1.151   4.690  0.1857  0.3130 -0.3220
 5851SOL    HW129186   4.669   1.164   4.763 -1.0697  1.9483  0.4045
 5851SOL    HW229187   4.646   1.201   4.618 -0.5432 -1.3870 -1.8895
 5852SOL     OW29188   4.029   0.887   1.910 -0.2297  0.2288  0.0946
 5852SOL    HW129189   3.959   0.906   1.971 -0.8579 -0.3158 -0.4529
 5852SOL    HW229190   4.093   0.847   1.968  0.6172  0.2725 -0.8014
 5853SOL     OW29191   3.458   2.251   3.220  0.1699  1.1114 -0.1807
 5853SOL    HW129192   3.480   2.165   3.256 -0.0612  0.9152 -0.5080
 5853SOL    HW229193   3.503   2.313   3.277 -2.2962  0.9422  1.9747
 5854SOL     OW29194   4.309   0.362   2.222  0.4110 -0.2458  0.3174
 5854SOL    HW129195   4.324   0.274   2.257  1.3123 -0.8308 -1.5735
 5854SOL    HW229196   4.215   0.363   2.201  1.1030  1.2972 -2.6573
 5855SOL     OW29197   3.312   1.789   8.190  0.3113 -0.5012 -0.3698
 5855SOL    HW129198   3.279   1.750   8.271  0.9203 -1.3174 -0.5187
 5855SOL    HW229199   3.252   1.864   8.183  1.0754  0.0955 -0.5294
 5856SOL     OW29200   3.885   0.024  12.150  0.9307 -0.2707  0.1019
 5856SOL    HW129201   3.818   4.736  12.213 -0.6129 -0.5065 -1.6290
 5856SOL    HW229202   3.843   0.072  12.079 -1.2515 -1.4718  0.5996
 5857SOL     OW29203   3.193   2.548  17.204 -0.0366 -0.1716 -0.0076
 5857SOL    HW129204   3.125   2.608  17.172  0.3882  1.2023  1.6705
 5857SOL    HW229205   3.263   2.605  17.234  1.0060 -2.5705  2.1010
 5858SOL     OW29206   2.092   2.735  11.566  0.4285 -0.5456 -0.2110
 5858SOL    HW129207   2.182   2.760  11.586  0.7819 -1.4760 -0.6442
 5858SOL    HW229208   2.042   2.811  11.597  1.3580 -1.1668  2.7651
 5859SOL     OW29209   1.157   3.082   8.064  0.1549 -0.2021  0.4171
 5859SOL    HW129210   1.094   3.061   8.133  1.9810 -0.7300  1.9301
 5859SOL    HW229211   1.182   2.997   8.026 -0.7882 -0.6963  0.9048
 5860SOL     OW29212   0.975   0.994   8.293  0.6738 -0.5332 -0.1816
 5860SOL    HW129213   0.916   0.994   8.218 -1.2238  1.1215  1.3094
 5860SOL    HW229214   1.033   1.065   8.266 -1.0363  0.5176 -1.0628
 5861SOL     OW29215   4.510   0.152   2.920  0.5059 -0.1460 -0.3362
 5861SOL    HW129216   4.483   0.171   2.830  0.6514 -1.8239 -0.7326
 5861SOL    HW229217   4.438   0.094   2.946  0.6812  0.4024  1.3801
 5862SOL     OW29218   2.091   4.588  16.114 -0.1164 -0.0462  0.0156
 5862SOL    HW129219   2.071   4.596  16.207 -0.9649 -1.5195 -0.0352
 5862SOL    HW229220   2.186   4.590  16.113 -0.1443  1.0455 -0.5189
 5863SOL     OW29221   3.174   0.596   0.752  0.7156  0.3276 -0.2869
 5863SOL    HW129222   3.206   0.576   0.664 -1.4656 -0.8257 -0.8304
 5863SOL    HW229223   3.111   0.668   0.749 -0.4307 -0.6902 -0.7549
 5864SOL     OW29224   4.706   0.847   8.465  0.4153  0.5135  0.3491
 5864SOL    HW129225   4.681   0.938   8.453 -0.1307  0.2356 -0.6918
 5864SOL    HW229226   4.723   0.830   8.372 -1.2261 -1.1813  0.3559
 5865SOL     OW29227   2.525   4.351   0.630 -0.3082 -0.4047 -0.1584
 5865SOL    HW129228   2.495   4.280   0.573 -2.0951 -0.0188  0.3220
 5865SOL    HW229229   2.450   4.409   0.618 -0.3626 -0.4506 -0.0380
 5866SOL     OW29230   3.117   0.144   6.420 -0.1331 -0.3114  0.2019
 5866SOL    HW129231   3.042   0.169   6.367 -0.8965  2.4572  2.6137
 5866SOL    HW229232   3.105   0.197   6.499 -0.6535  0.4712 -0.4055
 5867SOL     OW29233   2.748   0.677   4.061 -0.0671 -0.3659 -0.5422
 5867SOL    HW129234   2.787   0.657   4.147  0.6908 -0.9839 -1.0300
 5867SOL    HW229235   2.729   0.771   4.061 -2.1262 -0.7838  1.6360
 5868SOL     OW29236   3.526   1.517   8.084 -0.4008  0.2050 -0.4837
 5868SOL    HW129237   3.603   1.488   8.035 -0.6347 -0.4813 -0.4447
 5868SOL    HW229238   3.487   1.433   8.105  2.6714 -1.2554 -0.6326
 5869SOL     OW29239   4.053   2.400   2.325  0.2079  0.7424 -0.1285
 5869SOL    HW129240   4.004   2.436   2.251 -1.5487 -0.4065  0.4813
 5869SOL    HW229241   4.123   2.349   2.286 -1.9034 -0.4254 -2.3756
 5870SOL     OW29242   1.275   4.394  11.714  0.1994  0.2125 -0.9247
 5870SOL    HW129243   1.364   4.360  11.710  0.6198  1.1120  0.9146
 5870SOL    HW229244   1.280   4.453  11.789 -1.7803 -0.9095  0.1041
 5871SOL     OW29245   4.316   3.706   6.695  0.0881 -0.0372 -0.6109
 5871SOL    HW129246   4.238   3.714   6.640  0.3653  0.0416 -0.9949
 5871SOL    HW229247   4.283   3.757   6.769  0.3734 -2.2247  0.9786
 5872SOL     OW29248   0.036   3.390   8.081 -0.0101  0.3333  1.3445
 5872SOL    HW129249   0.112   3.445   8.061  0.7402 -1.5401 -0.8915
 5872SOL    HW229250   4.694   3.439   8.053  0.6031  0.0131 -0.9416
 5873SOL     OW29251   4.583   3.899  13.458  0.1689 -0.0057  0.0548
 5873SOL    HW129252   4.523   3.832  13.492  1.0465 -0.2488  1.1220
 5873SOL    HW229253   4.565   3.886  13.365 -0.0212 -0.4316  0.1489
 5874SOL     OW29254   3.443   0.252   1.906 -0.0330  0.0073  0.3289
 5874SOL    HW129255   3.418   0.344   1.896 -0.4872 -0.1105  0.3769
 5874SOL    HW229256   3.537   0.269   1.907 -0.1311  0.5448  1.6892
 5875SOL     OW29257   3.801   3.192  13.135  0.4268 -0.7122  0.3223
 5875SOL    HW129258   3.876   3.136  13.155  1.1838 -0.3031 -1.3535
 5875SOL    HW229259   3.837   3.258  13.075  0.3555 -2.7013 -1.8902
 5876SOL     OW29260   2.716   2.510   8.900 -0.7297  0.2910 -0.3123
 5876SOL    HW129261   2.662   2.431   8.907  1.3230 -1.0365  0.5041
 5876SOL    HW229262   2.733   2.493   8.807  0.3789 -0.0282 -0.0523
 5877SOL     OW29263   0.423   4.183   6.937  0.2860  0.2259  0.0945
 5877SOL    HW129264   0.361   4.110   6.931  1.0115 -0.3802 -0.0682
 5877SOL    HW229265   0.440   4.176   7.031  0.2969  1.0582  0.1516
 5878SOL     OW29266   3.443   1.834   8.785 -0.0912 -0.0386  0.5733
 5878SOL    HW129267   3.426   1.911   8.839 -1.6880  1.5158 -2.1714
 5878SOL    HW229268   3.381   1.771   8.821  1.3925 -2.2172 -0.6417
 5879SOL     OW29269   1.094   0.237  16.027  0.6652 -0.2436 -0.2093
 5879SOL    HW129270   1.102   0.228  15.932  1.5979 -0.9126 -0.0684
 5879SOL    HW229271   1.091   0.145  16.054 -0.3875 -0.1492 -0.0044
 5880SOL     OW29272   0.155   0.392  10.187  0.0779 -0.3104 -0.2211
 5880SOL    HW129273   0.066   0.373  10.216 -0.2807 -0.5892 -1.5112
 5880SOL    HW229274   0.136   0.452  10.114  2.1364 -2.7651 -2.7969
 5881SOL     OW29275   0.479   3.003  15.413  0.3338 -0.2676 -0.3817
 5881SOL    HW129276   0.384   2.996  15.410  0.1740  1.7752 -0.4072
 5881SOL    HW229277   0.501   3.010  15.320 -1.2370  1.0972 -0.6415
 5882SOL     OW29278   4.654   2.897   8.041 -0.5437  0.1060 -0.0156
 5882SOL    HW129279   4.584   2.923   8.101  0.3886  2.0122  0.2387
 5882SOL    HW229280   4.716   2.969   8.049 -0.3381 -0.0129 -0.5732
 5883SOL     OW29281   2.776   3.260   8.152 -0.1241 -0.3437  0.0122
 5883SOL    HW129282   2.763   3.352   8.175 -1.2759 -0.3399 -0.6666
 5883SOL    HW229283   2.825   3.264   8.069  1.3405 -2.6798  0.7535
 5884SOL     OW29284   4.666   3.071   2.578  0.8366 -0.4947 -0.2036
 5884SOL    HW129285   4.611   2.995   2.559  1.7560 -0.7992 -1.6685
 5884SOL    HW229286   0.012   3.030   2.608  0.0525  0.3638  3.1493
 5885SOL     OW29287   2.379   3.542  13.472  0.3240  0.7442 -0.0119
 5885SOL    HW129288   2.364   3.483  13.546 -0.2564  0.3613 -0.4302
 5885SOL    HW229289   2.299   3.523  13.423 -0.4824  1.3179  1.0917
 5886SOL     OW29290   0.140   4.553   7.595 -0.3613 -0.0831 -0.0402
 5886SOL    HW129291   0.164   4.467   7.628  0.1008  0.3832  0.8530
 5886SOL    HW229292   0.226   4.588   7.572 -0.6791  1.3260  0.8835
 5887SOL     OW29293   0.822   0.311  12.059 -0.2726  0.7285 -0.2182
 5887SOL    HW129294   0.914   0.338  12.059 -0.6876  2.1558  0.0338
 5887SOL    HW229295   0.802   0.284  12.149 -1.2696  0.4723 -0.5224
 5888SOL     OW29296   2.393   2.701  13.088 -0.0183  0.0531 -0.2317
 5888SOL    HW129297   2.351   2.707  13.003  1.0169 -2.1742 -0.9087
 5888SOL    HW229298   2.475   2.656  13.067 -0.2518 -0.2383 -0.5115
 5889SOL     OW29299   1.720   0.519   4.167 -0.3112 -0.2140 -0.0048
 5889SOL    HW129300   1.660   0.456   4.207  0.0095 -0.7454 -0.3619
 5889SOL    HW229301   1.686   0.522   4.077  0.2275 -1.1486 -0.2317
 5890SOL     OW29302   3.307   3.133   6.636 -0.2486 -0.0284  0.2709
 5890SOL    HW129303   3.221   3.175   6.629  0.8918  2.6613  2.9300
 5890SOL    HW229304   3.267   3.046   6.629  1.2757 -0.6160 -1.1614
 5891SOL     OW29305   3.600   0.975   6.664  0.1875  0.3774  0.6621
 5891SOL    HW129306   3.560   0.915   6.601 -0.3082  0.7462  0.6247
 5891SOL    HW229307   3.531   0.975   6.731  0.4148  1.5409  0.8911
 5892SOL     OW29308   4.224   0.746   5.569 -0.4251  0.3467 -0.5588
 5892SOL    HW129309   4.255   0.717   5.655  1.3994 -0.3504 -1.4756
 5892SOL    HW229310   4.135   0.773   5.595 -0.7174  0.2624 -1.4821
 5893SOL     OW29311   1.739   2.776  16.221 -0.5969 -0.2214  0.1717
 5893SOL    HW129312   1.807   2.779  16.153 -0.1499  0.9403  0.6639
 5893SOL    HW229313   1.696   2.851  16.180  1.0999  0.2428 -0.7899
 5894SOL     OW29314   4.115   2.327   3.981 -0.0672 -0.3929  0.3950
 5894SOL    HW129315   4.036   2.380   3.991 -0.4786 -1.0457  0.6245
 5894SOL    HW229316   4.169   2.397   3.944 -1.1127  1.0961  1.6780
 5895SOL     OW29317   3.352   0.399   0.293  0.4942 -0.0107 -0.2937
 5895SOL    HW129318   3.280   0.345   0.259  1.6819 -2.1628  0.6187
 5895SOL    HW229319   3.335   0.478   0.242 -0.9295  0.1422  0.4286
 5896SOL     OW29320   2.502   1.386   7.864  0.1238 -0.1914  0.3330
 5896SOL    HW129321   2.475   1.295   7.870  0.1860 -0.4124 -2.8659
 5896SOL    HW229322   2.588   1.373   7.903 -1.5060 -0.0905  4.0424
 5897SOL     OW29323   4.099   2.817   9.776  0.1393 -0.3666 -0.0311
 5897SOL    HW129324   4.150   2.778   9.706  2.6393  2.0490  0.4650
 5897SOL    HW229325   4.053   2.886   9.729  1.3535  2.7483  3.3863
 5898SOL     OW29326   2.290   1.660  17.025  0.6900  0.3068  0.4869
 5898SOL    HW129327   2.254   1.707  16.950  0.5159 -0.7652 -0.1074
 5898SOL    HW229328   2.290   1.726  17.094 -0.5947  2.3776 -1.5000
 5899SOL     OW29329   3.294   0.088   4.220 -0.5316  0.2042  0.0978
 5899SOL    HW129330   3.305   0.180   4.245 -3.0899  0.1339  1.5260
 5899SOL    HW229331   3.351   0.044   4.283  0.4463  0.9813 -0.2511
 5900SOL     OW29332   3.613   1.353   6.129 -0.0212 -0.3926 -0.3139
 5900SOL    HW129333   3.639   1.385   6.043 -0.3889  1.2939  0.2074
 5900SOL    HW229334   3.614   1.441   6.166  0.0618  0.0627 -1.4081
 5901SOL     OW29335   0.125   4.181   7.235 -0.4965  0.2593 -0.0830
 5901SOL    HW129336   0.097   4.230   7.312 -0.1206 -1.5225  1.1887
 5901SOL    HW229337   0.054   4.204   7.175  0.7043  2.0610 -0.8087
 5902SOL     OW29338   2.231   3.277  12.439 -0.4358 -0.8129  0.6545
 5902SOL    HW129339   2.174   3.219  12.389 -1.4950 -0.0725  0.9857
 5902SOL    HW229340   2.311   3.230  12.460 -1.4004 -3.2935 -1.2771
 5903SOL     OW29341   4.566   4.722   6.336 -0.3273  0.5294  0.0111
 5903SOL    HW129342   4.593   4.650   6.392  1.5830  1.6091  0.4630
 5903SOL    HW229343   4.473   4.705   6.352  0.0038 -0.4550  0.8622
 5904SOL     OW29344   3.102   4.167   4.992 -0.9313  0.2413  0.1280
 5904SOL    HW129345   3.027   4.205   5.038 -1.3859 -2.2543  1.4714
 5904SOL    HW229346   3.074   4.076   4.979 -3.3069  0.5363  3.0574
 5905SOL     OW29347   2.954   0.953   4.606  0.1604  0.2234  0.5996
 5905SOL    HW129348   2.863   0.967   4.582  0.4475  0.5269 -0.3506
 5905SOL    HW229349   2.988   1.042   4.594 -0.8909  0.6242  0.6826
 5906SOL     OW29350   2.947   4.561  16.312 -0.2447  0.2532 -0.3017
 5906SOL    HW129351   2.963   4.469  16.288 -0.0647  0.4183 -0.8168
 5906SOL    HW229352   2.871   4.543  16.367 -1.6945 -0.9729 -2.6900
 5907SOL     OW29353   2.292   3.604  12.854 -0.0358 -0.6501  0.3464
 5907SOL    HW129354   2.221   3.607  12.790  2.2171  0.3318 -2.1515
 5907SOL    HW229355   2.359   3.578  12.790 -0.4974 -0.4104 -0.2316
 5908SOL     OW29356   4.513   0.139  11.397  0.0051 -0.0462 -0.4727
 5908SOL    HW129357   4.435   0.188  11.422  0.2211 -0.1995  0.5072
 5908SOL    HW229358   4.565   0.206  11.351  0.7130 -0.8141 -0.7976
 5909SOL     OW29359   4.052   4.151   4.997  0.9879  0.0319 -0.3317
 5909SOL    HW129360   3.975   4.185   4.952  0.6790  1.0493  0.9564
 5909SOL    HW229361   4.120   4.176   4.935  0.2958  0.4283 -0.9217
 5910SOL     OW29362   2.352   4.515  13.319  0.0681 -0.2216  0.0030
 5910SOL    HW129363   2.374   4.532  13.228 -1.1300 -0.0694 -0.2565
 5910SOL    HW229364   2.304   4.431  13.320  1.3992 -0.9775  1.4164
 5911SOL     OW29365   2.965   1.569  16.958  0.7410  0.3871  0.5638
 5911SOL    HW129366   2.944   1.652  16.914  0.8361  1.2272  2.0912
 5911SOL    HW229367   3.051   1.551  16.922 -1.0677  0.1080 -3.5292
 5912SOL     OW29368   2.047   2.627  12.644 -0.3157  0.0255 -0.4705
 5912SOL    HW129369   2.119   2.657  12.699  1.1375 -2.4499 -0.9927
 5912SOL    HW229370   2.076   2.536  12.633  0.5161  0.0671  1.5186
 5913SOL     OW29371   4.528   2.145   0.793  0.0829 -0.4211 -0.0761
 5913SOL    HW129372   4.459   2.198   0.753  0.9699  1.0709  0.3702
 5913SOL    HW229373   4.530   2.163   0.887  0.4395  2.1486 -0.5942
 5914SOL     OW29374   1.304   4.396   7.501  0.4200  0.4039 -0.1295
 5914SOL    HW129375   1.234   4.330   7.507 -0.7826  1.8176  1.3979
 5914SOL    HW229376   1.339   4.383   7.413 -1.2030  0.1783 -0.7404
 5915SOL     OW29377   2.468   4.481   9.061  0.1811  0.2619  0.4762
 5915SOL    HW129378   2.483   4.569   9.096 -0.7360  0.1874  1.0683
 5915SOL    HW229379   2.502   4.486   8.971 -0.5332 -0.0380  0.1809
 5916SOL     OW29380   3.431   2.351   0.316 -0.2456 -0.1960  0.3279
 5916SOL    HW129381   3.479   2.352   0.399 -1.2289 -0.1513  0.8828
 5916SOL    HW229382   3.348   2.384   0.350  0.5273  3.8004 -1.6319
 5917SOL     OW29383   2.050   2.503   6.409  0.0569 -0.6808  0.1696
 5917SOL    HW129384   1.998   2.582   6.393  0.1102 -0.6107  0.3416
 5917SOL    HW229385   2.140   2.533   6.420  0.3063 -0.8834 -1.3880
 5918SOL     OW29386   4.433   4.326   8.742 -0.0496 -0.2383  0.4607
 5918SOL    HW129387   4.391   4.286   8.665 -0.8038 -0.9034  1.2181
 5918SOL    HW229388   4.480   4.256   8.788 -1.5339 -1.7547 -0.3314
 5919SOL     OW29389   3.760   4.286   7.258  0.5376 -0.5540 -0.0736
 5919SOL    HW129390   3.717   4.240   7.185  0.0421  1.0979 -0.8246
 5919SOL    HW229391   3.738   4.378   7.242 -0.2147 -0.8234 -0.6422
 5920SOL     OW29392   2.425   1.313   9.123 -0.5724  0.2355 -0.1502
 5920SOL    HW129393   2.448   1.401   9.153  0.8501 -0.9407  2.2159
 5920SOL    HW229394   2.488   1.258   9.169 -0.8962 -1.0165 -1.2121
 5921SOL     OW29395   3.780   0.463   3.776  0.1010 -0.1102 -0.1655
 5921SOL    HW129396   3.733   0.540   3.744  1.6181  1.8313  2.2590
 5921SOL    HW229397   3.862   0.495   3.738  0.3738 -1.3614 -0.6498
 5922SOL     OW29398   0.248   4.454   8.587  0.1183 -0.0754 -0.2280
 5922SOL    HW129399   0.291   4.409   8.659 -0.7194  0.3368  0.5236
 5922SOL    HW229400   0.161   4.455   8.626  0.4660  2.5158  0.4493
 5923SOL     OW29401   2.701   1.939   7.578  0.2749  0.6809 -0.0489
 5923SOL    HW129402   2.637   1.943   7.507 -0.4503  0.5337  0.6039
 5923SOL    HW229403   2.685   1.849   7.606  1.8450 -0.7810 -3.7409
 5924SOL     OW29404   2.048   1.582  17.324 -0.0118 -0.3061 -0.0982
 5924SOL    HW129405   1.965   1.619  17.296 -0.4066 -1.4293 -0.4026
 5924SOL    HW229406   2.092   1.664  17.347 -0.1017 -0.5363  0.9047
 5925SOL     OW29407   0.150   3.794   8.761 -0.0576  0.1720  0.3323
 5925SOL    HW129408   0.117   3.822   8.847  0.0343  1.8658 -0.1969
 5925SOL    HW229409   0.233   3.764   8.797  0.5231  1.3858 -0.0233
 5926SOL     OW29410   3.814   3.726   7.134 -0.3590  0.0362 -0.3070
 5926SOL    HW129411   3.757   3.745   7.208  0.2049 -1.0591  0.3965
 5926SOL    HW229412   3.789   3.634   7.125  0.3371 -0.2627  0.8779
 5927SOL     OW29413   1.124   4.067  17.390 -0.4596  0.1422 -0.7632
 5927SOL    HW129414   1.091   4.055  17.479 -1.4364  1.0702 -0.9934
 5927SOL    HW229415   1.158   3.978  17.380  0.2027  0.2462  0.5005
 5928SOL     OW29416   2.682   3.304   6.201  0.1716  0.1641 -0.1832
 5928SOL    HW129417   2.676   3.399   6.191  1.0745  0.2113 -0.2882
 5928SOL    HW229418   2.598   3.283   6.160  0.7057 -0.5506 -0.8803
 5929SOL     OW29419   2.505   1.228  15.251  0.8575 -0.0706  0.4042
 5929SOL    HW129420   2.555   1.183  15.183  0.0401 -0.4561  0.0720
 5929SOL    HW229421   2.581   1.266  15.296  0.2795  1.8834 -0.2603
 5930SOL     OW29422   3.527   0.791   6.459 -0.2769  0.3513  0.1837
 5930SOL    HW129423   3.586   0.727   6.499  2.2551  0.7367 -2.9131
 5930SOL    HW229424   3.520   0.764   6.368  1.0389 -0.3339  0.2811
 5931SOL     OW29425   4.521   3.176   4.148  0.0257 -0.6494  0.1375
 5931SOL    HW129426   4.476   3.222   4.077  1.2504  1.4233  0.7042
 5931SOL    HW229427   4.444   3.162   4.202 -0.2239 -1.6088 -0.4624
 5932SOL     OW29428   0.744   4.111   6.109  0.2575  0.3407 -0.6378
 5932SOL    HW129429   0.783   4.085   6.026 -0.5346  0.3507 -1.0096
 5932SOL    HW229430   0.718   4.202   6.092 -0.6283 -0.0427 -1.3648
 5933SOL     OW29431   1.010   4.541   6.882 -0.1810 -0.2308 -0.8277
 5933SOL    HW129432   0.992   4.635   6.892  0.9463  0.0530 -1.4292
 5933SOL    HW229433   0.948   4.509   6.816 -0.1508 -2.6305  0.3233
 5934SOL     OW29434   4.111   0.618   2.958  0.4687 -0.4802  0.2563
 5934SOL    HW129435   4.087   0.700   2.916  0.8589  0.4122  1.7587
 5934SOL    HW229436   4.169   0.656   3.025  1.2399  1.5968 -1.5945
 5935SOL     OW29437   4.124   1.608  16.540 -0.1928 -1.0247 -0.3196
 5935SOL    HW129438   4.076   1.623  16.458 -1.8441  0.7530  0.9836
 5935SOL    HW229439   4.061   1.633  16.607  2.2116 -0.5313  1.7594
 5936SOL     OW29440   1.361   3.514   7.134  0.2927 -0.3741 -0.4779
 5936SOL    HW129441   1.443   3.552   7.166 -0.1534  1.2127 -1.2225
 5936SOL    HW229442   1.323   3.586   7.083 -0.9892  0.4159  1.6152
 5937SOL     OW29443   4.584   3.025   6.226 -1.0609 -0.3161 -0.4852
 5937SOL    HW129444   4.553   3.087   6.160  0.7605  1.9333  0.7592
 5937SOL    HW229445   4.572   2.942   6.180 -0.2049 -1.3054  1.0876
 5938SOL     OW29446   0.886   3.807   6.857 -0.0664 -0.3774 -0.0334
 5938SOL    HW129447   0.904   3.715   6.837 -0.8063 -0.6748  0.6643
 5938SOL    HW229448   0.839   3.836   6.780 -0.7910 -1.1021  0.1390
 5939SOL     OW29449   2.018   3.508   8.769  0.3376  0.2453 -0.1756
 5939SOL    HW129450   1.933   3.467   8.787  0.4133 -0.9583 -2.4492
 5939SOL    HW229451   1.997   3.598   8.793  0.3268  0.2730 -0.2864
 5940SOL     OW29452   2.300   1.406   4.703 -0.0668  0.3049 -0.4278
 5940SOL    HW129453   2.265   1.318   4.717  0.9260 -0.1754 -0.9126
 5940SOL    HW229454   2.364   1.386   4.634  2.0597  1.8884  1.1043
 5941SOL     OW29455   4.132   4.380   4.789 -0.1788 -0.4960 -0.6816
 5941SOL    HW129456   4.157   4.378   4.696 -0.0395 -0.6237 -0.6408
 5941SOL    HW229457   4.053   4.326   4.781 -1.2883  1.0477 -0.1837
 5942SOL     OW29458   0.801   0.521   0.544 -0.2686  0.2052  0.0306
 5942SOL    HW129459   0.837   0.607   0.563  0.3936 -0.3357  1.2385
 5942SOL    HW229460   0.710   0.520   0.571 -0.2647 -0.6943  0.0067
 5943SOL     OW29461   1.336   4.019  16.784  0.3991 -0.2119 -0.2216
 5943SOL    HW129462   1.329   3.925  16.803 -1.7173  0.0180  0.1528
 5943SOL    HW229463   1.418   4.013  16.735  0.5059  0.7192 -0.1554
 5944SOL     OW29464   2.677   0.144  11.913 -0.2826 -0.2431 -0.2315
 5944SOL    HW129465   2.651   0.236  11.907  0.4459  0.0889  1.8647
 5944SOL    HW229466   2.732   0.147  11.835  1.7385 -0.9784  1.1790
 5945SOL     OW29467   1.513   1.608   6.161  0.0448 -0.0021  0.8993
 5945SOL    HW129468   1.605   1.580   6.161 -0.0820 -0.4058  3.2451
 5945SOL    HW229469   1.523   1.695   6.200 -0.1000  1.5943 -2.6335
 5946SOL     OW29470   1.017   1.802   0.186  0.2538 -0.4130 -0.2948
 5946SOL    HW129471   1.005   1.886   0.141 -2.2019  0.4715  1.9557
 5946SOL    HW229472   0.942   1.803   0.245 -0.6859 -3.4336 -1.4382
 5947SOL     OW29473   4.635   1.639   3.904  0.2000  0.4735  0.2157
 5947SOL    HW129474   4.547   1.603   3.915  1.1628 -1.1655  2.5021
 5947SOL    HW229475   4.613   1.731   3.891 -0.9593  0.4208  1.7526
 5948SOL     OW29476   3.200   1.830   9.880  1.0601 -0.5123 -0.3926
 5948SOL    HW129477   3.289   1.858   9.900  1.7782 -2.2570 -1.0674
 5948SOL    HW229478   3.214   1.742   9.845  0.7601 -0.6686 -0.1126
 5949SOL     OW29479   3.363   0.311   7.929  0.1981 -0.4253  0.3203
 5949SOL    HW129480   3.369   0.243   7.861 -2.3831 -0.2989 -0.0452
 5949SOL    HW229481   3.431   0.288   7.992 -0.0355  0.9248  1.0542
 5950SOL     OW29482   2.453   1.386   7.605  0.4848 -0.2491  0.0547
 5950SOL    HW129483   2.368   1.346   7.622 -0.4551  1.7498  0.0015
 5950SOL    HW229484   2.495   1.365   7.688 -0.1953  0.6195  0.6168
 5951SOL     OW29485   4.654   0.835  13.307 -0.1845 -0.1334  0.7650
 5951SOL    HW129486   4.613   0.830  13.220 -0.7028 -0.6624  1.0422
 5951SOL    HW229487   0.002   0.877  13.287 -0.8296  1.4613  1.4834
 5952SOL     OW29488   3.448   2.464  14.667  0.1715 -0.0294 -0.2234
 5952SOL    HW129489   3.435   2.386  14.613  2.7922 -0.9745  0.5129
 5952SOL    HW229490   3.450   2.418  14.751 -0.4981 -0.4748 -0.4531
 5953SOL     OW29491   3.572   1.652   9.836  0.0898 -0.4373  0.0829
 5953SOL    HW129492   3.490   1.688   9.869  0.0272  0.8295 -1.5014
 5953SOL    HW229493   3.564   1.659   9.741  1.0942  0.8267  0.0945
 5954SOL     OW29494   0.448   4.038   1.338 -0.5386  0.3641  0.6379
 5954SOL    HW129495   0.457   3.944   1.321  1.1320  0.2328  2.3798
 5954SOL    HW229496   0.468   4.071   1.250  0.2847  0.2700  0.7910
 5955SOL     OW29497   1.200   2.054   6.063  0.5774 -0.2254  0.0276
 5955SOL    HW129498   1.288   2.091   6.062 -0.1945  1.6196  0.0929
 5955SOL    HW229499   1.203   2.001   6.143 -2.6604  0.6591  0.7455
 5956SOL     OW29500   2.643   2.793  10.917  0.0859  0.1414 -0.0571
 5956SOL    HW129501   2.725   2.836  10.892 -0.4761 -0.7182 -3.3772
 5956SOL    HW229502   2.591   2.801  10.837 -0.0917  1.6515  0.1986
 5957SOL     OW29503   4.125   0.599  11.173 -0.4180  0.0230  0.4212
 5957SOL    HW129504   4.077   0.517  11.161 -0.6167 -0.0997  2.0147
 5957SOL    HW229505   4.215   0.568  11.183 -0.3005  0.1853 -0.1463
 5958SOL     OW29506   4.501   3.993   3.361 -0.4237 -0.2269  0.0212
 5958SOL    HW129507   4.454   4.048   3.425  1.5214  2.0049 -0.4734
 5958SOL    HW229508   4.562   4.055   3.320 -0.1623 -0.2241  0.4145
 5959SOL     OW29509   1.048   2.306   6.144  0.3580  0.4048  0.0004
 5959SOL    HW129510   1.131   2.258   6.150 -0.4829 -1.2058 -1.4094
 5959SOL    HW229511   1.056   2.385   6.197  3.0689  2.6132 -3.6959
 5960SOL     OW29512   4.004   0.647   3.576 -0.2644  0.2109  0.0674
 5960SOL    HW129513   3.998   0.582   3.507  1.4604 -0.6094  0.7070
 5960SOL    HW229514   3.918   0.690   3.580 -1.3641 -1.9098 -0.6661
 5961SOL     OW29515   0.540   0.722   9.972  0.0461 -0.2854  0.4193
 5961SOL    HW129516   0.466   0.769  10.010 -2.0069 -0.0410 -3.8714
 5961SOL    HW229517   0.608   0.730  10.039  0.7196 -0.2647 -0.2656
 5962SOL     OW29518   0.077   0.072  15.528  0.3110  0.0126  0.0543
 5962SOL    HW129519   0.172   0.060  15.529  0.4385  0.8882 -1.5731
 5962SOL    HW229520   0.075   0.167  15.526  0.9670  0.0161 -0.7611
 5963SOL     OW29521   0.035   1.215   4.894 -0.2656 -0.0108  0.3362
 5963SOL    HW129522   0.127   1.187   4.896 -0.1142  0.1827 -2.7405
 5963SOL    HW229523   0.020   1.241   4.985  0.1773 -1.8278  0.9282
 5964SOL     OW29524   3.531   4.530   8.334  0.2319 -0.5081  0.4867
 5964SOL    HW129525   3.595   4.511   8.265  0.6052  1.2279  0.3663
 5964SOL    HW229526   3.520   4.624   8.321  0.8610 -0.5633 -0.4165
 5965SOL     OW29527   4.376   3.119   8.528 -0.3271 -0.0141  0.5579
 5965SOL    HW129528   4.472   3.124   8.525 -0.6780  5.3413 -1.3947
 5965SOL    HW229529   4.362   3.025   8.539 -0.3061  0.0309  0.9632
 5966SOL     OW29530   0.183   1.787   7.807 -0.1057  0.0030 -0.3850
 5966SOL    HW129531   0.201   1.755   7.719 -1.7593 -4.2491  0.7902
 5966SOL    HW229532   0.258   1.841   7.832  1.7288 -1.4091 -2.8255
 5967SOL     OW29533   2.241   3.646   4.157  0.3127  0.2993  0.1102
 5967SOL    HW129534   2.311   3.638   4.092 -1.3279  0.7024 -1.7065
 5967SOL    HW229535   2.164   3.654   4.101 -0.1772  0.6813  0.8355
 5968SOL     OW29536   1.023   0.189  12.634 -0.0322 -0.3838  0.2586
 5968SOL    HW129537   1.094   0.249  12.656  0.6178 -1.1465  0.2489
 5968SOL    HW229538   1.052   0.111  12.680  0.6229 -0.3279 -0.0555
 5969SOL     OW29539   4.409   4.314   4.588  0.1292  0.0363 -0.3042
 5969SOL    HW129540   4.369   4.234   4.555 -1.8525  2.4108 -3.7903
 5969SOL    HW229541   4.502   4.294   4.581 -0.4361 -2.8059  0.5999
 5970SOL     OW29542   3.056   4.402  10.309  0.5814 -0.5095  0.2108
 5970SOL    HW129543   3.054   4.319  10.261  0.2346  0.3691 -1.2763
 5970SOL    HW229544   2.990   4.456  10.266  0.9925  0.7038  1.0975
 5971SOL     OW29545   1.420   4.634  10.695  0.3087  0.0388 -0.0574
 5971SOL    HW129546   1.458   4.657  10.780  1.5201 -2.7879  0.1713
 5971SOL    HW229547   1.378   4.551  10.717  0.3924  0.0037 -0.0301
 5972SOL     OW29548   3.244   3.660  15.353  0.0299 -0.2575  0.1110
 5972SOL    HW129549   3.239   3.566  15.337  2.1427  0.0342 -2.2101
 5972SOL    HW229550   3.339   3.670  15.353 -0.1668  1.5610  0.4138
 5973SOL     OW29551   1.706   2.517   3.255  0.4613  0.1699  0.4404
 5973SOL    HW129552   1.671   2.595   3.210 -0.6846 -0.1895  0.7122
 5973SOL    HW229553   1.787   2.557   3.286  1.4168 -0.4260 -1.2785
 5974SOL     OW29554   2.431   1.144   6.632  0.4513 -0.3667 -0.0024
 5974SOL    HW129555   2.483   1.222   6.651  0.7767 -0.8136  0.9546
 5974SOL    HW229556   2.351   1.156   6.683  0.9804  1.4948  0.4088
 5975SOL     OW29557   3.249   3.944  17.187 -0.7219  0.0248  0.9386
 5975SOL    HW129558   3.267   4.013  17.251  3.0776 -0.4897  0.4316
 5975SOL    HW229559   3.337   3.908  17.172 -0.2020  1.8345 -0.4237
 5976SOL     OW29560   3.356   4.498  12.469  0.5219  0.1952 -0.2100
 5976SOL    HW129561   3.279   4.511  12.413  1.5633  1.4661 -1.3564
 5976SOL    HW229562   3.324   4.553  12.540 -1.4484 -1.5097  0.2124
 5977SOL     OW29563   2.145   0.295   4.666  1.1301 -0.3619  0.2175
 5977SOL    HW129564   2.108   0.269   4.582  0.4171 -0.1359  0.4554
 5977SOL    HW229565   2.075   0.351   4.700  0.0793 -1.5295 -0.0241
 5978SOL     OW29566   4.036   0.537  15.593 -0.3695 -0.1916  0.0037
 5978SOL    HW129567   3.966   0.545  15.529 -0.5275  1.2908  0.3615
 5978SOL    HW229568   4.007   0.581  15.673  1.3617 -2.1023  1.6672
 5979SOL     OW29569   2.900   0.941   2.418  0.5795 -0.5741 -0.0805
 5979SOL    HW129570   2.889   0.869   2.356  1.0179  0.5694 -1.4951
 5979SOL    HW229571   2.986   0.974   2.393 -0.1231  2.7309  1.7902
 5980SOL     OW29572   3.567   0.619   7.359  0.3595  0.4961  0.0621
 5980SOL    HW129573   3.584   0.557   7.430 -1.0144 -1.8001 -1.6197
 5980SOL    HW229574   3.492   0.668   7.393 -0.2328 -0.0931 -0.4004
 5981SOL     OW29575   2.414   1.384   0.891  0.0809 -0.2732 -0.6688
 5981SOL    HW129576   2.333   1.347   0.854 -0.8678 -0.2431  1.3766
 5981SOL    HW229577   2.459   1.420   0.815 -0.0935  0.3865 -0.4593
 5982SOL     OW29578   3.114   3.307   5.313  0.0566 -0.6491 -0.2912
 5982SOL    HW129579   3.135   3.272   5.399 -1.5306  1.2554  0.8448
 5982SOL    HW229580   3.042   3.364   5.340  1.5751  0.9031  0.5491
 5983SOL     OW29581   4.462   1.027   4.287  0.2319  0.5736  0.2936
 5983SOL    HW129582   4.492   1.000   4.374 -1.1545  0.8141  0.8577
 5983SOL    HW229583   4.378   0.983   4.279  0.4140  0.5787 -1.6615
 5984SOL     OW29584   2.436   3.098  12.452  0.1665  0.0237 -0.1033
 5984SOL    HW129585   2.440   3.012  12.494 -0.1288  0.9075  1.7017
 5984SOL    HW229586   2.527   3.102  12.422 -0.4689 -0.3357 -2.1138
 5985SOL     OW29587   3.978   2.454   4.958 -0.1562 -0.0726  0.3749
 5985SOL    HW129588   4.012   2.502   4.882 -1.3124  0.6399  0.3103
 5985SOL    HW229589   3.965   2.529   5.016 -0.0834  0.1375  0.1210
 5986SOL     OW29590   0.293   1.742   5.302  0.3062 -0.1672  0.4897
 5986SOL    HW129591   0.343   1.823   5.292 -2.2408  1.4142  0.5454
 5986SOL    HW229592   0.362   1.697   5.351 -0.1548 -0.1261  1.1710
 5987SOL     OW29593   4.159   4.486   5.711 -0.2781 -0.4840 -0.0504
 5987SOL    HW129594   4.158   4.513   5.803  3.6898  0.5382 -0.2908
 5987SOL    HW229595   4.074   4.443   5.705 -0.3221 -0.4712  0.4541
 5988SOL     OW29596   1.801   4.221   5.027  0.0185 -0.0966  0.4286
 5988SOL    HW129597   1.872   4.282   5.050  1.0384 -0.6901 -1.1559
 5988SOL    HW229598   1.714   4.261   5.028  0.9689  1.9666  0.8384
 5989SOL     OW29599   2.359   1.423   4.252 -0.3379 -0.2511  0.6509
 5989SOL    HW129600   2.443   1.442   4.294  0.3985 -1.1743 -0.4083
 5989SOL    HW229601   2.349   1.330   4.272 -0.1575 -0.3158  0.4465
 5990SOL     OW29602   1.886   1.575   4.103  0.1730 -0.3885  0.0858
 5990SOL    HW129603   1.820   1.507   4.090 -1.2575  0.6179  2.0541
 5990SOL    HW229604   1.850   1.649   4.054  0.2131  0.2540  1.0182
 5991SOL     OW29605   3.054   2.483  16.844  0.8651  0.0497 -0.3147
 5991SOL    HW129606   3.018   2.457  16.759  0.7813 -2.0331  0.3558
 5991SOL    HW229607   2.993   2.543  16.886  0.9033 -0.4670  0.4874
 5992SOL     OW29608   3.884   1.634  15.777 -0.5209 -0.0093  0.0038
 5992SOL    HW129609   3.863   1.548  15.740  1.1305 -0.8878  1.0920
 5992SOL    HW229610   3.861   1.624  15.869 -2.8390  0.8256 -0.5079
 5993SOL     OW29611   3.485   1.045  15.572 -0.3132 -0.6159  0.5409
 5993SOL    HW129612   3.457   1.122  15.521  1.4223  0.2656  0.9299
 5993SOL    HW229613   3.488   0.983  15.499  1.2666 -0.3483  0.3902
 5994SOL     OW29614   2.701   3.811   2.403 -0.6145  0.1476  0.0375
 5994SOL    HW129615   2.756   3.821   2.480 -3.0582  0.9234  1.6774
 5994SOL    HW229616   2.698   3.716   2.396  0.1183 -0.0544  2.6285
 5995SOL     OW29617   0.571   1.890  10.090  0.4359  0.0926 -0.4124
 5995SOL    HW129618   0.587   1.984  10.078 -1.9509  0.5819  0.1753
 5995SOL    HW229619   0.558   1.864   9.999 -2.4440  0.2244 -0.0110
 5996SOL     OW29620   1.391   0.387   5.867  0.8322 -0.5053  0.5525
 5996SOL    HW129621   1.401   0.369   5.960  0.3849  0.7239  0.8518
 5996SOL    HW229622   1.323   0.322   5.849  1.3785 -0.8308 -0.3006
 5997SOL     OW29623   3.357   1.746   4.817  0.3418 -0.4189  0.2358
 5997SOL    HW129624   3.289   1.694   4.860  1.3346 -0.4171  1.8240
 5997SOL    HW229625   3.312   1.828   4.797 -1.0777 -1.8127 -2.2618
 5998SOL     OW29626   4.516   2.645  14.812 -0.4561  0.4146 -0.4328
 5998SOL    HW129627   4.490   2.559  14.780 -2.1158  0.9805 -0.6010
 5998SOL    HW229628   4.582   2.673  14.749 -0.4049  0.0527 -0.5436
 5999SOL     OW29629   3.372   2.779   8.950  0.1050 -0.1619  0.2535
 5999SOL    HW129630   3.457   2.821   8.956  0.4994 -0.7896 -0.9223
 5999SOL    HW229631   3.388   2.722   8.875 -2.7876  0.6036 -0.9652
 6000SOL     OW29632   2.698   0.010  15.872  0.4085  0.0343 -0.0752
 6000SOL    HW129633   2.646   4.726  15.795  0.2726 -2.3494  0.6260
 6000SOL    HW229634   2.779   4.695  15.861  0.4026  0.4118 -1.8202
 6001SOL     OW29635   3.615   4.438   1.965  0.4994  0.1890  0.7317
 6001SOL    HW129636   3.710   4.445   1.964  0.3651  1.7596 -0.4476
 6001SOL    HW229637   3.616   4.374   2.036  0.5448 -1.4775 -0.7459
 6002SOL     OW29638   2.433   2.974   8.097  0.4089 -0.4108 -0.2166
 6002SOL    HW129639   2.467   2.934   8.178 -1.1463 -2.5220 -0.6259
 6002SOL    HW229640   2.446   3.066   8.119 -0.7013 -0.2651 -0.1833
 6003SOL     OW29641   4.355   3.593  12.718  0.0792 -0.1269 -0.5263
 6003SOL    HW129642   4.334   3.514  12.669 -0.5391 -1.5896  2.0650
 6003SOL    HW229643   4.413   3.635  12.655 -2.0879  2.5199 -0.7735
 6004SOL     OW29644   3.485   1.367   9.818 -0.3614 -0.5674 -0.1850
 6004SOL    HW129645   3.539   1.327   9.750  0.0447  0.2234 -0.3218
 6004SOL    HW229646   3.517   1.457   9.816 -0.1334 -0.6709 -1.1304
 6005SOL     OW29647   4.727   0.169   4.522 -0.2312 -0.0385 -0.0008
 6005SOL    HW129648   4.688   0.085   4.496  1.9173 -1.0619  0.0843
 6005SOL    HW229649   4.651   0.222   4.545 -0.8770 -0.6357 -0.7574
 6006SOL     OW29650   0.149   1.252   8.144 -0.3936  0.3379 -0.0772
 6006SOL    HW129651   0.184   1.171   8.107  0.1914  0.3450  0.4446
 6006SOL    HW229652   0.167   1.316   8.075 -0.8299  0.7246  0.1703
 6007SOL     OW29653   3.930   0.417   6.489  0.6614 -0.7027  0.0852
 6007SOL    HW129654   4.018   0.389   6.463 -0.9380 -3.6966 -2.0738
 6007SOL    HW229655   3.945   0.499   6.535 -0.5432 -0.5543  0.2083
 6008SOL     OW29656   3.786   4.402  10.116  0.3212 -0.1253 -0.4387
 6008SOL    HW129657   3.698   4.364  10.119  0.0715  0.5216  0.6430
 6008SOL    HW229658   3.766   4.493  10.140  2.7880  0.8477 -2.0547
 6009SOL     OW29659   0.801   0.964  12.164 -0.4378  0.2256 -0.1739
 6009SOL    HW129660   0.763   0.960  12.076  0.7950 -0.2604 -0.6778
 6009SOL    HW229661   0.786   1.058  12.176  3.1620  0.9744 -1.5457
 6010SOL     OW29662   4.209   1.536  15.888 -0.2569 -0.0073  0.6171
 6010SOL    HW129663   4.155   1.467  15.926 -1.3104  1.2749  1.4348
 6010SOL    HW229664   4.293   1.491  15.879 -0.3782 -0.5267  2.0707
 6011SOL     OW29665   3.388   0.885   2.514  0.1512 -0.6635 -0.3657
 6011SOL    HW129666   3.459   0.937   2.478 -1.0608  2.1584  1.3413
 6011SOL    HW229667   3.361   0.833   2.438 -1.4877 -0.8140  0.3046
 6012SOL     OW29668   0.296   0.831   7.356  1.0992  0.0991 -0.7725
 6012SOL    HW129669   0.235   0.777   7.407  0.8406  0.3923 -0.7772
 6012SOL    HW229670   0.274   0.800   7.269  2.8460 -1.7680 -0.5472
 6013SOL     OW29671   2.643   0.783   2.518 -0.0997 -0.2513 -0.3278
 6013SOL    HW129672   2.686   0.835   2.586 -1.3339  0.0676  0.2032
 6013SOL    HW229673   2.629   0.843   2.444 -0.3885 -0.1423 -0.1849
 6014SOL     OW29674   1.319   3.589   7.409  0.3445 -0.1571  0.3247
 6014SOL    HW129675   1.247   3.618   7.465  0.6859 -1.1556  1.2829
 6014SOL    HW229676   1.318   3.663   7.349  0.3782 -0.5720 -0.1923
 6015SOL     OW29677   2.125   3.085   8.341  0.1679 -0.1735  0.2151
 6015SOL    HW129678   2.185   3.048   8.407 -0.1894 -2.3099 -0.6528
 6015SOL    HW229679   2.079   3.150   8.393 -2.4408 -1.1475 -0.8794
 6016SOL     OW29680   2.726   0.564   5.843 -0.1554 -0.2043  0.5332
 6016SOL    HW129681   2.712   0.655   5.871  1.1920 -0.2050  1.1655
 6016SOL    HW229682   2.704   0.567   5.750  0.5398 -1.3161  0.3362
 6017SOL     OW29683   0.277   3.470   8.041 -0.2997  0.6410  0.0933
 6017SOL    HW129684   0.294   3.431   8.127  0.2214 -1.4634 -0.9634
 6017SOL    HW229685   0.347   3.435   7.986  0.6137  1.2489  0.8712
 6018SOL     OW29686   4.039   2.798  10.953  0.1478 -0.1903 -0.1023
 6018SOL    HW129687   4.030   2.807  11.048 -0.8611 -0.9030 -0.1397
 6018SOL    HW229688   4.044   2.890  10.927 -0.5212  0.0020  0.4375
 6019SOL     OW29689   0.860   0.120   4.655  0.0017 -0.3627 -0.0325
 6019SOL    HW129690   0.885   0.048   4.596  0.4102 -1.0204  0.9475
 6019SOL    HW229691   0.768   0.095   4.646  0.2746 -1.2825 -0.3238
 6020SOL     OW29692   3.453   0.036   0.832 -0.7249  0.1674  0.8775
 6020SOL    HW129693   3.467   0.129   0.849 -0.6545  0.3819 -0.3507
 6020SOL    HW229694   3.466   0.021   0.738 -1.2522  0.7015  0.7210
 6021SOL     OW29695   1.909   3.335   5.859  0.0183  0.5727 -0.1128
 6021SOL    HW129696   1.878   3.377   5.940  0.3488 -0.7880  0.7190
 6021SOL    HW229697   1.973   3.400   5.830 -0.5804  0.9282 -0.6267
 6022SOL     OW29698   0.849   1.305   8.364 -0.4812  0.1925 -0.8209
 6022SOL    HW129699   0.861   1.315   8.458 -0.2256 -1.9713 -0.6326
 6022SOL    HW229700   0.774   1.247   8.358 -0.1593 -0.2152 -0.9349
 6023SOL     OW29701   1.012   1.758  13.496  0.6056 -0.0656  0.4378
 6023SOL    HW129702   1.068   1.727  13.425 -0.5722  0.2711 -0.6303
 6023SOL    HW229703   0.928   1.776  13.454  0.1989 -1.8336  0.5207
 6024SOL     OW29704   2.959   2.431   5.975 -0.1960  0.5033  0.2073
 6024SOL    HW129705   2.947   2.455   5.883 -0.1344  0.8495  0.2902
 6024SOL    HW229706   2.879   2.385   6.001 -0.2171  0.2467 -0.2955
 6025SOL     OW29707   3.674   4.134   7.030 -0.5665  0.8579  0.0674
 6025SOL    HW129708   3.624   4.090   6.962 -1.6008 -1.3850  2.2714
 6025SOL    HW229709   3.628   4.098   7.106  2.0416 -2.1460  0.2182
 6026SOL     OW29710   0.806   4.106  11.647  0.0871 -0.0096  0.5694
 6026SOL    HW129711   0.862   4.053  11.591  3.2584  2.2175  1.6578
 6026SOL    HW229712   0.860   4.184  11.665  0.5255  0.0334 -0.9516
 6027SOL     OW29713   0.151   3.495   5.500  0.8324 -0.2470  0.3604
 6027SOL    HW129714   0.205   3.547   5.441  3.2654 -2.6850  0.4652
 6027SOL    HW229715   0.079   3.558   5.506 -1.4305 -2.7822 -0.0793
 6028SOL     OW29716   0.018   0.603   9.626 -0.2696 -0.0710  0.3048
 6028SOL    HW129717   4.672   0.565   9.595  0.3073  0.2601 -1.6575
 6028SOL    HW229718   0.057   0.540   9.686 -0.2947 -0.5202 -0.1500
 6029SOL     OW29719   4.663   4.438   0.760 -0.0284  0.8196  0.3253
 6029SOL    HW129720   4.677   4.349   0.729 -1.6950  0.8420 -0.4705
 6029SOL    HW229721   4.624   4.490   0.690  0.8842  1.0756  0.0084
 6030SOL     OW29722   2.594   2.480   4.794  0.4805  0.2898  0.1005
 6030SOL    HW129723   2.621   2.472   4.885 -0.3492  0.6782  0.3775
 6030SOL    HW229724   2.645   2.554   4.761  0.8496  0.7258  1.6737
 6031SOL     OW29725   2.341   3.911  16.630  0.1506  0.3144  0.0920
 6031SOL    HW129726   2.323   3.999  16.660  0.5519  0.9373 -1.4819
 6031SOL    HW229727   2.314   3.859  16.706  1.3083  0.3285  0.5151
 6032SOL     OW29728   2.959   0.929   1.060  0.1510  0.2446 -0.0356
 6032SOL    HW129729   2.946   1.012   1.014 -2.1343  1.4496  2.8158
 6032SOL    HW229730   2.885   0.929   1.121 -0.4376 -0.4332 -0.7459
 6033SOL     OW29731   3.404   1.996   7.785 -0.5463 -0.2867  0.0838
 6033SOL    HW129732   3.441   1.971   7.700  0.3367 -0.6318  0.5611
 6033SOL    HW229733   3.420   2.090   7.783 -0.0629 -0.3702 -0.1431
 6034SOL     OW29734   1.955   1.914  17.089  0.4887 -0.0129 -0.1056
 6034SOL    HW129735   1.976   1.994  17.041  2.5285 -1.1924 -1.1695
 6034SOL    HW229736   1.983   1.855  17.018  0.3195 -0.6043  0.3155
 6035SOL     OW29737   2.970   4.612   4.210  0.0004 -0.2875 -0.7416
 6035SOL    HW129738   2.957   4.573   4.124  0.0098 -0.7210 -0.5497
 6035SOL    HW229739   2.938   4.702   4.205 -1.2186 -0.7111 -0.5695
 6036SOL     OW29740   1.773   2.775   5.589 -0.0875  0.1041 -0.0864
 6036SOL    HW129741   1.865   2.789   5.568 -0.3840  0.9722 -0.7641
 6036SOL    HW229742   1.735   2.778   5.502 -1.4318  0.6189  0.5210
 6037SOL     OW29743   3.898   2.721   7.380 -0.0610 -0.2102  0.6325
 6037SOL    HW129744   3.894   2.627   7.395 -1.3149 -0.5344 -1.7058
 6037SOL    HW229745   3.992   2.728   7.362 -0.4778 -2.7435 -2.4347
 6038SOL     OW29746   3.290   0.195   5.917 -0.2146  0.4867 -0.2021
 6038SOL    HW129747   3.213   0.183   5.972  1.3656 -3.0607  1.2016
 6038SOL    HW229748   3.289   0.285   5.884 -1.3034  1.1149  1.5854
 6039SOL     OW29749   2.711   4.602  11.884  0.4561  0.2381  0.7617
 6039SOL    HW129750   2.772   4.608  11.957 -0.7346 -0.0123  1.7917
 6039SOL    HW229751   2.705   4.698  11.882 -0.1463  0.1634 -1.8029
 6040SOL     OW29752   1.218   4.682  14.536 -0.1057  0.1863  0.2399
 6040SOL    HW129753   1.169   4.730  14.469  1.1961 -0.4815 -1.1841
 6040SOL    HW229754   1.182   4.595  14.517  0.8552  0.2078 -1.5972
 6041SOL     OW29755   3.223   1.830   7.520  0.4200  0.3700  0.1198
 6041SOL    HW129756   3.150   1.781   7.481 -1.4180  2.9228  0.3616
 6041SOL    HW229757   3.219   1.788   7.606 -2.7079 -1.8663 -1.1133
 6042SOL     OW29758   3.933   2.755   8.617 -0.4396  0.5355 -0.1100
 6042SOL    HW129759   3.880   2.817   8.668 -0.7495  0.2549 -0.0941
 6042SOL    HW229760   3.943   2.809   8.538  2.2057  1.2086  0.6843
 6043SOL     OW29761   0.240   2.745   5.755 -0.1664 -0.0334 -0.1617
 6043SOL    HW129762   0.287   2.827   5.742 -1.5949  0.9321  0.8571
 6043SOL    HW229763   0.283   2.695   5.685 -0.5632  0.6372 -0.8879
 6044SOL     OW29764   0.212   3.117   5.893  0.5268 -0.1630 -0.0465
 6044SOL    HW129765   0.260   3.055   5.948  1.2760  1.4218  1.0634
 6044SOL    HW229766   0.244   3.199   5.929  1.9093 -0.1878 -1.2223
 6045SOL     OW29767   2.789   2.088  11.895 -0.3364  0.3319 -0.8864
 6045SOL    HW129768   2.861   2.151  11.885 -0.4052  0.5904  0.1731
 6045SOL    HW229769   2.826   2.003  11.871  0.1388  0.9673 -2.3511
 6046SOL     OW29770   2.483   3.145   6.910 -0.1140  0.4286 -0.2801
 6046SOL    HW129771   2.538   3.195   6.850 -0.6060  0.4244 -0.7340
 6046SOL    HW229772   2.502   3.180   6.997  0.7208 -3.3783  1.1007
 6047SOL     OW29773   4.450   2.514   9.390 -0.2508  0.0166 -0.5256
 6047SOL    HW129774   4.383   2.570   9.351  0.1978 -0.0992 -1.4509
 6047SOL    HW229775   4.395   2.451   9.438  0.3451  1.1151  1.6143
 6048SOL     OW29776   1.400   0.221   8.831  0.0604  0.0874 -0.4157
 6048SOL    HW129777   1.489   0.215   8.867 -0.9495  2.2821  2.3896
 6048SOL    HW229778   1.432   0.270   8.756  4.6002 -2.2148  0.0059
 6049SOL     OW29779   2.901   2.080   1.917  0.0799  0.0395  0.4054
 6049SOL    HW129780   2.884   2.089   1.823  0.0879 -2.4112  0.1691
 6049SOL    HW229781   2.903   2.172   1.943 -0.3667  0.2909 -0.4323
 6050SOL     OW29782   4.704   4.347   2.151 -0.3606  0.6334 -0.4310
 6050SOL    HW129783   4.706   4.317   2.060 -2.2518 -0.4753 -0.1159
 6050SOL    HW229784   0.021   4.282   2.197 -0.6879  0.6656 -0.0111
 6051SOL     OW29785   4.552   4.592  10.925  0.2230  0.2128 -0.8815
 6051SOL    HW129786   4.647   4.603  10.919  0.2420  1.5034  1.8739
 6051SOL    HW229787   4.542   4.601  10.830  1.5072  3.7690 -0.6845
 6052SOL     OW29788   3.417   2.852   7.151 -0.0618  0.5218 -0.1898
 6052SOL    HW129789   3.508   2.851   7.181  0.7469  1.3585 -2.5604
 6052SOL    HW229790   3.377   2.908   7.217 -1.3227  0.1402 -0.6227
 6053SOL     OW29791   1.999   0.523   2.602  0.1696 -0.0925 -0.4241
 6053SOL    HW129792   2.034   0.537   2.514 -1.7350 -0.4054 -1.2169
 6053SOL    HW229793   2.071   0.476   2.646  0.2504  1.8701  1.5193
 6054SOL     OW29794   2.508   4.281   6.986 -0.0554 -0.4283  0.3547
 6054SOL    HW129795   2.580   4.252   7.042  0.6391 -0.6347 -0.6492
 6054SOL    HW229796   2.483   4.203   6.936  0.3230  0.3562 -1.0449
 6055SOL     OW29797   3.648   1.575   4.843  0.1444 -0.3612  0.0078
 6055SOL    HW129798   3.726   1.530   4.877 -0.4570 -0.3650  1.3663
 6055SOL    HW229799   3.635   1.641   4.911 -1.8312 -1.4626  0.6985
 6056SOL     OW29800   2.687   0.683   3.784  0.1209 -0.0333  0.0919
 6056SOL    HW129801   2.696   0.665   3.878  0.3557 -0.8967 -0.0971
 6056SOL    HW229802   2.614   0.744   3.789  0.7503  0.5210  2.7038
 6057SOL     OW29803   2.012   0.307   7.500 -0.0285  0.2280 -0.4958
 6057SOL    HW129804   1.964   0.347   7.428 -0.9524 -0.9182 -0.5104
 6057SOL    HW229805   2.046   0.386   7.542 -2.3537 -1.0325  3.7375
 6058SOL     OW29806   0.537   2.366  11.572 -0.0516  1.0186  0.0757
 6058SOL    HW129807   0.522   2.438  11.511 -0.9078  1.0951  0.3815
 6058SOL    HW229808   0.629   2.346  11.552 -0.7761 -2.0413 -0.2327
 6059SOL     OW29809   4.299   0.128   1.780 -0.4782 -0.3587 -0.7064
 6059SOL    HW129810   4.230   0.069   1.812  0.5171 -1.5001 -0.6466
 6059SOL    HW229811   4.372   0.070   1.801 -0.7671 -1.3305 -2.3742
 6060SOL     OW29812   4.491   3.981  11.862  0.0605  0.0470  0.3317
 6060SOL    HW129813   4.529   3.931  11.790  1.1435  0.6072  0.5168
 6060SOL    HW229814   4.518   3.922  11.933 -1.7433  0.0627  1.0310
 6061SOL     OW29815   1.525   1.287   8.110 -0.2372  0.2019  0.1504
 6061SOL    HW129816   1.516   1.376   8.146  0.0777 -0.0950  0.9609
 6061SOL    HW229817   1.590   1.254   8.172 -1.0672  0.9055  1.3979
 6062SOL     OW29818   1.285   3.682   8.779 -0.3306  0.4752  0.1168
 6062SOL    HW129819   1.377   3.688   8.756 -0.3894  1.0105  0.0065
 6062SOL    HW229820   1.273   3.754   8.842  1.8228  0.1783  0.8644
 6063SOL     OW29821   0.902   4.556  14.133  0.1790 -0.0006 -0.2813
 6063SOL    HW129822   0.876   4.508  14.211 -2.1162 -2.3039 -2.4655
 6063SOL    HW229823   0.896   4.486  14.068 -1.1563  0.0224 -0.1925
 6064SOL     OW29824   4.736   1.523  11.658 -0.1978  0.2934  0.5968
 6064SOL    HW129825   4.694   1.581  11.721  0.9601  1.5847  0.1841
 6064SOL    HW229826   0.091   1.546  11.641 -0.3330  1.1885  1.0991
 6065SOL     OW29827   4.607   4.392   2.645  0.4596 -0.3506 -0.5195
 6065SOL    HW129828   4.637   4.417   2.558 -1.7234 -0.3970 -1.2699
 6065SOL    HW229829   4.596   4.297   2.636 -1.1159 -0.2708  0.6482
 6066SOL     OW29830   3.738   2.133   3.805 -0.0420 -0.2803  0.6574
 6066SOL    HW129831   3.724   2.161   3.715  0.0998  2.3002  1.4501
 6066SOL    HW229832   3.834   2.135   3.807 -0.0351 -1.1221  1.0709
 6067SOL     OW29833   3.542   4.262   6.516 -0.0724  0.1268 -0.0576
 6067SOL    HW129834   3.623   4.259   6.465  0.0004 -2.0694  0.2169
 6067SOL    HW229835   3.486   4.276   6.440  0.0631 -1.8865 -0.5272
 6068SOL     OW29836   3.510   1.541   6.496  0.0405 -0.2493 -0.4414
 6068SOL    HW129837   3.605   1.527   6.496 -0.2520 -2.4366  2.1174
 6068SOL    HW229838   3.512   1.636   6.508 -1.4573 -0.0303 -2.0016
 6069SOL     OW29839   4.157   0.052   6.631  0.0558 -0.7284 -0.3577
 6069SOL    HW129840   4.180   0.137   6.668  1.5473 -1.1925 -0.2199
 6069SOL    HW229841   4.063   0.062   6.615 -0.0195  1.2985  1.4415
 6070SOL     OW29842   2.190   0.007   2.698 -0.4280  0.2735  0.2677
 6070SOL    HW129843   2.134   4.679   2.653 -0.8485  0.1849  0.9213
 6070SOL    HW229844   2.175   0.082   2.640 -0.5820 -1.6119 -2.1656
 6071SOL     OW29845   1.958   0.815   1.553  0.4570 -0.6771  0.1920
 6071SOL    HW129846   2.048   0.793   1.529  1.1460  1.0212  1.1741
 6071SOL    HW229847   1.900   0.744   1.528 -1.1755  0.7375 -0.0557
 6072SOL     OW29848   1.441   1.739   3.711 -0.3095 -0.0189 -0.4415
 6072SOL    HW129849   1.413   1.647   3.714 -1.8763  0.4541 -0.8817
 6072SOL    HW229850   1.376   1.773   3.651  1.2883 -1.1487 -2.7989
 6073SOL     OW29851   3.289   0.134   8.552 -0.8331 -0.3768  0.5316
 6073SOL    HW129852   3.264   0.157   8.642 -0.4624 -0.9566  0.7760
 6073SOL    HW229853   3.379   0.104   8.564 -0.9945 -0.9721  0.2498
 6074SOL     OW29854   3.114   4.685  14.597  0.2737  0.0690 -0.4701
 6074SOL    HW129855   3.084   4.622  14.662  1.8236  0.5200  0.6752
 6074SOL    HW229856   3.078   4.652  14.514 -0.3478 -2.2067  0.7159
 6075SOL     OW29857   3.437   2.025   8.071 -0.4266 -0.0381 -0.1051
 6075SOL    HW129858   3.384   1.968   8.126  0.7123 -0.9043  0.0863
 6075SOL    HW229859   3.381   2.033   7.994  1.2400  2.0991 -1.1042
 6076SOL     OW29860   0.554   2.953   7.000  0.4571 -0.3345 -0.2025
 6076SOL    HW129861   0.595   2.927   7.082 -3.5940  0.0637  1.9390
 6076SOL    HW229862   0.594   2.893   6.937  0.1102 -0.6066 -0.1674
 6077SOL     OW29863   2.996   0.058  13.232  0.3227  0.3163  0.4311
 6077SOL    HW129864   2.951   0.136  13.264 -1.5409 -0.6443  0.1169
 6077SOL    HW229865   3.084   0.080  13.262  0.5950 -0.0427 -0.0991
 6078SOL     OW29866   4.176   2.582   8.951 -0.0935 -0.5173 -0.4057
 6078SOL    HW129867   4.163   2.490   8.927 -4.1807  0.0714 -0.4253
 6078SOL    HW229868   4.156   2.571   9.044 -3.1756 -0.5480 -1.0729
 6079SOL     OW29869   2.282   1.258  11.676 -0.1106 -0.3422 -0.1164
 6079SOL    HW129870   2.217   1.191  11.697 -0.2787 -0.1860 -0.1346
 6079SOL    HW229871   2.364   1.219  11.706  0.4772 -0.2124 -1.5380
 6080SOL     OW29872   1.409   4.704   6.431 -0.0602  0.1669 -0.3051
 6080SOL    HW129873   1.361   4.697   6.513 -0.5005 -1.2184 -0.6902
 6080SOL    HW229874   1.440   4.616   6.410 -0.0503  0.7273 -2.6187
 6081SOL     OW29875   4.066   4.565   0.389  0.3869  0.1967  0.2615
 6081SOL    HW129876   4.149   4.563   0.437  1.0732 -0.9257 -0.9910
 6081SOL    HW229877   4.061   4.658   0.366 -3.3033 -0.4892 -1.7123
 6082SOL     OW29878   3.033   1.428  17.730 -0.0055  0.0894  0.2993
 6082SOL    HW129879   3.006   1.494  17.667 -2.1320  1.2391  2.4206
 6082SOL    HW229880   2.995   1.344  17.704 -0.2136  0.7911 -1.6267
 6083SOL     OW29881   4.064   4.589  10.127  0.5547 -0.2432 -0.1834
 6083SOL    HW129882   3.969   4.595  10.134  0.5406 -1.3164  0.4731
 6083SOL    HW229883   4.081   4.496  10.141 -3.3032 -0.4659  3.0654
 6084SOL     OW29884   3.242   4.416  15.129  0.3125 -0.1856 -0.1582
 6084SOL    HW129885   3.238   4.340  15.186 -2.5866  0.3487  0.3502
 6084SOL    HW229886   3.311   4.463  15.175 -0.5123 -0.0747  0.9749
 6085SOL     OW29887   4.664   0.727  11.926  0.3912 -0.2421  0.3597
 6085SOL    HW129888   4.570   0.742  11.937 -0.2072 -2.6966 -1.4971
 6085SOL    HW229889   4.683   0.791  11.857  2.3176  0.7685  1.8120
 6086SOL     OW29890   1.474   2.089   8.338 -0.3913 -0.2809  0.1697
 6086SOL    HW129891   1.514   2.032   8.404  0.9714  0.5755  0.0857
 6086SOL    HW229892   1.549   2.143   8.314 -0.9133 -0.1575 -1.1463
 6087SOL     OW29893   2.932   0.060   0.186  0.0573 -0.1105 -0.1298
 6087SOL    HW129894   2.893   0.140   0.149 -1.5047 -1.4763 -1.4646
 6087SOL    HW229895   2.879   4.727   0.145 -0.4456  0.7947 -1.0213
 6088SOL     OW29896   2.654   2.073   9.581  0.0820  0.6472 -0.7593
 6088SOL    HW129897   2.707   2.082   9.660  0.2150 -4.5698 -0.2488
 6088SOL    HW229898   2.616   2.160   9.571 -1.3043  0.3207  1.9197
 6089SOL     OW29899   0.224   1.070   7.975 -0.1350 -0.1273 -0.1570
 6089SOL    HW129900   0.230   0.989   7.923  0.5819 -0.8373  1.0267
 6089SOL    HW229901   0.261   1.135   7.915 -0.1437 -0.3834 -0.4375
 6090SOL     OW29902   4.449   4.154  14.470 -0.5400  0.1216  0.0791
 6090SOL    HW129903   4.388   4.170  14.542  0.4794  0.3394  0.8946
 6090SOL    HW229904   4.482   4.066  14.490  0.7310  0.2021 -1.6753
 6091SOL     OW29905   3.017   2.957   7.746 -0.1660  0.1054 -0.4246
 6091SOL    HW129906   3.008   2.975   7.653  1.1797 -1.8916 -0.9250
 6091SOL    HW229907   2.925   2.977   7.765 -0.0349 -1.1249  1.6163
 6092SOL     OW29908   2.019   0.672   2.338 -0.4444 -0.4975  0.0612
 6092SOL    HW129909   2.032   0.765   2.320 -2.2326  0.0224  1.5095
 6092SOL    HW229910   2.093   0.635   2.290  0.1485  0.3373  0.3300
 6093SOL     OW29911   2.266   4.135  13.972  0.2366  0.6626 -0.0097
 6093SOL    HW129912   2.309   4.220  13.955  0.0192  0.6792 -0.4608
 6093SOL    HW229913   2.338   4.072  13.971 -0.2098  0.1564 -0.2447
 6094SOL     OW29914   1.596   1.398   3.553 -0.4716  0.2045  0.9892
 6094SOL    HW129915   1.592   1.303   3.565  0.4384 -0.3392 -3.1692
 6094SOL    HW229916   1.513   1.411   3.600 -1.3272 -0.0304 -0.4641
 6095SOL     OW29917   3.780   0.395   0.620 -0.0083 -0.5920  0.1172
 6095SOL    HW129918   3.793   0.349   0.703 -1.7256  1.0972  1.3288
 6095SOL    HW229919   3.694   0.437   0.629 -0.1547 -0.4331 -2.0645
 6096SOL     OW29920   4.337   0.710  12.021  0.0532  0.4831 -0.2355
 6096SOL    HW129921   4.285   0.790  12.024 -1.3775 -0.4347 -0.3400
 6096SOL    HW229922   4.283   0.666  12.087 -0.8709  0.6057 -0.8945
 6097SOL     OW29923   1.668   3.815   4.180  0.0195 -0.8299  0.5465
 6097SOL    HW129924   1.735   3.839   4.243  0.9781 -0.6737 -0.5257
 6097SOL    HW229925   1.594   3.784   4.233 -1.4248 -0.1224 -1.0295
 6098SOL     OW29926   0.350   2.669   7.011 -0.0775 -0.0485 -0.2636
 6098SOL    HW129927   0.312   2.714   6.936 -1.7885 -1.0877 -0.0181
 6098SOL    HW229928   0.298   2.716   7.077  1.1632  1.4927 -0.3837
 6099SOL     OW29929   1.129   3.243  17.623  0.2544  0.1215  0.1802
 6099SOL    HW129930   1.039   3.270  17.607 -0.7760 -3.3218  0.0189
 6099SOL    HW229931   1.131   3.283  17.710 -1.1725  0.2339  0.1608
 6100SOL     OW29932   3.541   4.379  15.146 -0.2590 -0.1527  0.2605
 6100SOL    HW129933   3.625   4.343  15.175 -0.5875 -0.6282  0.6258
 6100SOL    HW229934   3.532   4.454  15.205 -2.3411  1.3630 -1.9561
 6101SOL     OW29935   4.117   4.590   5.969  0.1404  0.1748  0.2166
 6101SOL    HW129936   4.068   4.543   6.037  1.3310 -2.0590 -0.4602
 6101SOL    HW229937   4.113   4.679   6.003 -0.2595 -0.4275  1.7853
 6102SOL     OW29938   4.486   4.702   1.895 -0.6030  0.2011  0.0819
 6102SOL    HW129939   4.577   4.729   1.904 -0.5215  0.0320 -0.2124
 6102SOL    HW229940   4.473   4.624   1.949  0.8772 -0.3759 -0.4115
 6103SOL     OW29941   3.583   1.648   9.137  0.3092 -0.3143  0.1743
 6103SOL    HW129942   3.507   1.706   9.145  0.5282  0.1127 -0.8397
 6103SOL    HW229943   3.627   1.691   9.211  0.1963  1.5946 -0.8675
 6104SOL     OW29944   1.803   3.550   4.124  0.0229 -0.3323  0.4764
 6104SOL    HW129945   1.886   3.584   4.091 -0.5880  0.4049 -0.3153
 6104SOL    HW229946   1.741   3.623   4.130 -0.8529 -1.0250 -0.0781
 6105SOL     OW29947   2.889   0.241   6.366  0.0334 -0.5320  0.2898
 6105SOL    HW129948   2.807   0.192   6.367 -0.9347  1.1090  2.2086
 6105SOL    HW229949   2.876   0.301   6.440  2.7560  0.6445 -0.1868
 6106SOL     OW29950   0.769   3.456   8.735 -0.1420 -0.4390  0.6906
 6106SOL    HW129951   0.809   3.433   8.651  0.0982 -0.1057  0.7150
 6106SOL    HW229952   0.846   3.481   8.785 -0.1293 -0.2635  0.5836
 6107SOL     OW29953   3.251   2.528   8.039 -0.2758 -0.3884 -0.1785
 6107SOL    HW129954   3.198   2.575   7.975 -1.0776 -1.0623 -0.0113
 6107SOL    HW229955   3.259   2.437   8.012 -1.2229 -0.1915 -1.1222
 6108SOL     OW29956   0.009   0.709  13.638  0.2892  0.1380 -0.4517
 6108SOL    HW129957   0.060   0.658  13.576 -0.6118 -0.7769 -0.4313
 6108SOL    HW229958   4.686   0.643  13.674  0.5028 -0.3386 -0.9881
 6109SOL     OW29959   3.493   2.673   3.011 -0.5201  0.0686  0.2924
 6109SOL    HW129960   3.579   2.639   3.036 -1.1091 -1.6282  0.0054
 6109SOL    HW229961   3.435   2.597   3.007  0.2053 -0.4979  0.6388
 6110SOL     OW29962   2.297   0.843   5.504 -0.4519 -0.4391 -0.5191
 6110SOL    HW129963   2.270   0.774   5.565  1.6334  0.4378  1.4073
 6110SOL    HW229964   2.215   0.883   5.476 -2.2228 -1.6132  2.9301
 6111SOL     OW29965   1.606   0.718   2.846  0.5562  0.5497 -1.0801
 6111SOL    HW129966   1.696   0.696   2.871 -0.1389  0.4917  1.4083
 6111SOL    HW229967   1.558   0.708   2.928  4.1306 -2.9128  0.5829
 6112SOL     OW29968   0.930   4.296   8.316 -0.1853  0.0386  0.2558
 6112SOL    HW129969   0.940   4.337   8.230 -0.0435 -1.2290 -0.3282
 6112SOL    HW229970   0.994   4.355   8.356  0.7662 -1.6662  1.2090
 6113SOL     OW29971   2.690   3.745   3.858 -0.3208  0.6871 -0.1579
 6113SOL    HW129972   2.668   3.746   3.765  1.2559 -0.5990 -0.5319
 6113SOL    HW229973   2.751   3.672   3.866 -1.0410  0.0629 -0.3727
 6114SOL     OW29974   1.194   3.852   7.849 -1.3451  0.0751  0.3288
 6114SOL    HW129975   1.234   3.864   7.935 -2.0000 -1.9447  0.9411
 6114SOL    HW229976   1.115   3.906   7.852  0.2409  2.5933 -3.8356
 6115SOL     OW29977   3.591   1.412   7.178 -0.3339 -0.2382  0.0320
 6115SOL    HW129978   3.528   1.466   7.226  0.7036 -0.0514  1.1896
 6115SOL    HW229979   3.638   1.480   7.130  0.1248 -1.8435 -1.7807
 6116SOL     OW29980   4.020   2.052  10.467  0.2619  0.0229 -0.4863
 6116SOL    HW129981   3.965   1.974  10.459 -0.6997  0.6759 -0.2411
 6116SOL    HW229982   4.024   2.079  10.375  0.7644  2.6676  0.3223
 6117SOL     OW29983   1.795   0.734   7.296  1.0215 -0.4362  0.4320
 6117SOL    HW129984   1.815   0.823   7.268 -1.4758 -0.3419 -1.0096
 6117SOL    HW229985   1.789   0.735   7.392 -1.7545  0.3218  0.2458
 6118SOL     OW29986   2.153   4.428   2.683 -0.1960 -0.0504 -0.1031
 6118SOL    HW129987   2.118   4.437   2.595 -2.0008  2.7711  0.9287
 6118SOL    HW229988   2.120   4.342   2.708  3.3164 -1.1773  0.6464
 6119SOL     OW29989   2.547   0.357  16.600 -0.5590  0.7489 -0.5974
 6119SOL    HW129990   2.639   0.332  16.591 -0.0454  2.7823 -1.0825
 6119SOL    HW229991   2.559   0.452  16.606  0.3424  0.5996  0.0049
 6120SOL     OW29992   3.370   3.289   8.024  0.5426 -0.0357 -0.3597
 6120SOL    HW129993   3.454   3.284   7.979  1.3733  0.6468  1.1464
 6120SOL    HW229994   3.314   3.255   7.953  0.6340  1.4755 -1.1514
 6121SOL     OW29995   1.656   0.007   8.186  0.0077  0.1122 -0.2982
 6121SOL    HW129996   1.646   0.088   8.137 -0.3209  0.9731  1.2053
 6121SOL    HW229997   1.678   4.679   8.118 -0.4474 -1.5252  1.0893
 6122SOL     OW29998   2.340   0.662  14.289 -0.2438 -0.1786  0.0370
 6122SOL    HW129999   2.422   0.698  14.258  0.2295 -1.8066 -0.6227
 6122SOL    HW230000   2.309   0.733  14.344  0.0961 -0.4908  0.6257
 6123SOL     OW30001   4.467   2.140   7.401  0.0549  0.3676 -0.1091
 6123SOL    HW130002   4.537   2.154   7.338 -0.4418  0.6465 -0.5916
 6123SOL    HW230003   4.442   2.230   7.420  0.4895  0.7618 -1.4506
 6124SOL     OW30004   2.558   3.571  12.742  0.0095 -0.9147 -0.1869
 6124SOL    HW130005   2.613   3.495  12.759 -0.6324 -1.7461 -1.7881
 6124SOL    HW230006   2.497   3.530  12.680 -0.9408 -1.7485  1.3123
 6125SOL     OW30007   3.357   0.632   0.131  0.2880  0.5465 -0.1460
 6125SOL    HW130008   3.420   0.676   0.074 -0.5247 -0.9645 -2.1887
 6125SOL    HW230009   3.270   0.663   0.107  0.5201  2.8533  1.9830
 6126SOL     OW30010   3.113   4.542   5.338  0.0533  0.3329 -0.2360
 6126SOL    HW130011   3.091   4.456   5.373  1.6487 -0.3473 -0.9179
 6126SOL    HW230012   3.031   4.569   5.296 -0.4103  2.1963  1.8500
 6127SOL     OW30013   1.971   0.812  12.121 -0.3165  0.6155 -0.6587
 6127SOL    HW130014   2.062   0.806  12.151  0.4699 -1.5153 -3.4718
 6127SOL    HW230015   1.939   0.876  12.184 -1.1755 -1.6816  1.2740
 6128SOL     OW30016   2.834   4.361  14.502  0.2422 -0.3332 -0.0167
 6128SOL    HW130017   2.744   4.385  14.481 -0.4360  0.3387  3.7143
 6128SOL    HW230018   2.808   4.324  14.586  0.4003 -0.5455 -0.0610
 6129SOL     OW30019   4.702   0.859   3.101 -0.6961 -0.5466 -0.1689
 6129SOL    HW130020   0.034   0.800   3.067 -0.3013 -0.9957  1.3932
 6129SOL    HW230021   4.631   0.805   3.133  0.0423  0.6059  3.3725
 6130SOL     OW30022   2.445   2.402   1.164  0.2423  0.0073 -0.4025
 6130SOL    HW130023   2.480   2.366   1.083 -2.0712 -1.5279 -0.7386
 6130SOL    HW230024   2.512   2.388   1.231 -0.0320  0.5729 -0.0029
 6131SOL     OW30025   0.125   3.434  11.357 -0.3922 -0.1581  0.2073
 6131SOL    HW130026   0.081   3.505  11.402  0.6041 -0.4688  1.6593
 6131SOL    HW230027   0.202   3.427  11.413  0.1752  0.5631 -0.4741
 6132SOL     OW30028   4.226   0.470   5.002 -0.1517  0.7728 -0.3030
 6132SOL    HW130029   4.214   0.517   4.919 -0.8042  0.5129 -0.3631
 6132SOL    HW230030   4.154   0.502   5.056 -0.3311  1.0666 -0.7197
 6133SOL     OW30031   3.337   1.330   5.204  0.6606  0.6250  0.1655
 6133SOL    HW130032   3.301   1.381   5.131  2.0078  0.5417 -0.5638
 6133SOL    HW230033   3.422   1.301   5.170 -0.2593 -0.9125 -0.8249
 6134SOL     OW30034   1.381   4.038  13.251  0.9100  0.2016  0.1303
 6134SOL    HW130035   1.397   3.951  13.286  0.6707 -0.8409 -2.3003
 6134SOL    HW230036   1.353   4.090  13.327  0.7515  0.4325 -0.0818
 6135SOL     OW30037   0.185   0.822   5.183 -0.2236  0.3467 -0.1167
 6135SOL    HW130038   0.200   0.916   5.189  0.1886  0.3281 -0.8207
 6135SOL    HW230039   0.174   0.802   5.276  3.5600 -0.6087  0.1491
 6136SOL     OW30040   1.762   2.190   3.688  0.5351 -0.1033 -0.1051
 6136SOL    HW130041   1.685   2.223   3.733  0.8259  0.8453 -0.2877
 6136SOL    HW230042   1.783   2.265   3.632 -0.5304 -0.5828 -1.1279
 6137SOL     OW30043   0.499   1.303   8.584  0.6239 -0.0669 -0.4505
 6137SOL    HW130044   0.543   1.218   8.581  0.6691  0.0133 -2.5304
 6137SOL    HW230045   0.417   1.278   8.541  0.6903 -1.5866  0.2941
 6138SOL     OW30046   1.641   1.040   7.694  0.0210  0.0817 -0.4859
 6138SOL    HW130047   1.592   0.986   7.756 -0.4714  0.2871 -0.6898
 6138SOL    HW230048   1.632   1.121   7.743  0.2793  0.3860 -0.9394
 6139SOL     OW30049   0.468   2.185   7.260 -0.2226  0.0026 -0.0260
 6139SOL    HW130050   0.409   2.253   7.295  0.1853  1.3973 -2.0573
 6139SOL    HW230051   0.410   2.110   7.248  1.3661 -1.3701  0.9577
 6140SOL     OW30052   2.229   3.649   9.050  0.2357  0.0120 -0.7962
 6140SOL    HW130053   2.291   3.717   9.076 -1.7884  1.6942 -0.4102
 6140SOL    HW230054   2.145   3.686   9.078  0.6463  0.2537  0.1209
 6141SOL     OW30055   3.846   4.177   5.983 -0.0753  0.0440 -0.1498
 6141SOL    HW130056   3.936   4.210   5.986  0.1059 -0.4438 -0.3246
 6141SOL    HW230057   3.812   4.249   5.930 -1.9471  0.0510  1.0694
 6142SOL     OW30058   0.900   3.053   9.292 -0.7696  0.1807 -0.6660
 6142SOL    HW130059   0.833   3.078   9.356  0.3237 -4.2871  2.2686
 6142SOL    HW230060   0.876   3.090   9.207 -1.7525  0.2793 -0.3413
 6143SOL     OW30061   2.170   2.064   5.984 -0.2875 -0.7251  0.6539
 6143SOL    HW130062   2.261   2.057   5.954 -0.6214  0.0249 -0.5275
 6143SOL    HW230063   2.130   2.065   5.897  1.9293  0.4684 -0.3639
 6144SOL     OW30064   0.274   4.681  10.474 -0.5968 -0.2471 -0.1479
 6144SOL    HW130065   0.199   4.711  10.423 -2.1150  0.1873  2.3345
 6144SOL    HW230066   0.296   0.031  10.510  1.2754 -0.1301 -1.5619
 6145SOL     OW30067   4.483   2.786   6.096 -0.1015  0.6052 -0.2842
 6145SOL    HW130068   4.394   2.818   6.110 -0.1255  0.2712  0.3210
 6145SOL    HW230069   4.471   2.766   6.003 -1.2616  2.4057 -0.5328
 6146SOL     OW30070   4.377   4.728   7.919  0.4734 -0.3305 -0.8058
 6146SOL    HW130071   4.310   4.671   7.957 -0.4312 -0.1719 -2.1416
 6146SOL    HW230072   4.402   0.061   7.981  0.4407  1.0456 -2.2957
 6147SOL     OW30073   2.980   0.611  15.419  0.6979  0.0044 -0.1596
 6147SOL    HW130074   3.052   0.642  15.473 -1.6776  2.1096  1.8426
 6147SOL    HW230075   2.905   0.596  15.477 -1.1420  0.4104 -2.4365
 6148SOL     OW30076   2.946   4.337   6.328  0.1964  0.5160  0.0262
 6148SOL    HW130077   2.964   4.378   6.243  1.4847  3.1819  1.5934
 6148SOL    HW230078   2.966   4.411   6.385  0.3591  1.4204 -1.1947
 6149SOL     OW30079   1.464   0.661   8.834 -0.4888  0.5626 -0.2530
 6149SOL    HW130080   1.526   0.600   8.795 -1.0496 -0.5470  0.6128
 6149SOL    HW230081   1.502   0.748   8.821  0.9428 -0.0260  0.0218
 6150SOL     OW30082   4.426   0.837   3.895 -0.9546 -0.4887 -0.0399
 6150SOL    HW130083   4.501   0.889   3.923  0.1514 -3.2527  2.0913
 6150SOL    HW230084   4.464   0.783   3.826  0.0154 -1.8039  1.5373
 6151SOL     OW30085   2.819   4.615   8.272 -0.0893 -0.3220  0.1149
 6151SOL    HW130086   2.865   4.552   8.327  1.3090 -1.3571 -2.2521
 6151SOL    HW230087   2.778   4.554   8.211  1.0016 -2.0778  1.1494
 6152SOL     OW30088   2.964   1.462   3.247 -0.7975  0.1397  0.2620
 6152SOL    HW130089   2.915   1.525   3.196  2.3563  0.8696 -1.8352
 6152SOL    HW230090   3.056   1.469   3.224 -0.5492 -0.7484  0.9844
 6153SOL     OW30091   2.353   0.676   8.521  0.4435  0.5518 -0.6143
 6153SOL    HW130092   2.310   0.590   8.523  0.1741  0.6714 -1.1282
 6153SOL    HW230093   2.415   0.658   8.450 -1.0547 -0.8435 -1.5886
 6154SOL     OW30094   4.610   0.849   5.525  0.9063  0.1541 -0.3921
 6154SOL    HW130095   4.687   0.897   5.555 -0.3165  0.0785  2.9662
 6154SOL    HW230096   4.613   0.844   5.430 -1.3200  1.2385 -0.5349
 6155SOL     OW30097   0.853   2.972   5.481 -0.0951  0.4468 -0.2883
 6155SOL    HW130098   0.858   2.876   5.489 -0.6090  0.3508 -1.1186
 6155SOL    HW230099   0.936   2.992   5.439  0.6238 -0.4354  0.7104
 6156SOL     OW30100   3.906   1.502   4.911  0.0281  0.2133  0.0728
 6156SOL    HW130101   3.930   1.457   4.829 -0.0637 -1.5208  0.9992
 6156SOL    HW230102   3.900   1.429   4.973  0.1553  0.5197  0.4428
 6157SOL     OW30103   4.059   2.418   7.154  0.3942  0.6700 -0.2170
 6157SOL    HW130104   4.115   2.346   7.125 -0.3440  0.6422 -1.5782
 6157SOL    HW230105   3.982   2.364   7.172  2.2511 -1.4167  1.3739
 6158SOL     OW30106   2.430   1.586   2.376  0.7743  0.2973 -0.6418
 6158SOL    HW130107   2.358   1.543   2.330 -0.8504  2.2824  0.0098
 6158SOL    HW230108   2.410   1.672   2.338 -1.7735  0.4165  0.9229
 6159SOL     OW30109   0.364   0.804   8.477  0.6468  0.1590  0.3464
 6159SOL    HW130110   0.304   0.730   8.469  0.0327  0.8405 -1.1569
 6159SOL    HW230111   0.344   0.849   8.559  1.5970  0.0771  0.6291
 6160SOL     OW30112   3.343   3.793  15.686 -0.3417  0.2794  0.0604
 6160SOL    HW130113   3.367   3.825  15.599 -1.0586  0.2553 -0.1495
 6160SOL    HW230114   3.250   3.814  15.688 -0.1693  1.0273  0.0608
 6161SOL     OW30115   0.852   3.024   4.586  0.0935 -0.0157  0.4259
 6161SOL    HW130116   0.882   2.940   4.552  2.0580  0.9499 -0.2970
 6161SOL    HW230117   0.870   3.014   4.679 -2.2059 -1.5000  0.7055
 6162SOL     OW30118   3.424   3.774   7.209  0.1289  0.0695  0.0447
 6162SOL    HW130119   3.464   3.694   7.242  0.3187 -0.2875 -1.0292
 6162SOL    HW230120   3.330   3.758   7.221 -0.1875  0.9405 -1.2004
 6163SOL     OW30121   3.339   2.706  15.502 -0.1396 -0.0953  0.3363
 6163SOL    HW130122   3.331   2.616  15.536  1.2900 -0.4049 -0.1451
 6163SOL    HW230123   3.295   2.752  15.573  1.6551 -1.8025  2.5592
 6164SOL     OW30124   1.496   4.078   5.911  0.2543  1.0583 -0.1700
 6164SOL    HW130125   1.460   4.128   5.838  0.1737  0.2956 -0.6560
 6164SOL    HW230126   1.520   3.997   5.867 -0.7635  1.3081 -1.1875
 6165SOL     OW30127   4.340   4.280  14.153  0.3052 -0.0463 -0.1628
 6165SOL    HW130128   4.302   4.200  14.190  2.2444 -0.6510  0.5341
 6165SOL    HW230129   4.270   4.345  14.161  1.6650  1.4563 -0.5216
 6166SOL     OW30130   1.524   0.913   8.720  0.0626 -0.5183 -0.5762
 6166SOL    HW130131   1.618   0.923   8.732 -0.8356  3.7881  2.9409
 6166SOL    HW230132   1.496   0.993   8.763 -0.4290 -2.1972  2.2605
 6167SOL     OW30133   1.511   3.408   2.517  0.1266  0.5415 -0.1104
 6167SOL    HW130134   1.423   3.416   2.554 -0.3656 -0.8035 -0.9741
 6167SOL    HW230135   1.494   3.367   2.432 -1.2564  0.6329  0.1249
 6168SOL     OW30136   3.422   0.249  14.842 -0.3007  0.6135  0.4321
 6168SOL    HW130137   3.415   0.166  14.795  2.5012 -0.3851  1.7901
 6168SOL    HW230138   3.368   0.307  14.788  1.3762  0.2209 -1.6701
 6169SOL     OW30139   3.788   4.001   5.290  0.2488  0.1763  0.2628
 6169SOL    HW130140   3.801   3.940   5.218  2.1247  1.4274 -0.4683
 6169SOL    HW230141   3.697   3.987   5.316  0.3625 -1.7896 -0.4067
 6170SOL     OW30142   4.191   4.611   3.863  0.1840 -0.3377  0.2379
 6170SOL    HW130143   4.130   4.666   3.913  1.9506  2.2371 -0.4572
 6170SOL    HW230144   4.134   4.538   3.839  0.6295 -1.3109  2.0622
 6171SOL     OW30145   0.215   2.636   6.592  0.1317 -0.4730  0.0806
 6171SOL    HW130146   0.267   2.643   6.512  1.1098 -0.5567  0.7049
 6171SOL    HW230147   0.190   2.544   6.595 -0.7110 -0.2122  1.2746
 6172SOL     OW30148   3.462   0.192   5.122  0.2492  0.0344 -0.1037
 6172SOL    HW130149   3.514   0.215   5.045 -2.1073  2.8008 -0.8623
 6172SOL    HW230150   3.518   0.234   5.187 -0.2619  0.8350 -0.1884
 6173SOL     OW30151   3.850   1.445   8.192  0.0478 -0.2071  0.4452
 6173SOL    HW130152   3.853   1.464   8.099 -2.8275 -0.3987  0.3196
 6173SOL    HW230153   3.878   1.533   8.217 -1.3682  0.4297 -0.2416
 6174SOL     OW30154   4.388   4.273  16.607  0.2018  0.4520  0.0699
 6174SOL    HW130155   4.327   4.246  16.538 -1.4898  3.5057  0.3450
 6174SOL    HW230156   4.339   4.258  16.687 -2.4495 -0.5376 -1.7304
 6175SOL     OW30157   4.345   1.611  14.547  0.5836  0.2652 -0.2576
 6175SOL    HW130158   4.271   1.557  14.518 -0.4498  1.3507  0.3554
 6175SOL    HW230159   4.336   1.605  14.642  0.3814 -1.7298 -0.4147
 6176SOL     OW30160   3.300   2.125  13.089  0.9137  0.0493  0.2364
 6176SOL    HW130161   3.369   2.134  13.154 -1.9586  2.6982  2.8754
 6176SOL    HW230162   3.237   2.075  13.142  1.1867 -2.4697 -1.7985
 6177SOL     OW30163   0.505   0.010   9.623 -0.4906  0.0151 -0.1239
 6177SOL    HW130164   0.536   0.076   9.685  2.0119 -0.4393 -0.9037
 6177SOL    HW230165   0.441   4.692   9.670  0.0238 -0.6469 -0.1853
 6178SOL     OW30166   1.021   0.741   7.238 -0.1689 -0.8956 -0.4776
 6178SOL    HW130167   1.045   0.650   7.251 -0.2366 -0.8481 -0.0313
 6178SOL    HW230168   0.929   0.739   7.262 -0.0976 -0.9308 -0.2151
 6179SOL     OW30169   1.562   2.334   0.616  0.1333  0.1337  0.1017
 6179SOL    HW130170   1.538   2.383   0.538 -0.2766 -0.3994 -0.1089
 6179SOL    HW230171   1.516   2.253   0.595  2.9438 -1.4657  0.0819
 6180SOL     OW30172   0.698   1.033  13.855  0.0666 -0.4792 -0.5880
 6180SOL    HW130173   0.677   1.014  13.763 -1.6519  1.1230 -0.5410
 6180SOL    HW230174   0.624   0.983  13.888  0.3250 -0.6087 -0.2169
 6181SOL     OW30175   2.576   1.099   9.322 -0.2354  0.1688 -0.0519
 6181SOL    HW130176   2.556   1.022   9.268 -0.8211  1.6486 -1.9404
 6181SOL    HW230177   2.490   1.115   9.359  0.0179 -0.6914  0.9241
 6182SOL     OW30178   0.758   3.488   3.800  0.2038 -0.4870  0.6134
 6182SOL    HW130179   0.824   3.424   3.827 -1.3071 -2.6375 -0.7802
 6182SOL    HW230180   0.683   3.441   3.762  0.7871 -0.9272  0.0043
 6183SOL     OW30181   4.695   3.750   4.247  0.1337 -0.1663  0.1869
 6183SOL    HW130182   4.702   3.841   4.220  1.8467 -0.2164  0.4453
 6183SOL    HW230183   4.670   3.754   4.340 -0.8365 -2.2433  0.0241
 6184SOL     OW30184   0.817   1.566   7.591  0.4292 -0.7919  0.8546
 6184SOL    HW130185   0.770   1.640   7.554  1.0801 -0.9095 -0.2032
 6184SOL    HW230186   0.895   1.600   7.634  1.1634  1.5425 -2.3757
 6185SOL     OW30187   4.655   2.638   6.420  0.0941  0.6173  0.0307
 6185SOL    HW130188   4.642   2.724   6.460  1.3227  1.2339 -0.8908
 6185SOL    HW230189   4.581   2.648   6.361 -0.9622  2.1488  1.6175
 6186SOL     OW30190   2.549   4.140   6.424 -0.4196  0.5032 -0.2926
 6186SOL    HW130191   2.478   4.101   6.372 -2.9479  2.9229  1.3564
 6186SOL    HW230192   2.624   4.157   6.367 -0.2662  0.2155 -0.1776
 6187SOL     OW30193   0.410   1.483  16.380  0.0813  0.4297 -0.3188
 6187SOL    HW130194   0.442   1.393  16.380  0.8458  0.6991  0.7887
 6187SOL    HW230195   0.457   1.526  16.452  1.3979  0.8631 -1.4236
 6188SOL     OW30196   1.953   1.996  16.745 -0.2523 -0.4076 -0.3197
 6188SOL    HW130197   1.871   2.032  16.779  1.5068  1.3624  1.9878
 6188SOL    HW230198   2.013   2.060  16.784  0.8435 -1.4111 -0.3625
 6189SOL     OW30199   1.543   3.576   2.042 -0.5925  0.0603 -0.0213
 6189SOL    HW130200   1.518   3.663   2.010 -0.5176  0.1711  0.2184
 6189SOL    HW230201   1.555   3.606   2.132  0.3660  1.5045 -0.6198
 6190SOL     OW30202   1.003   2.188   1.533 -0.6397 -0.1948  0.1588
 6190SOL    HW130203   1.042   2.274   1.548 -0.7145  0.0929 -1.3474
 6190SOL    HW230204   0.924   2.200   1.587 -0.7072 -2.9494  0.6755
 6191SOL     OW30205   0.962   2.930   4.279  0.3597  0.0140 -0.0361
 6191SOL    HW130206   0.925   2.930   4.367  0.9909  0.2101  0.2331
 6191SOL    HW230207   1.047   2.895   4.308  0.6847 -1.0888 -2.3314
 6192SOL     OW30208   2.325   4.332   8.476 -0.0548  0.1475 -0.5916
 6192SOL    HW130209   2.260   4.362   8.540  1.1225  0.2757  0.5465
 6192SOL    HW230210   2.386   4.286   8.534 -0.7117 -0.7237 -0.5905
 6193SOL     OW30211   4.202   2.224   6.851 -0.4076  0.0561 -0.0360
 6193SOL    HW130212   4.214   2.165   6.776 -0.3070 -0.2914  0.2538
 6193SOL    HW230213   4.107   2.223   6.857 -0.5655  0.6498 -2.3443
 6194SOL     OW30214   1.252   3.938   2.455 -0.2349 -0.0315 -0.2003
 6194SOL    HW130215   1.332   3.888   2.444 -0.1146  0.2156 -0.4331
 6194SOL    HW230216   1.259   3.977   2.542  0.1954 -1.8317  0.5528
 6195SOL     OW30217   3.352   1.203   2.582 -0.4696 -0.2091  0.1536
 6195SOL    HW130218   3.370   1.130   2.641 -2.5078  0.2481  1.3334
 6195SOL    HW230219   3.334   1.264   2.653 -0.3957  1.1393 -0.9855
 6196SOL     OW30220   0.362   0.939  17.062 -0.3605 -0.4869 -0.0357
 6196SOL    HW130221   0.371   1.011  16.999  2.0049 -1.8370 -1.2263
 6196SOL    HW230222   0.357   0.860  17.008  2.4282  0.4107 -1.6192
 6197SOL     OW30223   1.718   3.329   5.680  0.1176  0.0446 -0.1328
 6197SOL    HW130224   1.751   3.273   5.610 -0.3670  0.8159 -0.9769
 6197SOL    HW230225   1.780   3.313   5.751 -1.8763 -1.2734  1.3291
 6198SOL     OW30226   1.221   0.875   2.989  0.2507  0.3123 -0.0932
 6198SOL    HW130227   1.221   0.871   2.893  1.2987  1.1477 -0.1228
 6198SOL    HW230228   1.314   0.892   3.002  0.3968  1.3170 -2.3844
 6199SOL     OW30229   2.662   1.380   5.220  0.0460 -0.1041 -0.5502
 6199SOL    HW130230   2.737   1.368   5.162  0.0649 -1.1425 -0.3128
 6199SOL    HW230231   2.691   1.454   5.274  1.9942 -1.5185  0.3404
 6200SOL     OW30232   3.549   3.303   5.964  0.4208  0.3916  0.2439
 6200SOL    HW130233   3.618   3.365   5.940  0.1868  0.1256 -1.0863
 6200SOL    HW230234   3.576   3.288   6.055 -0.5013 -0.2262  0.4227
 6201SOL     OW30235   0.656   3.859   8.673 -0.0343 -0.0792 -0.1398
 6201SOL    HW130236   0.684   3.805   8.748 -1.5128 -1.2294 -0.4230
 6201SOL    HW230237   0.600   3.918   8.723 -0.8511 -0.3602 -0.7459
 6202SOL     OW30238   2.755   2.381   8.658  0.0684  0.1407  0.0792
 6202SOL    HW130239   2.820   2.380   8.587  0.8105  0.1279  0.7607
 6202SOL    HW230240   2.675   2.369   8.607 -1.2172  2.2417  1.6174
 6203SOL     OW30241   4.632   0.909   7.090  0.6856 -0.2707  0.1528
 6203SOL    HW130242   4.556   0.850   7.094  0.2233  0.4345  1.4922
 6203SOL    HW230243   4.655   0.907   7.183  2.4482  0.1088 -0.2707
 6204SOL     OW30244   3.039   3.066   8.352 -0.1509 -0.6807  0.1794
 6204SOL    HW130245   3.105   2.998   8.342  1.1977  0.4304  1.3413
 6204SOL    HW230246   3.101   3.137   8.371  1.2516 -1.1504 -2.6630
 6205SOL     OW30247   4.336   3.793  12.264 -0.7112  0.0308  0.0871
 6205SOL    HW130248   4.359   3.779  12.172  1.1286  1.3527  0.3425
 6205SOL    HW230249   4.297   3.880  12.262 -1.1145 -0.2120 -2.3154
 6206SOL     OW30250   0.418   2.048   1.509 -0.4039  0.1713 -0.5257
 6206SOL    HW130251   0.380   2.099   1.580 -0.7020 -1.9385  0.8124
 6206SOL    HW230252   0.488   2.105   1.477 -0.2500  0.2433 -0.0510
 6207SOL     OW30253   0.635   1.902   2.178  0.1990  0.3319  0.1086
 6207SOL    HW130254   0.698   1.899   2.250  1.4797  2.6711 -0.9079
 6207SOL    HW230255   0.618   1.811   2.155 -2.2353  0.5616  0.9572
 6208SOL     OW30256   4.604   1.628   2.990  0.3639 -0.5811  0.2703
 6208SOL    HW130257   4.577   1.604   3.079  3.1743  2.2747  1.9092
 6208SOL    HW230258   4.522   1.624   2.941 -0.5314  1.2148  1.6523
 6209SOL     OW30259   2.457   1.789   2.073 -0.0847 -0.5369  0.5086
 6209SOL    HW130260   2.535   1.838   2.098  1.1522 -2.8945  1.1967
 6209SOL    HW230261   2.404   1.804   2.151  1.0620  0.4559  1.0896
 6210SOL     OW30262   3.833   0.037  17.057  0.2959 -0.0250  0.1252
 6210SOL    HW130263   3.766   0.052  16.990 -0.5002  5.9318  2.1930
 6210SOL    HW230264   3.804   0.098  17.125 -0.7295  0.5903 -0.8606
 6211SOL     OW30265   3.909   3.978   2.212 -0.5088 -0.4449  0.5193
 6211SOL    HW130266   4.004   3.990   2.221 -0.9731 -0.0407  5.1001
 6211SOL    HW230267   3.905   3.985   2.117 -1.9377 -1.9052  0.4742
 6212SOL     OW30268   4.153   1.373   2.318  0.1270  0.1622 -0.3113
 6212SOL    HW130269   4.179   1.417   2.400  0.8851 -0.5567 -0.1675
 6212SOL    HW230270   4.094   1.431   2.269  1.5519  0.0006 -2.1865
 6213SOL     OW30271   1.658   0.219   4.869 -0.3303  0.5927  0.0568
 6213SOL    HW130272   1.681   0.129   4.892 -0.1072  0.5132 -0.4759
 6213SOL    HW230273   1.722   0.255   4.929  0.8221 -0.2735 -0.6540
 6214SOL     OW30274   0.373   1.562   8.454 -0.3256  0.2022  0.3871
 6214SOL    HW130275   0.284   1.550   8.489  0.6393 -1.7120  2.1583
 6214SOL    HW230276   0.380   1.496   8.385  1.2609  2.4387 -1.5885
 6215SOL     OW30277   2.661   3.306  12.720  0.3684 -0.1624 -0.2555
 6215SOL    HW130278   2.751   3.309  12.687  0.0716 -0.0579 -1.0624
 6215SOL    HW230279   2.651   3.210  12.720  2.2371 -0.3620 -0.1177
 6216SOL     OW30280   1.664   0.279  10.098  0.1506  0.0276 -0.1547
 6216SOL    HW130281   1.721   0.337  10.048 -0.0202  2.2836  2.2643
 6216SOL    HW230282   1.629   0.219  10.031  0.3588  0.0182 -0.2561
 6217SOL     OW30283   1.461   0.016   8.615  0.1958  0.1015 -0.0615
 6217SOL    HW130284   1.556   0.005   8.614  0.4055  1.8527 -0.6289
 6217SOL    HW230285   1.461   0.112   8.610 -0.0302 -0.0317 -2.3774
 6218SOL     OW30286   1.744   0.792   7.574  0.1994  0.1358 -0.1298
 6218SOL    HW130287   1.793   0.763   7.651 -2.6561  0.1386  1.6948
 6218SOL    HW230288   1.730   0.884   7.596  1.4930 -0.0934  1.6479
 6219SOL     OW30289   0.577   0.034   9.921  0.3651  0.0944 -0.7981
 6219SOL    HW130290   0.588   0.056  10.013  0.8735  0.0417 -0.8419
 6219SOL    HW230291   0.636   0.094   9.875  1.3080  0.4345  0.8828
 6220SOL     OW30292   0.377   3.692  17.164 -0.0795 -0.0443 -0.3825
 6220SOL    HW130293   0.471   3.703  17.168 -0.0239 -0.3295 -0.8552
 6220SOL    HW230294   0.360   3.746  17.087  3.3959  0.6320 -0.6733
 6221SOL     OW30295   2.007   0.088   5.607 -0.2962 -0.0906  0.0642
 6221SOL    HW130296   1.991   0.035   5.528  1.4572 -1.3414  0.5456
 6221SOL    HW230297   2.060   0.033   5.665 -0.1562 -0.4787 -0.4264
 6222SOL     OW30298   1.429   2.947  17.241  0.3264 -0.0911  0.5524
 6222SOL    HW130299   1.377   2.869  17.259 -1.0655  0.9325  0.9164
 6222SOL    HW230300   1.364   3.010  17.211 -1.0451 -2.0977 -0.6254
 6223SOL     OW30301   2.731   0.935   2.763 -0.0418 -0.4056 -0.8354
 6223SOL    HW130302   2.737   0.933   2.858  0.6996  0.8552 -0.8573
 6223SOL    HW230303   2.824   0.947   2.747  0.4909 -1.8608  1.1605
 6224SOL     OW30304   4.510   3.916   2.539  0.1249 -0.1987  0.6245
 6224SOL    HW130305   4.452   3.855   2.493 -2.4869  1.6261  1.5081
 6224SOL    HW230306   4.455   3.956   2.606  1.2778 -1.0642  2.0923
 6225SOL     OW30307   4.615   0.464  12.422 -0.2395  0.4021  0.4754
 6225SOL    HW130308   4.704   0.442  12.394 -0.9284 -0.2113 -1.2395
 6225SOL    HW230309   4.595   0.547  12.379 -1.4434  0.4558  1.1065
 6226SOL     OW30310   0.689   0.316  10.535 -0.2717 -0.5583  0.2487
 6226SOL    HW130311   0.726   0.242  10.583  0.1869 -1.0309 -0.8274
 6226SOL    HW230312   0.703   0.388  10.596  1.7992 -0.6731 -0.0748
 6227SOL     OW30313   2.479   3.463   8.002 -0.6557  0.5118 -0.2717
 6227SOL    HW130314   2.432   3.392   8.045  0.5638 -0.7150 -0.9924
 6227SOL    HW230315   2.543   3.411   7.955 -1.0094 -0.3122  0.1605
 6228SOL     OW30316   4.254   1.095   9.588 -0.3180  0.3286  0.0892
 6228SOL    HW130317   4.209   1.015   9.560  2.3582 -1.6781  1.5788
 6228SOL    HW230318   4.278   1.126   9.501 -4.7997  0.4307 -1.1014
 6229SOL     OW30319   3.772   0.309   4.319 -1.0213 -0.4342 -0.1445
 6229SOL    HW130320   3.822   0.383   4.351 -0.8830 -0.2508 -0.7905
 6229SOL    HW230321   3.693   0.354   4.290 -0.6695  0.8616  0.9036
 6230SOL     OW30322   0.559   3.104   5.422 -0.1265 -0.3693  0.0921
 6230SOL    HW130323   0.503   3.164   5.472  0.1261  1.2614 -1.5910
 6230SOL    HW230324   0.608   3.161   5.364 -0.6226 -2.3131 -2.2625
 6231SOL     OW30325   0.109   0.003   5.795 -0.5643  0.0979  0.1874
 6231SOL    HW130326   0.033   4.709   5.746 -0.5136  1.2154 -0.5655
 6231SOL    HW230327   0.067   0.041   5.872 -2.7051  1.2264 -1.5426
 6232SOL     OW30328   3.053   4.643   4.986 -0.0939  0.0602 -0.1311
 6232SOL    HW130329   3.148   4.633   4.980 -0.0813  1.6667 -2.6486
 6232SOL    HW230330   3.030   4.726   4.944  0.1503  0.2696  0.1507
 6233SOL     OW30331   1.210   0.725  15.626  0.8113  0.0175 -0.3190
 6233SOL    HW130332   1.196   0.805  15.675 -0.5236 -0.1031 -0.5141
 6233SOL    HW230333   1.172   0.751  15.542  1.7009 -0.3918 -0.8612
 6234SOL     OW30334   0.295   4.376  14.635  0.0710 -0.3578  0.3070
 6234SOL    HW130335   0.257   4.421  14.561 -0.3577 -0.8001  0.2550
 6234SOL    HW230336   0.219   4.378  14.693  0.2353 -0.9701  0.5487
 6235SOL     OW30337   3.878   0.543  13.895 -0.0403 -0.1368 -0.2525
 6235SOL    HW130338   3.819   0.596  13.948 -1.2915  0.5904 -2.3523
 6235SOL    HW230339   3.944   0.612  13.885  1.6863 -1.5019  1.9477
 6236SOL     OW30340   3.846   1.456   7.445 -0.4895 -0.3042 -0.1475
 6236SOL    HW130341   3.938   1.446   7.421 -0.9379  0.2097 -2.1222
 6236SOL    HW230342   3.809   1.372   7.418  0.0855 -1.2585  2.0226
 6237SOL     OW30343   1.553   2.999   1.490 -0.2863  0.1007  0.0488
 6237SOL    HW130344   1.521   3.050   1.416 -0.6003 -1.2643 -0.7453
 6237SOL    HW230345   1.491   3.019   1.560  2.2298  2.3589  1.6701
 6238SOL     OW30346   0.147   2.592  10.899 -0.3208  0.0235 -0.4972
 6238SOL    HW130347   0.103   2.507  10.894 -0.3228 -0.0540  0.6211
 6238SOL    HW230348   0.090   2.654  10.854  1.0177  1.2741 -0.4545
 6239SOL     OW30349   0.299   0.838   6.250  0.4722 -0.1201 -0.0653
 6239SOL    HW130350   0.335   0.863   6.164  0.3625 -2.9438 -0.9299
 6239SOL    HW230351   0.206   0.853   6.233  1.2520  1.7083 -2.8423
 6240SOL     OW30352   0.585   1.342   2.786 -0.1368  0.0769  0.6326
 6240SOL    HW130353   0.654   1.375   2.844 -0.0779  4.2079 -1.8086
 6240SOL    HW230354   0.547   1.268   2.834 -0.8978 -0.6379 -1.0714
 6241SOL     OW30355   0.945   0.406   2.545 -0.0770 -0.3062 -0.6154
 6241SOL    HW130356   0.986   0.371   2.466  1.3810  0.9300 -0.3955
 6241SOL    HW230357   0.985   0.491   2.529 -3.2566  0.6904 -3.2361
 6242SOL     OW30358   3.343   3.582   5.826 -0.4358 -0.2207 -0.2710
 6242SOL    HW130359   3.381   3.558   5.911  0.0144  2.6356  0.3329
 6242SOL    HW230360   3.249   3.573   5.840 -0.9179  0.6134 -3.0991
 6243SOL     OW30361   3.257   0.526   5.313 -0.1497 -0.3829  0.2000
 6243SOL    HW130362   3.283   0.561   5.228 -1.2578 -1.4573 -0.5720
 6243SOL    HW230363   3.162   0.533   5.307 -0.1118  0.5767  0.7512
 6244SOL     OW30364   4.036   0.974   7.676 -0.4768  0.2115 -0.4792
 6244SOL    HW130365   4.123   0.936   7.662 -0.3756 -0.3056  1.5841
 6244SOL    HW230366   3.977   0.899   7.666  1.7351 -1.6492  0.5191
 6245SOL     OW30367   2.687   1.189   2.417 -0.2028  0.3560  0.0407
 6245SOL    HW130368   2.702   1.190   2.322  2.9122 -0.1805  0.5202
 6245SOL    HW230369   2.747   1.122   2.451  0.7171  0.5181 -1.2855
 6246SOL     OW30370   0.941   1.422  10.839 -0.0947  0.2589  0.9430
 6246SOL    HW130371   1.031   1.401  10.864  0.4552  0.7788 -0.5939
 6246SOL    HW230372   0.922   1.503  10.887  2.3968  1.4327 -0.0564
 6247SOL     OW30373   2.355   2.547   8.453  0.1188 -0.3725 -0.1295
 6247SOL    HW130374   2.401   2.601   8.518  0.9042 -2.0979  0.7513
 6247SOL    HW230375   2.293   2.613   8.422  1.1018  1.7351  2.3754
 6248SOL     OW30376   4.154   2.232   2.722 -0.4475 -0.5355 -0.3548
 6248SOL    HW130377   4.192   2.225   2.809 -2.1003 -0.6012  0.3537
 6248SOL    HW230378   4.234   2.230   2.669 -1.1602  1.8352 -1.4970
 6249SOL     OW30379   1.699   0.410   6.489 -0.2160 -0.2270 -0.4071
 6249SOL    HW130380   1.737   0.437   6.572  2.3768  0.9055 -1.9633
 6249SOL    HW230381   1.658   0.491   6.459  0.1716 -0.0877 -0.5662
 6250SOL     OW30382   0.044   3.324   7.677  0.4317  0.0240 -0.4194
 6250SOL    HW130383   0.067   3.413   7.703 -2.5554 -0.0425  2.4670
 6250SOL    HW230384   0.130   3.281   7.676 -0.1171 -1.1046 -0.0997
 6251SOL     OW30385   2.693   3.699   5.547 -0.4589  0.2646 -0.1666
 6251SOL    HW130386   2.732   3.680   5.633  2.7333  3.2123 -0.9258
 6251SOL    HW230387   2.607   3.657   5.551 -0.3964  0.2706  1.2864
 6252SOL     OW30388   2.971   4.380   5.737  0.0438  0.1025  0.2313
 6252SOL    HW130389   3.043   4.444   5.736 -0.6623  0.8621 -1.9817
 6252SOL    HW230390   2.904   4.421   5.683  0.3796 -0.3926 -0.5670
 6253SOL     OW30391   3.002   1.537  10.173  0.3752  0.1597 -0.2907
 6253SOL    HW130392   2.948   1.472  10.218 -0.5618  0.9626 -0.2466
 6253SOL    HW230393   2.977   1.524  10.081 -0.5770 -1.8329  0.2609
 6254SOL     OW30394   4.189   1.428  13.780  0.1902  0.0692  0.4592
 6254SOL    HW130395   4.279   1.426  13.748  0.4719  1.0039  1.1796
 6254SOL    HW230396   4.198   1.355  13.840 -0.3228 -0.2737  0.1234
 6255SOL     OW30397   2.986   0.983   2.689 -0.0062 -0.4020 -0.1087
 6255SOL    HW130398   3.076   0.952   2.692 -0.3334 -1.5820 -1.8627
 6255SOL    HW230399   2.961   0.980   2.596 -1.5157 -0.3536  0.2884
 6256SOL     OW30400   3.334   2.530  11.209  0.0825  0.3355 -0.0380
 6256SOL    HW130401   3.301   2.513  11.297  0.6218 -0.8890 -0.0740
 6256SOL    HW230402   3.348   2.446  11.166 -0.1051  0.1745  0.2164
 6257SOL     OW30403   1.460   3.997  17.438  0.1792 -0.0959  0.0267
 6257SOL    HW130404   1.470   3.970  17.529  1.7330  0.9141  0.1512
 6257SOL    HW230405   1.390   3.935  17.416 -0.0806 -0.0589  0.7649
 6258SOL     OW30406   4.627   4.216  11.424 -0.0542  0.4774 -0.2090
 6258SOL    HW130407   4.607   4.251  11.510 -1.5736 -0.2401 -0.2692
 6258SOL    HW230408   4.662   4.130  11.448  1.2725  0.8130 -0.9046
 6259SOL     OW30409   1.523   2.326   1.778  0.0612  0.0654  0.1079
 6259SOL    HW130410   1.499   2.308   1.869 -0.4270 -0.6864 -0.1644
 6259SOL    HW230411   1.551   2.237   1.758  0.5027  0.2620 -0.1274
 6260SOL     OW30412   1.991   4.671   4.912  0.0509 -0.1087 -0.1598
 6260SOL    HW130413   2.037   4.715   4.840 -1.9506  1.6097 -0.3833
 6260SOL    HW230414   2.032   4.718   4.984  1.1813  0.8629 -1.4276
 6261SOL     OW30415   4.371   4.720  15.915 -0.1480  0.2031  0.6223
 6261SOL    HW130416   4.429   0.060  15.908 -0.4483  0.3315 -0.4771
 6261SOL    HW230417   4.399   4.684  15.999 -1.7223 -1.5614  0.3900
 6262SOL     OW30418   4.229   3.113   4.256 -0.0380  0.3087 -0.7294
 6262SOL    HW130419   4.212   3.124   4.349  2.6537 -0.7346 -0.1187
 6262SOL    HW230420   4.140   3.083   4.241  0.3041 -1.0399 -0.0323
 6263SOL     OW30421   3.505   2.737  16.637  0.6797  0.0200 -0.0797
 6263SOL    HW130422   3.431   2.686  16.605  0.3030  0.3445  0.2714
 6263SOL    HW230423   3.457   2.818  16.655 -0.3372 -0.3416 -1.1240
 6264SOL     OW30424   0.940   3.423   7.021 -0.2523  0.4391  0.1541
 6264SOL    HW130425   0.846   3.434   7.010 -0.0939  1.2529 -0.3977
 6264SOL    HW230426   0.953   3.472   7.101  0.5417 -1.2420  1.0705
 6265SOL     OW30427   3.410   3.116  13.445 -0.0479  0.1304  0.5249
 6265SOL    HW130428   3.432   3.023  13.442 -3.4004 -0.7202  2.2641
 6265SOL    HW230429   3.496   3.157  13.434  1.7874 -3.7225  0.6004
 6266SOL     OW30430   1.086   3.472   8.440 -0.2133 -0.0844 -0.0974
 6266SOL    HW130431   1.072   3.471   8.346 -0.4910 -2.8603 -0.0478
 6266SOL    HW230432   1.097   3.566   8.451  4.8379 -0.7396  0.2138
 6267SOL     OW30433   4.511   1.037   6.124  0.3161  0.1872 -0.1460
 6267SOL    HW130434   4.531   1.051   6.031 -0.6232  1.3846 -0.1579
 6267SOL    HW230435   4.584   1.075   6.173  0.9283 -1.3424  0.1375
 6268SOL     OW30436   0.544   2.611   5.062 -0.2890 -0.0483 -0.2941
 6268SOL    HW130437   0.568   2.571   4.979  0.6643 -0.3862  0.1524
 6268SOL    HW230438   0.451   2.634   5.050  0.5324  0.8683 -4.7608
 6269SOL     OW30439   0.407   0.023   3.759  0.1315  0.6808 -0.1285
 6269SOL    HW130440   0.408   0.060   3.847  0.5311 -1.0115  0.5684
 6269SOL    HW230441   0.442   0.096   3.707  0.9907  1.6497  1.8095
 6270SOL     OW30442   3.523   2.833   3.490 -0.5294 -0.2905 -0.3291
 6270SOL    HW130443   3.441   2.863   3.451 -0.9020 -1.4866 -0.4525
 6270SOL    HW230444   3.590   2.826   3.422 -2.0634 -1.3478 -1.7205
 6271SOL     OW30445   4.576   0.547  13.827  0.2498  1.0286 -0.3447
 6271SOL    HW130446   4.487   0.551  13.792  0.3049  0.4693 -0.5438
 6271SOL    HW230447   4.576   0.479  13.894 -1.5325 -1.2985 -2.7203
 6272SOL     OW30448   2.470   1.893   3.926 -0.0794  0.2601  0.2561
 6272SOL    HW130449   2.443   1.984   3.915  0.3155  0.3218 -0.1900
 6272SOL    HW230450   2.527   1.904   4.002 -0.1531  1.1484  0.1921
 6273SOL     OW30451   4.435   1.014   3.123  0.3097  0.3259  0.2168
 6273SOL    HW130452   4.373   1.004   3.196  1.4885 -0.2735  1.1456
 6273SOL    HW230453   4.517   0.990   3.166  1.5394  4.7409  0.2593
 6274SOL     OW30454   1.182   0.105   5.572 -0.2776 -0.0150  0.0212
 6274SOL    HW130455   1.129   0.183   5.556  0.0648  0.7980  2.9187
 6274SOL    HW230456   1.230   0.126   5.652 -0.7032  1.1455 -0.0383
 6275SOL     OW30457   0.872   0.138   5.797  0.3238  0.1253 -0.3501
 6275SOL    HW130458   0.867   0.119   5.703 -1.1713 -0.4032 -0.1646
 6275SOL    HW230459   0.833   0.225   5.805 -0.5625 -0.5851  3.3165
 6276SOL     OW30460   0.807   0.601   9.306  0.2612 -0.0650 -0.1754
 6276SOL    HW130461   0.733   0.574   9.251  0.0645 -1.5279  0.8029
 6276SOL    HW230462   0.867   0.631   9.239 -0.4024  3.3513  0.7466
 6277SOL     OW30463   2.786   2.492   2.725 -0.1162 -0.2176 -0.1732
 6277SOL    HW130464   2.715   2.437   2.758  0.7151 -1.6646 -0.7401
 6277SOL    HW230465   2.787   2.476   2.631 -2.2726  1.1362 -0.4117
 6278SOL     OW30466   4.065   2.351   5.361 -0.3897  0.1157 -0.1357
 6278SOL    HW130467   4.081   2.445   5.352 -0.9916  0.1530 -0.7380
 6278SOL    HW230468   3.977   2.341   5.325 -0.3124 -0.1480 -0.2489
 6279SOL     OW30469   4.255   1.706   5.177  0.0795  0.4194 -0.0714
 6279SOL    HW130470   4.301   1.653   5.242  1.0453  2.0965  0.6328
 6279SOL    HW230471   4.291   1.781   5.225 -0.4700  1.3953 -1.1939
 6280SOL     OW30472   0.515   2.491   1.742 -0.0912  0.4023 -0.3659
 6280SOL    HW130473   0.540   2.526   1.656  1.5871 -2.0136 -0.8549
 6280SOL    HW230474   0.497   2.572   1.789  0.2957 -0.8724  1.9675
 6281SOL     OW30475   2.603   4.529   9.504  0.0223  0.2012 -0.3741
 6281SOL    HW130476   2.508   4.537   9.493  0.2484  0.3932 -2.2340
 6281SOL    HW230477   2.622   4.450   9.453 -0.2353 -0.5811  0.7283
 6282SOL     OW30478   2.539   2.183  12.923 -0.0368  0.3974  0.5370
 6282SOL    HW130479   2.506   2.093  12.933  1.4518 -0.1690  0.2843
 6282SOL    HW230480   2.579   2.187  13.009  1.3925 -0.6157 -0.0870
 6283SOL     OW30481   4.555   0.090   5.429 -0.0816  0.7305 -0.0158
 6283SOL    HW130482   4.612   0.059   5.358  0.3140 -1.3517  1.1877
 6283SOL    HW230483   4.582   0.181   5.436  0.2818  0.5595  0.8345
 6284SOL     OW30484   0.939   4.214  16.053 -0.3336 -0.5343 -0.7104
 6284SOL    HW130485   0.891   4.292  16.081 -2.2623 -0.6332 -3.7943
 6284SOL    HW230486   0.958   4.165  16.133  0.0079 -0.2623 -0.6224
 6285SOL     OW30487   4.265   3.158  16.699 -0.1794  0.3127 -0.6782
 6285SOL    HW130488   4.274   3.063  16.699 -1.0822  0.2226  0.6371
 6285SOL    HW230489   4.220   3.185  16.618  1.1426  1.8074 -0.9078
 6286SOL     OW30490   0.630   4.376   5.203  0.5380  0.3478  0.0888
 6286SOL    HW130491   0.655   4.355   5.113  0.8145 -0.1126  0.2714
 6286SOL    HW230492   0.659   4.303   5.258 -0.9414 -0.9275 -0.8489
 6287SOL     OW30493   4.379   1.766   4.409 -0.0639  0.2522  0.1696
 6287SOL    HW130494   4.455   1.752   4.467 -0.7904 -0.8277  0.8488
 6287SOL    HW230495   4.315   1.707   4.448  0.6247 -0.5743  0.0528
 6288SOL     OW30496   3.008   0.580  12.930 -0.2031 -0.1820 -0.6054
 6288SOL    HW130497   3.035   0.648  12.993 -0.2058  1.2703 -2.1883
 6288SOL    HW230498   2.940   0.632  12.887 -0.5029  1.2024  1.4967
 6289SOL     OW30499   1.865   2.627   0.253  0.3588  0.2053 -1.1017
 6289SOL    HW130500   1.865   2.666   0.340 -0.0438 -0.8903 -0.6088
 6289SOL    HW230501   1.932   2.559   0.262  0.8419  1.0620  1.7189
 6290SOL     OW30502   0.572   0.131   4.600 -0.0330  0.8556 -0.2284
 6290SOL    HW130503   0.528   0.052   4.568  1.2218 -0.2238  0.7128
 6290SOL    HW230504   0.515   0.203   4.571 -1.4128  0.3051  1.1247
 6291SOL     OW30505   3.708   3.608   0.135  0.1424  0.3859  0.2879
 6291SOL    HW130506   3.752   3.525   0.117  0.4294 -0.0580  3.1524
 6291SOL    HW230507   3.772   3.668   0.097  0.6883  0.1571  0.8558
 6292SOL     OW30508   2.944   2.266   7.334 -0.3306 -0.3653  0.2610
 6292SOL    HW130509   3.011   2.330   7.311 -0.3942 -0.3635  0.0779
 6292SOL    HW230510   2.884   2.275   7.260  0.8908  1.3477 -0.5332
 6293SOL     OW30511   2.926   3.763  15.128  0.2276  0.0393  0.1478
 6293SOL    HW130512   2.916   3.681  15.079  0.4348  0.7808 -1.1409
 6293SOL    HW230513   2.946   3.827  15.059 -1.2326  0.1991 -0.1189
 6294SOL     OW30514   0.759   0.803   2.754 -0.1550 -0.2323 -0.4619
 6294SOL    HW130515   0.724   0.852   2.680 -1.6562 -1.0947 -0.3233
 6294SOL    HW230516   0.780   0.882   2.803  0.8650 -0.6945 -0.1521
 6295SOL     OW30517   2.850   3.724   5.110  0.0360  0.0077 -0.1883
 6295SOL    HW130518   2.800   3.761   5.182  1.1335 -1.9265  1.5840
 6295SOL    HW230519   2.837   3.630   5.126 -0.1010 -0.0116 -0.4100
 6296SOL     OW30520   0.677   0.872   0.923 -0.0506 -0.1700  0.1335
 6296SOL    HW130521   0.612   0.939   0.945  1.7852  1.4033  0.8469
 6296SOL    HW230522   0.762   0.917   0.928 -0.3683  0.5338 -0.9052
 6297SOL     OW30523   1.788   1.822   1.919 -0.2516 -0.0950  0.6202
 6297SOL    HW130524   1.732   1.884   1.966  1.0131  1.4369  0.0954
 6297SOL    HW230525   1.742   1.808   1.836 -0.0082  1.2702  0.2479
 6298SOL     OW30526   3.997   1.375   3.654  0.0127  0.3539  0.0371
 6298SOL    HW130527   3.929   1.442   3.653 -0.9255 -0.5938 -0.0310
 6298SOL    HW230528   4.052   1.392   3.730  0.2990 -0.4293  0.0029
 6299SOL     OW30529   2.917   0.242   6.905 -0.2702  0.3118 -0.2909
 6299SOL    HW130530   2.893   0.224   6.996  2.1358  1.7060  0.6096
 6299SOL    HW230531   2.907   0.159   6.858  1.5750 -1.1383  1.8442
 6300SOL     OW30532   4.031   4.017  16.644  0.2476  0.1009 -0.5056
 6300SOL    HW130533   4.034   3.923  16.666  0.4071  0.7048  2.0178
 6300SOL    HW230534   3.939   4.038  16.633 -0.3707 -2.0780  0.4769
 6301SOL     OW30535   0.478   3.246   7.623 -0.3876  0.3370  0.2079
 6301SOL    HW130536   0.387   3.254   7.592 -0.6125 -0.8405  0.5500
 6301SOL    HW230537   0.496   3.152   7.614  0.1152  0.4407  0.1265
 6302SOL     OW30538   2.447   3.997  16.127 -0.2159 -0.4263  0.3972
 6302SOL    HW130539   2.391   3.994  16.204  0.5648 -2.9497  0.8776
 6302SOL    HW230540   2.386   4.032  16.063 -0.2734 -3.5330 -1.2514
 6303SOL     OW30541   3.687   3.390  17.105 -0.3690 -0.0269  0.2879
 6303SOL    HW130542   3.683   3.340  17.187 -0.1112  0.4671  0.6001
 6303SOL    HW230543   3.599   3.369  17.073 -0.2135  0.8438 -0.7045
 6304SOL     OW30544   2.426   4.717   2.831 -0.6447  0.4130 -0.4726
 6304SOL    HW130545   2.443   0.073   2.811 -0.6451  0.2793 -1.0684
 6304SOL    HW230546   2.356   4.710   2.767 -2.2452  0.2208  1.2916
 6305SOL     OW30547   4.119   2.618   5.452 -0.1144 -0.5916  0.2716
 6305SOL    HW130548   4.213   2.637   5.458 -0.4097  0.4506  1.4473
 6305SOL    HW230549   4.091   2.689   5.395 -0.3465 -1.0287 -0.1607
 6306SOL     OW30550   1.660   4.515   8.818  0.3872  0.3566 -0.1188
 6306SOL    HW130551   1.750   4.528   8.850  0.1020  2.4710 -0.1605
 6306SOL    HW230552   1.655   4.559   8.733  0.2624  0.3110 -0.1340
 6307SOL     OW30553   2.708   0.613  11.312  0.2891 -0.5916  0.3832
 6307SOL    HW130554   2.651   0.686  11.336  2.1468  0.9757 -0.0196
 6307SOL    HW230555   2.685   0.601  11.220  2.2496  1.0838 -0.3114
 6308SOL     OW30556   1.048   2.370  17.503  0.3511  0.0585 -0.4589
 6308SOL    HW130557   0.955   2.351  17.511  0.0708  1.8618  0.5245
 6308SOL    HW230558   1.077   2.355  17.413  0.1226 -0.3441 -0.4624
 6309SOL     OW30559   1.079   4.487  11.544 -0.6388 -0.1826  0.4153
 6309SOL    HW130560   1.152   4.470  11.604  0.2495 -0.6820 -0.8056
 6309SOL    HW230561   1.078   4.407  11.493  1.0081  0.2789 -0.3312
 6310SOL     OW30562   3.954   3.214   9.020  0.6260 -0.3716 -0.6830
 6310SOL    HW130563   3.889   3.234   9.087  1.6217  2.2795 -0.5376
 6310SOL    HW230564   4.008   3.146   9.060  2.0799  0.0316 -1.9241
 6311SOL     OW30565   4.733   1.178   2.512 -0.1725 -0.0139  0.2642
 6311SOL    HW130566   0.058   1.104   2.512  2.1818  1.9173  1.4911
 6311SOL    HW230567   0.063   1.248   2.518  0.7011 -0.7753 -0.4155
 6312SOL     OW30568   3.637   0.009   2.800  0.1961 -0.1986 -0.4521
 6312SOL    HW130569   3.542   0.010   2.809  0.2833  1.8353  0.1888
 6312SOL    HW230570   3.667   4.717   2.887 -0.4788  3.9494  1.0895
 6313SOL     OW30571   2.327   4.425   5.626  0.5777 -0.2421 -0.0661
 6313SOL    HW130572   2.295   4.455   5.542  1.1641  1.4323  0.3105
 6313SOL    HW230573   2.422   4.424   5.612  0.7300 -2.1732  0.9821
 6314SOL     OW30574   3.524   3.243   6.951  0.9515 -0.2564 -0.0527
 6314SOL    HW130575   3.536   3.218   7.043 -0.1245 -0.6777 -0.0270
 6314SOL    HW230576   3.555   3.167   6.902 -0.3282 -1.5194  1.1028
 6315SOL     OW30577   1.135   1.865   8.535 -0.2715  0.2482  0.4035
 6315SOL    HW130578   1.205   1.890   8.595 -0.9043  3.1930 -0.0812
 6315SOL    HW230579   1.140   1.770   8.547 -1.1526  0.1103 -0.3714
 6316SOL     OW30580   3.168   2.449  14.389  0.2407  0.7893 -0.8624
 6316SOL    HW130581   3.218   2.514  14.338  1.0878  0.0793 -0.9271
 6316SOL    HW230582   3.177   2.491  14.474  1.9974  0.9496 -1.1311
 6317SOL     OW30583   0.265   3.693   7.128  1.3238  0.2457  0.0506
 6317SOL    HW130584   0.210   3.665   7.201  0.3194 -1.9216 -1.5443
 6317SOL    HW230585   0.195   3.692   7.063  0.1525 -0.1507  1.3233
 6318SOL     OW30586   3.241   2.840   8.361  0.4360 -0.1030  0.0839
 6318SOL    HW130587   3.197   2.762   8.328 -2.5695  2.0914 -1.0536
 6318SOL    HW230588   3.308   2.844   8.292 -1.1790  0.5793 -1.4227
 6319SOL     OW30589   1.338   2.867   7.571 -0.3052 -0.6431  0.3225
 6319SOL    HW130590   1.318   2.893   7.481 -0.5943  0.1519  0.6183
 6319SOL    HW230591   1.246   2.876   7.596 -0.2038 -1.6588  1.0776
 6320SOL     OW30592   4.683   3.590   1.426  0.1172 -0.1318 -0.3017
 6320SOL    HW130593   4.684   3.494   1.419 -0.7830 -0.1345 -0.3390
 6320SOL    HW230594   0.040   3.594   1.401 -0.1280 -0.7167 -1.3042
 6321SOL     OW30595   3.377   2.236   2.965 -0.1186 -0.4953 -0.0032
 6321SOL    HW130596   3.457   2.214   2.918  0.1979 -1.5176  1.0267
 6321SOL    HW230597   3.415   2.248   3.052 -1.6564 -0.8781  0.7292
 6322SOL     OW30598   2.177   2.677   7.496  0.1986  0.3416 -0.1744
 6322SOL    HW130599   2.229   2.706   7.571 -0.6271  2.0398 -0.2540
 6322SOL    HW230600   2.194   2.585   7.514 -1.9229  0.1536  0.8880
 6323SOL     OW30601   1.511   2.499   8.230 -0.1491  0.3931 -0.0709
 6323SOL    HW130602   1.429   2.457   8.254  1.2575 -1.5884  1.2712
 6323SOL    HW230603   1.530   2.556   8.304  1.5331 -0.3259  0.0638
 6324SOL     OW30604   3.118   3.943  16.021 -0.7334 -0.0373 -0.4874
 6324SOL    HW130605   3.041   3.990  16.054 -0.1081  1.1213 -0.6725
 6324SOL    HW230606   3.096   3.915  15.933  1.2431 -0.0334 -0.9861
 6325SOL     OW30607   1.920   4.730  15.067  0.2018  0.2773  0.4538
 6325SOL    HW130608   2.016   4.730  15.070  0.1658  2.6419  2.3150
 6325SOL    HW230609   1.906   0.032  14.980 -0.4346  3.2571  1.8293
 6326SOL     OW30610   0.712   1.212   4.877  0.0055  0.5759  0.2362
 6326SOL    HW130611   0.642   1.271   4.906 -0.0007 -0.3305  2.0176
 6326SOL    HW230612   0.747   1.175   4.958 -1.2603 -1.6920 -0.2589
 6327SOL     OW30613   1.793   1.136   2.027  0.4476 -0.3343  0.1436
 6327SOL    HW130614   1.795   1.043   2.052 -0.1317 -1.2508 -3.2302
 6327SOL    HW230615   1.865   1.141   1.965  0.4509 -2.9081 -0.0857
 6328SOL     OW30616   0.316   1.880   3.324  0.3915  0.2404  0.6388
 6328SOL    HW130617   0.336   1.973   3.320 -0.8359  0.5701  2.2203
 6328SOL    HW230618   0.404   1.843   3.313  0.4349  0.8722 -1.0602
 6329SOL     OW30619   0.426   0.193   4.964 -0.1609 -0.1733 -0.1749
 6329SOL    HW130620   0.350   0.182   5.022 -1.0570  1.7451 -0.9682
 6329SOL    HW230621   0.387   0.252   4.899 -1.4136  0.9147  1.5549
 6330SOL     OW30622   2.467   0.971  15.498  0.0617 -0.3002  0.0788
 6330SOL    HW130623   2.440   0.883  15.524 -0.0142  0.2797  1.9644
 6330SOL    HW230624   2.386   1.020  15.514  2.1887  4.0624 -2.6363
 6331SOL     OW30625   2.760   2.090   4.993 -0.2314  0.3218  0.1721
 6331SOL    HW130626   2.833   2.152   4.992  0.1971 -0.1761  1.3473
 6331SOL    HW230627   2.749   2.064   5.084 -0.0167 -2.9762 -0.7442
 6332SOL     OW30628   4.700   4.578   9.187 -0.8278  0.0746 -0.3160
 6332SOL    HW130629   4.677   4.502   9.134  1.4121  0.4132 -1.7560
 6332SOL    HW230630   4.716   4.538   9.272 -0.6951 -0.3121 -0.5282
 6333SOL     OW30631   3.832   2.019   8.539 -0.1226 -0.1913  0.4823
 6333SOL    HW130632   3.798   1.988   8.623  3.8281 -3.9302  0.6528
 6333SOL    HW230633   3.765   2.005   8.472  0.0492 -1.8810  0.6750
 6334SOL     OW30634   0.425   2.011   0.722  0.5173  0.5810 -0.0722
 6334SOL    HW130635   0.455   1.949   0.788  0.5497  3.3035  2.4918
 6334SOL    HW230636   0.338   2.023   0.760  1.7911  3.3955  2.0074
 6335SOL     OW30637   3.651   0.541   7.791  0.1321  0.5489 -0.3521
 6335SOL    HW130638   3.565   0.506   7.768 -0.0032  1.1867 -0.8107
 6335SOL    HW230639   3.665   0.512   7.882  1.3580 -1.4433 -1.1691
 6336SOL     OW30640   0.618   1.885  15.326 -0.6910 -1.0552  0.1001
 6336SOL    HW130641   0.650   1.822  15.262 -0.8764 -1.3640  0.3140
 6336SOL    HW230642   0.566   1.831  15.385 -0.2070  0.2291  1.6939
 6337SOL     OW30643   0.885   3.879  17.192 -0.1131  0.3854  0.4187
 6337SOL    HW130644   0.869   3.943  17.122 -1.8223 -0.0383  0.4348
 6337SOL    HW230645   0.881   3.928  17.274  2.0290 -0.3915  1.0074
 6338SOL     OW30646   1.165   2.830   1.894 -0.1709 -0.5153 -0.1555
 6338SOL    HW130647   1.083   2.879   1.885  0.9745  1.6717  1.1046
 6338SOL    HW230648   1.218   2.896   1.940  0.1456 -1.2203  0.4817
 6339SOL     OW30649   3.328   1.494  13.730 -0.4450  0.2639  0.0521
 6339SOL    HW130650   3.408   1.517  13.682  0.7105  0.0922  1.9167
 6339SOL    HW230651   3.370   1.484  13.815 -1.9868 -1.5493  0.5871
 6340SOL     OW30652   1.010   4.735   4.911 -0.4429  0.2847 -0.1616
 6340SOL    HW130653   1.086   0.047   4.943  1.0082 -2.9843  1.2894
 6340SOL    HW230654   0.968   0.066   4.857 -1.1508 -0.2601 -0.2821
 6341SOL     OW30655   3.422   4.471   3.454  0.5329 -0.3743  0.0216
 6341SOL    HW130656   3.440   4.379   3.434  2.7518  0.5608 -2.3787
 6341SOL    HW230657   3.386   4.500   3.370 -0.7516 -0.7416  0.4557
 6342SOL     OW30658   1.488   2.102   3.929  0.2089  0.3850 -0.3630
 6342SOL    HW130659   1.468   2.021   3.975 -1.9734  1.2406  0.2225
 6342SOL    HW230660   1.423   2.104   3.858 -1.5785  3.4695  1.3245
 6343SOL     OW30661   0.400   4.246  11.088 -0.0319 -0.2049 -0.4426
 6343SOL    HW130662   0.392   4.300  11.010 -0.1959  1.0454  0.4297
 6343SOL    HW230663   0.309   4.235  11.118 -0.1925  0.5795 -0.6239
 6344SOL     OW30664   3.522   2.517  17.007 -0.3911 -0.2469 -0.4556
 6344SOL    HW130665   3.455   2.579  16.978 -2.2062 -0.8274  2.4338
 6344SOL    HW230666   3.511   2.535  17.101  0.2135  0.7587 -0.5848
 6345SOL     OW30667   1.056   2.488  10.259  0.0231 -0.4077  0.0012
 6345SOL    HW130668   1.086   2.566  10.214 -0.7514 -0.0804  0.0618
 6345SOL    HW230669   1.113   2.502  10.335  0.3144 -0.1251 -0.2706
 6346SOL     OW30670   1.301   3.899   8.089 -0.5266 -0.0336 -0.2731
 6346SOL    HW130671   1.360   3.974   8.082 -0.9297  0.6137  3.3500
 6346SOL    HW230672   1.357   3.825   8.113 -1.6437 -0.4424  1.0811
 6347SOL     OW30673   0.183   2.004   2.756  0.0074 -0.4604 -0.2862
 6347SOL    HW130674   0.236   1.967   2.827 -0.5226  1.8010  1.2761
 6347SOL    HW230675   0.100   1.957   2.760  1.0405 -2.3651 -1.2325
 6348SOL     OW30676   3.649   2.588   8.821  0.0673  0.4649 -0.2757
 6348SOL    HW130677   3.633   2.494   8.827  0.4958  0.3568 -0.9112
 6348SOL    HW230678   3.599   2.619   8.745  1.5540 -0.8855 -1.7780
 6349SOL     OW30679   1.512   3.825   4.772  0.6335 -0.1363 -0.3450
 6349SOL    HW130680   1.554   3.749   4.812 -2.0127 -1.4308  0.0135
 6349SOL    HW230681   1.480   3.877   4.846 -0.4927  0.6887 -1.4112
 6350SOL     OW30682   3.010   3.506   3.332 -0.7225 -0.3876 -0.0288
 6350SOL    HW130683   2.961   3.468   3.259  0.9054 -1.3923 -0.6239
 6350SOL    HW230684   3.052   3.430   3.373 -0.1535 -0.4051 -0.6426
 6351SOL     OW30685   1.785   1.496   2.163  0.2591  0.2667  0.7454
 6351SOL    HW130686   1.730   1.490   2.085  0.9551 -5.1746  0.7157
 6351SOL    HW230687   1.832   1.575   2.135 -0.6382  0.3628 -0.5114
 6352SOL     OW30688   1.275   3.374   6.685  0.5893  0.1239 -0.0413
 6352SOL    HW130689   1.254   3.385   6.778 -2.3792  1.8904 -0.9249
 6352SOL    HW230690   1.219   3.301   6.660  2.7308 -1.5800  0.0714
 6353SOL     OW30691   2.690   1.688   7.715  0.0778 -0.0521 -0.0277
 6353SOL    HW130692   2.781   1.685   7.745  0.4932 -1.3192 -1.4116
 6353SOL    HW230693   2.668   1.610   7.664 -0.6215  0.3450 -0.3386
 6354SOL     OW30694   0.414   4.496   5.598  0.2203  0.0329  0.3390
 6354SOL    HW130695   0.413   4.410   5.555 -0.1669 -0.2543  0.9236
 6354SOL    HW230696   0.321   4.519   5.599 -0.6001 -3.3307  0.1403
 6355SOL     OW30697   4.530   0.574   3.652 -0.2653  0.2321 -0.2139
 6355SOL    HW130698   4.579   0.519   3.714 -1.5210  1.9160  2.2411
 6355SOL    HW230699   4.439   0.552   3.670 -0.3602  0.3985 -0.4948
 6356SOL     OW30700   2.849   4.493   9.036  0.0691  0.6888  0.0983
 6356SOL    HW130701   2.815   4.405   9.047 -0.0604  0.7105 -0.1157
 6356SOL    HW230702   2.886   4.481   8.948 -1.3184 -1.4944 -0.1787
 6357SOL     OW30703   4.341   2.694   5.019 -0.4966 -0.4818 -0.0745
 6357SOL    HW130704   4.349   2.610   5.064  0.0613 -0.2448  0.2691
 6357SOL    HW230705   4.338   2.669   4.926  0.0327  1.3969 -0.5994
 6358SOL     OW30706   3.995   0.861   1.617  0.1617 -0.1721 -0.3400
 6358SOL    HW130707   3.980   0.816   1.700 -0.4351 -0.7930 -0.7792
 6358SOL    HW230708   4.086   0.842   1.598 -0.6828 -3.5936 -1.0570
 6359SOL     OW30709   2.264   4.175   5.741  0.3704 -0.0142 -0.0511
 6359SOL    HW130710   2.266   4.265   5.708 -1.2868  0.5280  1.3018
 6359SOL    HW230711   2.355   4.175   5.771  0.5760 -2.1762 -0.6884
 6360SOL     OW30712   2.664   2.828   7.638 -0.6398  0.0190 -0.4056
 6360SOL    HW130713   2.702   2.905   7.681 -0.7939 -1.0762  1.7268
 6360SOL    HW230714   2.691   2.759   7.699 -0.2376  0.9721  0.5023
 6361SOL     OW30715   2.389   1.742  15.802 -0.2014 -0.4940  0.6358
 6361SOL    HW130716   2.423   1.760  15.715  2.1949  2.2853  2.1467
 6361SOL    HW230717   2.355   1.654  15.783 -0.2773 -0.1075 -1.0496
 6362SOL     OW30718   3.610   0.759   8.637 -0.1988  0.4870  0.8366
 6362SOL    HW130719   3.566   0.719   8.713  0.7998 -1.1329  0.5504
 6362SOL    HW230720   3.639   0.687   8.581 -2.5746 -0.4350  0.7703
 6363SOL     OW30721   0.765   0.074  10.667  0.1185 -0.2043  0.3601
 6363SOL    HW130722   0.696   0.028  10.715 -0.8818  0.1842 -0.7028
 6363SOL    HW230723   0.840   0.015  10.658 -0.9990 -1.3558 -1.4856
 6364SOL     OW30724   3.080   3.674   6.124 -0.5335 -0.2027 -0.2016
 6364SOL    HW130725   3.143   3.745   6.109 -0.6131 -0.1278 -0.1868
 6364SOL    HW230726   3.131   3.607   6.168  2.1990  1.2219 -1.2321
 6365SOL     OW30727   4.490   1.676   8.869 -0.2418 -0.1327  0.1586
 6365SOL    HW130728   4.450   1.601   8.913  0.3529 -1.1151 -0.9668
 6365SOL    HW230729   4.557   1.711   8.928  0.5848  1.0506 -1.4691
 6366SOL     OW30730   0.471   3.769   6.576  0.0378 -0.2210  0.0665
 6366SOL    HW130731   0.434   3.681   6.585 -1.6106  0.3593 -0.9999
 6366SOL    HW230732   0.423   3.800   6.499  0.3746  1.1753  0.4282
 6367SOL     OW30733   2.187   1.466  13.476 -0.2567 -0.2572  0.4765
 6367SOL    HW130734   2.242   1.402  13.520  1.9583  0.7142 -0.8834
 6367SOL    HW230735   2.129   1.405  13.431  2.5228 -2.3594 -0.2749
 6368SOL     OW30736   0.084   4.362  14.795 -0.2766 -0.0551 -0.0309
 6368SOL    HW130737   0.005   4.308  14.792 -1.3173  1.3886  0.8367
 6368SOL    HW230738   0.130   4.312  14.862 -0.5956 -0.0015  0.2297
 6369SOL     OW30739   0.395   0.829   4.100 -0.2112  0.3626 -0.1588
 6369SOL    HW130740   0.327   0.816   4.166  0.0026  1.3275  0.2539
 6369SOL    HW230741   0.464   0.780   4.143  0.5701  1.2116 -0.4455
 6370SOL     OW30742   3.551   4.611  15.284 -0.2658  0.6609 -0.1059
 6370SOL    HW130743   3.499   4.688  15.262 -1.4352  0.3424  1.5369
 6370SOL    HW230744   3.634   4.648  15.254  0.5683 -0.1457  1.1750
 6371SOL     OW30745   4.318   0.822   4.822  0.5294  0.3603  0.0008
 6371SOL    HW130746   4.321   0.882   4.747  0.4384  0.3295 -0.0273
 6371SOL    HW230747   4.402   0.782   4.802 -1.0946 -2.5386 -0.9724
 6372SOL     OW30748   3.823   3.154   6.077  0.2059 -0.0686 -0.1799
 6372SOL    HW130749   3.833   3.059   6.078  0.0858 -0.0849 -0.5092
 6372SOL    HW230750   3.764   3.174   6.150 -0.1944  0.1819 -0.5712
 6373SOL     OW30751   0.912   1.550   6.934 -0.0718  0.0013  0.5148
 6373SOL    HW130752   0.833   1.601   6.916 -1.0289 -0.1358  4.3988
 6373SOL    HW230753   0.888   1.462   6.905  0.3521 -0.2153  0.8177
 6374SOL     OW30754   1.513   1.410   1.507 -0.1021 -0.1416  0.0109
 6374SOL    HW130755   1.438   1.371   1.552 -0.4054  1.2804  0.7243
 6374SOL    HW230756   1.485   1.400   1.416 -3.1038  0.4230  0.8517
 6375SOL     OW30757   4.238   0.309   3.535 -0.1312 -0.3282 -0.1512
 6375SOL    HW130758   4.238   0.373   3.464 -0.8272  0.0608  0.2080
 6375SOL    HW230759   4.233   0.229   3.481  1.3682  0.0009 -0.7715
 6376SOL     OW30760   1.039   3.760   2.482  0.0439 -0.2230  0.5068
 6376SOL    HW130761   1.111   3.821   2.497 -1.5937  1.8017  0.0718
 6376SOL    HW230762   1.095   3.700   2.433  3.2039  2.6904  0.5173
 6377SOL     OW30763   4.142   0.992   1.376  0.4823  0.1223 -0.8189
 6377SOL    HW130764   4.058   0.953   1.353  0.4338 -0.4153  0.2479
 6377SOL    HW230765   4.167   0.931   1.446  1.5155 -2.4792 -3.4181
 6378SOL     OW30766   0.678   3.787   3.672 -0.0263 -0.2506 -0.3775
 6378SOL    HW130767   0.741   3.816   3.738 -1.0905  0.2959  0.3934
 6378SOL    HW230768   0.734   3.734   3.614  0.7450  2.2207 -1.9166
 6379SOL     OW30769   0.265   4.485   7.150  0.5291  0.0718  0.0743
 6379SOL    HW130770   0.176   4.496   7.184  0.3629 -1.2291  0.0461
 6379SOL    HW230771   0.246   4.454   7.061  0.8539  1.8968 -0.6397
 6380SOL     OW30772   0.306   1.436   7.615 -0.4385 -0.1965 -0.1647
 6380SOL    HW130773   0.306   1.365   7.679 -1.9868 -0.7983 -0.8452
 6380SOL    HW230774   0.394   1.473   7.628 -0.4025 -0.5434  0.5661
 6381SOL     OW30775   2.381   1.233   6.120 -0.1090 -0.2438  0.6617
 6381SOL    HW130776   2.439   1.195   6.186 -1.4381 -0.7570  1.5138
 6381SOL    HW230777   2.448   1.295   6.089 -0.4845  0.1268  0.5899
 6382SOL     OW30778   3.332   2.486   5.529  0.1483 -0.6488 -0.1926
 6382SOL    HW130779   3.316   2.403   5.484  1.2626 -0.8935 -0.1540
 6382SOL    HW230780   3.378   2.450   5.605  0.6804  1.1367  0.3399
 6383SOL     OW30781   0.205   0.218   8.600  0.0600 -0.5172 -0.3185
 6383SOL    HW130782   0.134   0.250   8.545  0.5548 -1.3731 -1.4531
 6383SOL    HW230783   0.241   0.151   8.541 -0.9458  0.1807 -1.7115
 6384SOL     OW30784   0.552   0.855   2.275  0.1734  0.0572  0.6431
 6384SOL    HW130785   0.566   0.949   2.264  2.5563 -0.4269 -0.3453
 6384SOL    HW230786   0.633   0.816   2.244  0.5604 -0.2405  2.0414
 6385SOL     OW30787   4.306   0.865   5.132 -0.0012  0.1088  0.1165
 6385SOL    HW130788   4.217   0.893   5.109 -0.0733 -0.6627 -0.5192
 6385SOL    HW230789   4.331   0.810   5.058  2.3384  1.5342 -0.1529
 6386SOL     OW30790   3.825   4.672   5.863  0.0483  0.2379  0.5410
 6386SOL    HW130791   3.824   4.581   5.835 -1.4178  0.6144 -0.6760
 6386SOL    HW230792   3.733   4.692   5.881 -0.8769 -2.8848 -0.7157
 6387SOL     OW30793   0.179   2.436  13.279  0.3765  0.2050  0.0366
 6387SOL    HW130794   0.139   2.496  13.216  0.2346  1.5028  1.3572
 6387SOL    HW230795   0.107   2.421  13.340 -1.2510 -0.5906 -2.0929
 6388SOL     OW30796   3.163   0.683   0.468 -0.3047 -0.3844  0.7295
 6388SOL    HW130797   3.101   0.628   0.421  0.6028 -1.2329  0.5242
 6388SOL    HW230798   3.116   0.766   0.479 -0.1640  0.1389 -2.5794
 6389SOL     OW30799   3.322   1.041   7.872 -0.5838  0.0205  0.0321
 6389SOL    HW130800   3.329   1.102   7.798  0.5733 -0.0870  0.0607
 6389SOL    HW230801   3.304   0.961   7.822 -2.3077  0.9379 -0.8315
 6390SOL     OW30802   4.542   3.323   2.548 -0.9247 -0.8339 -0.5686
 6390SOL    HW130803   4.573   3.376   2.622  0.8994 -0.9171 -1.2706
 6390SOL    HW230804   4.578   3.238   2.575  0.9966  0.3099  0.4764
 6391SOL     OW30805   3.834   4.637   9.187  0.1238 -0.4655 -0.3404
 6391SOL    HW130806   3.927   4.660   9.177  0.1067 -0.6822 -1.0208
 6391SOL    HW230807   3.808   4.635   9.095  1.1972  0.7782 -0.6727
 6392SOL     OW30808   3.283   0.849   9.051 -0.4855 -0.9337  0.3587
 6392SOL    HW130809   3.255   0.929   9.006 -0.0562  0.2419  2.1572
 6392SOL    HW230810   3.232   0.782   9.006  0.5720 -2.3552  1.2834
 6393SOL     OW30811   0.220   3.115  16.729 -0.1826  0.6519  0.1547
 6393SOL    HW130812   0.172   3.168  16.793 -0.4155 -0.4308  0.8694
 6393SOL    HW230813   0.276   3.183  16.692  0.6159 -0.2142 -0.2359
 6394SOL     OW30814   1.778   1.786  15.425  0.1495  0.0611  0.2832
 6394SOL    HW130815   1.859   1.833  15.407  0.4904 -1.2805 -1.7016
 6394SOL    HW230816   1.819   1.701  15.445 -0.2568 -0.0994  0.4450
 6395SOL     OW30817   0.996   0.727   8.423 -0.3868 -0.2165  0.0715
 6395SOL    HW130818   0.977   0.820   8.434  0.0849 -0.3766  2.1182
 6395SOL    HW230819   0.913   0.688   8.447 -0.5651  0.7372  1.0049
 6396SOL     OW30820   3.245   2.215   9.754  0.2020 -0.4775  0.2619
 6396SOL    HW130821   3.225   2.271   9.679 -2.5817 -1.4486  0.2605
 6396SOL    HW230822   3.324   2.259   9.785 -0.7260 -1.0343  3.3780
 6397SOL     OW30823   1.245   4.336  10.016  0.2065  0.0743 -0.1449
 6397SOL    HW130824   1.185   4.404   9.984  0.4119  0.9945  1.4336
 6397SOL    HW230825   1.216   4.269   9.954 -2.2899  1.0343 -0.0179
 6398SOL     OW30826   4.236   0.013   9.398 -0.0328  0.3642  0.2036
 6398SOL    HW130827   4.313   0.070   9.394 -1.8569  2.7430 -0.7891
 6398SOL    HW230828   4.166   0.079   9.397 -1.5113 -1.2353 -1.5602
 6399SOL     OW30829   4.151   0.606   8.365 -0.4490  0.4403 -0.5613
 6399SOL    HW130830   4.150   0.690   8.411  1.2403  0.6113 -0.8400
 6399SOL    HW230831   4.056   0.592   8.372 -0.8913  2.5252 -2.2317
 6400SOL     OW30832   3.742   4.259   0.238 -0.0931  0.4809 -0.0073
 6400SOL    HW130833   3.720   4.168   0.259 -0.2979  0.5119 -0.0807
 6400SOL    HW230834   3.722   4.307   0.318  0.5789 -0.3038  0.6273
 6401SOL     OW30835   0.914   1.994  11.767  0.2112 -0.0352  0.6396
 6401SOL    HW130836   0.942   2.039  11.687 -0.4927 -0.0754  0.3697
 6401SOL    HW230837   0.848   2.053  11.803 -1.0489 -1.3190  0.4177
 6402SOL     OW30838   3.828   3.664   0.705  0.1257  0.1256  0.7045
 6402SOL    HW130839   3.918   3.669   0.737  0.7882 -1.6876 -0.8264
 6402SOL    HW230840   3.832   3.738   0.644 -1.4691  0.3247  0.8320
 6403SOL     OW30841   3.797   2.983   8.056 -0.3918 -1.0227 -0.2627
 6403SOL    HW130842   3.864   3.047   8.079  0.4849 -2.2324  0.5299
 6403SOL    HW230843   3.804   2.920   8.128 -2.8335 -0.3178  0.5743
 6404SOL     OW30844   1.167   2.165  11.258  0.0318 -0.7319 -0.2430
 6404SOL    HW130845   1.223   2.173  11.181 -1.3691  2.1240 -0.9739
 6404SOL    HW230846   1.102   2.231  11.233  0.1496 -0.3493  0.4826
 6405SOL     OW30847   3.296   2.399  11.805  0.2182  0.0445  0.6027
 6405SOL    HW130848   3.301   2.464  11.736  0.8966  0.2552  0.8468
 6405SOL    HW230849   3.346   2.324  11.772 -1.2010 -0.5951 -0.0744
 6406SOL     OW30850   2.999   1.392   8.525 -0.0957  0.6479  0.2343
 6406SOL    HW130851   2.984   1.337   8.601  1.6269  0.1603  0.2357
 6406SOL    HW230852   3.078   1.361   8.480  0.2231 -1.2711  2.1267
 6407SOL     OW30853   1.249   2.967   9.163 -0.0301  0.1838  0.0958
 6407SOL    HW130854   1.325   3.012   9.199 -0.5483 -1.2271  2.9900
 6407SOL    HW230855   1.255   2.880   9.204  0.3985  0.3349  0.3546
 6408SOL     OW30856   4.192   1.316   5.474  0.0014  0.1904 -0.0955
 6408SOL    HW130857   4.272   1.279   5.436 -0.3165 -0.9633  0.3770
 6408SOL    HW230858   4.208   1.321   5.568  1.1715 -4.0747 -0.1029
 6409SOL     OW30859   3.013   4.216   3.375  0.0825 -0.0618  0.3133
 6409SOL    HW130860   2.926   4.176   3.369  0.5210 -0.6532 -2.3771
 6409SOL    HW230861   3.037   4.201   3.283  0.2922 -0.2155  0.3933
 6410SOL     OW30862   3.576   2.875   5.395  0.2880  0.3160 -0.0695
 6410SOL    HW130863   3.543   2.964   5.387 -1.9982 -0.3982  1.3701
 6410SOL    HW230864   3.613   2.875   5.483 -0.1033  1.0079  0.0932
 6411SOL     OW30865   3.810   1.887   4.930  0.5838  0.1555  0.6908
 6411SOL    HW130866   3.724   1.862   4.965 -1.2889  2.0279 -2.5640
 6411SOL    HW230867   3.875   1.839   4.981  0.8601  0.8630  0.9917
 6412SOL     OW30868   0.225   1.101   4.378 -0.1287 -0.0709 -0.4599
 6412SOL    HW130869   0.307   1.054   4.367  1.8753  3.0346  1.1408
 6412SOL    HW230870   0.172   1.023   4.396 -0.0264 -0.4995 -2.0763
 6413SOL     OW30871   4.624   2.975  12.243 -0.4308 -0.6248 -0.1103
 6413SOL    HW130872   4.678   2.909  12.284  0.1307  0.3210  0.6718
 6413SOL    HW230873   4.545   2.947  12.288 -0.1952  0.4839  0.9735
 6414SOL     OW30874   3.532   4.607  13.777  0.5247  0.2713  0.4435
 6414SOL    HW130875   3.563   4.645  13.695  0.0401  1.9394  1.0347
 6414SOL    HW230876   3.515   4.514  13.768  1.4675 -0.1048  2.4092
 6415SOL     OW30877   3.882   0.197  11.065  0.2540  0.3577 -0.2543
 6415SOL    HW130878   3.834   0.146  11.000 -2.7533  1.0232  1.4137
 6415SOL    HW230879   3.957   0.223  11.013  0.7382  0.2441  0.3848
 6416SOL     OW30880   2.806   1.421   2.477 -0.2813  0.2857 -0.2416
 6416SOL    HW130881   2.860   1.417   2.398  3.2533 -0.0089  2.2002
 6416SOL    HW230882   2.776   1.330   2.481 -0.4180  0.2878 -1.0397
 6417SOL     OW30883   3.588   4.497  10.479 -0.0450  0.4025  0.3994
 6417SOL    HW130884   3.536   4.423  10.509 -0.0816 -0.4638 -1.7772
 6417SOL    HW230885   3.666   4.454  10.445  0.5657  0.7622  1.3291
 6418SOL     OW30886   2.716   3.370  10.880 -0.1804 -0.2212 -0.1271
 6418SOL    HW130887   2.778   3.393  10.812  1.6235 -2.8417  0.6369
 6418SOL    HW230888   2.753   3.371  10.968 -1.3525  0.5105  0.3614
 6419SOL     OW30889   1.881   3.887   6.609  0.2935 -0.0925 -0.5303
 6419SOL    HW130890   1.833   3.966   6.585 -1.2492 -1.0847 -0.6935
 6419SOL    HW230891   1.892   3.848   6.522  1.2478  0.6785 -0.7525
 6420SOL     OW30892   0.997   1.309   7.915  0.0442 -0.4619  0.3744
 6420SOL    HW130893   1.082   1.353   7.910 -0.9811  1.3153 -1.2798
 6420SOL    HW230894   0.931   1.377   7.926  0.1088 -0.6721  2.1625
 6421SOL     OW30895   3.832   2.300   4.487 -0.2826  0.4817  0.2866
 6421SOL    HW130896   3.816   2.261   4.573  0.3988  0.2225  0.2891
 6421SOL    HW230897   3.850   2.227   4.428  0.5023  1.4727 -0.7124
 6422SOL     OW30898   1.248   0.320  10.142 -0.4375  0.1072 -0.2267
 6422SOL    HW130899   1.278   0.231  10.154 -0.7993  0.0890  0.4899
 6422SOL    HW230900   1.205   0.332  10.226  0.3793  0.9693  0.0748
 6423SOL     OW30901   3.155   3.470  11.789  0.7973 -0.1895 -0.2475
 6423SOL    HW130902   3.086   3.497  11.850 -0.4499 -4.4511  0.2597
 6423SOL    HW230903   3.201   3.397  11.832 -2.8491 -1.7596  1.0488
 6424SOL     OW30904   0.729   0.005   7.532  0.7041  0.0606  0.3650
 6424SOL    HW130905   0.687   0.029   7.614  1.4651 -0.1675  0.8246
 6424SOL    HW230906   0.661   0.027   7.468  0.1359 -0.7859  0.6898
 6425SOL     OW30907   0.509   3.898   2.774 -0.9908  0.6481 -0.4295
 6425SOL    HW130908   0.549   3.977   2.809 -1.6313  0.7451  0.0881
 6425SOL    HW230909   0.507   3.840   2.850 -1.2385 -0.0877 -1.0011
 6426SOL     OW30910   0.331   1.174   3.303 -0.1590 -0.2770 -0.1506
 6426SOL    HW130911   0.248   1.159   3.349 -0.2029  1.9950  0.4839
 6426SOL    HW230912   0.391   1.134   3.367  0.5861  2.2928  0.7376
 6427SOL     OW30913   0.488   3.077   0.320  0.4592 -0.4018  0.6642
 6427SOL    HW130914   0.559   3.052   0.262 -0.3385  1.2931 -1.0665
 6427SOL    HW230915   0.419   3.099   0.257  0.8080 -2.4185 -0.4232
 6428SOL     OW30916   2.852   3.670   6.451  0.1857  0.1633 -0.0392
 6428SOL    HW130917   2.788   3.707   6.390 -1.6846 -1.4049  0.9539
 6428SOL    HW230918   2.915   3.741   6.465 -0.4816  0.3190  2.1831
 6429SOL     OW30919   4.039   4.146   3.022  0.4090 -0.5125  0.0620
 6429SOL    HW130920   4.078   4.065   2.990 -0.6247 -0.5472 -1.1184
 6429SOL    HW230921   3.995   4.112   3.100  1.1338  0.8030  1.0348
 6430SOL     OW30922   2.657   1.977   4.760  0.0493  0.2166  0.2574
 6430SOL    HW130923   2.746   1.961   4.727  0.4703 -1.3203  2.0730
 6430SOL    HW230924   2.673   2.032   4.837  1.7640 -0.0897  0.1395
 6431SOL     OW30925   3.224   1.252   0.649  0.7973  0.5090 -0.3146
 6431SOL    HW130926   3.232   1.197   0.572 -0.5446  0.9316 -0.7582
 6431SOL    HW230927   3.313   1.262   0.684  1.8067  1.6207 -3.1944
 6432SOL     OW30928   1.362   2.561  13.674  0.3632 -0.0803  0.3955
 6432SOL    HW130929   1.319   2.574  13.759 -1.2495  1.5550 -0.6816
 6432SOL    HW230930   1.384   2.468  13.683 -1.0564 -0.4194  0.3914
 6433SOL     OW30931   3.014   0.122   3.311 -0.1415  0.2347  0.1308
 6433SOL    HW130932   2.960   0.163   3.244  0.9514 -0.2393 -1.0416
 6433SOL    HW230933   2.998   0.178   3.387 -0.2448 -1.1014  1.1123
 6434SOL     OW30934   4.102   0.607   7.475  0.3881 -0.0799 -0.3267
 6434SOL    HW130935   4.074   0.595   7.566  1.1088 -1.7629 -0.3242
 6434SOL    HW230936   4.016   0.600   7.434  0.1080  2.2360 -0.1330
 6435SOL     OW30937   0.752   1.001   1.273 -0.7468 -0.1446 -0.4645
 6435SOL    HW130938   0.770   1.068   1.339  0.1402  0.4895 -1.3515
 6435SOL    HW230939   0.657   0.997   1.287 -0.4300 -1.0146  1.4764
 6436SOL     OW30940   4.138   3.803   9.610 -0.0413  0.0423 -0.1765
 6436SOL    HW130941   4.207   3.777   9.549  0.3389 -1.9834  1.0986
 6436SOL    HW230942   4.072   3.828   9.546  1.4402  2.1706 -0.8632
 6437SOL     OW30943   2.741   0.885  12.537 -0.2140  0.2340  0.0326
 6437SOL    HW130944   2.751   0.938  12.459  0.1112 -1.0784 -0.8273
 6437SOL    HW230945   2.747   0.956  12.600  1.9337 -0.4254  0.5760
 6438SOL     OW30946   1.245   1.641  17.600  0.4230 -0.0651  0.0624
 6438SOL    HW130947   1.162   1.615  17.562  0.5725 -0.9422  0.3390
 6438SOL    HW230948   1.285   1.560  17.632 -1.9879 -0.9512  0.8252
 6439SOL     OW30949   0.629   4.040   3.557 -0.0928 -0.1896  0.2072
 6439SOL    HW130950   0.538   4.069   3.561 -0.0713 -0.2907  1.6085
 6439SOL    HW230951   0.627   3.966   3.618 -3.2961 -0.4813 -0.2668
 6440SOL     OW30952   0.363   3.327   1.908 -0.6637 -0.1537 -0.2206
 6440SOL    HW130953   0.327   3.413   1.930 -1.3189 -1.0950  2.4420
 6440SOL    HW230954   0.310   3.310   1.831 -2.0227 -0.4445  0.7853
 6441SOL     OW30955   2.539   3.934   8.542  0.4838 -0.2814  1.1353
 6441SOL    HW130956   2.465   3.992   8.558 -0.2589 -0.8728 -0.1083
 6441SOL    HW230957   2.521   3.855   8.594 -0.2317 -1.4326 -0.8608
 6442SOL     OW30958   1.600   1.629   5.341 -0.2449  0.4228 -0.1222
 6442SOL    HW130959   1.674   1.616   5.281  1.0287  1.1826  1.2684
 6442SOL    HW230960   1.528   1.618   5.280  2.2518 -2.6539 -2.4873
 6443SOL     OW30961   4.023   0.284   1.020 -0.3046  0.4277  0.3823
 6443SOL    HW130962   4.021   0.217   1.088  1.1389 -1.3359 -1.2952
 6443SOL    HW230963   4.070   0.354   1.066 -0.0574  1.0352 -0.7959
 6444SOL     OW30964   0.939   2.735   2.514 -1.0559  0.2244 -0.0813
 6444SOL    HW130965   0.996   2.669   2.553 -1.6710 -1.1782 -1.5370
 6444SOL    HW230966   0.923   2.785   2.593 -0.9314  2.2544 -1.3261
 6445SOL     OW30967   2.004   1.581  10.605 -0.2692 -0.1779  0.4833
 6445SOL    HW130968   2.065   1.513  10.635  2.7661  2.1343 -0.5010
 6445SOL    HW230969   2.047   1.659  10.640  1.6025 -1.4059  0.9834
 6446SOL     OW30970   0.209   0.747  15.192  0.5753  0.5930 -0.3565
 6446SOL    HW130971   0.202   0.663  15.238 -0.1298  0.2564 -1.0682
 6446SOL    HW230972   0.301   0.769  15.177  0.4575  1.6170  0.3615
 6447SOL     OW30973   1.900   3.707   2.401  0.1705 -0.0774 -0.3178
 6447SOL    HW130974   1.880   3.628   2.452  1.2154 -0.0552  0.1286
 6447SOL    HW230975   1.841   3.772   2.439  0.2860  0.7559 -1.5773
 6448SOL     OW30976   2.612   4.684   3.897  0.6455  0.2539 -0.1371
 6448SOL    HW130977   2.618   4.592   3.872 -1.2306 -0.6235  2.6668
 6448SOL    HW230978   2.538   4.720   3.848 -0.1517 -0.1638  0.7683
 6449SOL     OW30979   0.569   2.527   4.823 -0.2544 -0.0901 -0.6114
 6449SOL    HW130980   0.535   2.438   4.810 -0.5564 -0.1342  0.4945
 6449SOL    HW230981   0.587   2.552   4.732  0.8203 -0.6581 -0.5557
 6450SOL     OW30982   2.355   3.918   4.184  0.0473 -0.2371  0.3751
 6450SOL    HW130983   2.445   3.903   4.212 -0.4542 -0.3764  1.9270
 6450SOL    HW230984   2.337   3.851   4.119 -0.1572 -0.6749  0.8847
 6451SOL     OW30985   0.961   0.551  10.180  0.1211  0.0569 -0.6563
 6451SOL    HW130986   0.948   0.501  10.099  0.9320  0.9148 -1.3096
 6451SOL    HW230987   0.902   0.504  10.239  0.4347  0.7585  0.2221
 6452SOL     OW30988   1.051   1.353   9.603  0.4517  0.1192  0.3331
 6452SOL    HW130989   1.080   1.271   9.644  1.8784 -0.2330 -1.3637
 6452SOL    HW230990   0.967   1.365   9.646 -0.0998 -1.8131 -0.2102
 6453SOL     OW30991   3.923   1.228   0.270 -0.0665  0.2980 -0.1282
 6453SOL    HW130992   4.005   1.231   0.319  0.6608  1.3745 -1.3883
 6453SOL    HW230993   3.868   1.178   0.330 -1.3221  1.5278 -0.2363
 6454SOL     OW30994   0.064   2.702  11.165  0.1705 -0.1917  0.3826
 6454SOL    HW130995   0.031   2.792  11.162 -2.0804 -1.1047 -2.9845
 6454SOL    HW230996   0.097   2.681  11.077  0.5973  1.3378  0.1773
 6455SOL     OW30997   2.437   0.207  10.837  0.0443 -0.2550  0.0900
 6455SOL    HW130998   2.386   0.149  10.894 -1.4973  1.5034  0.4915
 6455SOL    HW230999   2.429   0.296  10.870  1.1118  0.1975 -0.8937
 6456SOL     OW31000   1.095   0.725  11.736  0.3600 -0.1211  0.1922
 6456SOL    HW131001   1.095   0.678  11.653  0.0160 -1.1358  0.7575
 6456SOL    HW231002   1.074   0.651  11.794  3.1699 -0.1971  1.0991
 6457SOL     OW31003   1.811   3.820  10.602  0.7064  0.1995  0.3061
 6457SOL    HW131004   1.768   3.894  10.646  0.9047 -0.5498  1.7698
 6457SOL    HW231005   1.817   3.756  10.673  3.5668 -1.4709 -1.4489
 6458SOL     OW31006   2.194   0.977   5.080 -0.1588  0.5025  0.3724
 6458SOL    HW131007   2.188   1.020   5.165 -1.7990  1.3810 -0.2034
 6458SOL    HW231008   2.135   1.033   5.030 -1.6938 -1.7251 -0.3227
 6459SOL     OW31009   2.353   1.062   4.486  0.3144 -0.0761 -0.4468
 6459SOL    HW131010   2.322   1.068   4.396 -2.4481 -1.0283  0.4288
 6459SOL    HW231011   2.389   0.974   4.483 -1.0516 -0.6689  0.5313
 6460SOL     OW31012   0.165   3.136   3.394  0.0781 -0.5450 -0.1538
 6460SOL    HW131013   0.084   3.098   3.358  2.1573 -2.9719 -2.2712
 6460SOL    HW231014   0.141   3.141   3.486  0.2178  2.3016 -0.2755
 6461SOL     OW31015   1.444   1.834   6.390  0.3597 -0.2768 -0.5307
 6461SOL    HW131016   1.510   1.888   6.345  0.1124  0.6558  0.2212
 6461SOL    HW231017   1.413   1.908   6.442  3.7710  1.7065 -1.2912
 6462SOL     OW31018   3.707   0.535   8.550 -0.4635  0.3627 -0.0491
 6462SOL    HW131019   3.639   0.505   8.610  1.1220 -3.1536 -0.0037
 6462SOL    HW231020   3.749   0.453   8.524  1.0221  1.1573 -0.1430
 6463SOL     OW31021   4.625   1.245  10.754  0.2374 -0.7375  0.4688
 6463SOL    HW131022   4.632   1.168  10.810  0.6147  1.1213  2.9760
 6463SOL    HW231023   4.577   1.306  10.810  0.1117  0.0356 -0.4706
 6464SOL     OW31024   2.561   1.677   8.909 -0.0692 -0.2318  0.4831
 6464SOL    HW131025   2.542   1.584   8.908  2.3879 -0.7436  0.1213
 6464SOL    HW231026   2.550   1.703   8.818 -0.6106  0.4454  0.7378
 6465SOL     OW31027   4.564   1.413   2.427 -0.8165 -0.4588 -0.6689
 6465SOL    HW131028   4.561   1.454   2.513 -3.8924  0.1930 -1.0712
 6465SOL    HW231029   4.624   1.348   2.465  0.3654 -0.1068 -1.9482
 6466SOL     OW31030   0.015   1.764  14.895 -0.2273  0.0666 -0.0760
 6466SOL    HW131031   0.001   1.685  14.947  2.5499  0.8401  1.7830
 6466SOL    HW231032   4.689   1.744  14.824 -0.0468 -1.1303  0.0956
 6467SOL     OW31033   0.085   1.723   3.293 -0.5522  0.6177 -0.2735
 6467SOL    HW131034   0.174   1.743   3.320 -1.4295  3.8116  0.2819
 6467SOL    HW231035   0.069   1.793   3.229  0.7341  2.6037  1.5951
 6468SOL     OW31036   1.885   2.552  10.960 -0.0937 -0.0545 -0.2019
 6468SOL    HW131037   1.973   2.541  10.994  0.8781  0.1742 -2.5985
 6468SOL    HW231038   1.843   2.476  11.000 -1.4448  0.9101  0.2101
 6469SOL     OW31039   0.189   0.324   1.910  0.2187 -0.1495  0.5462
 6469SOL    HW131040   0.223   0.370   1.833 -2.1755 -0.4848 -0.7186
 6469SOL    HW231041   0.270   0.296   1.954  1.6116 -1.6010 -2.9086
 6470SOL     OW31042   2.297   1.895   7.991  0.9104 -0.1758 -0.2848
 6470SOL    HW131043   2.371   1.942   8.027  1.3542 -0.9817 -0.1482
 6470SOL    HW231044   2.332   1.875   7.904  0.3472  2.0918 -1.0492
 6471SOL     OW31045   3.220   0.467  12.818  0.0407 -0.4009  0.3253
 6471SOL    HW131046   3.226   0.380  12.857  0.9320 -0.8182 -0.7662
 6471SOL    HW231047   3.135   0.495  12.852  1.3678  0.6030  2.7968
 6472SOL     OW31048   4.725   0.251   9.413  0.4153 -0.4563 -0.2912
 6472SOL    HW131049   0.050   0.179   9.430  0.1651 -0.6185 -0.0814
 6472SOL    HW231050   0.027   0.306   9.344  0.6574  1.3567  1.2896
 6473SOL     OW31051   1.341   4.423   6.068 -0.3461 -0.2440  0.1903
 6473SOL    HW131052   1.309   4.509   6.095 -0.6940 -0.7849  1.5018
 6473SOL    HW231053   1.356   4.434   5.974  1.3520 -1.2665  0.3410
 6474SOL     OW31054   3.253   3.030   4.522 -0.1162  0.2602  0.3844
 6474SOL    HW131055   3.342   3.064   4.520 -1.4127  3.6085  0.7556
 6474SOL    HW231056   3.220   3.064   4.605 -0.7202 -1.1230  0.7081
 6475SOL     OW31057   4.690   0.332  10.431  0.0431 -0.2874  0.2524
 6475SOL    HW131058   0.035   0.376  10.457 -0.6148  0.8976  0.2993
 6475SOL    HW231059   4.634   0.408  10.447 -1.9010 -1.5005 -0.7410
 6476SOL     OW31060   3.104   2.690   6.071 -0.3135  0.0315 -0.9821
 6476SOL    HW131061   3.102   2.595   6.057 -0.6502 -0.2347  0.8746
 6476SOL    HW231062   3.164   2.710   6.000  2.1782  1.1916  1.4282
 6477SOL     OW31063   1.525   4.156   8.934  0.0283 -0.2145  0.5149
 6477SOL    HW131064   1.473   4.162   9.014 -0.9647  0.5645 -0.2005
 6477SOL    HW231065   1.562   4.244   8.929 -0.3837 -0.1296 -0.9721
 6478SOL     OW31066   3.044   0.981  16.905  0.7509  0.3752  0.4613
 6478SOL    HW131067   3.064   1.067  16.941  0.8505  0.4241  0.2920
 6478SOL    HW231068   3.036   1.006  16.813  0.5893  1.0603  0.6615
 6479SOL     OW31069   1.788   3.453   3.035  0.1054 -0.3053 -0.1921
 6479SOL    HW131070   1.875   3.481   3.062 -0.1292 -1.8922  2.1204
 6479SOL    HW231071   1.806   3.368   2.996 -0.0877 -0.0912 -0.7525
 6480SOL     OW31072   1.271   1.893   6.960  0.3067  0.1499 -0.0191
 6480SOL    HW131073   1.347   1.836   6.973  0.4217 -0.0947 -1.7794
 6480SOL    HW231074   1.221   1.853   6.889 -1.6217  1.9573  0.3071
 6481SOL     OW31075   1.458   4.604   7.598  0.0432 -0.3094 -0.3203
 6481SOL    HW131076   1.382   4.546   7.597 -0.8938  0.8995  0.7852
 6481SOL    HW231077   1.504   4.577   7.519  1.4202  0.8108  0.0951
 6482SOL     OW31078   4.486   1.455   1.194  0.5678  0.3024 -0.2113
 6482SOL    HW131079   4.560   1.394   1.190  1.4209  1.2324  1.0420
 6482SOL    HW231080   4.461   1.465   1.103 -1.4299 -0.0117  0.3053
 6483SOL     OW31081   0.807   1.958  11.175  0.7699  0.1130  0.0488
 6483SOL    HW131082   0.763   2.017  11.237 -2.7000 -1.1489 -1.2002
 6483SOL    HW231083   0.869   2.016  11.132  1.7979 -1.6325 -0.8168
 6484SOL     OW31084   3.673   1.867   3.700 -0.0564  0.4973  0.2678
 6484SOL    HW131085   3.768   1.856   3.691 -0.1672 -0.3963  0.1488
 6484SOL    HW231086   3.675   1.943   3.757  0.4393 -0.6565  1.8012
 6485SOL     OW31087   0.997   3.218   4.469 -0.5680 -0.3883  0.0600
 6485SOL    HW131088   0.960   3.227   4.381  0.2954  0.0085 -0.2582
 6485SOL    HW231089   0.927   3.177   4.519  0.1026 -0.0890  1.2411
 6486SOL     OW31090   1.634   0.385   8.834 -0.4821  0.5010  0.3245
 6486SOL    HW131091   1.689   0.446   8.884 -1.2339  1.0615  0.4606
 6486SOL    HW231092   1.684   0.305   8.850  2.0543  2.2129  0.9995
 6487SOL     OW31093   0.038   4.507   7.266  0.0274  0.2849  0.3642
 6487SOL    HW131094   4.705   4.561   7.306 -0.2816  0.1148  0.0656
 6487SOL    HW231095   0.055   4.436   7.327 -0.8273  0.9506  1.3780
 6488SOL     OW31096   3.246   1.911   1.477 -0.6038 -0.7084 -0.1563
 6488SOL    HW131097   3.225   1.987   1.531  1.1538 -0.7474  0.6055
 6488SOL    HW231098   3.341   1.922   1.477 -0.3611 -2.7389 -1.1313
 6489SOL     OW31099   4.060   4.126  11.950  0.0774 -0.1982 -0.8588
 6489SOL    HW131100   4.037   4.139  11.858 -1.9228  0.8432 -0.2138
 6489SOL    HW231101   3.973   4.116  11.988 -0.5424 -0.6261 -2.4068
 6490SOL     OW31102   0.269   4.548   4.018 -0.5895 -0.1856  0.3105
 6490SOL    HW131103   0.250   4.456   3.998 -2.9082  0.2362  0.5463
 6490SOL    HW231104   0.309   4.528   4.103 -2.0080  0.3220  1.1035
 6491SOL     OW31105   4.016   0.458   2.748  0.4833 -0.1743  0.0945
 6491SOL    HW131106   4.016   0.534   2.690  0.1561  0.1002  0.4541
 6491SOL    HW231107   4.053   0.504   2.823  0.6584 -2.1654  1.2208
 6492SOL     OW31108   0.514   4.037  17.238 -0.3438  0.6967  0.0260
 6492SOL    HW131109   0.551   4.091  17.307 -0.4805 -0.6340  1.1500
 6492SOL    HW231110   0.527   4.101  17.168 -0.4286  0.6231 -0.0564
 6493SOL     OW31111   3.460   4.722   4.412  0.2929  0.3538 -0.2381
 6493SOL    HW131112   3.511   4.641   4.416 -3.3017 -1.8445  1.0365
 6493SOL    HW231113   3.489   0.028   4.493  0.2149 -1.1067  0.5404
 6494SOL     OW31114   2.323   0.125   0.523  0.0418 -0.1415  0.9849
 6494SOL    HW131115   2.395   0.154   0.466  0.2510 -1.3567  0.6498
 6494SOL    HW231116   2.318   0.206   0.575 -2.9420  0.2254  0.0992
 6495SOL     OW31117   4.412   1.464   8.280 -0.7612 -0.0521  0.3945
 6495SOL    HW131118   4.506   1.447   8.274 -0.6961  0.1051  0.9917
 6495SOL    HW231119   4.395   1.534   8.217 -1.6934 -0.5938  0.0430
 6496SOL     OW31120   1.472   0.747   9.798  0.0280 -0.0737 -0.0726
 6496SOL    HW131121   1.564   0.722   9.790  0.4748  1.7631 -0.7974
 6496SOL    HW231122   1.458   0.752   9.892 -0.3182 -1.3530 -0.0646
 6497SOL     OW31123   1.850   4.387  13.142 -0.2517  0.1474  0.8623
 6497SOL    HW131124   1.856   4.360  13.234 -0.6947  1.5881  1.3183
 6497SOL    HW231125   1.775   4.446  13.150 -0.0504  1.1209 -4.4612
 6498SOL     OW31126   0.640   0.896   4.660  1.0795 -0.1943  0.1518
 6498SOL    HW131127   0.638   0.803   4.682  1.0594 -0.1044  0.5365
 6498SOL    HW231128   0.709   0.924   4.720  1.5874  1.9111 -1.3806
 6499SOL     OW31129   0.451   3.093   7.326  0.0774  0.1677  0.1041
 6499SOL    HW131130   0.481   3.054   7.408  2.1493 -0.8795 -1.1551
 6499SOL    HW231131   0.400   3.015   7.305  0.1963  0.5568 -1.6349
 6500SOL     OW31132   1.358   2.930   8.316  0.0659 -0.5511 -0.0261
 6500SOL    HW131133   1.351   3.026   8.319 -2.7195 -0.6822 -2.3055
 6500SOL    HW231134   1.425   2.910   8.380 -0.6133  0.6807  1.0831
 6501SOL     OW31135   3.041   2.479   0.147 -0.1888  0.6447  0.7133
 6501SOL    HW131136   3.111   2.421   0.178 -1.1718  0.3382  2.3972
 6501SOL    HW231137   2.975   2.415   0.120  0.7813 -0.3014  0.5581
 6502SOL     OW31138   1.019   1.620  13.981 -0.2364 -0.3786 -0.3804
 6502SOL    HW131139   0.967   1.642  13.904 -1.3281  1.1823  0.8190
 6502SOL    HW231140   1.016   1.527  14.000  0.3497 -0.3782 -0.2761
 6503SOL     OW31141   4.621   2.465   2.659  0.0187 -0.0768 -0.1827
 6503SOL    HW131142   4.589   2.462   2.749 -0.2456  0.7827 -0.2422
 6503SOL    HW231143   4.675   2.388   2.648 -3.1556 -2.3736  0.2068
 6504SOL     OW31144   1.009   1.110   1.773 -0.1686  0.2438 -0.3108
 6504SOL    HW131145   1.085   1.068   1.734 -0.3382 -0.9396  0.6383
 6504SOL    HW231146   0.964   1.051   1.833  0.9087  0.5175  0.7469
 6505SOL     OW31147   0.287   1.960   4.121 -0.5023 -0.1400 -0.1202
 6505SOL    HW131148   0.202   1.934   4.158 -0.8402  1.5284  0.3009
 6505SOL    HW231149   0.294   1.890   4.057 -0.6175 -0.3096  0.0539
 6506SOL     OW31150   1.733   1.636   4.655  0.2368  0.5022  0.0682
 6506SOL    HW131151   1.655   1.582   4.640  0.5476  0.0422  0.0894
 6506SOL    HW231152   1.802   1.570   4.660  1.1858  1.6226  1.5899
 6507SOL     OW31153   0.796   1.776   5.230  0.0702  0.5506 -0.3602
 6507SOL    HW131154   0.872   1.725   5.203  1.0731 -0.5956  4.7615
 6507SOL    HW231155   0.838   1.822   5.302  2.1290 -1.1659 -0.4820
 6508SOL     OW31156   1.128   4.352  17.440 -0.2658 -0.2917 -0.2937
 6508SOL    HW131157   1.214   4.333  17.403  0.4637  0.0910  1.2343
 6508SOL    HW231158   1.108   4.275  17.494 -0.4442 -0.6651 -0.8888
 6509SOL     OW31159   1.430   4.441  16.641 -0.4982 -0.4391 -0.3790
 6509SOL    HW131160   1.495   4.433  16.711 -0.5458 -2.5883 -0.5743
 6509SOL    HW231161   1.447   4.532  16.619 -1.4472 -0.4371 -1.1145
 6510SOL     OW31162   2.218   3.340   8.938  0.2957  0.1693  0.5921
 6510SOL    HW131163   2.284   3.407   8.955  0.5856  0.3321 -1.2498
 6510SOL    HW231164   2.161   3.393   8.881 -0.6293  0.3156  1.6389
 6511SOL     OW31165   3.709   1.768   4.319  0.5320  0.4453  0.1899
 6511SOL    HW131166   3.746   1.766   4.408 -1.4901 -0.4461  1.0184
 6511SOL    HW231167   3.618   1.781   4.346  0.9528  0.6136  1.5431
 6512SOL     OW31168   1.464   3.353  15.822 -0.1413  0.0034 -0.1373
 6512SOL    HW131169   1.499   3.442  15.817 -1.5158  0.5833  0.5706
 6512SOL    HW231170   1.427   3.339  15.734  1.3725  0.7566 -0.9055
 6513SOL     OW31171   1.451   2.028   3.614  0.1865 -0.0945 -0.4803
 6513SOL    HW131172   1.391   2.047   3.686  1.0697  1.1598 -0.0668
 6513SOL    HW231173   1.512   1.973   3.662 -0.2829  0.4369  0.7300
 6514SOL     OW31174   2.636   1.414   9.974  0.4257  0.1214 -0.9725
 6514SOL    HW131175   2.730   1.429   9.963  0.2728  2.4638  0.8328
 6514SOL    HW231176   2.616   1.356   9.900  1.2231  0.1541 -1.2147
 6515SOL     OW31177   2.626   3.935   3.209 -0.1979 -0.0544 -0.3413
 6515SOL    HW131178   2.602   3.961   3.298  0.7438  0.8952 -0.3669
 6515SOL    HW231179   2.720   3.929   3.222  0.0136  1.0800 -1.3942
 6516SOL     OW31180   3.412   0.267   3.816 -0.1709  0.2247 -0.0684
 6516SOL    HW131181   3.445   0.220   3.739  1.1202 -0.9114  1.1820
 6516SOL    HW231182   3.354   0.336   3.785 -2.2803 -1.1331  0.8229
 6517SOL     OW31183   2.076   0.537  11.008  0.0963 -0.1058 -0.7141
 6517SOL    HW131184   2.077   0.588  10.927  1.9434  0.9763 -0.0007
 6517SOL    HW231185   2.104   0.596  11.077 -0.2801 -0.9040  0.1219
 6518SOL     OW31186   1.039   0.463   7.289  0.6771  0.2147 -1.0979
 6518SOL    HW131187   1.050   0.415   7.371 -0.3136  0.1066 -1.0239
 6518SOL    HW231188   0.951   0.433   7.264  0.2316  0.4657  0.1949
 6519SOL     OW31189   1.153   1.842   3.726  0.1434 -0.1137 -0.4235
 6519SOL    HW131190   1.157   1.762   3.779 -2.0506 -0.6582 -1.0504
 6519SOL    HW231191   1.102   1.808   3.652 -0.8531  0.2366  0.0915
 6520SOL     OW31192   1.380   0.490  13.426  0.0433  0.4477 -0.0414
 6520SOL    HW131193   1.472   0.468  13.407  0.0173 -0.0385  0.3901
 6520SOL    HW231194   1.363   0.435  13.502  0.2017  0.7669  0.2275
 6521SOL     OW31195   4.485   2.201  14.242  0.0101 -0.4173  0.6323
 6521SOL    HW131196   4.570   2.230  14.276  0.2117 -1.4468  0.9893
 6521SOL    HW231197   4.514   2.148  14.168  2.4715  2.0229 -0.1410
 6522SOL     OW31198   3.425   4.229   5.471  0.5070  0.0425  0.2267
 6522SOL    HW131199   3.374   4.208   5.550  3.3340 -0.3047  1.9610
 6522SOL    HW231200   3.435   4.147   5.424 -1.1534 -0.1445  0.1999
 6523SOL     OW31201   0.158   1.918  10.986 -0.3816 -0.2845 -0.0009
 6523SOL    HW131202   0.121   1.844  10.937  3.1588 -0.5305 -2.3024
 6523SOL    HW231203   0.248   1.912  10.956  0.2729  0.0477  1.8969
 6524SOL     OW31204   4.593   4.688  15.390  0.2996  0.1744 -0.1843
 6524SOL    HW131205   4.662   0.018  15.404  2.0431 -1.4543 -1.2006
 6524SOL    HW231206   4.622   4.620  15.452  0.2788  0.1031 -0.2534
 6525SOL     OW31207   2.554   4.553  13.522 -0.1799 -0.1853  0.3636
 6525SOL    HW131208   2.504   4.541  13.442 -0.1004  2.4313 -0.0627
 6525SOL    HW231209   2.555   4.468  13.567 -1.6177 -1.9343 -2.9417
 6526SOL     OW31210   4.182   3.139   7.836  0.1842 -0.1668 -1.0505
 6526SOL    HW131211   4.102   3.156   7.787 -0.6326  2.2593  1.1006
 6526SOL    HW231212   4.190   3.044   7.840  0.1030 -0.1216  0.1629
 6527SOL     OW31213   4.392   1.397  13.234 -0.1650  0.0291  0.3809
 6527SOL    HW131214   4.434   1.333  13.291 -0.2300 -0.0040  0.3910
 6527SOL    HW231215   4.447   1.476  13.234 -0.6744  0.4408 -4.7232
 6528SOL     OW31216   2.283   0.392   3.160  0.0441  0.1257  0.1614
 6528SOL    HW131217   2.310   0.352   3.078 -0.1307 -0.5991  0.4607
 6528SOL    HW231218   2.319   0.481   3.150 -0.2907  0.1129 -1.0971
 6529SOL     OW31219   3.453   2.248  16.969  0.0446 -0.1345  0.3616
 6529SOL    HW131220   3.379   2.265  17.028 -0.7757 -2.8616  0.0920
 6529SOL    HW231221   3.501   2.331  16.965 -0.3923  0.0925 -0.1398
 6530SOL     OW31222   4.494   3.762   1.453 -0.3359  0.2974  0.1723
 6530SOL    HW131223   4.553   3.687   1.456 -0.7136  0.0495  1.2298
 6530SOL    HW231224   4.555   3.822   1.409  1.6551 -0.9633  1.2048
 6531SOL     OW31225   3.765   4.071   5.598  0.0600 -0.3688 -0.0866
 6531SOL    HW131226   3.738   4.163   5.606  0.0471 -0.1198 -3.0125
 6531SOL    HW231227   3.685   4.025   5.574  0.4996 -0.8308 -0.6554
 6532SOL     OW31228   1.136   4.428   6.605  0.2423  0.3099  0.3833
 6532SOL    HW131229   1.063   4.368   6.620  0.7893 -0.6307 -0.7943
 6532SOL    HW231230   1.212   4.373   6.585  1.8336  3.0484 -1.0890
 6533SOL     OW31231   2.112   1.201  13.959  0.3703 -0.1813 -0.3807
 6533SOL    HW131232   2.174   1.236  14.023 -0.8504  0.5626  0.4048
 6533SOL    HW231233   2.122   1.106  13.965  0.8613  0.0579  2.6494
 6534SOL     OW31234   3.589   1.426   4.315 -0.2272  0.6188  0.0909
 6534SOL    HW131235   3.552   1.510   4.288 -0.9628  0.6497  1.1735
 6534SOL    HW231236   3.512   1.374   4.341 -0.2236 -0.1196 -1.3809
 6535SOL     OW31237   1.334   4.593   0.329 -0.3427 -1.4089 -0.2676
 6535SOL    HW131238   1.418   4.594   0.283 -1.3962 -0.3096 -2.1464
 6535SOL    HW231239   1.350   4.527   0.397 -0.5373 -1.7184 -0.5272
 6536SOL     OW31240   0.756   3.254   7.416 -0.2530  0.5048 -0.3841
 6536SOL    HW131241   0.733   3.170   7.455 -0.1066  0.9463  0.6566
 6536SOL    HW231242   0.850   3.266   7.431 -0.0215 -2.5697  0.5516
 6537SOL     OW31243   1.857   0.428  12.010  0.1268 -0.1294  0.5655
 6537SOL    HW131244   1.794   0.366  11.973 -2.4789  1.3270  2.4581
 6537SOL    HW231245   1.914   0.360  12.047  0.5576 -0.1188 -0.0889
 6538SOL     OW31246   2.008   3.215   3.488 -0.1929 -0.3009  0.8941
 6538SOL    HW131247   1.915   3.235   3.497 -0.3208 -0.2529 -0.4723
 6538SOL    HW231248   2.010   3.133   3.537  0.1333 -1.6009 -1.2589
 6539SOL     OW31249   2.378   1.213   1.669  0.4935  0.7972  0.4726
 6539SOL    HW131250   2.403   1.142   1.727  0.3877  1.2739  1.0956
 6539SOL    HW231251   2.425   1.177   1.593  1.4714  0.6443  1.1508
 6540SOL     OW31252   0.376   0.744   1.385 -1.0357 -0.4206 -0.0835
 6540SOL    HW131253   0.423   0.751   1.302 -1.8715  0.2308 -0.4946
 6540SOL    HW231254   0.287   0.764   1.355 -0.4960  0.7685 -0.8583
 6541SOL     OW31255   4.237   2.376   7.971 -0.6214  0.3373 -0.1226
 6541SOL    HW131256   4.216   2.469   7.966  3.7452  1.4068  1.0298
 6541SOL    HW231257   4.188   2.353   8.049 -2.3319  1.7275 -0.7757
 6542SOL     OW31258   2.464   4.119   3.339  0.2674 -0.0192  0.1477
 6542SOL    HW131259   2.404   4.106   3.412  3.4223  0.7464  2.8662
 6542SOL    HW231260   2.417   4.181   3.283  1.5833  0.7174 -0.1679
 6543SOL     OW31261   0.942   4.493  17.111  0.7030 -0.5162  0.5147
 6543SOL    HW131262   0.865   4.546  17.088 -1.0054 -3.2909 -0.1138
 6543SOL    HW231263   0.994   4.547  17.170 -1.0076 -0.7557  2.2213
 6544SOL     OW31264   4.234   0.823   1.173  0.5370 -0.4479 -0.4025
 6544SOL    HW131265   4.216   0.829   1.267 -0.0202  3.2099 -0.7541
 6544SOL    HW231266   4.275   0.737   1.173 -0.8114 -1.1016 -0.6570
 6545SOL     OW31267   2.080   0.385  13.402  0.0359 -0.2946  0.3080
 6545SOL    HW131268   1.994   0.400  13.441  0.1397  1.5273 -0.1587
 6545SOL    HW231269   2.138   0.412  13.473 -1.5014 -1.8163  2.1161
 6546SOL     OW31270   1.135   0.187   3.475  0.4079 -0.1655 -0.3548
 6546SOL    HW131271   1.142   0.095   3.453 -1.2897  0.2419 -2.6038
 6546SOL    HW231272   1.169   0.186   3.565  0.0461  1.2618 -0.1948
 6547SOL     OW31273   3.885   0.547   9.762 -0.5163 -0.1291 -0.3633
 6547SOL    HW131274   3.955   0.612   9.754 -0.8059  0.4040  1.4479
 6547SOL    HW231275   3.816   0.606   9.792  0.6438  1.6385 -1.1643
 6548SOL     OW31276   2.471   1.255  15.626  0.0132  0.1569 -0.5657
 6548SOL    HW131277   2.526   1.178  15.617 -0.5241 -0.8698  4.7279
 6548SOL    HW231278   2.383   1.216  15.629  0.2800 -0.2061  2.3084
 6549SOL     OW31279   2.854   1.606   5.027 -0.7181  0.6092  0.2010
 6549SOL    HW131280   2.839   1.635   5.117 -2.3511  1.5747 -0.3873
 6549SOL    HW231281   2.866   1.511   5.037 -0.8775  0.6717  0.9699
 6550SOL     OW31282   0.226   2.274   3.818 -0.1516  0.2770  0.3387
 6550SOL    HW131283   0.305   2.311   3.857 -1.8477  2.7169  1.5300
 6550SOL    HW231284   0.250   2.277   3.725 -0.8486 -3.8273  0.0180
 6551SOL     OW31285   2.603   0.632   5.187  0.4220 -0.4883 -0.0726
 6551SOL    HW131286   2.679   0.574   5.179 -0.1624 -1.3729  0.7400
 6551SOL    HW231287   2.577   0.643   5.096 -1.0576 -0.0277  0.4167
 6552SOL     OW31288   4.564   1.012  10.265 -0.1464  0.2690 -0.3166
 6552SOL    HW131289   4.644   0.977  10.226 -0.0004 -0.5425  0.7298
 6552SOL    HW231290   4.546   1.095  10.221  0.2047  0.3662 -0.2792
 6553SOL     OW31291   4.722   2.453   4.706 -0.0763 -0.2979 -0.6174
 6553SOL    HW131292   4.650   2.516   4.706  0.3534  0.1892 -0.4941
 6553SOL    HW231293   4.675   2.372   4.687  1.9964 -1.5695 -0.3104
 6554SOL     OW31294   1.941   1.945  10.743  0.5861 -0.0412  0.3419
 6554SOL    HW131295   1.985   1.992  10.672  0.6821  0.3180  0.6389
 6554SOL    HW231296   2.001   1.870  10.747  0.5545  0.0345  1.9936
 6555SOL     OW31297   1.371   1.254  10.458  0.1971  0.3218  0.2618
 6555SOL    HW131298   1.415   1.213  10.384  0.7444  1.5747 -0.1090
 6555SOL    HW231299   1.403   1.345  10.455  1.7991 -0.2055  1.3351
 6556SOL     OW31300   0.182   1.711   2.285  0.4874 -0.2118 -0.3622
 6556SOL    HW131301   0.240   1.780   2.255  1.2976 -0.0505  1.5308
 6556SOL    HW231302   0.230   1.667   2.356  1.5319 -0.6198 -1.3361
 6557SOL     OW31303   4.708   1.059  10.521  0.4265 -0.0125  0.0795
 6557SOL    HW131304   4.687   1.053  10.614 -2.4443  2.7595 -0.3774
 6557SOL    HW231305   4.660   1.136  10.491  0.0302  0.3543  1.6406
 6558SOL     OW31306   0.009   3.944   5.761  0.0447  0.0382 -0.3963
 6558SOL    HW131307   0.064   3.917   5.688  1.8467  0.4358  0.8287
 6558SOL    HW231308   4.691   4.006   5.711  0.2711  1.6837  1.3803
 6559SOL     OW31309   4.573   3.835  11.312  0.3529 -0.2306 -0.2959
 6559SOL    HW131310   4.635   3.824  11.239 -0.8340  3.2136 -1.8360
 6559SOL    HW231311   4.623   3.887  11.375  1.3212 -0.5319 -0.8120
 6560SOL     OW31312   2.376   3.650   3.707 -0.0999  0.2916 -0.3780
 6560SOL    HW131313   2.429   3.570   3.709 -2.2648 -1.1029  1.3177
 6560SOL    HW231314   2.335   3.638   3.622 -1.9590 -0.3275  0.6009
 6561SOL     OW31315   0.674   3.883   0.789  0.7735 -0.2621 -0.4425
 6561SOL    HW131316   0.736   3.816   0.761  2.0305  1.4838 -1.8641
 6561SOL    HW231317   0.726   3.934   0.852 -0.1843 -2.6605  2.2846
 6562SOL     OW31318   3.809   0.330   6.709 -0.1872 -0.3785  0.0781
 6562SOL    HW131319   3.825   0.366   6.621 -1.0523  1.1505  0.5463
 6562SOL    HW231320   3.830   0.239   6.689  1.0711 -0.4241  1.5635
 6563SOL     OW31321   2.495   3.081   6.542  0.1040 -0.4127 -0.2694
 6563SOL    HW131322   2.587   3.076   6.517  0.3141  2.6478 -0.0596
 6563SOL    HW231323   2.484   3.017   6.612  0.2040 -0.5072 -0.3406
 6564SOL     OW31324   1.241   2.209   2.692 -0.5342  0.5162  0.1679
 6564SOL    HW131325   1.313   2.228   2.632 -0.6277  0.2919 -0.0114
 6564SOL    HW231326   1.201   2.295   2.680 -0.4474  0.3512 -1.2213
 6565SOL     OW31327   2.731   3.498   7.242  0.5170 -0.3181  0.3572
 6565SOL    HW131328   2.773   3.502   7.156  2.0732 -2.6595  0.9919
 6565SOL    HW231329   2.806   3.480   7.300  2.5763  1.2140 -1.8094
 6566SOL     OW31330   1.376   2.144   0.497  0.0295 -0.0206 -0.4239
 6566SOL    HW131331   1.358   2.054   0.525 -0.6096  0.5302  0.9259
 6566SOL    HW231332   1.309   2.191   0.545 -0.0855 -0.7589  0.1408
 6567SOL     OW31333   4.614   4.216  14.743 -0.5434  0.9236 -0.3060
 6567SOL    HW131334   4.523   4.244  14.739 -0.9520 -0.4717 -0.7313
 6567SOL    HW231335   4.608   4.131  14.787  0.5112 -0.2447 -2.4361
 6568SOL     OW31336   0.078   0.110  10.384  0.2933  0.2621  0.1989
 6568SOL    HW131337   0.041   0.187  10.425  3.5526  1.2182  1.3362
 6568SOL    HW231338   0.152   0.139  10.331  0.1225  1.2942  0.5389
 6569SOL     OW31339   3.534   0.538  13.509  0.0061 -0.1993 -0.3601
 6569SOL    HW131340   3.511   0.610  13.450  0.3957  0.5974  0.4520
 6569SOL    HW231341   3.496   0.577  13.588  0.6994  0.1638 -0.2043
 6570SOL     OW31342   4.437   2.568   6.264  0.5088 -0.2463 -0.7985
 6570SOL    HW131343   4.511   2.571   6.203  1.3539  0.1322  0.2301
 6570SOL    HW231344   4.363   2.587   6.207 -0.8156 -1.2896  0.5891
 6571SOL     OW31345   1.629   1.920   5.731  0.7489  0.2739  0.3128
 6571SOL    HW131346   1.690   1.917   5.658 -0.0805  0.9477 -0.4069
 6571SOL    HW231347   1.593   2.008   5.726 -1.8826 -0.6554  2.5416
 6572SOL     OW31348   4.717   4.205  10.223 -0.1065  0.2605 -0.0192
 6572SOL    HW131349   4.685   4.191  10.134  0.2939 -2.1259  0.2140
 6572SOL    HW231350   0.076   4.207  10.210 -0.1451 -2.1930 -0.6576
 6573SOL     OW31351   0.436   3.642   1.984  0.1160 -0.5397 -0.9252
 6573SOL    HW131352   0.426   3.731   1.951 -1.1702 -0.5497 -0.5431
 6573SOL    HW231353   0.376   3.640   2.058  0.4156 -0.3555 -0.6739
 6574SOL     OW31354   1.647   3.420   3.932  0.3881 -0.7726  0.7902
 6574SOL    HW131355   1.689   3.337   3.955 -0.1221 -0.9974  0.9096
 6574SOL    HW231356   1.702   3.486   3.974 -0.1795  0.7775 -0.9176
 6575SOL     OW31357   3.859   3.765   8.003 -0.3504  0.0436  0.6267
 6575SOL    HW131358   3.935   3.739   8.056  0.4341 -2.9221 -1.9629
 6575SOL    HW231359   3.856   3.685   7.949  0.0634 -1.1297  2.3218
 6576SOL     OW31360   1.604   4.518   7.368 -0.0926  0.2882 -0.2853
 6576SOL    HW131361   1.642   4.461   7.301 -1.6066 -0.1204 -0.8106
 6576SOL    HW231362   1.538   4.562   7.314 -1.7633 -0.9825  0.7232
 6577SOL     OW31363   0.968   1.749   0.779  0.5178 -0.4463  0.1177
 6577SOL    HW131364   0.997   1.748   0.688 -1.7604  0.4932 -0.6226
 6577SOL    HW231365   0.959   1.843   0.792  0.7319 -0.3225 -0.6493
 6578SOL     OW31366   0.206   2.503   7.832  0.0750 -0.0632 -0.0365
 6578SOL    HW131367   0.148   2.427   7.831 -0.2023  0.1699 -1.7301
 6578SOL    HW231368   0.209   2.529   7.740 -0.9497  1.3174  0.3166
 6579SOL     OW31369   0.636   1.071   3.410 -0.5252 -0.1100 -0.0947
 6579SOL    HW131370   0.731   1.070   3.426 -0.8093 -1.3319  1.4426
 6579SOL    HW231371   0.601   1.018   3.481 -0.8006  1.8913  1.2592
 6580SOL     OW31372   0.992   4.410   2.002 -0.1050 -0.8629 -0.3662
 6580SOL    HW131373   0.940   4.406   2.082  1.0832 -1.3553  0.3926
 6580SOL    HW231374   0.995   4.316   1.985 -1.5756 -0.6438 -1.8953
 6581SOL     OW31375   1.112   0.637   6.172  0.0150 -0.4362 -0.2283
 6581SOL    HW131376   1.029   0.600   6.141  0.8165 -1.9023 -0.6559
 6581SOL    HW231377   1.167   0.561   6.192  1.1199  0.3024 -0.4656
 6582SOL     OW31378   3.627   0.942   3.057  0.1563 -0.0838 -0.0968
 6582SOL    HW131379   3.692   0.890   3.104  0.7697  0.3393 -0.4714
 6582SOL    HW231380   3.691   1.005   3.024 -2.1029  1.4001 -1.6364
 6583SOL     OW31381   2.813   0.107   2.938  0.1023  0.1077  0.1802
 6583SOL    HW131382   2.736   0.138   2.986  1.3680  3.2548  0.1449
 6583SOL    HW231383   2.847   0.041   2.998 -2.2149 -0.2604  1.0937
 6584SOL     OW31384   1.967   1.683   2.057 -0.2234 -0.5179  0.2383
 6584SOL    HW131385   2.051   1.705   2.015 -2.0238  1.7739 -2.1875
 6584SOL    HW231386   1.906   1.736   2.006 -1.7830 -2.2055  0.3539
 6585SOL     OW31387   3.459   3.051   5.911  0.2132  0.1117 -0.4076
 6585SOL    HW131388   3.486   2.992   5.982  0.1875 -0.4225 -0.8458
 6585SOL    HW231389   3.521   3.124   5.914  2.3094 -1.6927  0.0570
 6586SOL     OW31390   2.312   4.470   2.895  0.0837  0.0604  0.9080
 6586SOL    HW131391   2.359   4.546   2.862 -3.1584  1.4080 -0.5602
 6586SOL    HW231392   2.268   4.443   2.814 -0.5730  0.0795  1.2667
 6587SOL     OW31393   3.559   0.473  17.641 -0.6105 -0.1382  0.0598
 6587SOL    HW131394   3.563   0.419  17.720  0.9879  0.6168  0.4927
 6587SOL    HW231395   3.483   0.434  17.598  0.0077 -0.5675 -0.6472
 6588SOL     OW31396   0.542   1.238  15.722  0.3377  0.0020  0.2959
 6588SOL    HW131397   0.615   1.297  15.739  0.3431 -0.5400  2.1716
 6588SOL    HW231398   0.464   1.290  15.743  0.8459  1.1731 -0.7781
 6589SOL     OW31399   2.956   0.460  15.872  0.6590 -0.4004 -0.5008
 6589SOL    HW131400   2.988   0.391  15.813  0.9589 -1.5119  0.9804
 6589SOL    HW231401   3.025   0.458  15.938 -0.4156 -1.4539  0.5809
 6590SOL     OW31402   0.859   0.781   0.616 -0.1066  0.5787  0.7271
 6590SOL    HW131403   0.919   0.846   0.652  1.3317  0.5136 -1.5862
 6590SOL    HW231404   0.802   0.844   0.571 -0.6462 -0.9127 -0.6986
 6591SOL     OW31405   4.576   3.319   5.648 -0.3328  0.4616 -0.0218
 6591SOL    HW131406   4.612   3.388   5.703  1.4519  2.1859 -3.3399
 6591SOL    HW231407   4.486   3.348   5.636 -0.2679  0.4288 -0.5939
 6592SOL     OW31408   0.046   1.908   8.868  0.1665 -0.5175  0.4665
 6592SOL    HW131409   0.141   1.897   8.861  0.1420 -1.9303  2.5556
 6592SOL    HW231410   0.025   1.852   8.943 -1.5949 -2.9073 -1.8024
 6593SOL     OW31411   4.225   0.401   8.180 -0.1265  0.0457 -0.3154
 6593SOL    HW131412   4.202   0.329   8.239  1.4233  0.3306  0.6324
 6593SOL    HW231413   4.202   0.471   8.241  2.4934 -0.1757  0.9293
 6594SOL     OW31414   0.316   0.442  15.359  0.2600  0.5368  0.0511
 6594SOL    HW131415   0.313   0.453  15.264  1.6615 -1.2632 -0.2197
 6594SOL    HW231416   0.369   0.362  15.353  1.3008  1.0688  2.0203
 6595SOL     OW31417   0.353   0.343  10.797 -0.3705  0.5905 -0.3623
 6595SOL    HW131418   0.328   0.279  10.731  1.3365 -0.4214 -0.0249
 6595SOL    HW231419   0.278   0.359  10.854 -0.7014 -2.3103  0.0244
 6596SOL     OW31420   1.382   0.317   3.746 -0.2711  0.4575 -0.5737
 6596SOL    HW131421   1.422   0.280   3.667 -0.7947  1.1651 -1.1732
 6596SOL    HW231422   1.295   0.276   3.742 -0.3222  0.5617 -0.5290
 6597SOL     OW31423   3.934   1.357   3.272 -0.5305 -0.2301  0.3531
 6597SOL    HW131424   3.986   1.293   3.322 -1.7497 -0.4611  1.3161
 6597SOL    HW231425   3.985   1.435   3.293 -1.9074  0.8828 -0.4715
 6598SOL     OW31426   4.703   1.392   9.662  0.4769 -0.2917  0.0531
 6598SOL    HW131427   0.036   1.357   9.605 -0.5330 -0.7295 -0.9021
 6598SOL    HW231428   4.731   1.483   9.662  1.1959 -0.5151 -1.0913
 6599SOL     OW31429   1.462   2.113   5.041  0.5381  0.2902 -0.0403
 6599SOL    HW131430   1.551   2.108   5.076  0.3453 -2.0103  0.1265
 6599SOL    HW231431   1.435   2.197   5.077 -0.9224 -0.2860  0.2234
 6600SOL     OW31432   3.140   4.186   6.013 -0.1161  0.0620  0.2959
 6600SOL    HW131433   3.108   4.230   6.092  0.5322 -0.2151  0.7162
 6600SOL    HW231434   3.225   4.226   5.994 -0.3167  0.0451 -0.6208
 6601SOL     OW31435   3.379   3.160   3.494 -0.2238  0.7423  0.5231
 6601SOL    HW131436   3.401   3.169   3.587 -3.1101  2.0490  1.0995
 6601SOL    HW231437   3.360   3.068   3.476 -2.9121  1.4238 -0.1361
 6602SOL     OW31438   3.894   4.428   2.385  0.3213 -0.1973 -0.0617
 6602SOL    HW131439   3.806   4.400   2.409  1.7551 -2.6287  2.4344
 6602SOL    HW231440   3.889   4.523   2.378  1.4573 -0.0225  1.3812
 6603SOL     OW31441   4.299   4.547   0.565  0.1087  0.6502 -0.1703
 6603SOL    HW131442   4.269   4.472   0.618 -0.6998  0.1825 -1.2864
 6603SOL    HW231443   4.368   4.579   0.622  0.1856 -0.5116  0.4067
 6604SOL     OW31444   4.018   3.955   7.705 -0.1352  0.1494 -0.3744
 6604SOL    HW131445   4.080   3.962   7.633  0.5519  0.6395  0.2608
 6604SOL    HW231446   4.001   4.047   7.724  0.9382  0.4973 -1.0750
 6605SOL     OW31447   1.483   0.167  17.293 -0.2587 -0.4702 -0.2080
 6605SOL    HW131448   1.455   0.256  17.269  0.7948  0.1327  0.7301
 6605SOL    HW231449   1.571   0.181  17.330 -0.9931 -1.4126  1.9084
 6606SOL     OW31450   1.200   0.310  13.065 -0.1425  0.6139 -0.2347
 6606SOL    HW131451   1.113   0.307  13.105  0.1360 -0.8836  0.2548
 6606SOL    HW231452   1.197   0.226  13.017 -0.0604  0.0687  0.7198
 6607SOL     OW31453   3.698   2.820  11.737  0.4660 -0.1761  0.8073
 6607SOL    HW131454   3.642   2.877  11.683  0.8963 -0.8855 -0.3964
 6607SOL    HW231455   3.784   2.859  11.721  0.5562  0.0254  1.8091
 6608SOL     OW31456   2.457   1.320   4.520 -0.7944  0.2487  0.0073
 6608SOL    HW131457   2.434   1.231   4.492  0.1458  0.3387 -1.0425
 6608SOL    HW231458   2.533   1.301   4.575  0.0840  1.9546 -0.6368
 6609SOL     OW31459   2.040   4.465   9.561  0.5163  0.0696 -0.1743
 6609SOL    HW131460   2.067   4.415   9.638 -1.7949  0.2112  0.7163
 6609SOL    HW231461   2.035   4.553   9.597  0.7310  0.3337 -0.7829
 6610SOL     OW31462   3.689   2.871   4.151 -0.2462  0.1170 -0.2631
 6610SOL    HW131463   3.674   2.822   4.071  2.0462 -3.1590  1.3204
 6610SOL    HW231464   3.770   2.912   4.119 -0.2860  1.3287  1.1568
 6611SOL     OW31465   2.861   0.153  12.985 -0.5311  0.2319 -0.4170
 6611SOL    HW131466   2.848   0.074  12.931 -0.9925  0.5578 -0.7793
 6611SOL    HW231467   2.882   0.108  13.066 -1.1507 -1.8342 -1.3821
 6612SOL     OW31468   1.489   2.682   4.755  0.3759 -0.1150  0.1007
 6612SOL    HW131469   1.547   2.721   4.690 -0.7691  0.0554 -0.8053
 6612SOL    HW231470   1.440   2.624   4.696  0.3972  1.1417 -1.1340
 6613SOL     OW31471   1.099   4.560   2.444  0.6931 -0.5936  0.0673
 6613SOL    HW131472   1.014   4.531   2.476  0.6832 -0.9358 -0.2618
 6613SOL    HW231473   1.116   4.480   2.393 -1.6559 -0.6437 -0.6273
 6614SOL     OW31474   0.988   3.730   5.683 -0.1160  0.1369  0.5298
 6614SOL    HW131475   0.940   3.772   5.611  1.0666  2.3753  1.0388
 6614SOL    HW231476   1.015   3.648   5.642  0.2863  0.5884 -0.1187
 6615SOL     OW31477   3.648   2.559   2.610  0.5730 -0.0938 -0.0908
 6615SOL    HW131478   3.706   2.490   2.642  0.3748 -0.9673 -1.6056
 6615SOL    HW231479   3.715   2.625   2.590 -0.5627  0.4506 -2.1435
 6616SOL     OW31480   0.555   4.399   8.265  0.0941  0.0894  0.2620
 6616SOL    HW131481   0.600   4.458   8.205  1.2444  0.5270  1.5517
 6616SOL    HW231482   0.496   4.459   8.311 -0.5710 -1.1478  1.0098
 6617SOL     OW31483   3.384   0.010   2.879 -0.0866  0.1041 -0.3828
 6617SOL    HW131484   3.307   4.704   2.918  1.5838 -2.1330  0.4601
 6617SOL    HW231485   3.339   0.094   2.874 -0.8134 -0.1663  1.4106
 6618SOL     OW31486   4.376   1.781   6.578  0.5091 -0.0536 -0.1236
 6618SOL    HW131487   4.456   1.772   6.631  0.2181 -1.8629  0.0053
 6618SOL    HW231488   4.310   1.813   6.640  1.3561 -0.4334  0.9794
 6619SOL     OW31489   3.608   2.887   8.974  0.1711 -0.1289  0.3696
 6619SOL    HW131490   3.629   2.968   8.927  3.0624 -0.1287  1.6670
 6619SOL    HW231491   3.693   2.854   9.001 -0.1391 -1.0060  0.2741
 6620SOL     OW31492   2.004   1.295   2.480  0.1233 -0.8081 -0.0306
 6620SOL    HW131493   1.975   1.265   2.394  0.1872  1.9894 -1.0268
 6620SOL    HW231494   1.952   1.372   2.499  0.0417 -1.2756  1.5860
 6621SOL     OW31495   4.542   1.678  12.953 -0.2485  0.6699 -0.5645
 6621SOL    HW131496   4.602   1.752  12.948  0.6779 -0.0895 -0.7958
 6621SOL    HW231497   4.462   1.728  12.968 -1.1717 -0.6319 -1.0995
 6622SOL     OW31498   3.301   2.990   2.697  0.6843  0.4097 -0.3645
 6622SOL    HW131499   3.257   2.923   2.749  0.5446  3.0573  2.8935
 6622SOL    HW231500   3.249   3.067   2.718 -0.5990 -0.5908  0.1673
 6623SOL     OW31501   3.785   2.120   3.357  0.8704  0.5617 -0.8473
 6623SOL    HW131502   3.850   2.125   3.427  0.2215 -0.3219 -0.1785
 6623SOL    HW231503   3.707   2.118   3.411 -0.0660  2.0076 -2.1346
 6624SOL     OW31504   1.353   0.373   3.990 -0.1062 -0.0727  0.0332
 6624SOL    HW131505   1.415   0.446   3.990  1.8197 -1.7607 -3.3184
 6624SOL    HW231506   1.361   0.349   3.898  0.6658  0.3341 -0.0069
 6625SOL     OW31507   0.541   2.970   9.313 -0.5911 -0.1182  0.4352
 6625SOL    HW131508   0.555   2.882   9.279 -0.3677  0.1628 -0.1922
 6625SOL    HW231509   0.489   2.952   9.392  2.2944  2.3826  2.8827
 6626SOL     OW31510   3.942   3.081   3.760 -0.5141  0.3216  0.4375
 6626SOL    HW131511   3.926   3.001   3.710  1.8789  0.2785 -0.2498
 6626SOL    HW231512   3.881   3.143   3.720  0.7168  0.5924 -1.0522
 6627SOL     OW31513   1.979   2.286  17.662  0.2387  0.5023 -0.0263
 6627SOL    HW131514   1.907   2.348  17.667  0.5077  0.7076  1.1743
 6627SOL    HW231515   1.941   2.207  17.702  0.3414  1.6079  2.2425
 6628SOL     OW31516   3.150   2.762  14.465  0.3981  0.2211 -0.4566
 6628SOL    HW131517   3.224   2.749  14.525 -0.3949  0.4049  0.5713
 6628SOL    HW231518   3.102   2.835  14.504 -0.3171  0.4822 -1.8223
 6629SOL     OW31519   2.833   2.842   2.501 -0.5785  0.2271 -0.2835
 6629SOL    HW131520   2.868   2.838   2.590 -1.5391  2.3708  0.1945
 6629SOL    HW231521   2.898   2.905   2.469  0.2433  0.2416  1.3546
 6630SOL     OW31522   3.181   4.562   5.754 -0.7196  0.1829  0.1135
 6630SOL    HW131523   3.164   4.642   5.704 -0.9264  0.7655  1.1062
 6630SOL    HW231524   3.245   4.520   5.697 -1.5203  0.1549 -0.7729
 6631SOL     OW31525   2.199   4.458   4.252 -0.0998 -0.2394  0.4463
 6631SOL    HW131526   2.226   4.388   4.193  1.7821  0.3326  0.6112
 6631SOL    HW231527   2.242   4.430   4.333  0.6334  0.3632  0.2609
 6632SOL     OW31528   0.211   4.495   3.049  0.1908 -0.6696  0.4346
 6632SOL    HW131529   0.184   4.443   2.974  3.3650 -1.4384 -0.1612
 6632SOL    HW231530   0.140   4.558   3.062 -0.1586 -0.9029 -0.3721
 6633SOL     OW31531   4.154   1.725   1.353  0.2749 -0.4055 -0.5150
 6633SOL    HW131532   4.137   1.807   1.307 -1.3044 -1.1094 -1.1541
 6633SOL    HW231533   4.226   1.759   1.407  0.0362 -0.9798  0.1694
 6634SOL     OW31534   0.780   0.125   8.453  0.3301 -0.0423 -0.1680
 6634SOL    HW131535   0.863   0.119   8.499 -0.2322  0.8355  0.9526
 6634SOL    HW231536   0.725   0.171   8.516 -2.7671 -0.2144 -2.7200
 6635SOL     OW31537   3.852   2.415   6.210  0.5327 -0.3434 -0.0355
 6635SOL    HW131538   3.795   2.371   6.274 -1.5017 -3.7862 -4.2083
 6635SOL    HW231539   3.924   2.353   6.200 -0.7349 -1.6815 -0.8963
 6636SOL     OW31540   0.867   4.612   3.252  0.2559 -0.0119  0.0591
 6636SOL    HW131541   0.815   4.639   3.176 -1.0078  1.7399  1.5616
 6636SOL    HW231542   0.911   4.694   3.277  1.3231 -0.2281 -1.0524
 6637SOL     OW31543   2.853   2.043  16.539 -0.1282 -0.2865 -0.2926
 6637SOL    HW131544   2.772   2.010  16.579  1.4216 -2.8696  0.6869
 6637SOL    HW231545   2.821   2.133  16.542 -2.2648 -1.0183 -0.7439
 6638SOL     OW31546   0.499   2.073   4.294 -0.4227 -0.1899  0.5846
 6638SOL    HW131547   0.436   2.061   4.365 -1.9061 -0.4215 -0.7675
 6638SOL    HW231548   0.442   2.040   4.225  0.5837 -0.2201 -0.2353
 6639SOL     OW31549   3.920   0.347  10.040  0.5892 -0.5912 -0.7964
 6639SOL    HW131550   3.992   0.334   9.979  1.3743 -3.4127  0.7725
 6639SOL    HW231551   3.878   0.414   9.985 -2.0476 -0.1920  1.6920
 6640SOL     OW31552   4.636   0.424   3.835 -0.2728 -0.3312 -0.2113
 6640SOL    HW131553   4.584   0.357   3.880 -1.6899  1.5378  0.9119
 6640SOL    HW231554   4.720   0.380   3.851 -0.5857 -0.1308  1.9568
 6641SOL     OW31555   1.075   4.166   8.034 -0.4100  0.0474  0.6531
 6641SOL    HW131556   1.159   4.161   7.988 -0.2565  2.4307  0.6802
 6641SOL    HW231557   1.104   4.150   8.124  0.7878  1.1936  0.4786
 6642SOL     OW31558   2.793   4.464   4.747  0.5735 -0.3358 -0.2160
 6642SOL    HW131559   2.727   4.446   4.813 -1.9088  1.8513 -2.1287
 6642SOL    HW231560   2.831   4.548   4.771 -2.0971  0.3327  1.6196
 6643SOL     OW31561   1.564   0.688   5.540 -1.1497 -0.1042  0.0973
 6643SOL    HW131562   1.551   0.597   5.567 -0.8267 -0.1670  0.0417
 6643SOL    HW231563   1.639   0.718   5.592  0.2239  2.4198 -3.3874
 6644SOL     OW31564   3.742   3.979   9.819  0.4032 -0.0345 -0.4029
 6644SOL    HW131565   3.815   3.962   9.880 -0.5997  3.9862  1.9133
 6644SOL    HW231566   3.683   3.906   9.838  1.5827 -0.7358  0.6529
 6645SOL     OW31567   3.898   0.299   9.660  0.9709 -0.3753 -0.3135
 6645SOL    HW131568   3.959   0.283   9.733  0.2640 -0.7859  0.1942
 6645SOL    HW231569   3.875   0.391   9.672  0.3153 -0.2326 -2.6831
 6646SOL     OW31570   4.137   4.514   5.078 -0.1292 -0.3664  0.2074
 6646SOL    HW131571   4.191   4.583   5.039 -0.1698 -0.4707 -0.0351
 6646SOL    HW231572   4.100   4.481   4.996  2.2374 -1.1827 -0.5583
 6647SOL     OW31573   1.099   1.978  16.352  0.0048 -0.5261  0.3337
 6647SOL    HW131574   1.142   1.910  16.300  3.4101  2.3667 -0.6352
 6647SOL    HW231575   1.087   1.935  16.437  1.9439 -0.8167  0.4580
 6648SOL     OW31576   0.304   1.829   8.871 -0.1223 -0.6073 -0.0490
 6648SOL    HW131577   0.387   1.864   8.902  0.6822 -1.1862 -1.5381
 6648SOL    HW231578   0.329   1.764   8.804 -0.4632 -0.0220 -0.7422
 6649SOL     OW31579   0.574   1.520   8.942 -0.0719 -0.4632  0.7172
 6649SOL    HW131580   0.588   1.425   8.935  1.6930 -0.1348 -0.3105
 6649SOL    HW231581   0.487   1.534   8.904  0.8767 -0.2801 -1.4175
 6650SOL     OW31582   1.289   4.389  16.924  0.0853  0.2033  0.2825
 6650SOL    HW131583   1.351   4.458  16.951  1.9215 -1.0075 -0.8162
 6650SOL    HW231584   1.228   4.441  16.872 -0.1318  0.0749  0.4124
 6651SOL     OW31585   0.497   4.105  15.199  0.1786  0.0957 -0.3044
 6651SOL    HW131586   0.511   4.021  15.156  0.3771  0.5344 -1.0837
 6651SOL    HW231587   0.562   4.093  15.268 -2.0373  1.7336  2.0451
 6652SOL     OW31588   4.649   4.421   6.242  0.0716 -0.5070  0.8870
 6652SOL    HW131589   4.682   4.391   6.327 -1.0151  0.6822  1.7359
 6652SOL    HW231590   4.654   4.337   6.196 -0.6781 -1.4719  2.5647
 6653SOL     OW31591   3.592   3.009  11.569  0.6211  0.2705 -0.5906
 6653SOL    HW131592   3.513   3.063  11.569  1.0918  0.9590 -1.8834
 6653SOL    HW231593   3.628   3.030  11.483  2.4102  1.4564  0.4363
 6654SOL     OW31594   3.402   0.916   2.142 -0.2664  0.7818 -0.1756
 6654SOL    HW131595   3.359   0.854   2.201 -0.1920  0.6872 -0.2198
 6654SOL    HW231596   3.322   0.937   2.093 -0.7903 -0.3613  0.1880
 6655SOL     OW31597   4.303   1.813  12.929 -0.4262  0.3992  0.5544
 6655SOL    HW131598   4.277   1.879  12.994  0.1169  0.1171  1.0639
 6655SOL    HW231599   4.265   1.847  12.849 -0.2440  0.4993  0.5109
 6656SOL     OW31600   4.074   3.950   8.222 -0.2326  0.9112 -0.4373
 6656SOL    HW131601   4.042   3.862   8.242  0.1653  0.4720 -1.7461
 6656SOL    HW231602   4.111   3.949   8.134 -0.1996 -0.2190 -0.4115
 6657SOL     OW31603   2.017   3.836  11.544  0.4675 -0.0554 -0.0891
 6657SOL    HW131604   1.942   3.825  11.603  0.5741 -1.8387 -0.2653
 6657SOL    HW231605   2.050   3.746  11.546  1.8689  0.4869  1.4640
 6658SOL     OW31606   2.448   4.354   6.557 -0.0121  0.0057 -0.1452
 6658SOL    HW131607   2.450   4.259   6.562 -0.7607 -0.0901 -1.5692
 6658SOL    HW231608   2.519   4.378   6.616  1.2187 -0.2972 -1.5126
 6659SOL     OW31609   0.816   2.711   1.702  0.0761 -0.7413  0.1969
 6659SOL    HW131610   0.739   2.700   1.758 -0.7870  2.5781 -0.3156
 6659SOL    HW231611   0.777   2.750   1.623 -2.0579 -0.6084  1.2948
 6660SOL     OW31612   4.075   3.014  10.783  0.0088  0.2130  0.0554
 6660SOL    HW131613   4.002   3.014  10.720  0.9180 -0.2509 -0.9919
 6660SOL    HW231614   4.081   3.110  10.791  3.1371  0.0791 -1.0553
 6661SOL     OW31615   3.533   3.383   4.280  0.6969 -0.3559 -0.4026
 6661SOL    HW131616   3.458   3.392   4.339 -0.1368 -1.9127 -1.2473
 6661SOL    HW231617   3.551   3.289   4.273 -0.6946 -0.7244  1.0312
 6662SOL     OW31618   1.265   3.615   5.858 -0.2713  0.2844  0.7585
 6662SOL    HW131619   1.214   3.690   5.827 -0.0640 -0.4095 -1.2064
 6662SOL    HW231620   1.298   3.658   5.938 -1.0767 -0.8395  1.6975
 6663SOL     OW31621   2.036   2.412   8.246  0.1442 -0.3849 -0.4612
 6663SOL    HW131622   1.973   2.485   8.242  0.5187 -0.0939 -1.0183
 6663SOL    HW231623   2.036   2.393   8.152 -2.9680 -1.4592 -0.2551
 6664SOL     OW31624   2.741   1.771  15.174  0.7731  0.1423  0.1799
 6664SOL    HW131625   2.761   1.836  15.107  0.8046 -1.6732 -1.5653
 6664SOL    HW231626   2.715   1.699  15.117 -1.0218  1.0515 -0.1612
 6665SOL     OW31627   1.941   0.978   8.546 -0.0008  0.1769  0.4332
 6665SOL    HW131628   1.871   0.914   8.545 -0.0943  0.2627  1.3723
 6665SOL    HW231629   1.948   1.011   8.457  1.0877  0.5075  0.6348
 6666SOL     OW31630   1.709   2.057  16.840 -0.2437  0.0505 -0.2973
 6666SOL    HW131631   1.671   2.053  16.928  0.5280  0.4163  0.0603
 6666SOL    HW231632   1.706   1.965  16.813  0.8631  0.4519 -1.7862
 6667SOL     OW31633   4.206   1.106   5.740 -0.3865  0.0299 -0.0459
 6667SOL    HW131634   4.288   1.077   5.701 -1.0923 -1.3284 -0.5257
 6667SOL    HW231635   4.201   1.037   5.807 -0.1942 -0.4818 -0.5622
 6668SOL     OW31636   1.969   0.059   6.133  0.7269  0.1498 -0.0447
 6668SOL    HW131637   1.916   0.060   6.213 -0.2039  2.5143 -0.7041
 6668SOL    HW231638   1.970   0.152   6.110 -3.9829 -0.0204 -0.8321
 6669SOL     OW31639   4.396   4.550   6.869  0.2771  0.3043  0.5379
 6669SOL    HW131640   4.361   4.524   6.784 -0.3631 -1.0423  1.2215
 6669SOL    HW231641   4.334   4.511   6.931  0.3490 -1.1788 -0.3275
 6670SOL     OW31642   2.416   1.920   8.431  0.2345  0.6711 -0.1486
 6670SOL    HW131643   2.344   1.981   8.443 -0.0447  0.5709 -1.3304
 6670SOL    HW231644   2.382   1.862   8.362 -0.1450 -0.3981  0.9408
 6671SOL     OW31645   3.645   4.721   8.075  0.0310  0.6523  0.3921
 6671SOL    HW131646   3.552   4.720   8.050  0.9646  2.6719 -3.1725
 6671SOL    HW231647   3.677   4.631   8.066 -0.4842  0.4949  0.1096
 6672SOL     OW31648   4.711   4.100   2.542 -0.0266 -0.0650 -0.1094
 6672SOL    HW131649   0.026   4.095   2.623  2.7117 -0.2936 -1.8113
 6672SOL    HW231650   4.632   4.052   2.567  0.8553 -2.0254 -1.0198
 6673SOL     OW31651   1.658   1.340  14.864 -0.4065  0.2642  0.1683
 6673SOL    HW131652   1.622   1.297  14.786  2.3079 -0.7479 -0.5362
 6673SOL    HW231653   1.740   1.377  14.832  0.6007  0.6741  3.2772
 6674SOL     OW31654   4.100   1.578   1.050  0.5706  0.0113 -0.6693
 6674SOL    HW131655   4.122   1.597   1.142  0.1311 -1.0232 -0.3447
 6674SOL    HW231656   4.055   1.496   1.070  1.0869 -0.4120 -1.2656
 6675SOL     OW31657   3.009   3.425   2.605 -0.2462 -0.2683 -0.6461
 6675SOL    HW131658   2.927   3.424   2.653  0.6918 -2.7306  0.9018
 6675SOL    HW231659   3.068   3.444   2.678 -0.1481 -0.3284 -0.7095
 6676SOL     OW31660   2.128   2.125  16.391 -0.7085  0.0290  0.9416
 6676SOL    HW131661   2.076   2.061  16.343  0.4748 -0.5108  0.3752
 6676SOL    HW231662   2.053   2.179  16.415 -1.8857 -1.7443  1.2483
 6677SOL     OW31663   4.688   3.063  14.051 -0.4426  0.3636  0.2074
 6677SOL    HW131664   4.732   3.109  14.123 -1.2078 -1.6542  1.9496
 6677SOL    HW231665   4.719   2.973  14.060 -1.1926  0.0515 -0.3959
 6678SOL     OW31666   0.304   2.661   5.367  0.0935  0.6817  0.5303
 6678SOL    HW131667   0.370   2.729   5.355  1.5854 -1.1288 -1.6004
 6678SOL    HW231668   0.254   2.673   5.287  3.3328  1.1304 -1.4165
 6679SOL     OW31669   2.872   1.319   5.042  0.1036 -0.6697 -0.2706
 6679SOL    HW131670   2.944   1.274   5.086 -1.1935 -0.7771  1.7912
 6679SOL    HW231671   2.870   1.299   4.949  0.7044 -1.3666 -0.1338
 6680SOL     OW31672   3.018   1.750   6.635  0.3374 -0.1834  0.0439
 6680SOL    HW131673   3.068   1.706   6.566 -0.5150 -1.3510  0.1718
 6680SOL    HW231674   2.946   1.783   6.581  0.0232 -0.6487  0.1751
 6681SOL     OW31675   0.375   0.651   8.905  0.0474 -0.7534 -0.1630
 6681SOL    HW131676   0.354   0.605   8.986  1.9177  0.1111  0.8109
 6681SOL    HW231677   0.333   0.597   8.838  2.5056 -1.0509 -1.5054
 6682SOL     OW31678   0.616   2.901  14.912 -0.7092  0.0727  0.4463
 6682SOL    HW131679   0.583   2.991  14.910  0.6013  0.4945 -2.1817
 6682SOL    HW231680   0.544   2.859  14.866  0.7028  0.1781 -1.8191
 6683SOL     OW31681   4.530   0.306   7.316  0.0029 -0.0779  0.2334
 6683SOL    HW131682   4.505   0.314   7.224  0.0016  0.4719  0.2773
 6683SOL    HW231683   4.450   0.267   7.350  0.0287 -0.1749  0.1821
 6684SOL     OW31684   4.714   3.474   6.782 -0.3489  0.0233 -0.4838
 6684SOL    HW131685   4.680   3.563   6.771  0.0954  0.2268 -0.2214
 6684SOL    HW231686   4.718   3.469   6.877 -2.2115 -1.3009 -0.4809
 6685SOL     OW31687   2.970   0.712   8.787  0.5241 -0.5420 -0.1224
 6685SOL    HW131688   2.931   0.625   8.788  0.6226 -0.5699  1.2467
 6685SOL    HW231689   3.055   0.692   8.826  2.1328  3.1480 -1.7805
 6686SOL     OW31690   2.545   1.670   0.144 -0.6065 -0.3551 -0.0925
 6686SOL    HW131691   2.536   1.653   0.238 -2.6959  2.0166  0.1241
 6686SOL    HW231692   2.493   1.750   0.140 -0.8500 -0.5085  0.0339
 6687SOL     OW31693   0.954   4.533  14.598 -0.1035 -0.4448 -0.3542
 6687SOL    HW131694   0.943   4.564  14.688 -0.0892 -3.2239  0.6319
 6687SOL    HW231695   1.016   4.461  14.612  1.2284  0.9564  0.8816
 6688SOL     OW31696   2.625   2.849   6.166  0.1943  0.4831  0.0526
 6688SOL    HW131697   2.637   2.830   6.259 -0.4419  0.7296  0.1852
 6688SOL    HW231698   2.571   2.928   6.168  0.9478  1.0236 -1.0588
 6689SOL     OW31699   0.110   0.387   7.307  0.0834 -0.4853  0.4199
 6689SOL    HW131700   0.130   0.348   7.221  0.3086  1.8519 -0.5751
 6689SOL    HW231701   0.034   0.435   7.274  1.4559  0.8218 -0.8254
 6690SOL     OW31702   2.917   2.118   1.632  0.3909  0.2249 -0.0512
 6690SOL    HW131703   3.011   2.131   1.620  0.7120 -0.8811  1.2641
 6690SOL    HW231704   2.877   2.144   1.549  0.4079  0.3232 -0.0288
 6691SOL     OW31705   1.265   1.480  16.268 -0.1022  0.3577 -0.1336
 6691SOL    HW131706   1.267   1.388  16.242 -0.3848  0.7774 -1.6229
 6691SOL    HW231707   1.345   1.497  16.317 -1.5533 -0.8741  2.6632
 6692SOL     OW31708   2.854   1.827  13.823  0.2067 -0.1791 -0.6471
 6692SOL    HW131709   2.837   1.919  13.842 -0.5932 -1.0133  2.6901
 6692SOL    HW231710   2.939   1.808  13.864  0.1232  2.9369  1.0195
 6693SOL     OW31711   2.050   1.945   7.904  0.0855  0.1968  0.0201
 6693SOL    HW131712   2.133   1.927   7.947 -0.5497 -1.2708  0.6213
 6693SOL    HW231713   2.053   1.868   7.846 -1.6151 -0.5109  0.8743
 6694SOL     OW31714   4.433   3.464   6.396  0.4291  0.0754 -0.0112
 6694SOL    HW131715   4.401   3.490   6.310  0.2088  2.6208  0.8311
 6694SOL    HW231716   4.348   3.433   6.426  0.1037  1.6515  0.7177
 6695SOL     OW31717   4.721   3.758   1.785  1.0963  0.3150  0.3485
 6695SOL    HW131718   4.653   3.777   1.849  1.7223  1.0398  0.8030
 6695SOL    HW231719   0.060   3.817   1.798 -0.1949  2.2478 -0.9843
 6696SOL     OW31720   3.407   2.402   2.180 -0.7503  0.1284  0.0660
 6696SOL    HW131721   3.500   2.400   2.199 -0.3355 -0.8472 -2.0602
 6696SOL    HW231722   3.363   2.416   2.264  2.4331 -1.4619  1.9874
 6697SOL     OW31723   3.945   0.539   4.424  0.0897 -0.3436 -0.1945
 6697SOL    HW131724   3.975   0.551   4.334 -1.8246  0.1821 -0.7632
 6697SOL    HW231725   4.011   0.478   4.458 -1.9627 -2.7278 -0.5011
 6698SOL     OW31726   3.811   2.174   2.477  0.4619  0.5317  0.5866
 6698SOL    HW131727   3.872   2.106   2.506 -0.0754  0.6340  1.9906
 6698SOL    HW231728   3.843   2.242   2.536  0.3825  1.3149 -0.2922
 6699SOL     OW31729   2.643   1.438   6.019 -0.1622 -0.2670 -0.4898
 6699SOL    HW131730   2.570   1.439   5.957  0.9543 -2.0667 -1.8151
 6699SOL    HW231731   2.703   1.508   5.993 -0.8063 -0.1028 -1.5078
 6700SOL     OW31732   2.993   4.427   8.418 -0.4071  0.1836 -0.0659
 6700SOL    HW131733   3.069   4.482   8.440 -1.1481  2.1288 -2.3883
 6700SOL    HW231734   3.030   4.339   8.409 -0.0541  0.5609 -2.2459
 6701SOL     OW31735   4.173   2.863   0.232 -0.3041 -0.6020  0.4331
 6701SOL    HW131736   4.089   2.862   0.278  1.3174 -0.0254  3.3819
 6701SOL    HW231737   4.214   2.778   0.250  1.2251  0.3763  1.5342
 6702SOL     OW31738   1.232   0.471  15.738  0.2369  0.1931  0.2469
 6702SOL    HW131739   1.231   0.561  15.704  1.0061 -0.2177 -0.8720
 6702SOL    HW231740   1.192   0.477  15.825 -1.9869 -1.0600 -0.6635
 6703SOL     OW31741   3.693   0.324   1.927 -0.0656 -0.2430 -0.0188
 6703SOL    HW131742   3.741   0.368   1.857  0.9575  1.2528  1.6386
 6703SOL    HW231743   3.736   0.363   2.003  2.0650 -0.4081 -1.1357
 6704SOL     OW31744   0.488   2.806   8.423  0.3784  0.7581 -0.2414
 6704SOL    HW131745   0.473   2.837   8.334  0.6547  2.7841  0.4337
 6704SOL    HW231746   0.426   2.734   8.436  1.4848 -0.3244 -0.9490
 6705SOL     OW31747   0.851   3.785   8.850 -0.1963 -0.5573 -0.5700
 6705SOL    HW131748   0.915   3.853   8.870  3.2278 -3.9089 -0.2864
 6705SOL    HW231749   0.903   3.722   8.800 -0.8649 -2.3005  0.9103
 6706SOL     OW31750   1.080   2.428  10.006 -0.1463  0.1886 -0.0924
 6706SOL    HW131751   1.005   2.474   9.969 -0.2173 -0.2199 -0.4524
 6706SOL    HW231752   1.059   2.423  10.099 -0.2036  0.4286 -0.0912
 6707SOL     OW31753   2.252   4.548   1.085 -0.3926 -0.4350  0.1659
 6707SOL    HW131754   2.336   4.549   1.131 -0.7530 -2.7292  0.8522
 6707SOL    HW231755   2.278   4.535   0.994  0.5506 -2.7700  0.7677
 6708SOL     OW31756   2.844   0.415   9.268  0.3761 -0.7441  0.1843
 6708SOL    HW131757   2.931   0.379   9.288  0.0305 -1.6460  0.0503
 6708SOL    HW231758   2.854   0.506   9.296 -0.0291 -0.8447  0.6588
 6709SOL     OW31759   3.532   2.351   0.594  0.1423  0.2745  0.0170
 6709SOL    HW131760   3.563   2.362   0.684 -1.5714 -2.7600  0.9867
 6709SOL    HW231761   3.503   2.260   0.601  0.1361  0.2041 -0.9631
 6710SOL     OW31762   1.862   4.636   6.482  0.8706  0.0994  0.5634
 6710SOL    HW131763   1.917   4.671   6.552  1.0017 -0.0829  0.5537
 6710SOL    HW231764   1.811   4.710   6.451  1.8600  0.4654 -0.1952
 6711SOL     OW31765   2.486   2.178  13.956  0.1837 -0.5118  0.3016
 6711SOL    HW131766   2.580   2.181  13.973  0.1404 -0.1727  0.4834
 6711SOL    HW231767   2.487   2.233  13.877 -1.6346  0.8054  1.2177
 6712SOL     OW31768   1.481   0.844   7.853  0.4838 -0.1775  0.3381
 6712SOL    HW131769   1.462   0.862   7.945 -0.8932  0.6794 -0.1174
 6712SOL    HW231770   1.466   0.750   7.851 -2.4039  0.2714  0.2648
 6713SOL     OW31771   4.251   0.520   6.057 -0.2405 -0.2118  0.1581
 6713SOL    HW131772   4.273   0.584   6.124  0.0211  1.5746 -1.6261
 6713SOL    HW231773   4.273   0.570   5.978 -4.6212  1.5233  0.0092
 6714SOL     OW31774   1.384   0.062  12.608 -0.5995 -0.3897  0.3330
 6714SOL    HW131775   1.479   0.075  12.604 -0.2984 -2.2028  1.8062
 6714SOL    HW231776   1.362   4.706  12.592 -0.0544 -0.2796 -1.1206
 6715SOL     OW31777   2.511   0.844   3.897 -0.0141  0.2342 -0.4843
 6715SOL    HW131778   2.481   0.847   3.988  0.7101  0.6170 -0.2582
 6715SOL    HW231779   2.553   0.928   3.882 -0.5239  0.5415 -0.1851
 6716SOL     OW31780   4.580   4.342  12.402  0.0133  0.3162 -0.3117
 6716SOL    HW131781   4.498   4.316  12.361  0.7516 -2.7673  0.1217
 6716SOL    HW231782   4.635   4.374  12.330  3.1051 -0.4721  1.6684
 6717SOL     OW31783   3.550   0.714   6.194  0.6192 -0.3519 -0.6604
 6717SOL    HW131784   3.611   0.719   6.120 -1.1816 -1.7350 -2.2459
 6717SOL    HW231785   3.514   0.626   6.184 -0.8687  0.1524  0.2494
 6718SOL     OW31786   0.126   2.782   2.939  0.1568 -0.4875  0.0328
 6718SOL    HW131787   0.033   2.795   2.918  0.6460  0.1019 -1.7548
 6718SOL    HW231788   0.181   2.817   2.868 -1.5531  0.0255 -1.0468
 6719SOL     OW31789   4.519   0.004  17.428 -0.1924  0.1986  0.5941
 6719SOL    HW131790   4.431   4.732  17.391  0.7210 -0.1656 -1.5455
 6719SOL    HW231791   4.568   4.715  17.349 -0.4050 -1.0440  0.8533
 6720SOL     OW31792   4.374   3.662   5.651 -0.5215 -0.0522  0.0555
 6720SOL    HW131793   4.304   3.724   5.633 -0.6993  0.4616  2.6138
 6720SOL    HW231794   4.420   3.699   5.726  0.5614  0.0196 -0.6469
 6721SOL     OW31795   4.321   1.048  14.571 -0.1814  0.3097 -0.6512
 6721SOL    HW131796   4.326   0.954  14.583 -0.1586  0.5043  0.8717
 6721SOL    HW231797   4.363   1.067  14.487 -0.6162  0.4541 -0.8338
 6722SOL     OW31798   1.372   1.112   5.192 -0.4048  0.8911  0.0566
 6722SOL    HW131799   1.388   1.031   5.240 -0.3784  0.7524 -0.1863
 6722SOL    HW231800   1.437   1.171   5.228  0.5939 -0.3050  0.2065
 6723SOL     OW31801   1.380   4.006   6.765  0.3349 -0.1558 -0.4206
 6723SOL    HW131802   1.440   3.932   6.767  0.3031 -0.1192  2.0849
 6723SOL    HW231803   1.296   3.972   6.734 -0.6972 -1.0138  3.3237
 6724SOL     OW31804   1.026   1.664   7.758  0.5183  0.2128  0.0046
 6724SOL    HW131805   1.062   1.711   7.833  0.8526  0.1609 -0.1214
 6724SOL    HW231806   1.095   1.675   7.692 -0.2072  1.4611 -0.5258
 6725SOL     OW31807   2.027   3.766   8.432  0.1815 -0.2796 -0.0218
 6725SOL    HW131808   2.092   3.782   8.500  1.0994 -0.8691 -0.7506
 6725SOL    HW231809   2.010   3.854   8.398  0.9992  0.1798  0.7814
 6726SOL     OW31810   2.038   1.757   5.647  0.3835  0.5573  0.4438
 6726SOL    HW131811   1.958   1.737   5.695 -0.2696  1.7333 -0.1515
 6726SOL    HW231812   2.095   1.682   5.664  0.7905  0.8241  0.2781
 6727SOL     OW31813   4.723   2.023   7.930 -0.4144  0.3358  0.0015
 6727SOL    HW131814   4.645   2.006   7.877  1.0745 -1.0769 -1.7106
 6727SOL    HW231815   4.692   2.026   8.021  0.4075  1.5921  0.2420
 6728SOL     OW31816   1.590   2.684  12.571  0.1502 -0.4451  0.1239
 6728SOL    HW131817   1.505   2.689  12.526 -0.1566 -1.0528  0.6380
 6728SOL    HW231818   1.573   2.755  12.633  0.2257 -0.1837 -0.1522
 6729SOL     OW31819   0.625   2.361   4.452 -0.2886 -0.1770 -0.3614
 6729SOL    HW131820   0.708   2.384   4.493  0.4323 -1.1490 -1.3094
 6729SOL    HW231821   0.555   2.366   4.518  0.5986  2.7063  0.3535
 6730SOL     OW31822   2.973   4.013   6.764 -0.5532 -0.8199  0.1078
 6730SOL    HW131823   3.012   3.943   6.816  0.3521  0.2852  0.9130
 6730SOL    HW231824   2.882   4.010   6.792 -0.0622 -1.4270  1.6257
 6731SOL     OW31825   3.327   0.698   2.274  0.5507 -0.8912  0.3029
 6731SOL    HW131826   3.399   0.636   2.265  0.2908 -0.9550 -1.4722
 6731SOL    HW231827   3.255   0.639   2.297  0.8577 -1.0459  0.8444
 6732SOL     OW31828   0.389   2.905   4.625  0.7284 -0.4226 -0.0694
 6732SOL    HW131829   0.342   2.824   4.607  0.2405  0.2686 -1.8945
 6732SOL    HW231830   0.398   2.900   4.720 -0.1227  0.4631  0.0486
 6733SOL     OW31831   2.625   2.557  15.550  0.2065 -0.4919 -0.6447
 6733SOL    HW131832   2.710   2.601  15.556  0.2957 -0.3940 -2.5228
 6733SOL    HW231833   2.563   2.608  15.601  2.3361  0.7622  0.6919
 6734SOL     OW31834   2.033   1.431   1.906 -0.5098  0.3288 -0.0175
 6734SOL    HW131835   1.998   1.492   1.972 -1.6054  0.4924 -0.7541
 6734SOL    HW231836   1.994   1.469   1.827 -0.9689  0.5177  0.2974
 6735SOL     OW31837   3.987   0.019   5.494  0.1846 -0.4515 -0.3548
 6735SOL    HW131838   3.987   4.679   5.435 -0.8384  0.2810 -1.2801
 6735SOL    HW231839   4.065   4.734   5.545  0.7622  1.9585 -0.2926
 6736SOL     OW31840   3.687   1.107  15.768  0.0397  0.0047 -0.2456
 6736SOL    HW131841   3.619   1.075  15.708  1.2400 -0.8972 -1.1355
 6736SOL    HW231842   3.737   1.159  15.705 -1.1141  1.6509  0.1912
 6737SOL     OW31843   1.091   0.733   5.370  0.1620  0.1588  0.4702
 6737SOL    HW131844   1.133   0.655   5.335  1.5016  0.7773  0.7015
 6737SOL    HW231845   1.007   0.692   5.392  0.1210  0.0369  0.0808
 6738SOL     OW31846   0.534   4.169   2.468  0.1341 -0.1242  0.6192
 6738SOL    HW131847   0.602   4.206   2.525  2.0438 -0.2789 -1.5753
 6738SOL    HW231848   0.594   4.149   2.396 -0.7728 -0.9041  0.0999
 6739SOL     OW31849   1.439   1.792   5.501  0.4542  0.3077 -0.1458
 6739SOL    HW131850   1.505   1.738   5.456  0.5733 -0.7643  1.2861
 6739SOL    HW231851   1.359   1.742   5.487  0.1817  0.6636  0.1679
 6740SOL     OW31852   1.767   3.716   3.139 -0.1059 -0.7535  0.3002
 6740SOL    HW131853   1.722   3.687   3.059 -0.0556 -0.7002  0.2530
 6740SOL    HW231854   1.703   3.781   3.166  2.0772  1.7253 -0.5454
 6741SOL     OW31855   4.602   3.031   5.032 -0.3595  0.0023 -0.4345
 6741SOL    HW131856   4.591   3.107   4.975  1.1382 -2.3359 -3.8510
 6741SOL    HW231857   4.521   3.034   5.082 -0.9602  2.5195 -1.5450
 6742SOL     OW31858   4.269   1.485   8.906 -0.1379  0.0219  0.1979
 6742SOL    HW131859   4.262   1.484   8.810 -0.5001  0.2284  0.2219
 6742SOL    HW231860   4.184   1.522   8.931  1.1784  2.2868  1.3901
 6743SOL     OW31861   3.731   3.322   7.400  0.0309  0.0314  0.5011
 6743SOL    HW131862   3.806   3.354   7.449  0.9644  1.2448 -1.7043
 6743SOL    HW231863   3.657   3.318   7.461 -0.0576 -0.5628  0.3542
 6744SOL     OW31864   1.598   1.968   6.228  0.5148  0.2372 -0.6383
 6744SOL    HW131865   1.606   2.056   6.190  2.5582  0.9160  1.3653
 6744SOL    HW231866   1.662   1.913   6.183  2.6979  1.0786  1.4313
 6745SOL     OW31867   1.739   3.024  12.702 -0.2016  0.4460 -0.2132
 6745SOL    HW131868   1.771   2.939  12.672 -1.4748 -0.5586  1.2319
 6745SOL    HW231869   1.650   3.013  12.669  0.4226 -3.5118 -0.5008
 6746SOL     OW31870   4.060   2.131  16.258 -0.4930 -0.3159 -0.0028
 6746SOL    HW131871   4.103   2.046  16.264 -0.7219 -0.4170  0.2190
 6746SOL    HW231872   4.018   2.131  16.172 -0.3038 -1.7786 -0.0954
 6747SOL     OW31873   0.435   4.422  17.162  0.3377  0.1867 -0.1487
 6747SOL    HW131874   0.382   4.363  17.216 -0.8322  1.0287 -0.3736
 6747SOL    HW231875   0.524   4.386  17.160  0.1804 -0.1817 -0.5875
 6748SOL     OW31876   3.427   1.119  10.427 -0.3969  0.7789  0.7731
 6748SOL    HW131877   3.467   1.052  10.373 -2.7369  0.2429 -0.2976
 6748SOL    HW231878   3.361   1.071  10.477 -1.3126  0.5941 -0.5988
 6749SOL     OW31879   2.955   1.895   9.738  0.1821  0.0524 -0.4410
 6749SOL    HW131880   2.914   1.976   9.767 -1.7331 -1.4175  1.0416
 6749SOL    HW231881   3.007   1.864   9.813  0.6845  1.3016 -0.2696
 6750SOL     OW31882   1.611   0.590   5.277  0.0081 -0.3039  0.2439
 6750SOL    HW131883   1.600   0.635   5.361 -1.3720  0.1582 -0.1841
 6750SOL    HW231884   1.663   0.660   5.237 -0.1908 -1.0623 -1.3397
 6751SOL     OW31885   2.330   4.303   4.707 -0.0281  0.5690 -0.0256
 6751SOL    HW131886   2.243   4.340   4.720  1.0420  2.1773  2.6912
 6751SOL    HW231887   2.325   4.279   4.615  1.5051  3.5772 -0.8827
 6752SOL     OW31888   2.697   1.876   4.204 -0.4660  0.5839 -0.5007
 6752SOL    HW131889   2.624   1.877   4.266  2.8298  0.8670  3.3578
 6752SOL    HW231890   2.710   1.781   4.205 -2.8113  0.2501 -0.1664
 6753SOL     OW31891   1.707   4.146   7.134 -0.2158  0.1145  0.5754
 6753SOL    HW131892   1.642   4.144   7.063 -0.9295 -0.8728  1.2484
 6753SOL    HW231893   1.789   4.149   7.085 -1.3658  1.7536 -1.2698
 6754SOL     OW31894   3.750   1.335   6.785 -0.6554 -0.6587  0.0796
 6754SOL    HW131895   3.828   1.290   6.816  0.5608  0.4627 -1.4167
 6754SOL    HW231896   3.684   1.288   6.837 -0.1215  1.7586  2.9328
 6755SOL     OW31897   0.021   0.954   3.702  0.1391  0.0152 -0.0349
 6755SOL    HW131898   0.014   0.858   3.707  1.7681 -0.1654 -1.0719
 6755SOL    HW231899   0.070   0.968   3.783  2.5014  0.1827 -1.4828
 6756SOL     OW31900   4.383   1.919   3.626 -0.2903  0.4539  0.0865
 6756SOL    HW131901   4.432   1.990   3.583  1.6270  0.2642  1.9123
 6756SOL    HW231902   4.290   1.936   3.615  0.2399  4.6832  2.0763
 6757SOL     OW31903   4.679   1.547   2.225 -0.1851 -0.0691 -0.3610
 6757SOL    HW131904   0.007   1.612   2.255  1.0637 -0.6886 -1.6883
 6757SOL    HW231905   4.654   1.494   2.301  0.9067 -1.3743 -0.9264
 6758SOL     OW31906   0.573   3.797   8.169 -0.6284  0.6741  0.3485
 6758SOL    HW131907   0.582   3.857   8.243 -0.6440 -2.0235  2.5374
 6758SOL    HW231908   0.653   3.744   8.175 -0.7937  0.2181 -1.3246
 6759SOL     OW31909   4.507   0.135   4.930  0.2752  0.0537  0.0505
 6759SOL    HW131910   4.560   0.172   5.001 -1.3963  3.1588 -0.3386
 6759SOL    HW231911   4.549   0.051   4.912  2.0914  1.1369 -0.8215
 6760SOL     OW31912   1.350   1.685   8.095 -0.2719  0.1489 -0.2091
 6760SOL    HW131913   1.417   1.739   8.053 -1.0035  0.3303 -1.1176
 6760SOL    HW231914   1.311   1.749   8.154 -0.4647  1.6019 -1.9362
 6761SOL     OW31915   0.039   0.904   7.718 -0.3574  0.6170 -0.4439
 6761SOL    HW131916   0.109   0.867   7.664 -0.4131 -0.5229  0.2847
 6761SOL    HW231917   4.701   0.913   7.658 -2.0040 -0.9375  1.3434
 6762SOL     OW31918   0.523   3.084   3.924  0.0947  0.2727 -0.2691
 6762SOL    HW131919   0.619   3.085   3.932  0.0847 -1.8062  0.0695
 6762SOL    HW231920   0.509   3.150   3.857  1.6396 -0.9182 -1.7793
 6763SOL     OW31921   0.383   4.728   5.907 -0.0989 -0.0914  0.2398
 6763SOL    HW131922   0.394   0.027   5.995  0.7406  0.2478  0.0039
 6763SOL    HW231923   0.288   4.721   5.907 -0.2323  1.6227  0.2541
 6764SOL     OW31924   2.701   0.173   1.907  0.2293  0.2779 -0.1718
 6764SOL    HW131925   2.711   0.145   1.998 -0.9836 -1.6445 -0.6184
 6764SOL    HW231926   2.647   0.101   1.875 -2.2823  2.9861 -2.0491
 6765SOL     OW31927   0.183   4.548   1.831  0.1003  0.3492  0.1322
 6765SOL    HW131928   0.249   4.542   1.763  0.8214  0.6593  0.8039
 6765SOL    HW231929   0.107   4.553   1.773 -0.0245  1.2151  0.3740
 6766SOL     OW31930   0.926   3.654  16.137  0.0549  0.5190  0.0099
 6766SOL    HW131931   0.953   3.671  16.228  1.9583  2.7202 -0.9810
 6766SOL    HW231932   0.835   3.630  16.155 -0.4825  2.7832  0.2929
 6767SOL     OW31933   4.194   3.845   8.987  0.3603  0.4909  0.1557
 6767SOL    HW131934   4.148   3.808   8.911 -0.1793  2.2751 -0.3833
 6767SOL    HW231935   4.200   3.766   9.040  0.3114  0.9916  0.9045
 6768SOL     OW31936   2.771   2.915   4.614 -0.3861  0.0191  0.4818
 6768SOL    HW131937   2.683   2.916   4.575 -1.3078  0.8739  2.6021
 6768SOL    HW231938   2.799   3.006   4.601 -0.4752  0.1628  1.2950
 6769SOL     OW31939   4.425   3.802   6.111 -0.0129 -0.3592  0.1502
 6769SOL    HW131940   4.518   3.820   6.117 -0.2271  0.7125  0.1999
 6769SOL    HW231941   4.387   3.829   6.194  2.7891 -1.4594  1.7702
 6770SOL     OW31942   1.184   0.059   7.323  0.2760  0.0500 -0.2970
 6770SOL    HW131943   1.202   0.145   7.360  2.1957 -0.8982  0.9808
 6770SOL    HW231944   1.180   0.017   7.409 -0.4149 -0.2880 -0.4987
 6771SOL     OW31945   1.042   2.784   3.716 -0.2520  0.5006  0.0153
 6771SOL    HW131946   0.978   2.844   3.755  0.4585 -0.1542  2.1911
 6771SOL    HW231947   1.058   2.737   3.798  0.0621  0.8999  0.1851
 6772SOL     OW31948   2.668   1.947   5.908  0.5907  0.2231 -0.2302
 6772SOL    HW131949   2.613   1.997   5.968  1.6939  0.9088  0.2135
 6772SOL    HW231950   2.736   2.012   5.892  3.0510 -1.5892  2.9525
 6773SOL     OW31951   2.385   0.154   6.179 -0.2172 -0.0706  0.5268
 6773SOL    HW131952   2.364   0.243   6.205  0.8100 -0.3910  2.4753
 6773SOL    HW231953   2.459   0.134   6.237 -2.1336 -1.4499  2.5192
 6774SOL     OW31954   2.466   3.568   5.562  0.7440 -0.0702  0.0604
 6774SOL    HW131955   2.502   3.490   5.520  0.7591  0.9910 -1.9053
 6774SOL    HW231956   2.371   3.557   5.567  0.8266 -1.4236 -1.3852
 6775SOL     OW31957   3.236   1.744   3.334 -0.0582  0.3372 -0.1536
 6775SOL    HW131958   3.304   1.750   3.401  1.8415 -1.5507 -1.8868
 6775SOL    HW231959   3.292   1.704   3.268  0.1092  2.7399 -1.4783
 6776SOL     OW31960   3.138   1.459   5.046 -0.4900 -0.1625  0.0181
 6776SOL    HW131961   3.130   1.548   5.012  0.9656  0.4549  1.3186
 6776SOL    HW231962   3.113   1.407   4.969 -0.6063  0.4751 -0.3770
 6777SOL     OW31963   3.551   3.795   9.889  0.1526 -0.0804  0.8250
 6777SOL    HW131964   3.520   3.706   9.871 -0.2099  0.0742  0.6755
 6777SOL    HW231965   3.474   3.841   9.856  1.1645  1.8003  1.0875
 6778SOL     OW31966   2.770   1.452   4.593 -0.0125  0.3367  0.1063
 6778SOL    HW131967   2.761   1.390   4.665  0.2233  0.0373 -0.1206
 6778SOL    HW231968   2.824   1.516   4.639 -1.7313  0.1288  2.3669
 6779SOL     OW31969   2.982   0.562   5.279 -0.2275 -0.5058  0.1205
 6779SOL    HW131970   2.929   0.529   5.206  0.7651 -1.2296 -0.2640
 6779SOL    HW231971   2.945   0.650   5.283 -1.6014 -1.0574 -0.4140
 6780SOL     OW31972   2.903   1.750  12.742 -0.0257  0.5987 -0.1792
 6780SOL    HW131973   2.861   1.784  12.822  1.6031 -0.2165  1.0188
 6780SOL    HW231974   2.991   1.749  12.780 -0.0948  2.3882  0.0481
 6781SOL     OW31975   3.689   1.080  14.589  0.5547 -0.1611 -0.0443
 6781SOL    HW131976   3.775   1.117  14.570  0.2570  1.4606  1.6820
 6781SOL    HW231977   3.701   1.005  14.648  2.4402 -0.5649 -0.9330
 6782SOL     OW31978   3.837   3.838  13.623  0.2125 -0.3435 -0.5718
 6782SOL    HW131979   3.761   3.803  13.576  0.6452 -2.0420 -0.0154
 6782SOL    HW231980   3.811   3.921  13.662  0.2153 -0.7736  0.3530
 6783SOL     OW31981   0.810   1.497   6.142 -0.2557  0.3809  0.0714
 6783SOL    HW131982   0.867   1.563   6.181 -0.2617 -0.2030  1.0583
 6783SOL    HW231983   0.731   1.504   6.195 -1.3054 -3.4885 -0.9041
 6784SOL     OW31984   4.726   1.504   7.756  0.5949  0.2181 -0.5595
 6784SOL    HW131985   0.001   1.415   7.791  2.6463  1.1129  1.0395
 6784SOL    HW231986   0.051   1.552   7.812 -1.8873 -0.9083  3.1294
 6785SOL     OW31987   0.108   3.941   5.251  0.1848  0.1830 -0.1739
 6785SOL    HW131988   0.135   3.996   5.177 -1.6814  1.3710  0.0264
 6785SOL    HW231989   0.064   3.875   5.197 -0.3050  0.4606 -0.1134
 6786SOL     OW31990   1.714   2.349  16.746 -0.0716 -0.1503 -0.0657
 6786SOL    HW131991   1.650   2.380  16.810 -1.5773  3.0348 -3.0684
 6786SOL    HW231992   1.723   2.258  16.774 -0.3121 -0.5770 -1.3589
 6787SOL     OW31993   3.387   3.950   9.017 -0.2603  0.1234 -0.0493
 6787SOL    HW131994   3.457   3.974   9.078 -1.1912  0.8687  0.7143
 6787SOL    HW231995   3.427   3.874   8.974  0.6191 -0.5838  1.9972
 6788SOL     OW31996   4.446   0.710   7.108  0.1713  0.2751  0.0224
 6788SOL    HW131997   4.394   0.669   7.176 -1.2270  2.7760  0.4764
 6788SOL    HW231998   4.378   0.757   7.061  0.1017  2.2808  2.1423
 6789SOL     OW31999   2.855   2.094  13.844  0.0472  0.0562  0.2655
 6789SOL    HW132000   2.823   2.170  13.795 -0.4561  1.2610  2.4521
 6789SOL    HW232001   2.941   2.128  13.872  1.3435 -0.7823 -2.7845
 6790SOL     OW32002   2.576   1.369   7.368 -0.0510  0.0791  0.2582
 6790SOL    HW132003   2.658   1.340   7.407 -0.0123  0.7988  0.7154
 6790SOL    HW232004   2.525   1.392   7.446  0.0762 -0.1579  0.4113
 6791SOL     OW32005   3.889   2.170   8.281  0.9116 -0.2000 -0.2783
 6791SOL    HW132006   3.907   2.133   8.367 -0.2635  1.6472  0.7568
 6791SOL    HW232007   3.946   2.117   8.225 -0.3915  0.1069 -1.8917
 6792SOL     OW32008   3.511   0.207   2.249 -0.2134 -0.0297 -0.2384
 6792SOL    HW132009   3.510   0.138   2.183 -1.6515 -2.0892  1.9519
 6792SOL    HW232010   3.442   0.174   2.307 -1.2169  1.7250 -0.4278
 6793SOL     OW32011   1.226   2.259   5.374  0.1608  0.1062  0.0174
 6793SOL    HW132012   1.264   2.317   5.440  2.7130 -1.4645 -0.0527
 6793SOL    HW232013   1.283   2.278   5.299 -2.2702 -1.0666 -2.1503
 6794SOL     OW32014   0.489   3.727   5.896  0.2191  0.0741 -0.6038
 6794SOL    HW132015   0.442   3.810   5.906 -0.0752 -0.1554 -0.0502
 6794SOL    HW232016   0.421   3.687   5.841 -2.5828  1.1062  2.1222
 6795SOL     OW32017   0.364   1.636   7.031  0.1774 -0.3618 -0.1831
 6795SOL    HW132018   0.349   1.563   7.091  0.5381 -0.0971  0.2278
 6795SOL    HW232019   0.379   1.708   7.093 -0.5006 -0.0967 -0.3221
 6796SOL     OW32020   2.202   0.910   6.306  0.1812 -0.5033 -0.7487
 6796SOL    HW132021   2.137   0.956   6.359 -1.5708 -1.6434 -1.9075
 6796SOL    HW232022   2.271   0.976   6.298 -1.8235  1.7123  0.1251
 6797SOL     OW32023   1.627   4.013   1.919  0.0141 -0.7285 -0.7811
 6797SOL    HW132024   1.714   4.039   1.951 -0.3083  0.8714 -1.2145
 6797SOL    HW232025   1.588   4.094   1.887 -0.5908  0.1512  2.2285
 6798SOL     OW32026   0.984   0.066   2.517  0.1531 -0.8772  0.6527
 6798SOL    HW132027   0.933   0.071   2.436  0.5699  0.3969  0.4775
 6798SOL    HW232028   1.044   4.729   2.502  1.1714  0.0097  0.4740
 6799SOL     OW32029   0.276   0.912  11.177  0.7366  0.6066 -0.4402
 6799SOL    HW132030   0.324   0.866  11.246  0.0675  0.6569  0.0684
 6799SOL    HW232031   0.276   0.995  11.224 -0.6894 -0.6388  1.7735
 6800SOL     OW32032   3.400   2.750  14.868  0.0082  0.0320  0.4749
 6800SOL    HW132033   3.448   2.764  14.949  0.7300  1.6760 -0.2479
 6800SOL    HW232034   3.337   2.682  14.895  0.3667 -1.6424 -2.8343
 6801SOL     OW32035   4.128   2.448   6.469 -0.2330 -0.5924 -0.5680
 6801SOL    HW132036   4.179   2.378   6.429  1.0212  0.6454 -1.1360
 6801SOL    HW232037   4.065   2.398   6.522  0.5277 -0.6949  0.2303
 6802SOL     OW32038   2.615   0.910   6.266  0.2041 -0.4202 -1.0582
 6802SOL    HW132039   2.710   0.915   6.280  0.0740 -0.6504 -0.0790
 6802SOL    HW232040   2.591   0.832   6.316 -0.7575  0.8886  0.5531
 6803SOL     OW32041   3.984   2.076  16.635 -0.0387 -0.0250 -0.0767
 6803SOL    HW132042   4.061   2.036  16.594 -0.1619  1.3983 -1.6887
 6803SOL    HW232043   3.997   2.084  16.729 -0.1961  1.8517 -0.2149
 6804SOL     OW32044   3.861   3.345   3.424  0.2649 -0.3414  0.2625
 6804SOL    HW132045   3.767   3.350   3.436  0.3937  1.3524  0.5829
 6804SOL    HW232046   3.882   3.263   3.378  2.3902 -0.1044  0.7711
 6805SOL     OW32047   0.947   1.165  16.030 -0.3145 -0.7063  0.4313
 6805SOL    HW132048   0.857   1.192  16.012 -0.3637  0.2615  2.1566
 6805SOL    HW232049   0.949   1.079  15.989 -0.0378  0.0179 -1.0903
 6806SOL     OW32050   3.577   1.220   6.988 -0.3503  0.2768 -0.0941
 6806SOL    HW132051   3.631   1.280   7.040 -0.5730  0.4764 -0.0918
 6806SOL    HW232052   3.490   1.257   6.998 -1.3315 -1.5952 -1.7106
 6807SOL     OW32053   4.378   1.792   7.944 -0.1008 -0.2012  0.1972
 6807SOL    HW132054   4.416   1.856   8.004  1.1417 -2.7812  2.1269
 6807SOL    HW232055   4.446   1.799   7.876  2.1051 -0.7690  2.3522
 6808SOL     OW32056   2.172   3.486   6.457  0.6498  0.0993 -0.2964
 6808SOL    HW132057   2.197   3.405   6.501 -2.9884 -1.6599 -1.4892
 6808SOL    HW232058   2.215   3.476   6.372  0.5762  2.3628 -0.5855
 6809SOL     OW32059   4.047   4.123   5.274 -0.6026 -0.1165  0.8924
 6809SOL    HW132060   3.980   4.057   5.292 -0.3938 -0.6936 -0.3562
 6809SOL    HW232061   4.045   4.133   5.178 -3.0101 -0.3896  0.9328
 6810SOL     OW32062   0.629   2.688   3.008  0.0582 -0.1856 -0.2496
 6810SOL    HW132063   0.666   2.640   3.082 -0.1374  0.7928  0.4846
 6810SOL    HW232064   0.649   2.643   2.926 -0.6156  1.2598 -1.1910
 6811SOL     OW32065   4.461   2.998   8.208  0.2590 -0.0426 -0.2695
 6811SOL    HW132066   4.409   2.921   8.227  1.9381 -1.1398 -0.1224
 6811SOL    HW232067   4.524   2.994   8.280 -0.8187  1.5491  0.7751
 6812SOL     OW32068   2.231   4.465   5.080 -0.5266  0.1689 -0.0644
 6812SOL    HW132069   2.282   4.387   5.060 -0.0168  0.5722 -0.3141
 6812SOL    HW232070   2.263   4.545   5.038 -0.4124 -0.9353 -2.0245
 6813SOL     OW32071   2.354   4.022   6.259 -0.2503 -0.5770  0.0502
 6813SOL    HW132072   2.311   3.965   6.194 -1.8531 -0.0715  0.6750
 6813SOL    HW232073   2.274   4.030   6.310  0.3721 -1.9934  1.2490
 6814SOL     OW32074   4.544   3.926  12.765 -0.0913 -0.1974  0.8395
 6814SOL    HW132075   4.579   3.867  12.831  0.7453 -1.5329 -0.7928
 6814SOL    HW232076   4.451   3.902  12.773  0.0810 -1.3847 -0.6765
 6815SOL     OW32077   1.725   3.109   8.359 -0.0842 -0.0826  0.4872
 6815SOL    HW132078   1.751   3.108   8.267  0.6812 -1.8213  0.7126
 6815SOL    HW232079   1.651   3.169   8.351 -0.7115 -1.1653 -1.9800
 6816SOL     OW32080   1.962   1.183   6.267 -0.3108 -0.1086  0.1931
 6816SOL    HW132081   1.934   1.097   6.238  0.1369 -0.0696 -0.3555
 6816SOL    HW232082   1.895   1.239   6.228  0.3347  0.2966 -0.3324
 6817SOL     OW32083   3.566   0.534   0.665 -0.3739 -0.0082  0.6551
 6817SOL    HW132084   3.579   0.559   0.574  0.5375 -2.7024  0.0383
 6817SOL    HW232085   3.472   0.518   0.658 -0.5443  1.3961 -0.1530
 6818SOL     OW32086   0.616   2.459   8.621 -0.9766 -0.6566  0.3126
 6818SOL    HW132087   0.659   2.382   8.585 -0.1446  1.0522 -2.3256
 6818SOL    HW232088   0.686   2.520   8.599  0.5610 -2.0005  1.4472
 6819SOL     OW32089   1.175   0.016   4.675 -0.2315  0.2479  0.7346
 6819SOL    HW132090   1.251   0.003   4.731  0.5719  0.6755 -0.2490
 6819SOL    HW232091   1.097   4.730   4.726  0.2891  0.7254  1.7176
 6820SOL     OW32092   0.291   2.565   3.262  0.1610  0.2655  0.2411
 6820SOL    HW132093   0.310   2.656   3.241  0.9437  0.1571  0.4775
 6820SOL    HW232094   0.318   2.561   3.354 -0.0111  2.0744  0.3601
 6821SOL     OW32095   4.626   3.474   4.200  0.1408  0.2512 -0.3417
 6821SOL    HW132096   4.548   3.498   4.149 -3.6500 -2.4182  4.1667
 6821SOL    HW232097   4.645   3.556   4.244  1.7784 -0.4726  0.2879
 6822SOL     OW32098   4.405   4.507   7.672 -0.1253  0.1250 -0.1035
 6822SOL    HW132099   4.322   4.504   7.720 -0.0226  0.7614  0.1134
 6822SOL    HW232100   4.476   4.461   7.717  0.5712  2.5545  1.2699
 6823SOL     OW32101   0.739   0.196  16.893  0.0265 -0.4040 -0.1287
 6823SOL    HW132102   0.658   0.173  16.847 -1.9920  0.6086  2.9550
 6823SOL    HW232103   0.702   0.245  16.966  0.6709  2.1213 -1.4683
 6824SOL     OW32104   2.533   0.805   4.486  0.1015 -0.5231 -0.1443
 6824SOL    HW132105   2.590   0.867   4.440 -0.0334 -0.0272  0.3521
 6824SOL    HW232106   2.575   0.720   4.474  1.7190 -0.1509  2.8354
 6825SOL     OW32107   4.540   2.158   3.233  0.7434  0.2482  0.3502
 6825SOL    HW132108   4.569   2.248   3.243  2.2178 -0.0470 -1.2797
 6825SOL    HW232109   4.452   2.170   3.199  0.6028 -2.8596 -0.3925
 6826SOL     OW32110   3.704   3.966  10.459  0.3114  0.2994 -0.0735
 6826SOL    HW132111   3.712   3.908  10.384 -1.7594 -0.3062  0.1701
 6826SOL    HW232112   3.792   3.944  10.491  1.6630  1.1980 -3.1500
 6827SOL     OW32113   2.416   3.516   2.843  1.1035 -0.1416 -0.0673
 6827SOL    HW132114   2.444   3.498   2.754  0.2551 -2.0619  0.0417
 6827SOL    HW232115   2.371   3.433   2.863 -3.7989  3.4046  3.6478
 6828SOL     OW32116   4.106   1.828   8.802 -0.6673  0.1600 -0.0980
 6828SOL    HW132117   4.061   1.792   8.725 -0.8978 -1.9292  1.0124
 6828SOL    HW232118   4.181   1.877   8.769  0.4848 -0.6627  1.2924
 6829SOL     OW32119   4.590   3.802  10.954  0.2508 -0.4593  0.2849
 6829SOL    HW132120   4.612   3.771  11.042  3.3847 -0.7812 -0.6118
 6829SOL    HW232121   4.672   3.847  10.934 -1.9678  3.3528 -0.2468
 6830SOL     OW32122   4.589   2.917  11.261  0.0248  0.2950  0.5070
 6830SOL    HW132123   4.563   2.831  11.296 -1.8971  0.6799  0.0485
 6830SOL    HW232124   4.498   2.943  11.244  0.9860  3.1985 -0.0900
 6831SOL     OW32125   0.108   1.539  10.078  0.0735  0.1113 -0.1868
 6831SOL    HW132126   0.031   1.524  10.132  1.5551 -0.7647  1.6877
 6831SOL    HW232127   0.088   1.615  10.023 -0.0537  0.3540  0.1931
 6832SOL     OW32128   0.456   3.799   4.742  0.6197 -0.0378 -0.1527
 6832SOL    HW132129   0.442   3.737   4.671  0.6268  0.5444 -0.6656
 6832SOL    HW232130   0.526   3.749   4.784  3.2211  1.1154 -3.1014
 6833SOL     OW32131   0.904   4.237  17.171 -0.0023 -0.3649 -0.2416
 6833SOL    HW132132   0.984   4.205  17.211 -0.7952 -0.0668  1.6041
 6833SOL    HW232133   0.926   4.320  17.128  1.7272 -0.4234  0.5524
 6834SOL     OW32134   2.999   4.679   8.725 -0.7922  0.0551 -0.1361
 6834SOL    HW132135   2.973   4.699   8.635 -0.7616 -1.2318 -0.4356
 6834SOL    HW232136   3.001   0.029   8.766 -0.0474 -0.0649  0.0669
 6835SOL     OW32137   2.016   2.005   1.837 -0.4698 -0.4139  0.2605
 6835SOL    HW132138   1.970   1.942   1.892  0.9717 -0.9015  0.8923
 6835SOL    HW232139   2.002   2.089   1.880 -0.7040  0.3118 -1.2117
 6836SOL     OW32140   3.545   0.693  11.060 -0.1261  0.3556  0.3994
 6836SOL    HW132141   3.509   0.673  10.974 -0.1523 -0.1718  0.5332
 6836SOL    HW232142   3.628   0.736  11.039 -0.4585  0.4346 -0.7422
 6837SOL     OW32143   0.138   0.669   3.018 -0.2770  0.3160  0.1279
 6837SOL    HW132144   0.201   0.731   3.053 -2.9911  1.9845  2.0049
 6837SOL    HW232145   0.167   0.583   3.050  0.0884  0.1368 -0.6649
 6838SOL     OW32146   2.311   2.431   4.879 -0.1525 -0.3442  0.5575
 6838SOL    HW132147   2.294   2.339   4.898 -0.0629 -0.5505 -0.3477
 6838SOL    HW232148   2.404   2.421   4.858  0.0041  0.3533  0.9060
 6839SOL     OW32149   4.377   0.533   2.566  0.4797  0.0411 -0.0136
 6839SOL    HW132150   4.282   0.532   2.581  0.2812 -0.6573 -1.2952
 6839SOL    HW232151   4.388   0.616   2.613  3.4773 -0.7616  0.6668
 6840SOL     OW32152   1.191   4.215   7.247 -0.2358 -0.2099 -0.7037
 6840SOL    HW132153   1.196   4.123   7.218  0.3476 -0.5357  0.4240
 6840SOL    HW232154   1.104   4.214   7.286  0.9429  0.7191  1.9186
 6841SOL     OW32155   0.590   2.913   5.658  0.0886  0.0961  0.1929
 6841SOL    HW132156   0.498   2.935   5.666  0.0041 -0.4629  0.7191
 6841SOL    HW232157   0.622   2.973   5.590  1.0334  1.1755  1.5987
 6842SOL     OW32158   0.670   1.077  14.175  0.3988 -1.1586 -0.2781
 6842SOL    HW132159   0.715   0.992  14.177  0.4382 -1.1141  0.7296
 6842SOL    HW232160   0.592   1.047  14.128 -0.6072 -2.0868  1.9694
 6843SOL     OW32161   0.049   3.785   9.020 -0.2301 -0.1410 -0.2694
 6843SOL    HW132162   0.092   3.700   9.034 -3.1593 -1.8027 -1.3724
 6843SOL    HW232163   0.103   3.845   9.071 -0.2452 -0.8017  0.5410
 6844SOL     OW32164   2.049   4.568   3.003  0.2094  0.2814  0.3356
 6844SOL    HW132165   2.123   4.518   2.970 -1.6286 -2.5790  0.5606
 6844SOL    HW232166   2.006   4.582   2.918  2.8811 -0.2676 -1.0912
 6845SOL     OW32167   4.460   0.490  11.826 -0.6473  0.1448  0.4363
 6845SOL    HW132168   4.539   0.481  11.879  0.6339 -0.6449 -1.6210
 6845SOL    HW232169   4.393   0.487  11.895 -0.6560  0.1140  0.4262
 6846SOL     OW32170   3.635   4.093   7.453  0.1598  0.7425  0.7559
 6846SOL    HW132171   3.686   4.151   7.396 -1.4005  0.7944 -0.6006
 6846SOL    HW232172   3.570   4.061   7.391  0.9529  1.6188 -0.5285
 6847SOL     OW32173   1.722   4.718   7.153  0.2381  0.0901  0.1228
 6847SOL    HW132174   1.747   0.063   7.198 -1.4893  1.2453 -1.0041
 6847SOL    HW232175   1.631   0.001   7.131 -0.4195 -1.4423  1.5043
 6848SOL     OW32176   2.418   3.369   8.635  0.0572  0.4195 -0.0997
 6848SOL    HW132177   2.326   3.362   8.610 -0.0323 -0.9115  0.5980
 6848SOL    HW232178   2.419   3.447   8.690  2.8138 -0.2448  0.8053
 6849SOL     OW32179   2.404   0.409   5.238  0.2026  0.5854  0.0623
 6849SOL    HW132180   2.314   0.444   5.235  0.0939 -0.0639 -3.7948
 6849SOL    HW232181   2.456   0.489   5.229  2.6882 -1.0517  0.0271
 6850SOL     OW32182   2.223   0.411   3.715 -0.1412  0.4147  0.0316
 6850SOL    HW132183   2.233   0.489   3.660  1.9332 -0.7652 -1.2827
 6850SOL    HW232184   2.169   0.355   3.659  0.8980  0.8417 -1.4153
 6851SOL     OW32185   4.411   3.687   9.162  0.0293  0.5749 -0.1384
 6851SOL    HW132186   4.418   3.709   9.070 -0.9445  2.0674  0.1450
 6851SOL    HW232187   4.373   3.600   9.152  0.6200  0.4047 -0.9057
 6852SOL     OW32188   3.662   3.539   7.741 -0.9812  0.3718 -0.1450
 6852SOL    HW132189   3.736   3.599   7.728 -0.7047  0.1418  0.3565
 6852SOL    HW232190   3.590   3.598   7.720 -1.0794  0.4488  0.4116
 6853SOL     OW32191   4.030   0.996  15.414  0.4380 -0.0534  1.2245
 6853SOL    HW132192   4.106   0.990  15.356  0.0279  0.1467  0.6748
 6853SOL    HW232193   3.988   1.079  15.393  1.3419  0.1161  0.1062
 6854SOL     OW32194   3.192   3.865   1.108 -0.0220  0.3138 -0.0316
 6854SOL    HW132195   3.250   3.927   1.152  0.2722 -1.5436  2.1795
 6854SOL    HW232196   3.113   3.918   1.099 -0.1672  0.1052  0.0148
 6855SOL     OW32197   3.050   3.914  11.146 -0.8206  0.3162  0.1892
 6855SOL    HW132198   2.994   3.881  11.217  0.2082 -1.5952  0.1252
 6855SOL    HW232199   3.084   3.826  11.126  0.7389  1.2854 -1.4056
 6856SOL     OW32200   1.506   1.003   1.864  0.2563 -0.4766 -0.0286
 6856SOL    HW132201   1.578   0.940   1.869  0.3292 -0.3739  0.2595
 6856SOL    HW232202   1.553   1.064   1.807 -1.1023  0.1171 -0.4995
 6857SOL     OW32203   2.224   0.434  14.826  0.1689 -0.6685  0.1018
 6857SOL    HW132204   2.167   0.400  14.896 -2.5903 -2.2443 -2.8997
 6857SOL    HW232205   2.298   0.374  14.818  0.2770 -0.3913 -0.9217
 6858SOL     OW32206   0.206   4.297   3.456 -0.3022 -0.4567  0.3509
 6858SOL    HW132207   0.244   4.371   3.409  0.7452 -0.7794  0.6807
 6858SOL    HW232208   0.118   4.313   3.423  0.2621 -0.7761 -1.2833
 6859SOL     OW32209   1.437   4.308   7.747  0.4572 -0.1273 -0.8301
 6859SOL    HW132210   1.522   4.276   7.717  0.8283 -0.7174  0.8413
 6859SOL    HW232211   1.390   4.301   7.663 -1.9282 -0.9681  0.5670
 6860SOL     OW32212   4.068   0.721  11.623 -0.2113  1.4539 -0.3393
 6860SOL    HW132213   4.155   0.741  11.658 -0.9232 -0.2596  2.4299
 6860SOL    HW232214   4.035   0.809  11.608 -1.1745  0.7729 -2.2424
 6861SOL     OW32215   4.522   3.718   5.879 -0.3068 -0.1682 -0.0038
 6861SOL    HW132216   4.572   3.798   5.863 -1.8423  0.7222 -0.3640
 6861SOL    HW232217   4.468   3.759   5.947 -1.2678 -0.9501 -0.2854
 6862SOL     OW32218   3.103   3.129   5.795 -0.0807  0.2161 -0.4179
 6862SOL    HW132219   3.082   3.049   5.844  1.0596  0.7588  0.9491
 6862SOL    HW232220   3.022   3.133   5.744 -0.3067 -0.3422 -0.1076
 6863SOL     OW32221   3.579   3.760   2.202  0.1091  0.1750  0.1314
 6863SOL    HW132222   3.661   3.781   2.248  1.1117  3.0569 -2.9380
 6863SOL    HW232223   3.609   3.695   2.137  0.5210 -1.3084  1.8147
 6864SOL     OW32224   3.901   0.881   7.239 -0.2575  0.5174 -0.4913
 6864SOL    HW132225   3.910   0.976   7.252 -0.9524  0.2876  1.6126
 6864SOL    HW232226   3.949   0.866   7.157  1.3432 -0.3935  0.6151
 6865SOL     OW32227   4.092   1.458  10.561 -0.0349  0.1402 -0.0436
 6865SOL    HW132228   4.075   1.549  10.584  1.2992  0.3244  0.1600
 6865SOL    HW232229   4.175   1.459  10.514  0.5116  2.4170  0.9867
 6866SOL     OW32230   4.524   2.100   9.888 -0.2351 -0.2136 -0.0452
 6866SOL    HW132231   4.545   2.176   9.834  0.7124 -0.4416 -0.0011
 6866SOL    HW232232   4.576   2.040   9.835  0.0177 -0.3297  0.3373
 6867SOL     OW32233   2.088   1.037   2.558  0.2210 -0.0205  0.3911
 6867SOL    HW132234   2.065   1.022   2.466  1.2105 -1.2541  0.3416
 6867SOL    HW232235   2.048   1.123   2.573 -1.7216 -1.0549  1.2444
 6868SOL     OW32236   0.729   1.383   2.506 -0.0891 -0.0950 -0.3715
 6868SOL    HW132237   0.676   1.380   2.586  1.1934  0.7172  0.5000
 6868SOL    HW232238   0.662   1.401   2.440 -3.9687  1.7236  4.0131
 6869SOL     OW32239   4.296   1.704   9.095  0.0910 -0.9481  0.2324
 6869SOL    HW132240   4.298   1.800   9.086 -1.2830 -0.9004  0.3854
 6869SOL    HW232241   4.248   1.667   9.020  0.2959 -0.9187  0.0863
 6870SOL     OW32242   3.122   3.353   4.864 -0.8805  0.1936 -0.3177
 6870SOL    HW132243   3.205   3.346   4.910 -0.6364  0.0360 -0.7783
 6870SOL    HW232244   3.071   3.292   4.918  1.0737 -0.6911  0.5116
 6871SOL     OW32245   1.410   0.565   7.869 -0.3597  0.8999  0.6467
 6871SOL    HW132246   1.324   0.524   7.864  0.3523 -0.6344  1.0217
 6871SOL    HW232247   1.444   0.529   7.951 -0.8522 -1.5223 -0.2286
 6872SOL     OW32248   3.045   0.226  14.544  0.5179 -0.4341 -0.0810
 6872SOL    HW132249   3.077   0.185  14.464  0.6858  1.0580 -0.7728
 6872SOL    HW232250   3.046   0.149  14.601  1.8092  0.2046  0.7806
 6873SOL     OW32251   0.842   2.511   5.814 -0.2069  0.0270  0.5441
 6873SOL    HW132252   0.767   2.526   5.757 -0.0103 -1.0296  0.0033
 6873SOL    HW232253   0.869   2.603   5.825  1.3250 -0.4867  1.1526
 6874SOL     OW32254   2.265   2.101  13.174  0.3376  0.0507  0.3253
 6874SOL    HW132255   2.195   2.071  13.232  0.2482 -1.1168 -0.3796
 6874SOL    HW232256   2.318   2.022  13.160  0.4353  0.0776  0.5417
 6875SOL     OW32257   1.385   1.697   3.135  0.2304 -0.1083  0.1533
 6875SOL    HW132258   1.352   1.764   3.076 -1.6042 -1.9613 -0.9509
 6875SOL    HW232259   1.303   1.654   3.161  0.1317 -0.4590 -0.7173
 6876SOL     OW32260   0.086   3.984   3.401 -0.3707 -0.1349  0.0720
 6876SOL    HW132261   0.018   4.037   3.443 -1.3424  0.8712 -2.7646
 6876SOL    HW232262   0.063   4.003   3.310  0.4394 -1.1459 -0.3490
 6877SOL     OW32263   0.813   0.773   5.036  0.8620 -0.0321 -0.0955
 6877SOL    HW132264   0.889   0.730   5.076  1.0355  0.9720  0.6656
 6877SOL    HW232265   0.742   0.710   5.045 -1.3896  2.2596 -1.8505
 6878SOL     OW32266   2.226   4.310   7.346  0.4876  0.6328  0.1665
 6878SOL    HW132267   2.279   4.386   7.326 -1.7736  1.8796 -1.0628
 6878SOL    HW232268   2.287   4.269   7.407  2.3266  0.4249 -1.7803
 6879SOL     OW32269   0.074   1.798   9.914 -0.5664 -0.1673  0.0388
 6879SOL    HW132270   0.045   1.863   9.850 -1.5905 -1.1843 -0.5414
 6879SOL    HW232271   0.025   1.832   9.988  0.9697  0.1695  0.8953
 6880SOL     OW32272   1.281   0.405   3.154  0.2476 -0.7628  0.0363
 6880SOL    HW132273   1.250   0.395   3.064  5.1529  1.6177 -1.9438
 6880SOL    HW232274   1.206   0.443   3.198  0.2069 -0.6757 -0.1096
 6881SOL     OW32275   0.293   1.000   5.969 -0.0610  0.0389 -1.2825
 6881SOL    HW132276   0.205   0.978   5.939 -0.0211  0.2200 -1.5264
 6881SOL    HW232277   0.296   1.090   5.937  3.7171 -0.4789 -2.4117
 6882SOL     OW32278   1.584   4.544  11.955 -0.2247  0.7586  0.3868
 6882SOL    HW132279   1.488   4.552  11.948 -0.3575  0.5568  1.9353
 6882SOL    HW232280   1.614   4.524  11.866  1.1895  1.6225  0.6867
 6883SOL     OW32281   1.314   2.189   2.968  0.5348 -0.0259 -0.5540
 6883SOL    HW132282   1.307   2.174   2.874  0.7384 -1.1918 -0.3815
 6883SOL    HW232283   1.308   2.285   2.970  1.1493  0.0241 -0.9273
 6884SOL     OW32284   1.909   4.546   3.563  0.2854 -0.1424  0.5920
 6884SOL    HW132285   1.921   4.458   3.597 -2.0722 -1.3242 -1.6623
 6884SOL    HW232286   1.991   4.564   3.516 -0.3910  1.4694  0.0352
 6885SOL     OW32287   0.155   0.107   8.924 -0.9697 -0.4006 -0.3439
 6885SOL    HW132288   0.198   0.123   8.840 -2.9533 -0.5398 -1.3879
 6885SOL    HW232289   0.188   0.026   8.964  2.2021  1.7474  1.3772
 6886SOL     OW32290   0.110   3.581   7.723 -0.0124  0.1479  0.2416
 6886SOL    HW132291   0.098   3.644   7.652 -2.1959 -0.9620 -0.3883
 6886SOL    HW232292   0.202   3.605   7.733  0.0206  0.4522 -0.7679
 6887SOL     OW32293   2.974   2.362   6.397 -0.0420  0.4908 -0.1847
 6887SOL    HW132294   2.962   2.454   6.374  2.2576  1.4680  2.4880
 6887SOL    HW232295   2.886   2.329   6.377  0.7811 -1.7414 -0.1325
 6888SOL     OW32296   4.698   4.386  10.453  0.1033  0.2898 -0.4261
 6888SOL    HW132297   4.604   4.406  10.445  0.3719  1.4725 -0.5714
 6888SOL    HW232298   4.708   4.345  10.367 -3.1193  1.1844 -1.2435
 6889SOL     OW32299   2.980   0.035  12.653 -0.5320  0.3584  0.1624
 6889SOL    HW132300   2.887   0.034  12.673 -0.4372 -0.8911  0.5403
 6889SOL    HW232301   2.977   0.130  12.648 -1.9607  0.3269  0.6520
 6890SOL     OW32302   2.992   0.412  17.185  0.1028  0.0018 -0.0775
 6890SOL    HW132303   2.899   0.428  17.166  0.1974  0.8232  0.1763
 6890SOL    HW232304   3.008   0.365  17.103 -0.3883 -0.7862  0.2763
 6891SOL     OW32305   0.943   2.148  11.035 -0.1637 -0.2665 -0.3904
 6891SOL    HW132306   0.998   2.148  10.956  1.5848  2.8038  0.8391
 6891SOL    HW232307   0.919   2.239  11.051  1.1858 -0.0235  0.2719
 6892SOL     OW32308   0.744   1.196   6.415 -0.2543  0.1986  0.1309
 6892SOL    HW132309   0.785   1.199   6.329  1.9510  1.8837  1.2381
 6892SOL    HW232310   0.748   1.288   6.440  1.9368  0.2567 -0.4857
 6893SOL     OW32311   0.318   0.433   7.472 -0.1712 -0.1747  0.5162
 6893SOL    HW132312   0.369   0.361   7.436  0.4754  0.1404  0.8024
 6893SOL    HW232313   0.236   0.412   7.427 -0.6143  1.7241  0.4092
 6894SOL     OW32314   3.139   0.517   2.377  0.4299 -0.0757 -0.2438
 6894SOL    HW132315   3.079   0.469   2.434 -1.0531  0.2929 -1.5003
 6894SOL    HW232316   3.165   0.452   2.313 -1.2707 -0.9598 -0.0207
 6895SOL     OW32317   2.172   3.519  10.789  0.1956  0.2630  0.0289
 6895SOL    HW132318   2.179   3.475  10.874 -0.2816 -0.7693 -0.4614
 6895SOL    HW232319   2.221   3.461  10.731  2.9285 -1.5649  4.1764
 6896SOL     OW32320   4.512   0.393   8.282  0.0614  0.0325 -0.4283
 6896SOL    HW132321   4.432   0.428   8.242  0.5632  0.1065 -1.3770
 6896SOL    HW232322   4.512   0.424   8.372  0.7521  0.3988 -0.5508
 6897SOL     OW32323   4.325   3.766   7.672 -0.4436 -0.4528 -0.4761
 6897SOL    HW132324   4.342   3.673   7.689 -0.4033 -0.3974 -0.2221
 6897SOL    HW232325   4.413   3.801   7.665 -1.4510  2.3774  1.3175
 6898SOL     OW32326   2.806   0.339   9.872  0.3962 -0.7000  0.3111
 6898SOL    HW132327   2.901   0.340   9.888  0.1915  1.2103  1.5067
 6898SOL    HW232328   2.804   0.377   9.784  0.7058  0.8705  0.9770
 6899SOL     OW32329   1.951   3.892  10.897 -0.0277 -0.1485  0.3097
 6899SOL    HW132330   1.878   3.947  10.872 -0.6365 -0.7785  0.7048
 6899SOL    HW232331   1.997   3.952  10.956  1.6401 -2.3511  1.2723
 6900SOL     OW32332   3.905   4.455   1.975 -0.1060  0.7844 -0.7739
 6900SOL    HW132333   3.988   4.448   1.927  0.8081  0.3607  0.8369
 6900SOL    HW232334   3.936   4.408   2.052 -1.9339 -0.6428 -0.9231
 6901SOL     OW32335   4.703   1.566   6.032 -0.6181  0.0602 -0.6946
 6901SOL    HW132336   4.711   1.661   6.027  0.7519 -0.1629 -2.8079
 6901SOL    HW232337   0.043   1.540   6.085 -0.1165  3.6008  0.3533
 6902SOL     OW32338   3.005   0.282   6.643 -0.5555  0.3094 -0.0900
 6902SOL    HW132339   3.004   0.229   6.723  1.2898  1.9346  1.0129
 6902SOL    HW232340   2.945   0.354   6.661 -1.5996 -0.6012  0.0568
 6903SOL     OW32341   1.248   1.935   3.101 -0.1699 -0.5060  0.0490
 6903SOL    HW132342   1.250   1.941   3.196  1.8801  1.4068 -0.1129
 6903SOL    HW232343   1.243   2.029   3.082 -2.3583 -0.8608 -1.1932
 6904SOL     OW32344   1.946   1.466   3.704  0.2999 -0.3703  0.3540
 6904SOL    HW132345   2.006   1.391   3.710  1.6447  0.4214 -3.3389
 6904SOL    HW232346   1.900   1.445   3.623  0.8038 -1.4847  0.3621
 6905SOL     OW32347   1.280   2.276   7.157 -0.2271  0.1763 -0.2247
 6905SOL    HW132348   1.300   2.368   7.138  0.1247  0.1030 -0.1961
 6905SOL    HW232349   1.252   2.245   7.071  1.1402 -1.7849  0.0446
 6906SOL     OW32350   0.419   0.033   2.756 -0.5973 -0.1833 -0.0537
 6906SOL    HW132351   0.387   0.120   2.732 -2.0387 -0.6634  0.0849
 6906SOL    HW232352   0.506   0.028   2.717 -0.1166  0.3988  0.9436
 6907SOL     OW32353   3.558   2.245   4.263 -0.0627  0.1304 -0.8752
 6907SOL    HW132354   3.563   2.235   4.359 -1.8309 -0.6480 -0.8505
 6907SOL    HW232355   3.570   2.154   4.235  0.2705 -0.6231  1.7117
 6908SOL     OW32356   0.167   0.288   6.727 -0.4997 -0.4083 -0.1545
 6908SOL    HW132357   0.079   0.260   6.702 -0.6113 -0.0719 -0.1422
 6908SOL    HW232358   0.215   0.210   6.701  0.3997  0.2531 -0.5065
 6909SOL     OW32359   1.244   0.794   4.996 -0.4061 -0.2202  0.7111
 6909SOL    HW132360   1.262   0.722   5.056 -1.0061 -0.2155  0.9046
 6909SOL    HW232361   1.298   0.760   4.925 -3.0504  1.8786 -2.3049
 6910SOL     OW32362   4.697   2.097   8.196 -0.4618 -0.3580 -0.2594
 6910SOL    HW132363   4.665   2.187   8.204  0.0682 -0.0674 -1.4236
 6910SOL    HW232364   0.056   2.107   8.193 -0.1494 -3.4518 -0.4923
 6911SOL     OW32365   3.031   2.624   3.993 -0.4646  0.4400  0.1985
 6911SOL    HW132366   2.955   2.619   4.050  0.4090 -0.1817  1.3180
 6911SOL    HW232367   2.996   2.597   3.909 -2.4876 -1.4226  1.6516
 6912SOL     OW32368   4.576   3.709   6.698 -0.2017 -0.3770  1.1661
 6912SOL    HW132369   4.556   3.755   6.616  1.2055  0.9705  1.5864
 6912SOL    HW232370   4.484   3.692   6.719 -0.3842  0.4947  1.0477
 6913SOL     OW32371   0.379   0.648   7.856  0.2886  0.0216  0.0948
 6913SOL    HW132372   0.398   0.691   7.772  2.0360 -1.2007 -0.1211
 6913SOL    HW232373   0.366   0.559   7.825 -0.1620  0.4041 -0.8107
 6914SOL     OW32374   4.190   1.122  16.356 -0.3619 -0.4940 -0.2079
 6914SOL    HW132375   4.179   1.204  16.405 -3.4398 -0.2065 -1.3959
 6914SOL    HW232376   4.096   1.104  16.345 -0.9226  1.4472  1.2876
 6915SOL     OW32377   4.298   4.434   6.352  0.6643  0.7799 -0.2560
 6915SOL    HW132378   4.289   4.401   6.263 -2.7811 -2.3911  1.2526
 6915SOL    HW232379   4.300   4.530   6.346 -0.6072  0.5988 -3.5856
 6916SOL     OW32380   2.651   0.261   5.646  0.1722  0.0767  0.1007
 6916SOL    HW132381   2.565   0.272   5.605 -0.0466  0.7294  0.7402
 6916SOL    HW232382   2.705   0.294   5.574  1.8414  1.4858  2.0135
 6917SOL     OW32383   3.665   3.474  10.298 -0.2302  0.4468 -0.7785
 6917SOL    HW132384   3.647   3.477  10.204  0.4626  1.0035 -0.8984
 6917SOL    HW232385   3.756   3.506  10.294  0.4882 -1.0923  3.1686
 6918SOL     OW32386   2.542   2.778   3.625 -0.0064 -0.2344  0.0101
 6918SOL    HW132387   2.519   2.686   3.619 -1.1536  0.0594 -0.1046
 6918SOL    HW232388   2.586   2.783   3.710 -0.4435  0.3176  0.2095
 6919SOL     OW32389   4.252   4.460   5.467  0.1872  0.4626 -0.2433
 6919SOL    HW132390   4.174   4.464   5.411 -0.7195 -0.1751  0.9618
 6919SOL    HW232391   4.203   4.451   5.549 -0.1803 -1.1744 -0.6390
 6920SOL     OW32392   4.174   1.909  12.700  0.1479  0.3173 -0.0670
 6920SOL    HW132393   4.140   1.998  12.708  2.9566  1.4135 -0.2184
 6920SOL    HW232394   4.228   1.911  12.621 -1.0372  0.8458 -0.8498
 6921SOL     OW32395   2.896   1.526   3.510 -0.3105  0.0131  0.9909
 6921SOL    HW132396   2.924   1.525   3.418  1.2270  0.8612  1.4464
 6921SOL    HW232397   2.803   1.509   3.518 -0.6667  2.0449  1.1495
 6922SOL     OW32398   3.116   3.793   2.135  0.0548 -0.2202 -0.0760
 6922SOL    HW132399   3.129   3.834   2.050  0.5011 -0.4958 -0.1377
 6922SOL    HW232400   3.049   3.846   2.179 -0.7931 -1.4617  0.1103
 6923SOL     OW32401   0.925   2.550   8.155 -0.0297 -0.2606 -0.4230
 6923SOL    HW132402   0.950   2.458   8.149  1.6046  0.4012 -3.2255
 6923SOL    HW232403   0.942   2.585   8.068 -2.3124  1.0216 -0.3743
 6924SOL     OW32404   4.075   2.607   4.766 -0.2640 -0.0762 -0.0672
 6924SOL    HW132405   4.170   2.615   4.772 -0.2425 -0.1383 -0.3356
 6924SOL    HW232406   4.058   2.563   4.683 -1.4536  1.1258 -0.4661
 6925SOL     OW32407   1.829   1.764   6.122  0.1232 -0.2671 -0.0388
 6925SOL    HW132408   1.906   1.762   6.066  1.6384  2.5764  1.9808
 6925SOL    HW232409   1.847   1.686   6.175  1.1836 -0.2264 -0.3520
 6926SOL     OW32410   2.089   2.936   7.858 -0.0068  0.4960 -0.1633
 6926SOL    HW132411   2.084   3.011   7.918 -0.4274  1.0865 -0.9474
 6926SOL    HW232412   1.999   2.926   7.826 -0.8049  0.3096  2.1265
 6927SOL     OW32413   2.316   0.722   8.131 -0.1545 -0.0705  0.5441
 6927SOL    HW132414   2.297   0.644   8.183 -0.7202 -0.0776  0.3275
 6927SOL    HW232415   2.397   0.697   8.087  0.2414  0.2180  1.1096
 6928SOL     OW32416   0.972   4.000   5.952  0.4286  0.6494  0.0171
 6928SOL    HW132417   0.937   3.913   5.931  0.6157  0.7589 -0.7651
 6928SOL    HW232418   1.062   3.979   5.978  0.8800  1.5075 -0.8479
 6929SOL     OW32419   3.015   0.177   5.955  0.1859  0.0138 -0.1829
 6929SOL    HW132420   2.978   0.205   5.871 -0.3702 -0.3827 -0.0704
 6929SOL    HW232421   2.967   0.229   6.019 -1.5017 -1.2778 -0.3712
 6930SOL     OW32422   0.522   0.305  17.365  0.0655 -0.2744  0.7369
 6930SOL    HW132423   0.566   0.342  17.441  1.3511  0.7141 -0.4757
 6930SOL    HW232424   0.434   0.296  17.402 -1.6086  0.7146 -3.0021
 6931SOL     OW32425   0.383   3.597   1.154  0.0096 -0.4991  0.1479
 6931SOL    HW132426   0.447   3.595   1.225 -0.1343 -0.3887  0.2822
 6931SOL    HW232427   0.377   3.687   1.122  1.7853 -0.9793 -1.5555
 6932SOL     OW32428   4.722   2.443  14.380  0.8510  0.4829  0.0700
 6932SOL    HW132429   4.695   2.366  14.431  2.7046 -0.7180 -0.7626
 6932SOL    HW232430   0.071   2.412  14.348  1.6094  3.0678 -0.4152
 6933SOL     OW32431   2.171   0.726   4.964 -0.1154  0.2173  0.5734
 6933SOL    HW132432   2.157   0.760   4.875 -0.2031  1.4568  1.0615
 6933SOL    HW232433   2.223   0.797   5.003 -0.6184  0.2932  1.1053
 6934SOL     OW32434   1.497   3.203  14.003 -0.6326  0.4386  0.3713
 6934SOL    HW132435   1.440   3.239  13.936  0.2054  0.3202 -0.4007
 6934SOL    HW232436   1.510   3.282  14.054  0.7593  0.7037 -0.3722
 6935SOL     OW32437   0.638   4.271  17.126 -0.7500  0.0005  0.5481
 6935SOL    HW132438   0.667   4.308  17.042 -1.1286  0.4668  0.6253
 6935SOL    HW232439   0.723   4.241  17.158 -0.2253  1.5226  0.6256
 6936SOL     OW32440   3.505   1.426  16.259  0.0132 -0.0971 -0.1394
 6936SOL    HW132441   3.496   1.521  16.261  1.8273  0.0397  1.1725
 6936SOL    HW232442   3.436   1.400  16.197  1.4653  2.5505 -2.8587
 6937SOL     OW32443   2.174   0.664  12.513  0.0696 -0.4630 -0.4681
 6937SOL    HW132444   2.198   0.575  12.485 -1.5412  0.0395 -3.4886
 6937SOL    HW232445   2.202   0.718  12.439 -0.0004 -0.4203 -0.4623
 6938SOL     OW32446   1.977   2.604   1.981  0.0915  0.2806 -0.2396
 6938SOL    HW132447   1.986   2.552   1.901 -0.8508 -1.9709  1.0960
 6938SOL    HW232448   1.954   2.689   1.943 -1.6389 -1.4012 -2.9686
 6939SOL     OW32449   0.050   2.855   2.388  0.2664  0.2460  0.2311
 6939SOL    HW132450   0.053   2.762   2.408  0.3402  0.3000  0.4738
 6939SOL    HW232451   0.026   2.863   2.295 -1.3499 -3.0128  0.4046
 6940SOL     OW32452   2.147   2.454  15.486 -0.0646 -0.4409  0.0657
 6940SOL    HW132453   2.113   2.470  15.574  0.3961  0.8265  0.0114
 6940SOL    HW232454   2.214   2.521  15.472 -1.0872  0.6084  0.2590
 6941SOL     OW32455   0.738   0.883   9.423  0.1214  0.3515  0.5744
 6941SOL    HW132456   0.775   0.795   9.418  2.0202  1.0939  1.2163
 6941SOL    HW232457   0.802   0.917   9.486  1.1915 -1.9978  0.7425
 6942SOL     OW32458   4.130   1.410   3.899 -0.1660 -0.2101 -0.2218
 6942SOL    HW132459   4.126   1.315   3.911 -1.5259 -0.0958  0.2019
 6942SOL    HW232460   4.056   1.441   3.951  0.2737 -0.1204  0.3498
 6943SOL     OW32461   2.862   0.429   4.177  0.4865 -0.2259 -0.4095
 6943SOL    HW132462   2.871   0.349   4.228  0.6483  0.0229 -0.0508
 6943SOL    HW232463   2.879   0.503   4.235 -0.6853  1.0348 -1.6581
 6944SOL     OW32464   0.077   2.622  13.068 -0.2277 -0.0356 -0.3337
 6944SOL    HW132465   0.112   2.561  13.004  2.1819 -0.3172  1.2622
 6944SOL    HW232466   0.145   2.689  13.072 -2.3907  1.9363  3.6405
 6945SOL     OW32467   2.313   4.230  11.423 -0.0710  0.5425 -0.6041
 6945SOL    HW132468   2.310   4.148  11.473  2.4069 -0.9449 -2.8786
 6945SOL    HW232469   2.249   4.208  11.354  0.3966 -0.6322 -0.6588
 6946SOL     OW32470   3.565   3.050   8.234  0.0915  0.3656  0.1235
 6946SOL    HW132471   3.587   2.981   8.171  1.7655 -0.9903  2.1920
 6946SOL    HW232472   3.618   3.123   8.201  2.4969 -1.6041 -0.3700
 6947SOL     OW32473   3.911   1.702   8.233  0.0856  0.0922  0.0629
 6947SOL    HW132474   3.974   1.765   8.269 -0.1814  0.9644 -0.9743
 6947SOL    HW232475   3.905   1.730   8.141  1.9089  0.7367  0.1363
 6948SOL     OW32476   2.164   3.194   9.711  0.5396 -0.0693  0.8773
 6948SOL    HW132477   2.148   3.205   9.617  0.7313 -4.3617  0.3280
 6948SOL    HW232478   2.075   3.179   9.745  0.4898 -0.5106  0.5501
 6949SOL     OW32479   1.540   0.122   9.194  0.1342  0.0343 -0.1339
 6949SOL    HW132480   1.552   0.040   9.146 -1.4181 -1.2194  1.5786
 6949SOL    HW232481   1.446   0.137   9.184 -0.2590 -1.3555  1.3513
 6950SOL     OW32482   1.337   0.091   8.009 -0.0672  0.4181 -0.1837
 6950SOL    HW132483   1.399   0.041   8.062  1.0516 -1.9894 -3.8116
 6950SOL    HW232484   1.253   0.066   8.049 -0.5385  1.3493 -0.5930
 6951SOL     OW32485   4.357   3.819  15.077  0.0655 -0.2240 -0.1286
 6951SOL    HW132486   4.325   3.818  14.987 -0.8142  0.5995  0.1734
 6951SOL    HW232487   4.396   3.906  15.087  0.8859 -0.5019 -0.9901
 6952SOL     OW32488   2.026   2.266   2.811  0.0513  0.3244  0.3647
 6952SOL    HW132489   1.950   2.238   2.759  0.0919  0.6725  0.1112
 6952SOL    HW232490   1.976   2.318   2.874 -0.1350 -0.5055  0.9020
 6953SOL     OW32491   1.088   3.481   7.259 -0.1984  0.0638  0.0436
 6953SOL    HW132492   1.069   3.575   7.254 -1.0190  0.0821  3.4242
 6953SOL    HW232493   1.184   3.485   7.262 -0.1379 -1.2691 -0.2365
 6954SOL     OW32494   4.274   2.377   3.313  0.8271  0.0387  0.1771
 6954SOL    HW132495   4.212   2.442   3.344 -0.7166 -0.8001 -1.1883
 6954SOL    HW232496   4.332   2.380   3.389  0.6915  0.9291  0.2457
 6955SOL     OW32497   2.239   1.515   7.388  0.3609  0.0812  0.0739
 6955SOL    HW132498   2.152   1.524   7.427  0.6212 -1.4749  1.0252
 6955SOL    HW232499   2.205   1.468   7.311  1.8630  1.3653 -1.3664
 6956SOL     OW32500   3.202   2.249   3.312 -0.2858 -0.2744  0.5540
 6956SOL    HW132501   3.145   2.221   3.240  1.7952 -0.7330 -0.8966
 6956SOL    HW232502   3.285   2.266   3.269 -0.6308  1.2435  0.4655
 6957SOL     OW32503   0.747   2.075   6.484  0.3775 -0.2425 -0.6827
 6957SOL    HW132504   0.687   2.078   6.558  0.7121 -0.4394 -0.4010
 6957SOL    HW232505   0.829   2.097   6.529  0.1013 -0.0818 -0.2488
 6958SOL     OW32506   1.770   3.919   2.473 -0.2460 -0.3372 -0.5337
 6958SOL    HW132507   1.802   3.996   2.520  0.6485 -1.5045  0.7629
 6958SOL    HW232508   1.676   3.930   2.492  0.0363 -2.2924  1.9347
 6959SOL     OW32509   3.627   3.359   0.470  0.1950  0.3461 -0.1433
 6959SOL    HW132510   3.571   3.424   0.512  2.0855  1.3319  0.8988
 6959SOL    HW232511   3.711   3.381   0.510 -0.2494  2.4395 -0.3371
 6960SOL     OW32512   3.578   0.360  14.421 -0.0690  0.1209 -0.1916
 6960SOL    HW132513   3.495   0.313  14.423  0.3790 -0.6549  0.3019
 6960SOL    HW232514   3.589   0.399  14.335 -2.2077  1.0471 -0.0599
 6961SOL     OW32515   2.576   1.087   3.222 -0.3161 -0.6066 -0.0904
 6961SOL    HW132516   2.618   1.172   3.222 -0.3653 -0.5882 -1.8097
 6961SOL    HW232517   2.632   1.035   3.164  1.4915 -0.6304  1.6874
 6962SOL     OW32518   3.265   0.250  12.965  0.5392 -0.4024 -0.2312
 6962SOL    HW132519   3.288   0.162  12.933  1.9849 -0.2392  0.3403
 6962SOL    HW232520   3.227   0.242  13.053  0.2515 -2.6894 -0.5445
 6963SOL     OW32521   2.319   4.679  15.878  0.1223  0.3237  0.0703
 6963SOL    HW132522   2.339   4.613  15.813 -1.4128  2.1712 -2.2833
 6963SOL    HW232523   2.328   4.630  15.960 -0.9924  2.5445  1.5520
 6964SOL     OW32524   2.227   1.182   5.281 -0.3273 -0.9414  0.0787
 6964SOL    HW132525   2.319   1.201   5.301 -1.2584  2.2670  1.4337
 6964SOL    HW232526   2.199   1.273   5.266  1.2352 -0.0505  2.5093
 6965SOL     OW32527   3.062   4.289   5.430 -0.2968  0.4140 -0.1181
 6965SOL    HW132528   3.114   4.227   5.482 -0.7387  0.0948 -0.0531
 6965SOL    HW232529   2.991   4.232   5.400 -1.0402  0.8828  0.7574
 6966SOL     OW32530   2.196   2.713  13.259  0.0627 -0.4038  0.4297
 6966SOL    HW132531   2.180   2.620  13.276 -2.4587 -0.2344 -1.0006
 6966SOL    HW232532   2.270   2.702  13.199  0.0637  0.9307  0.1901
 6967SOL     OW32533   3.772   0.355   9.226  0.8301  0.2281  0.4501
 6967SOL    HW132534   3.754   0.309   9.144  0.6971  0.6567  0.2355
 6967SOL    HW232535   3.864   0.371   9.208  0.5348  0.7850 -0.5665
 6968SOL     OW32536   1.010   3.334   5.128 -0.5054  0.4139 -0.2522
 6968SOL    HW132537   1.030   3.240   5.118 -3.1852  0.0165 -1.8067
 6968SOL    HW232538   1.091   3.356   5.174  0.9275 -1.7711 -1.6683
 6969SOL     OW32539   0.373   0.215   6.947 -0.1514  0.0065  0.2087
 6969SOL    HW132540   0.454   0.254   6.913  0.3855 -2.2979 -1.1753
 6969SOL    HW232541   0.390   0.127   6.915  0.0874  0.3702 -0.6582
 6970SOL     OW32542   1.872   3.933   5.938 -0.4768  0.2044 -0.1928
 6970SOL    HW132543   1.877   3.994   6.012 -1.2472  0.3449 -0.2532
 6970SOL    HW232544   1.833   3.992   5.874 -1.4191  0.4470  0.6018
 6971SOL     OW32545   4.724   0.815   4.999  0.2055  0.1869 -0.5109
 6971SOL    HW132546   0.006   0.750   4.931  2.0981  2.8258 -2.5499
 6971SOL    HW232547   0.071   0.804   5.046  1.5192  1.5653 -2.4673
 6972SOL     OW32548   4.437   4.402   7.233  0.0333  0.4235  0.2976
 6972SOL    HW132549   4.421   4.350   7.312 -1.9110 -1.1636 -1.1480
 6972SOL    HW232550   4.432   4.492   7.265 -0.6340  0.4895  0.0159
 6973SOL     OW32551   0.476   3.120   4.468 -0.2900  0.2255 -0.2156
 6973SOL    HW132552   0.425   3.055   4.516  1.1950 -1.1324 -0.4854
 6973SOL    HW232553   0.471   3.200   4.522  0.4653 -0.2149  0.5013
 6974SOL     OW32554   3.477   0.929   3.285 -0.1125  0.4063 -0.2532
 6974SOL    HW132555   3.495   0.937   3.192  0.8289 -0.5285 -0.1495
 6974SOL    HW232556   3.383   0.914   3.291 -0.2968  0.6809 -2.4198
 6975SOL     OW32557   3.729   1.143   7.956 -0.2753 -0.1004  0.1726
 6975SOL    HW132558   3.710   1.146   8.050  0.3825 -1.0070  0.3371
 6975SOL    HW232559   3.758   1.052   7.954 -1.2594 -0.4170  0.4075
 6976SOL     OW32560   1.365   3.341  15.056  0.2587 -0.4480 -0.3755
 6976SOL    HW132561   1.381   3.256  15.016 -0.4391 -0.1262 -1.3576
 6976SOL    HW232562   1.270   3.331  15.066  0.3296  0.1754  0.9278
 6977SOL     OW32563   0.877   0.979   1.993  0.0901 -0.1013  0.4109
 6977SOL    HW132564   0.882   0.930   2.076 -0.4530  0.8949  1.0269
 6977SOL    HW232565   0.859   0.911   1.928 -0.5223  0.6971 -0.2535
 6978SOL     OW32566   4.039   4.326   2.183 -0.3142 -0.0411 -0.5574
 6978SOL    HW132567   4.115   4.339   2.241 -0.1366 -0.1138 -0.7743
 6978SOL    HW232568   3.973   4.324   2.253  1.0414  0.4254  0.7366
 6979SOL     OW32569   0.377   1.469  10.149  0.7018  0.1238  0.5889
 6979SOL    HW132570   0.285   1.475  10.174 -0.3046 -0.4235 -2.9968
 6979SOL    HW232571   0.424   1.513  10.220  0.1456 -1.6549  2.0723
 6980SOL     OW32572   0.168   0.399  12.395  0.0901  0.1033  0.1470
 6980SOL    HW132573   0.181   0.323  12.339  2.1112  0.2305  0.4332
 6980SOL    HW232574   0.163   0.363  12.483  0.2538  0.1753  0.1855
 6981SOL     OW32575   0.697   1.705  11.202  0.3457  0.3531 -0.1714
 6981SOL    HW132576   0.694   1.703  11.106 -0.8369  1.6882 -0.1559
 6981SOL    HW232577   0.767   1.766  11.223  0.2450  0.5251 -0.3422
 6982SOL     OW32578   1.756   1.236   6.755  0.2080  0.4561 -0.3744
 6982SOL    HW132579   1.675   1.275   6.788  0.3361  0.5637 -0.1879
 6982SOL    HW232580   1.794   1.197   6.834 -0.1198  0.9409  0.0292
 6983SOL     OW32581   4.104   2.706  12.509  0.3038  0.4710  0.0471
 6983SOL    HW132582   4.083   2.651  12.585  0.7699 -2.1954 -1.7255
 6983SOL    HW232583   4.160   2.774  12.547 -0.5510  1.3409 -0.2665
 6984SOL     OW32584   4.436   3.447  17.489  0.0501  0.1117 -0.2672
 6984SOL    HW132585   4.467   3.372  17.539  1.5906  1.3806  0.6866
 6984SOL    HW232586   4.512   3.472  17.437 -1.8831 -2.0280 -4.0469
 6985SOL     OW32587   2.061   1.877   2.716 -0.5387  0.3204  0.2339
 6985SOL    HW132588   2.105   1.797   2.745  0.0657  0.6212  0.1380
 6985SOL    HW232589   2.141   1.928   2.715 -0.6272  0.4581  0.1298
 6986SOL     OW32590   3.023   3.823  11.450 -0.1410 -0.0022 -0.0935
 6986SOL    HW132591   3.082   3.898  11.461 -0.3534  0.2968 -0.9224
 6986SOL    HW232592   3.073   3.758  11.499 -0.9479 -0.0833  0.6137
 6987SOL     OW32593   4.624   3.791   8.664 -0.1926  0.8821  0.8423
 6987SOL    HW132594   4.636   3.768   8.571  1.3990 -2.3773  1.8282
 6987SOL    HW232595   4.710   3.769   8.700  0.4884  0.0186 -1.2644
 6988SOL     OW32596   0.036   3.776   9.648 -0.2042 -0.0905 -0.1754
 6988SOL    HW132597   4.726   3.774   9.733 -1.7344  1.1001 -0.9677
 6988SOL    HW232598   0.116   3.826   9.664 -0.4758 -0.1445  1.4110
 6989SOL     OW32599   3.249   3.248   6.914  0.0143 -1.0262 -0.0645
 6989SOL    HW132600   3.249   3.222   6.821 -1.0944 -0.1099 -0.3093
 6989SOL    HW232601   3.343   3.265   6.924  0.1300  0.1276 -2.9456
 6990SOL     OW32602   1.555   1.872   8.106 -0.0296 -0.1420 -0.2679
 6990SOL    HW132603   1.621   1.941   8.098  0.9726 -1.0489  0.2236
 6990SOL    HW232604   1.533   1.889   8.198 -1.0495  1.3087 -0.7720
 6991SOL     OW32605   3.554   1.166   7.320  0.0477 -0.4542  0.4600
 6991SOL    HW132606   3.548   1.255   7.286 -0.1652 -0.6142  0.0747
 6991SOL    HW232607   3.624   1.125   7.270  1.7480  0.1729  2.3403
 6992SOL     OW32608   4.060   0.991   1.017 -0.5520 -0.3589  0.5540
 6992SOL    HW132609   4.131   0.943   1.061 -0.5952 -2.4408 -1.6781
 6992SOL    HW232610   4.056   0.933   0.942 -0.4790  0.8548 -0.3830
 6993SOL     OW32611   3.161   0.777   7.797 -0.0043 -0.1937 -0.1924
 6993SOL    HW132612   3.167   0.684   7.815 -2.0216 -0.9274 -3.1870
 6993SOL    HW232613   3.069   0.801   7.805 -0.1722 -0.6975 -0.5760
 6994SOL     OW32614   2.778   1.523   0.718 -0.4219 -0.3207  0.4778
 6994SOL    HW132615   2.686   1.534   0.697  0.1993  0.7901 -1.6379
 6994SOL    HW232616   2.797   1.448   0.661 -0.3177  0.3320 -0.3447
 6995SOL     OW32617   4.348   1.895   4.174 -0.1514 -0.0541 -0.2185
 6995SOL    HW132618   4.400   1.974   4.187 -2.9504  1.8257 -0.6247
 6995SOL    HW232619   4.349   1.860   4.263  1.0212  1.0307  0.2013
 6996SOL     OW32620   4.425   0.307   4.479  0.3978  0.1440  0.3034
 6996SOL    HW132621   4.446   0.370   4.547  1.5251  0.9578 -0.8006
 6996SOL    HW232622   4.415   0.225   4.528  0.9774 -1.1387 -1.6806
 6997SOL     OW32623   0.741   4.456  16.555 -0.1950  0.5053  0.3524
 6997SOL    HW132624   0.781   4.381  16.597 -1.5808 -0.2447  0.3365
 6997SOL    HW232625   0.744   4.525  16.622 -1.7944 -0.8357  1.7950
 6998SOL     OW32626   2.658   0.735   9.018  0.2141 -0.3242 -0.2610
 6998SOL    HW132627   2.659   0.783   8.936 -0.5571  0.0998 -0.0225
 6998SOL    HW232628   2.692   0.646   9.008 -0.2473 -0.3194 -1.7906
 6999SOL     OW32629   4.249   2.940  14.050  0.2406  0.1141 -0.4221
 6999SOL    HW132630   4.264   2.946  13.956  1.2196  3.5960 -0.0413
 6999SOL    HW232631   4.338   2.959  14.081 -0.0989 -0.0824  0.6807
 7000SOL     OW32632   2.417   0.409   7.964  0.6769  0.1432 -0.2557
 7000SOL    HW132633   2.343   0.457   8.001  1.1754 -0.3958  1.4098
 7000SOL    HW232634   2.385   0.321   7.941  1.2792  0.2424 -1.5016
 7001SOL     OW32635   2.215   1.133   4.709  0.3335  0.1024  0.0866
 7001SOL    HW132636   2.270   1.083   4.649 -2.4866  0.3259 -2.7115
 7001SOL    HW232637   2.130   1.088   4.708 -0.7948  2.2411 -0.0860
 7002SOL     OW32638   0.875   1.994  10.190 -0.0967  0.1548  0.1228
 7002SOL    HW132639   0.814   1.955  10.252 -1.0372 -0.5906 -1.2799
 7002SOL    HW232640   0.942   2.024  10.252 -0.3234 -0.4293  0.6417
 7003SOL     OW32641   1.865   2.627   3.757  1.0408 -0.0302  0.2259
 7003SOL    HW132642   1.822   2.547   3.726  1.7354 -0.8995  1.4843
 7003SOL    HW232643   1.951   2.611   3.718  0.1651 -1.1376 -1.2698
 7004SOL     OW32644   2.111   3.754   6.704  0.2830 -0.5426 -0.4835
 7004SOL    HW132645   2.035   3.810   6.686 -0.4034 -0.3292  3.1381
 7004SOL    HW232646   2.084   3.664   6.688 -0.8501 -0.8154  2.8716
 7005SOL     OW32647   2.893   3.536   3.584  0.0617  0.5399 -0.6715
 7005SOL    HW132648   2.953   3.565   3.515 -2.0212  3.6520 -1.1758
 7005SOL    HW232649   2.838   3.488   3.522 -2.0473  0.3012  1.4183
 7006SOL     OW32650   3.104   2.908   3.972 -0.0441 -0.4387  0.0468
 7006SOL    HW132651   3.079   2.816   3.969  0.9193 -0.5976 -2.5411
 7006SOL    HW232652   3.180   2.904   4.030 -0.1731 -2.0894  0.1025
 7007SOL     OW32653   2.223   0.080   7.123 -0.0312  0.7612 -0.1040
 7007SOL    HW132654   2.147   0.027   7.102 -0.9819  1.7984  0.6693
 7007SOL    HW232655   2.188   0.166   7.148 -0.4042 -0.1779  2.5765
 7008SOL     OW32656   1.796   2.891   3.301  0.4175 -0.5350  0.4944
 7008SOL    HW132657   1.858   2.864   3.233 -0.0650  0.6091 -0.4078
 7008SOL    HW232658   1.718   2.920   3.252  0.4558 -1.9519 -0.4148
 7009SOL     OW32659   2.425   2.438   4.591  0.4400 -0.2939 -0.1004
 7009SOL    HW132660   2.496   2.433   4.527 -0.5321 -0.3094 -1.1770
 7009SOL    HW232661   2.483   2.449   4.667 -1.0595  1.0674  0.8605
 7010SOL     OW32662   3.189   0.217   0.623 -0.6827  0.6214 -0.4086
 7010SOL    HW132663   3.116   0.162   0.651  1.4001 -1.2684  1.2542
 7010SOL    HW232664   3.219   0.170   0.545 -0.0303  1.3673 -0.6053
 7011SOL     OW32665   3.225   1.690   5.579  0.2280 -0.0276 -0.0454
 7011SOL    HW132666   3.251   1.730   5.662 -0.9688  1.4470 -0.3724
 7011SOL    HW232667   3.294   1.633   5.546 -0.2323 -1.0730  0.8143
 7012SOL     OW32668   4.333   0.143   9.670  0.5053  0.7985 -0.4168
 7012SOL    HW132669   4.267   0.078   9.646  1.5146 -1.4625  2.9498
 7012SOL    HW232670   4.390   0.139   9.593  2.2431 -2.0558  1.0712
 7013SOL     OW32671   4.647   2.264  17.111 -0.1777 -0.5522 -0.0274
 7013SOL    HW132672   4.735   2.261  17.150  0.6102  1.3057 -1.6599
 7013SOL    HW232673   4.642   2.355  17.083  1.9086  0.0193  1.4693
 7014SOL     OW32674   3.236   4.158   6.905  0.2412 -0.5670  0.1172
 7014SOL    HW132675   3.331   4.160   6.894  0.1174 -0.5549 -0.9387
 7014SOL    HW232676   3.212   4.068   6.880 -0.1486 -0.9145  1.7533
 7015SOL     OW32677   1.632   2.987   2.661 -0.2903  0.2429  0.6023
 7015SOL    HW132678   1.629   3.078   2.691 -0.4940  0.4616 -0.0709
 7015SOL    HW232679   1.671   2.998   2.574 -1.1622 -1.2196  0.0508
 7016SOL     OW32680   1.371   1.273   9.322 -0.0808  0.8109  0.6132
 7016SOL    HW132681   1.441   1.321   9.278  0.6496  0.4796  1.4214
 7016SOL    HW232682   1.421   1.196   9.348 -1.8234 -0.8235 -0.9776
 7017SOL     OW32683   3.221   4.015  13.655 -0.1398  0.2924 -0.0753
 7017SOL    HW132684   3.161   4.010  13.581 -0.6746 -0.5659  0.4049
 7017SOL    HW232685   3.159   4.039  13.725  0.7617  1.9403  0.1484
 7018SOL     OW32686   2.594   0.486   8.461  1.0282 -0.7092  0.2222
 7018SOL    HW132687   2.640   0.571   8.463 -0.5385  0.1064  2.0381
 7018SOL    HW232688   2.568   0.474   8.370 -1.6228 -1.8504  1.1713
 7019SOL     OW32689   1.408   3.494   8.023 -0.5805  0.8948 -0.3039
 7019SOL    HW132690   1.362   3.434   8.081 -2.4519 -0.3076 -3.0447
 7019SOL    HW232691   1.433   3.560   8.087 -1.1057 -0.0952  0.9197
 7020SOL     OW32692   2.664   2.494  13.139  0.4281  0.1181  0.5710
 7020SOL    HW132693   2.661   2.398  13.142 -3.3684  0.2183  0.0383
 7020SOL    HW232694   2.616   2.517  13.219  0.6955  1.0451  0.4610
 7021SOL     OW32695   2.233   4.298  16.249  0.0762 -0.1940 -0.2704
 7021SOL    HW132696   2.269   4.220  16.291 -2.9298 -2.2189 -1.5028
 7021SOL    HW232697   2.250   4.368  16.312  1.5914 -0.6507 -0.1758
 7022SOL     OW32698   3.409   2.601  12.004  0.0853 -0.4560 -0.0691
 7022SOL    HW132699   3.477   2.563  11.949  0.3342 -0.8253  0.4993
 7022SOL    HW232700   3.339   2.613  11.939 -1.7672  0.5704  2.1011
 7023SOL     OW32701   1.612   1.188   2.280 -1.0148 -0.0722  0.0727
 7023SOL    HW132702   1.601   1.104   2.325 -2.3878  0.8846  1.5182
 7023SOL    HW232703   1.590   1.158   2.192  0.6300 -2.3277  0.4136
 7024SOL     OW32704   2.994   1.373  15.176 -0.6191  0.2090 -0.0276
 7024SOL    HW132705   3.017   1.465  15.159  1.7934 -0.5927 -1.0639
 7024SOL    HW232706   3.076   1.327  15.187 -0.9186 -0.5898 -1.0577
 7025SOL     OW32707   0.052   1.394   5.624 -0.3123 -0.1842  0.1027
 7025SOL    HW132708   0.029   1.338   5.549  0.9211  0.8514 -1.0520
 7025SOL    HW232709   0.058   1.480   5.582  1.6679 -0.4841 -0.2142
 7026SOL     OW32710   3.326   0.253   1.236 -0.7358  0.3837 -0.3588
 7026SOL    HW132711   3.277   0.307   1.297 -0.7479  0.3663 -0.3532
 7026SOL    HW232712   3.324   0.170   1.284  0.6834 -0.7812 -2.3126
 7027SOL     OW32713   1.600   2.073   1.740 -0.4032  0.6715 -0.3913
 7027SOL    HW132714   1.536   2.029   1.684  0.7438 -0.5147 -0.7831
 7027SOL    HW232715   1.577   2.044   1.828  0.1289  1.0396 -0.1349
 7028SOL     OW32716   3.667   4.316   3.197  0.2349 -0.4052  0.3189
 7028SOL    HW132717   3.607   4.256   3.242 -1.8212 -0.0334 -1.9389
 7028SOL    HW232718   3.737   4.328   3.261  0.2988  0.2029  0.1309
 7029SOL     OW32719   2.034   2.114   1.043  0.0461 -0.2711  0.3358
 7029SOL    HW132720   1.969   2.184   1.045  0.6340  0.2939 -1.0221
 7029SOL    HW232721   2.096   2.152   1.106  0.4563  0.2539 -0.3972
 7030SOL     OW32722   2.832   2.403   2.202 -0.3429  0.0334  0.0960
 7030SOL    HW132723   2.872   2.385   2.117 -1.0346 -0.2620 -0.1720
 7030SOL    HW232724   2.899   2.385   2.268  0.7613 -0.6763 -1.2245
 7031SOL     OW32725   4.632   4.660   5.637 -0.2089 -0.4885  0.1585
 7031SOL    HW132726   4.595   4.715   5.568 -0.3985 -1.8811 -0.8532
 7031SOL    HW232727   4.706   4.630   5.584  1.1411  0.7013  1.3804
 7032SOL     OW32728   1.777   3.398   6.409 -0.4075 -0.4753  0.3502
 7032SOL    HW132729   1.827   3.350   6.474  1.2562  4.1729  2.5502
 7032SOL    HW232730   1.706   3.429   6.466 -0.1674  1.2655 -0.2725
 7033SOL     OW32731   1.665   2.670   0.642  0.5688  0.4902 -0.2386
 7033SOL    HW132732   1.607   2.641   0.713  1.5574 -0.5271  0.1648
 7033SOL    HW232733   1.604   2.726   0.594 -0.9965  0.7176  1.9711
 7034SOL     OW32734   3.243   1.042   9.292 -0.1431  0.0542  0.1913
 7034SOL    HW132735   3.320   0.986   9.282 -0.6584 -0.3673 -1.4038
 7034SOL    HW232736   3.279   1.109   9.350  1.2807  0.2143 -0.8686
 7035SOL     OW32737   4.654   3.235   3.213  0.1420  0.6639  0.5631
 7035SOL    HW132738   4.695   3.201   3.134  0.1717  2.7841 -0.3585
 7035SOL    HW232739   4.698   3.318   3.233  1.8080 -0.1957  0.4407
 7036SOL     OW32740   1.339   0.607   6.794 -0.1654 -0.1034  0.5418
 7036SOL    HW132741   1.418   0.620   6.845 -1.0775  0.9504  1.6823
 7036SOL    HW232742   1.343   0.691   6.747 -2.2350  0.3879  1.2524
 7037SOL     OW32743   4.007   0.360  11.240 -0.3508 -0.5171 -0.2225
 7037SOL    HW132744   4.057   0.306  11.301  0.2697 -0.0881 -0.3459
 7037SOL    HW232745   3.967   0.293  11.184  0.2490 -0.8126 -0.3030
 7038SOL     OW32746   1.108   4.512   1.461 -0.6240  0.7673 -0.1131
 7038SOL    HW132747   1.022   4.495   1.500  0.0728  0.7313  1.4087
 7038SOL    HW232748   1.105   4.608   1.462  2.5883  0.8610 -0.0948
 7039SOL     OW32749   2.767   3.540   6.703 -0.4492 -0.3421 -0.0920
 7039SOL    HW132750   2.810   3.580   6.628  0.9775  1.0784  1.4811
 7039SOL    HW232751   2.695   3.603   6.715 -0.6792 -0.4654 -0.8577
 7040SOL     OW32752   3.119   2.016   6.562  0.0734 -0.0050  0.5824
 7040SOL    HW132753   3.152   1.941   6.513 -1.0166  0.4659 -0.8846
 7040SOL    HW232754   3.198   2.062   6.591 -0.9777  1.8966  0.4574
 7041SOL     OW32755   3.119   2.570   1.660  0.1058  0.4542 -0.5289
 7041SOL    HW132756   3.172   2.595   1.736  0.1140 -0.4483 -0.2409
 7041SOL    HW232757   3.132   2.476   1.664  1.5346  0.7151  0.8039
 7042SOL     OW32758   0.350   2.902   3.417  0.0445 -0.0834 -0.0008
 7042SOL    HW132759   0.276   2.843   3.406 -1.4722  1.8690 -0.2721
 7042SOL    HW232760   0.308   2.984   3.388 -1.5982 -1.1412 -0.5981
 7043SOL     OW32761   1.917   4.194  15.437 -0.6586 -0.2074 -0.2376
 7043SOL    HW132762   2.006   4.160  15.425 -0.9431 -1.3199  0.7641
 7043SOL    HW232763   1.941   4.286  15.448 -1.2888 -0.0137 -0.5246
 7044SOL     OW32764   4.641   0.592   7.752  0.3073  0.0738 -0.0398
 7044SOL    HW132765   4.618   0.585   7.660  0.1007 -1.6715  0.1597
 7044SOL    HW232766   4.600   0.513   7.786  0.9140 -1.7204 -3.5387
 7045SOL     OW32767   2.221   4.472   6.910 -0.0276 -0.0063 -0.1983
 7045SOL    HW132768   2.253   4.562   6.904 -0.6397  0.1576 -1.0384
 7045SOL    HW232769   2.227   4.448   6.818  0.4488 -1.6054  0.2503
 7046SOL     OW32770   0.305   2.518   9.167 -0.1030  0.4042 -0.4740
 7046SOL    HW132771   0.389   2.482   9.138 -0.4464 -1.4074  0.7533
 7046SOL    HW232772   0.282   2.470   9.247  0.5309  0.7249 -0.0943
 7047SOL     OW32773   1.455   0.333   8.573 -0.0629  0.3192  0.4948
 7047SOL    HW132774   1.468   0.316   8.480 -2.0469 -2.9070  0.8048
 7047SOL    HW232775   1.374   0.381   8.557 -0.8209 -0.6912  1.3089
 7048SOL     OW32776   4.319   1.489   6.590  0.3842  0.1758  0.7351
 7048SOL    HW132777   4.401   1.537   6.597 -0.4224  1.6892 -0.3280
 7048SOL    HW232778   4.347   1.407   6.550  1.0458  1.3668 -1.2231
 7049SOL     OW32779   2.579   0.661   6.392  0.3284  0.3896 -0.4990
 7049SOL    HW132780   2.662   0.657   6.439  0.2486  0.8300 -0.3160
 7049SOL    HW232781   2.515   0.664   6.464 -0.7379  0.4618 -1.4403
 7050SOL     OW32782   2.468   4.242   4.406  0.6864 -0.1576 -0.2757
 7050SOL    HW132783   2.492   4.164   4.455 -2.6301  0.6896  2.6749
 7050SOL    HW232784   2.546   4.297   4.419 -0.0709  0.6165  0.9302
 7051SOL     OW32785   4.027   1.375   8.513 -0.0334 -0.0131  0.3133
 7051SOL    HW132786   3.947   1.347   8.557  0.5846 -1.9308  0.1981
 7051SOL    HW232787   4.007   1.358   8.421 -1.9564  1.6091  0.4350
 7052SOL     OW32788   2.507   1.085   4.927  0.3368  0.3447  0.1461
 7052SOL    HW132789   2.526   1.031   5.003  0.9074 -0.8665 -0.8525
 7052SOL    HW232790   2.413   1.102   4.933 -0.0320 -2.0631  1.2486
 7053SOL     OW32791   1.304   1.188   4.408  0.0315  0.2961 -0.1067
 7053SOL    HW132792   1.356   1.251   4.358  0.1571 -0.3898 -0.8396
 7053SOL    HW232793   1.363   1.135   4.461 -0.6984 -0.0666  0.3530
 7054SOL     OW32794   1.328   1.912   2.138  0.1881  0.6021 -0.1386
 7054SOL    HW132795   1.340   1.860   2.217  0.9517 -0.5615 -1.0177
 7054SOL    HW232796   1.271   1.849   2.095  0.3203 -0.5367  1.3651
 7055SOL     OW32797   1.798   4.005   7.337  0.3078  0.6483  0.1974
 7055SOL    HW132798   1.852   4.084   7.338 -0.1772  0.9966 -1.1248
 7055SOL    HW232799   1.738   4.027   7.266 -1.3473 -3.0856  0.4539
 7056SOL     OW32800   4.695   4.719   4.171  0.1789  0.1625 -0.2469
 7056SOL    HW132801   4.644   0.064   4.169  1.0268  0.7630  2.0695
 7056SOL    HW232802   4.644   4.657   4.224  1.3017 -1.5602 -1.1579
 7057SOL     OW32803   2.992   1.748   5.451  0.4477 -0.0720 -0.3864
 7057SOL    HW132804   3.014   1.658   5.427 -0.1170 -0.1021 -0.7816
 7057SOL    HW232805   3.077   1.771   5.489  0.3579  0.6095 -0.5995
 7058SOL     OW32806   2.614   3.614   8.550  0.1186  0.0945 -0.1179
 7058SOL    HW132807   2.546   3.659   8.499  0.3840 -0.2545 -0.7826
 7058SOL    HW232808   2.694   3.650   8.512  0.7837 -2.0866 -0.8390
 7059SOL     OW32809   2.855   2.795   3.703 -0.0865  0.0619 -0.4906
 7059SOL    HW132810   2.793   2.796   3.776 -1.2837  0.0136 -1.5071
 7059SOL    HW232811   2.900   2.712   3.717 -1.4329 -0.3552  1.2647
 7060SOL     OW32812   3.175   0.871   4.123 -0.3429 -0.7229 -0.3451
 7060SOL    HW132813   3.114   0.938   4.153  0.5597  0.8310 -1.9791
 7060SOL    HW232814   3.120   0.847   4.048 -0.8354 -1.4759  0.2542
 7061SOL     OW32815   3.490   1.783   3.922 -0.1548 -0.0657  0.0406
 7061SOL    HW132816   3.518   1.874   3.937  2.2632 -1.1517  2.1459
 7061SOL    HW232817   3.421   1.796   3.857  0.9711  2.2418 -0.6981
 7062SOL     OW32818   1.934   2.864   7.429  0.2192 -0.7244  0.2563
 7062SOL    HW132819   1.962   2.925   7.497 -2.0845  0.8263 -0.1616
 7062SOL    HW232820   1.992   2.788   7.436  2.5875  1.0427  0.0259
 7063SOL     OW32821   4.694   1.086   6.547 -0.1595  0.2278  0.7626
 7063SOL    HW132822   4.708   1.114   6.638 -1.8289  0.4253  0.9586
 7063SOL    HW232823   0.034   1.028   6.535 -0.4514 -0.0032  0.0455
 7064SOL     OW32824   4.025   4.677   3.101 -0.0778  0.4371  0.1476
 7064SOL    HW132825   4.101   4.734   3.111 -0.6299  0.8395  2.0630
 7064SOL    HW232826   3.962   0.013   3.089 -1.8459 -0.8722  1.6785
 7065SOL     OW32827   1.272   3.293   5.327 -0.3927  0.3931 -0.3816
 7065SOL    HW132828   1.349   3.343   5.354 -0.2938  0.1832 -0.2789
 7065SOL    HW232829   1.311   3.235   5.261  0.0871  1.0198 -0.6521
 7066SOL     OW32830   1.317   4.146   7.935  0.1089  0.2281 -0.3057
 7066SOL    HW132831   1.347   4.215   7.876  0.0659  0.1691 -0.3958
 7066SOL    HW232832   1.353   4.064   7.900 -0.8841  0.0086 -0.8242
 7067SOL     OW32833   0.837   2.935   3.260 -0.3840 -0.0187 -0.0694
 7067SOL    HW132834   0.895   2.858   3.262 -2.9794 -2.0277 -1.6476
 7067SOL    HW232835   0.762   2.905   3.313 -0.4063  1.1842  0.5891
 7068SOL     OW32836   1.082   3.663  13.691  0.5116 -0.2909 -0.2992
 7068SOL    HW132837   1.064   3.703  13.606 -0.1855  1.9085  0.8942
 7068SOL    HW232838   1.078   3.741  13.746  1.0403 -0.5546  0.1119
 7069SOL     OW32839   1.253   4.451   6.925  0.6016 -0.0993  0.5252
 7069SOL    HW132840   1.170   4.463   6.879  0.2565 -2.2494  0.5756
 7069SOL    HW232841   1.249   4.525   6.986  0.6777  0.3610 -0.0301
 7070SOL     OW32842   2.759   2.719   5.074 -0.2356  0.1607  0.7580
 7070SOL    HW132843   2.816   2.676   5.011 -0.6845 -1.4100  1.4463
 7070SOL    HW232844   2.725   2.796   5.029 -1.7643 -0.4648  0.8602
 7071SOL     OW32845   2.359   0.780   0.480 -0.4554  0.3422  0.0260
 7071SOL    HW132846   2.335   0.823   0.398 -1.4056 -1.6389 -0.7398
 7071SOL    HW232847   2.351   0.687   0.457 -0.5252  0.3792 -0.0976
 7072SOL     OW32848   0.269   2.954   6.940  0.1216 -0.1113 -0.1841
 7072SOL    HW132849   0.361   2.966   6.961  0.4519  0.7456 -2.0516
 7072SOL    HW232850   0.275   2.927   6.848 -2.6955  2.7383 -1.2219
 7073SOL     OW32851   2.923   4.255  15.300 -0.0800 -0.5714 -0.9103
 7073SOL    HW132852   2.898   4.325  15.360  0.7268  0.2992 -1.5774
 7073SOL    HW232853   2.846   4.236  15.246  0.5975 -0.2475 -1.9932
 7074SOL     OW32854   0.969   2.621   7.894 -0.4107 -0.8472 -0.2143
 7074SOL    HW132855   1.062   2.606   7.878 -0.0396 -0.6358  1.7866
 7074SOL    HW232856   0.919   2.555   7.845  0.8420 -1.2299 -0.9641
 7075SOL     OW32857   1.828   3.843   6.890 -0.3242  0.0878 -0.9603
 7075SOL    HW132858   1.861   3.919   6.939 -0.3291 -0.0695 -0.7106
 7075SOL    HW232859   1.853   3.864   6.800  1.3754  1.3237 -0.2139
 7076SOL     OW32860   0.121   4.161  10.635  0.2994 -0.3155 -0.0381
 7076SOL    HW132861   0.117   4.227  10.565 -1.4483  0.1648  0.5066
 7076SOL    HW232862   0.036   4.162  10.679 -0.2922  0.4707 -1.1761
 7077SOL     OW32863   4.085   2.671   6.300  0.2290 -0.3285  0.5904
 7077SOL    HW132864   4.089   2.596   6.359 -2.7888 -0.9276  0.0548
 7077SOL    HW232865   4.149   2.656   6.230 -0.9801  0.1803 -0.6340
 7078SOL     OW32866   2.862   1.420   0.480  0.4699  0.4578 -0.2705
 7078SOL    HW132867   2.926   1.398   0.413 -0.8286 -2.2770 -0.5978
 7078SOL    HW232868   2.775   1.395   0.447  0.9177 -1.7527  0.2247
 7079SOL     OW32869   2.988   3.899   6.533  0.5651 -0.1421  0.1604
 7079SOL    HW132870   2.999   3.921   6.626  0.0864 -1.0370  0.4261
 7079SOL    HW232871   2.899   3.932   6.520 -0.0400 -1.4377  1.0489
 7080SOL     OW32872   4.269   0.293   3.107  0.2628 -0.3318  0.4374
 7080SOL    HW132873   4.318   0.315   3.186  0.1785 -3.2769  1.2971
 7080SOL    HW232874   4.342   0.271   3.050  0.9493  0.2596  1.0900
 7081SOL     OW32875   2.469   4.486   0.127 -0.0505  0.0885 -0.0925
 7081SOL    HW132876   2.430   4.405   0.159  2.6394 -0.3260  2.0771
 7081SOL    HW232877   2.394   4.530   0.087 -0.2808 -1.6007 -1.5626
 7082SOL     OW32878   1.943   0.217   2.324  0.0095  0.0427 -0.2038
 7082SOL    HW132879   1.949   0.253   2.235 -1.4688 -1.6983 -1.0164
 7082SOL    HW232880   1.864   0.164   2.320  0.8556 -1.3659  1.7735
 7083SOL     OW32881   1.706   3.823   8.229 -0.3164  0.0375 -0.2017
 7083SOL    HW132882   1.704   3.910   8.269 -1.7801  0.0250 -0.2627
 7083SOL    HW232883   1.792   3.834   8.188 -1.0454 -1.8008 -2.2304
 7084SOL     OW32884   3.295   0.747   3.618 -0.5234  0.0736  0.0432
 7084SOL    HW132885   3.390   0.752   3.606 -0.1736  0.2292  2.9799
 7084SOL    HW232886   3.283   0.740   3.523  0.1370 -0.9019  0.0336
 7085SOL     OW32887   3.094   1.182   4.116  0.0358 -0.1566  0.0640
 7085SOL    HW132888   3.064   1.266   4.081  2.4966 -0.1653 -2.1045
 7085SOL    HW232889   3.163   1.202   4.180  0.9037  0.5426 -1.0850
 7086SOL     OW32890   4.494   4.528   4.275  0.2530 -0.1305 -0.0561
 7086SOL    HW132891   4.471   4.437   4.256 -0.6187  0.6446 -2.6718
 7086SOL    HW232892   4.408   4.569   4.269  0.4475  0.0457 -1.7538
 7087SOL     OW32893   2.490   1.510   4.983 -0.2062 -0.5424  0.2669
 7087SOL    HW132894   2.521   1.592   4.944  2.5681 -0.3186  3.0124
 7087SOL    HW232895   2.527   1.524   5.070  1.1201 -2.0263 -0.0760
 7088SOL     OW32896   3.179   4.175   3.886  0.5660 -0.5459  0.1502
 7088SOL    HW132897   3.150   4.187   3.796 -0.4784 -0.8587  0.4399
 7088SOL    HW232898   3.237   4.250   3.892 -1.4173  0.9769  0.5144
 7089SOL     OW32899   3.220   3.054   7.339  1.1278  0.2179  0.2997
 7089SOL    HW132900   3.156   3.087   7.277 -0.2541 -2.5002  0.2602
 7089SOL    HW232901   3.179   2.973   7.368 -1.0634  1.0596 -0.4885
 7090SOL     OW32902   0.839   1.387  12.233  0.2945 -0.2771  0.7042
 7090SOL    HW132903   0.913   1.375  12.172 -0.3576 -0.1444 -0.1195
 7090SOL    HW232904   0.847   1.323  12.303 -0.4169 -0.8224  0.2920
 7091SOL     OW32905   1.214   2.789   8.160  0.4075  0.4567 -0.1051
 7091SOL    HW132906   1.152   2.843   8.111 -0.7860 -2.3972 -1.7461
 7091SOL    HW232907   1.262   2.841   8.224  1.1529  4.4724 -3.9339
 7092SOL     OW32908   3.766   2.279   4.960 -0.0768 -0.2690 -0.3748
 7092SOL    HW132909   3.784   2.240   4.875  0.7502 -0.4858 -0.0960
 7092SOL    HW232910   3.830   2.351   4.959  0.4067 -0.7032 -0.4497
 7093SOL     OW32911   1.738   4.201   3.881 -0.4493  0.1919 -0.6311
 7093SOL    HW132912   1.751   4.264   3.810 -1.5876  1.4905  0.3017
 7093SOL    HW232913   1.726   4.260   3.956 -2.0173  0.1129 -0.8149
 7094SOL     OW32914   3.692   3.540   2.051  0.0898  0.7696 -0.3005
 7094SOL    HW132915   3.771   3.578   2.012  0.2207 -0.3247 -1.1135
 7094SOL    HW232916   3.670   3.473   1.986 -0.4419  1.4160 -0.7830
 7095SOL     OW32917   3.182   3.054   4.805 -0.0820 -0.2478  0.1681
 7095SOL    HW132918   3.266   3.033   4.846  0.2493 -0.4027 -0.5905
 7095SOL    HW232919   3.119   3.022   4.869 -0.5450  0.6426  0.1584
 7096SOL     OW32920   4.662   2.937   4.646 -0.5587 -0.2176 -0.1257
 7096SOL    HW132921   4.725   2.992   4.693 -2.4204  0.5578  1.4978
 7096SOL    HW232922   4.578   2.968   4.680 -0.5897  1.1810 -1.4589
 7097SOL     OW32923   3.974   1.364   1.130  0.0467 -0.1594 -0.4285
 7097SOL    HW132924   4.034   1.364   1.204 -1.5704  0.4273  0.8766
 7097SOL    HW232925   3.905   1.415   1.172  0.4406  0.1876 -0.2026
 7098SOL     OW32926   3.857   3.415  12.987 -0.1263  0.0509 -0.3774
 7098SOL    HW132927   3.859   3.477  13.060 -3.8654  1.5956 -1.6017
 7098SOL    HW232928   3.820   3.474  12.922  1.2996  0.0616 -1.1886
 7099SOL     OW32929   3.144   2.045   4.205 -0.4020 -0.1609 -0.3694
 7099SOL    HW132930   3.188   2.010   4.128 -0.6880  2.1238 -1.5666
 7099SOL    HW232931   3.201   2.122   4.204 -1.5202  0.6699 -2.0890
 7100SOL     OW32932   4.233   1.216   2.706 -0.4876  0.5769  0.1130
 7100SOL    HW132933   4.242   1.287   2.643  1.4284 -0.0079 -0.2949
 7100SOL    HW232934   4.317   1.170   2.700  0.6480  2.3060  2.9091
 7101SOL     OW32935   3.440   3.577  11.808  0.4526 -0.2830 -0.1482
 7101SOL    HW132936   3.522   3.549  11.848  1.4210 -0.5738 -2.3246
 7101SOL    HW232937   3.382   3.500  11.811  1.6044 -1.1020  1.1509
 7102SOL     OW32938   3.521   1.854   7.254 -0.0479  0.2092 -0.3057
 7102SOL    HW132939   3.564   1.815   7.177  1.4038  2.0887 -0.4478
 7102SOL    HW232940   3.568   1.935   7.271  0.3421  0.1161 -0.9168
 7103SOL     OW32941   2.056   1.138   1.229  0.1109 -0.2680 -0.1937
 7103SOL    HW132942   2.121   1.073   1.202  0.4457 -0.2312  0.4989
 7103SOL    HW232943   2.011   1.161   1.148 -1.2460 -0.2017  0.5848
 7104SOL     OW32944   3.351   4.591   7.905 -0.1060  0.5629  0.1649
 7104SOL    HW132945   3.274   4.619   7.857 -1.1862 -0.8644  1.0595
 7104SOL    HW232946   3.314   4.572   7.992  0.6749 -0.5641  0.2593
 7105SOL     OW32947   1.888   4.166  17.595  0.3247  0.3544  0.6022
 7105SOL    HW132948   1.916   4.227  17.527 -0.6450 -0.7975 -0.8243
 7105SOL    HW232949   1.891   4.086  17.543 -0.1534  0.5972  0.2100
 7106SOL     OW32950   2.694   4.045  15.547  0.1224  0.2129 -0.5371
 7106SOL    HW132951   2.712   4.001  15.464 -0.6533 -0.1722 -0.5036
 7106SOL    HW232952   2.787   4.058  15.560  0.0391  1.1559 -0.9288
 7107SOL     OW32953   4.438   3.254  17.128 -0.1246  0.3431 -0.0037
 7107SOL    HW132954   4.366   3.290  17.077  0.8550 -0.1163 -1.7139
 7107SOL    HW232955   4.396   3.212  17.203 -0.6820  2.2052  0.7062
 7108SOL     OW32956   3.590   0.814  12.557 -0.6586  0.2990 -0.0282
 7108SOL    HW132957   3.606   0.728  12.597 -1.1240 -0.1169 -0.7346
 7108SOL    HW232958   3.590   0.868  12.636 -2.1035 -1.1859  0.9787
 7109SOL     OW32959   2.371   2.916  13.288  0.0879 -0.5753 -0.2865
 7109SOL    HW132960   2.305   2.850  13.305  0.0623 -0.0926  1.5358
 7109SOL    HW232961   2.443   2.863  13.253  0.2491 -0.5265 -0.0306
 7110SOL     OW32962   3.261   2.870   7.652  0.1673  0.4998  0.6956
 7110SOL    HW132963   3.178   2.908   7.680  0.0367  1.6949 -1.2825
 7110SOL    HW232964   3.240   2.838   7.564  0.3095  0.2691  0.7450
 7111SOL     OW32965   0.490   3.019   8.608  0.2111  0.2852  0.6464
 7111SOL    HW132966   0.492   2.967   8.528 -3.8408  1.6088 -0.3572
 7111SOL    HW232967   0.451   2.954   8.666 -0.2296 -1.9866 -2.1572
 7112SOL     OW32968   2.027   2.620   4.800 -0.0063 -0.1164  0.3852
 7112SOL    HW132969   1.960   2.642   4.735  1.0344 -0.5154 -0.8369
 7112SOL    HW232970   2.058   2.704   4.833  0.9903  0.3209 -1.6411
 7113SOL     OW32971   2.797   1.632   3.139  0.1945 -0.3951  0.4394
 7113SOL    HW132972   2.854   1.675   3.075 -0.2938  2.4713  1.9426
 7113SOL    HW232973   2.745   1.701   3.180 -1.4537 -1.2765 -0.1664
 7114SOL     OW32974   4.614   3.331  12.644 -0.2727 -0.2373 -0.3681
 7114SOL    HW132975   4.695   3.283  12.626 -0.3321 -1.1318  1.8424
 7114SOL    HW232976   4.570   3.349  12.560 -1.5190  1.0954  0.5633
 7115SOL     OW32977   0.339   3.745   8.011  0.2441  0.5704  0.3529
 7115SOL    HW132978   0.335   3.650   8.021 -2.8819  0.5791 -0.7983
 7115SOL    HW232979   0.431   3.761   8.033  0.6671 -0.4558 -0.6827
 7116SOL     OW32980   4.555   3.547   9.684 -0.4765  0.5893 -0.2826
 7116SOL    HW132981   4.556   3.527   9.778  0.9657 -1.6333 -0.7830
 7116SOL    HW232982   4.646   3.537   9.656 -1.1323 -0.1629 -2.1319
 7117SOL     OW32983   2.468   1.588   9.195  0.0805 -0.7694  0.2344
 7117SOL    HW132984   2.545   1.637   9.166  1.1085 -3.3626 -1.3821
 7117SOL    HW232985   2.462   1.593   9.291  0.9639  0.1590  0.2551
 7118SOL     OW32986   1.571   0.577   3.927 -0.2757  0.0738  0.4712
 7118SOL    HW132987   1.501   0.633   3.894 -0.7474 -1.2813 -0.8144
 7118SOL    HW232988   1.651   0.600   3.879 -1.3702 -0.0091 -1.4072
 7119SOL     OW32989   1.567   4.186   6.821  0.0187 -0.4266  0.1232
 7119SOL    HW132990   1.625   4.167   6.747 -0.9420  2.2131 -1.2928
 7119SOL    HW232991   1.500   4.120   6.803  0.2761 -1.3228  2.4622
 7120SOL     OW32992   3.648   3.190   0.254  0.0592 -0.0623  0.8547
 7120SOL    HW132993   3.657   3.278   0.218  2.7520 -0.9945 -0.7476
 7120SOL    HW232994   3.640   3.213   0.347 -0.3667 -0.9810  1.0494
 7121SOL     OW32995   2.641   1.067  13.285  0.0023 -0.4829  0.0119
 7121SOL    HW132996   2.716   1.102  13.332 -0.4268  0.5539 -0.0718
 7121SOL    HW232997   2.583   1.041  13.357  1.2888 -2.4059  0.3380
 7122SOL     OW32998   4.233   0.003   9.988  0.0274 -0.1201  0.6565
 7122SOL    HW132999   4.193   4.692  10.061 -1.9842  0.5376 -0.0425
 7122SOL    HW233000   4.296   4.670   9.964 -0.6717 -1.0897  1.5987
 7123SOL     OW33001   3.119   1.002   8.866 -0.3629 -0.0962 -0.2549
 7123SOL    HW133002   3.070   0.922   8.848 -0.8894  0.2751 -0.4576
 7123SOL    HW233003   3.071   1.066   8.814 -0.1365 -0.9009 -1.4503
 7124SOL     OW33004   0.203   0.986   3.917  0.2477 -0.1736  0.6373
 7124SOL    HW133005   0.298   0.982   3.926  0.3043 -0.0386  0.1359
 7124SOL    HW233006   0.192   0.914   3.978 -0.5609 -0.8595 -0.3255
 7125SOL     OW33007   0.706   3.596  10.248  0.6257 -0.1414  0.4222
 7125SOL    HW133008   0.624   3.547  10.257 -0.7239  2.1263  0.3862
 7125SOL    HW233009   0.710   3.632  10.336 -2.7232 -1.3703  1.0749
 7126SOL     OW33010   0.404   1.899   7.868 -0.1405  0.0242 -0.4654
 7126SOL    HW133011   0.385   1.992   7.861 -0.5862 -0.0792 -0.6529
 7126SOL    HW233012   0.458   1.906   7.947  0.4171  0.1324 -0.8590
 7127SOL     OW33013   1.843   2.119   1.612 -0.6177  0.0986 -0.5527
 7127SOL    HW133014   1.909   2.116   1.682  0.0015 -1.2216 -1.1867
 7127SOL    HW233015   1.761   2.094   1.655 -0.4956  0.4575 -0.1199
 7128SOL     OW33016   3.417   3.460  14.222  0.3079  0.0131  0.6617
 7128SOL    HW133017   3.377   3.444  14.137  0.0950  1.4726  0.4825
 7128SOL    HW233018   3.510   3.475  14.206  0.3336  0.2232  1.0122
 7129SOL     OW33019   1.773   4.615  12.148  0.1160 -0.5292 -0.2393
 7129SOL    HW133020   1.713   4.613  12.074 -1.0300 -0.0654  0.6850
 7129SOL    HW233021   1.750   4.534  12.194  1.0920 -0.9418 -0.4658
 7130SOL     OW33022   2.254   1.500   8.632 -0.3075  0.4534 -0.6575
 7130SOL    HW133023   2.225   1.496   8.541 -1.9724 -0.1394 -0.1001
 7130SOL    HW233024   2.327   1.437   8.634 -0.4498  0.3342  0.7183
 7131SOL     OW33025   1.448   3.135   8.676 -0.6148 -0.1594 -0.6492
 7131SOL    HW133026   1.386   3.207   8.665  0.9205  1.3465  0.5135
 7131SOL    HW233027   1.390   3.065   8.706 -0.8908  0.0484 -0.7061
 7132SOL     OW33028   0.041   0.898   4.508  0.1637 -0.0047  0.0465
 7132SOL    HW133029   4.683   0.909   4.524  0.0772  1.4940 -1.4340
 7132SOL    HW233030   0.063   0.877   4.598  0.8492 -0.1629 -0.1541
 7133SOL     OW33031   4.592   1.548  17.394 -0.4984 -0.0751  0.0257
 7133SOL    HW133032   4.520   1.497  17.357 -0.2863 -0.2845 -0.0993
 7133SOL    HW233033   4.543   1.607  17.451  2.4686  1.7394  0.7077
 7134SOL     OW33034   0.310   3.243   5.519  0.0315  0.0615  0.4730
 7134SOL    HW133035   0.271   3.330   5.509 -1.1240 -0.4309  0.6777
 7134SOL    HW233036   0.306   3.215   5.428 -1.9433  0.9697  0.2860
 7135SOL     OW33037   4.685   3.111   5.824 -0.6374  0.3043  0.5505
 7135SOL    HW133038   0.041   3.095   5.844 -0.7270  1.2071  1.7177
 7135SOL    HW233039   4.679   3.181   5.758  0.4568 -0.3412 -0.2246
 7136SOL     OW33040   3.663   1.634   7.033 -0.3739 -0.1731 -0.1368
 7136SOL    HW133041   3.735   1.609   6.974 -0.4802 -0.2217 -0.2471
 7136SOL    HW233042   3.596   1.582   6.987  0.0338 -2.4859  1.8871
 7137SOL     OW33043   1.980   0.514   3.034 -0.1010 -0.2089 -0.5349
 7137SOL    HW133044   1.946   0.569   2.963 -3.4098  0.7521  1.7850
 7137SOL    HW233045   1.985   0.429   2.990  0.9179  0.6101 -1.9965
 7138SOL     OW33046   4.595   1.962   4.691 -0.0241 -0.0192 -0.1934
 7138SOL    HW133047   4.504   1.973   4.720 -0.5486 -1.1448 -1.4170
 7138SOL    HW233048   4.610   1.867   4.698 -0.2992  0.0021  0.6628
 7139SOL     OW33049   2.066   4.527   8.386  0.3525 -0.7405 -0.2205
 7139SOL    HW133050   2.072   4.572   8.470  1.3675  1.6286 -1.5512
 7139SOL    HW233051   2.021   4.591   8.331  1.0440 -0.8845 -0.9527
 7140SOL     OW33052   4.396   2.220   5.836  0.3733  0.3475 -0.2081
 7140SOL    HW133053   4.414   2.191   5.746  2.7236  2.1404 -0.3077
 7140SOL    HW233054   4.465   2.173   5.883  0.1125 -1.1429 -1.3116
 7141SOL     OW33055   1.102   4.239   3.449 -0.3119 -0.4144 -0.4736
 7141SOL    HW133056   1.018   4.224   3.493 -0.4933  0.5690 -0.4737
 7141SOL    HW233057   1.154   4.266   3.524  0.2459  1.8038 -1.6446
 7142SOL     OW33058   1.323   2.813   0.138  0.2085 -0.2407 -0.2877
 7142SOL    HW133059   1.362   2.835   0.053 -1.4334 -3.2009 -1.8011
 7142SOL    HW233060   1.297   2.722   0.124 -0.4431 -0.3127  1.4180
 7143SOL     OW33061   1.718   4.565   3.002 -0.2967 -0.1402  0.2453
 7143SOL    HW133062   1.623   4.556   2.989 -0.2746  1.6382 -0.9594
 7143SOL    HW233063   1.752   4.483   2.967  0.5786 -0.1400  1.0898
 7144SOL     OW33064   2.020   0.746   1.912 -0.1715  0.1645  0.5660
 7144SOL    HW133065   2.103   0.708   1.941  0.0685  0.0191 -0.3176
 7144SOL    HW233066   2.017   0.744   1.817  0.9805 -1.6580  0.5695
 7145SOL     OW33067   0.899   2.922   2.712  0.5050  0.5678 -0.0237
 7145SOL    HW133068   0.949   2.966   2.643  3.2223 -0.2311  1.4522
 7145SOL    HW233069   0.873   3.002   2.757 -1.8281  0.8594 -1.9102
 7146SOL     OW33070   4.632   4.626   7.971 -0.2149 -0.0619  0.1366
 7146SOL    HW133071   4.543   4.631   7.935  0.5217 -3.4431 -2.1460
 7146SOL    HW233072   4.626   4.663   8.059 -0.0107  0.3454 -0.0212
 7147SOL     OW33073   1.017   0.463   4.965 -0.0324 -0.0656  0.3871
 7147SOL    HW133074   1.105   0.489   4.938 -0.2568 -0.1086 -0.3634
 7147SOL    HW233075   0.984   0.421   4.886 -2.6174 -1.4932  2.2354
 7148SOL     OW33076   2.735   1.233   1.582 -0.3355 -0.1321  0.2008
 7148SOL    HW133077   2.810   1.195   1.536  0.0195  1.4504 -0.5176
 7148SOL    HW233078   2.769   1.314   1.619 -0.2373  0.0244 -0.2363
 7149SOL     OW33079   4.465   3.863   2.878  0.4673 -0.1906 -0.0671
 7149SOL    HW133080   4.404   3.907   2.820  0.9395 -1.8810 -1.8302
 7149SOL    HW233081   4.415   3.832   2.954 -0.0541  1.2509  0.1837
 7150SOL     OW33082   1.711   3.140   7.437  0.4571 -0.1947 -0.7292
 7150SOL    HW133083   1.713   3.189   7.519 -0.0210 -1.3173 -0.0428
 7150SOL    HW233084   1.620   3.156   7.414  0.4428  3.1776  1.6165
 7151SOL     OW33085   1.388   3.451   4.957 -0.2613 -0.0951  0.3071
 7151SOL    HW133086   1.465   3.402   4.985  0.7425  0.3474 -1.6596
 7151SOL    HW233087   1.417   3.483   4.872  0.3287 -1.7580 -0.0973
 7152SOL     OW33088   1.071   3.746   8.432  0.1054  0.1718 -0.5113
 7152SOL    HW133089   1.025   3.775   8.353  0.4216 -1.4138 -1.2846
 7152SOL    HW233090   1.089   3.833   8.466 -2.3638 -0.2529  1.8828
 7153SOL     OW33091   1.125   2.815  13.384  0.4082 -0.4642  1.0571
 7153SOL    HW133092   1.163   2.728  13.393  2.0000 -0.1203 -2.5604
 7153SOL    HW233093   1.135   2.826  13.290 -1.9114  0.7390  0.9473
 7154SOL     OW33094   4.528   4.161   8.242  0.4272  0.2210 -0.1980
 7154SOL    HW133095   4.436   4.187   8.252 -0.0211 -0.6477 -2.2757
 7154SOL    HW233096   4.538   4.077   8.287 -0.1597  0.6453  0.7369
 7155SOL     OW33097   1.880   2.476  11.867 -0.0636  0.1804  0.5530
 7155SOL    HW133098   1.798   2.435  11.841  0.0272  0.8122 -0.7649
 7155SOL    HW233099   1.910   2.491  11.777  0.5630  0.1808  0.7618
 7156SOL     OW33100   0.933   3.745  15.885 -0.0715  0.4859  0.3358
 7156SOL    HW133101   0.919   3.659  15.844 -1.2106  0.1398  1.4405
 7156SOL    HW233102   0.955   3.717  15.974 -2.3379 -2.0415  0.1191
 7157SOL     OW33103   0.065   2.072   6.838  0.1828  0.2784  0.0362
 7157SOL    HW133104   0.019   2.153   6.817  2.9533  1.8200 -0.0529
 7157SOL    HW233105   0.148   2.083   6.792  0.3135 -1.6302 -0.2048
 7158SOL     OW33106   0.286   0.374   4.819  0.0907  0.2067  0.1710
 7158SOL    HW133107   0.244   0.438   4.877  0.1963  1.2665 -0.9209
 7158SOL    HW233108   0.271   0.410   4.731 -1.4564  0.4308  0.5252
 7159SOL     OW33109   3.233   0.820  10.956 -0.1694  0.7836  0.6758
 7159SOL    HW133110   3.219   0.884  10.885 -1.7526  0.8172  1.0157
 7159SOL    HW233111   3.316   0.787  10.922 -1.7474 -0.2684 -2.1997
 7160SOL     OW33112   3.380   1.199  11.732 -0.3205 -0.1032  0.3240
 7160SOL    HW133113   3.465   1.158  11.720  0.3086  0.9081  1.3801
 7160SOL    HW233114   3.326   1.123  11.755 -1.1205  0.3429 -0.0527
 7161SOL     OW33115   2.333   0.218   5.059 -0.3549  0.5560 -0.0523
 7161SOL    HW133116   2.370   0.256   4.979 -1.6420 -0.3904 -1.0996
 7161SOL    HW233117   2.377   0.266   5.129  1.1516  0.2617 -0.7904
 7162SOL     OW33118   3.831   3.978   0.294  0.0099 -0.3706  0.1767
 7162SOL    HW133119   3.786   3.953   0.374  2.5168 -1.4496  1.2359
 7162SOL    HW233120   3.793   3.919   0.229  1.0069  0.0484 -0.7850
 7163SOL     OW33121   3.504   3.859  17.163  0.2302 -0.6456  0.0298
 7163SOL    HW133122   3.594   3.874  17.134 -0.1378  1.3235 -0.1279
 7163SOL    HW233123   3.499   3.764  17.169  2.5506 -0.6068  2.6641
 7164SOL     OW33124   0.682   4.191   7.776 -0.3846  0.0466  0.4948
 7164SOL    HW133125   0.602   4.160   7.733  0.2339 -0.8209 -0.0419
 7164SOL    HW233126   0.674   4.157   7.865  2.0895 -2.7089 -0.3322
 7165SOL     OW33127   1.178   2.982   1.390 -0.0198  0.5997  0.0759
 7165SOL    HW133128   1.138   3.055   1.438 -1.0966  0.2697 -0.3176
 7165SOL    HW233129   1.131   2.982   1.306 -0.1188 -1.4090  0.1346
 7166SOL     OW33130   4.250   4.022   3.670  0.3013 -0.4247 -0.3439
 7166SOL    HW133131   4.206   3.959   3.727  1.6654 -0.5235  0.5962
 7166SOL    HW233132   4.204   4.000   3.589  0.8084 -1.3868 -0.3700
 7167SOL     OW33133   3.896   1.022   3.625  0.1263 -0.3406  0.3476
 7167SOL    HW133134   3.816   1.004   3.577  0.2322  0.4779 -0.1400
 7167SOL    HW233135   3.856   0.996   3.708  1.4909 -2.1007  0.4595
 7168SOL     OW33136   3.222   0.888   6.663  0.0045  0.4162 -0.0996
 7168SOL    HW133137   3.283   0.819   6.688 -0.4306  0.0563 -0.0279
 7168SOL    HW233138   3.146   0.835   6.641  0.6089 -0.7168  0.5551
 7169SOL     OW33139   0.338   2.106   8.531  0.2460  0.3145  0.5803
 7169SOL    HW133140   0.387   2.103   8.614 -1.1723 -1.1707  1.3427
 7169SOL    HW233141   0.356   2.019   8.495 -3.0728  1.0768 -2.8542
 7170SOL     OW33142   2.413   0.271   2.937 -0.1445 -0.2072  0.0831
 7170SOL    HW133143   2.426   0.252   2.844 -0.1223  0.3232 -0.0204
 7170SOL    HW233144   2.327   0.230   2.930  0.4653 -1.3813 -0.5432
 7171SOL     OW33145   2.470   2.305   3.165  0.1755  0.7224 -0.1920
 7171SOL    HW133146   2.377   2.300   3.141  0.4540  2.6844 -1.6550
 7171SOL    HW233147   2.497   2.214   3.155  0.4308  0.7176  0.5104
 7172SOL     OW33148   4.379   2.712   2.094 -0.4304  0.5803  0.2049
 7172SOL    HW133149   4.315   2.669   2.037 -0.3368  0.1752  0.4030
 7172SOL    HW233150   4.465   2.679   2.068  0.3788  0.6140  2.9121
 7173SOL     OW33151   4.178   3.265  15.662 -0.8145 -0.4568 -0.0905
 7173SOL    HW133152   4.097   3.224  15.694  0.0717 -2.2969 -0.1952
 7173SOL    HW233153   4.150   3.354  15.641  1.4438  0.8847  2.7016
 7174SOL     OW33154   1.458   4.556   2.977  0.0249  0.3180  0.4870
 7174SOL    HW133155   1.428   4.552   2.887  1.3574 -1.0934  0.1106
 7174SOL    HW233156   1.392   4.621   3.002 -1.6335 -0.2409 -2.5418
 7175SOL     OW33157   0.460   0.309   3.977 -0.1661  0.0634 -0.1470
 7175SOL    HW133158   0.489   0.338   4.063 -0.6798 -2.4319  0.8624
 7175SOL    HW233159   0.412   0.230   4.001 -1.6361  0.7357 -0.8685
 7176SOL     OW33160   1.225   0.160   6.340 -0.3545 -0.0027  0.1477
 7176SOL    HW133161   1.272   0.077   6.346  0.7118  0.5712 -0.1944
 7176SOL    HW233162   1.135   0.130   6.344 -0.2418 -0.7769 -2.7001
 7177SOL     OW33163   1.747   4.717  16.639  0.5831  0.2647  0.1913
 7177SOL    HW133164   1.655   4.712  16.614  0.4033  0.6789  0.7560
 7177SOL    HW233165   1.763   0.047  16.571  0.7500 -0.2124 -0.2312
 7178SOL     OW33166   4.453   3.314   1.090 -0.1661  0.6674  0.5125
 7178SOL    HW133167   4.400   3.368   1.030 -2.0632 -1.9740 -0.2074
 7178SOL    HW233168   4.402   3.322   1.170  1.5142  3.5797  1.2822
 7179SOL     OW33169   0.505   1.699   9.533 -0.2694 -0.0178 -0.6452
 7179SOL    HW133170   0.447   1.761   9.488 -0.0781  1.0632  0.5967
 7179SOL    HW233171   0.581   1.693   9.475  0.2764 -0.1403  0.0855
 7180SOL     OW33172   1.750   3.116  13.655 -0.2006 -0.3338  0.0956
 7180SOL    HW133173   1.760   3.080  13.743  0.2765 -1.0414 -0.2425
 7180SOL    HW233174   1.799   3.054  13.600 -3.1528 -1.4401 -1.2772
 7181SOL     OW33175   4.554   1.336   6.201 -0.5591  0.2781  0.1661
 7181SOL    HW133176   4.602   1.369   6.125 -3.7871 -0.6368 -2.3239
 7181SOL    HW233177   4.558   1.413   6.256  1.9876  0.0714  0.2435
 7182SOL     OW33178   4.118   4.142  17.192  0.6801  0.3907 -0.0274
 7182SOL    HW133179   4.122   4.238  17.191  0.7635  0.3835 -0.8178
 7182SOL    HW233180   4.173   4.123  17.116  1.5383 -1.3486  1.0324
 7183SOL     OW33181   4.559   2.910   0.605 -0.0125 -0.0934 -0.2622
 7183SOL    HW133182   4.611   2.852   0.549  0.8175  0.2101  0.1980
 7183SOL    HW233183   4.496   2.857   0.653  1.7553  0.6482  2.8297
 7184SOL     OW33184   0.936   3.469   3.309 -0.2767 -0.0351 -0.4774
 7184SOL    HW133185   0.930   3.431   3.397  1.0861  0.8577  0.0053
 7184SOL    HW233186   0.847   3.504   3.308  0.8020  2.7774  1.1311
 7185SOL     OW33187   2.586   3.315   5.482  0.7458  0.0168  0.2295
 7185SOL    HW133188   2.551   3.239   5.528  0.0233 -0.0528 -0.4283
 7185SOL    HW233189   2.659   3.272   5.439  2.4709  2.2786  0.8929
 7186SOL     OW33190   1.028   0.145   8.559  0.4892  0.0287  0.4914
 7186SOL    HW133191   1.091   0.072   8.554 -1.6595 -1.6931 -1.8285
 7186SOL    HW233192   1.061   0.196   8.633 -2.4348  2.1642  0.3272
 7187SOL     OW33193   2.307   1.749  11.600  0.4938 -0.5568 -0.1248
 7187SOL    HW133194   2.267   1.801  11.530  1.6033 -0.0117 -0.3597
 7187SOL    HW233195   2.263   1.665  11.609  2.6503 -1.5531  1.0984
 7188SOL     OW33196   2.400   2.225   0.915  0.1534 -0.5033  0.1852
 7188SOL    HW133197   2.440   2.248   0.831 -1.2390 -0.7705 -0.5402
 7188SOL    HW233198   2.472   2.180   0.958  1.5770  0.5995 -1.0368
 7189SOL     OW33199   0.231   4.422   7.907  0.0204  0.0319 -0.1372
 7189SOL    HW133200   0.281   4.361   7.853 -0.6801 -0.3956 -0.3105
 7189SOL    HW233201   0.286   4.499   7.916 -1.3561  1.3038 -2.8076
 7190SOL     OW33202   0.370   4.372   0.988  0.4236  0.5509  0.0441
 7190SOL    HW133203   0.419   4.453   1.000 -2.4444  2.2775 -0.0029
 7190SOL    HW233204   0.315   4.397   0.914  0.4608  0.1695 -0.1124
 7191SOL     OW33205   3.791   2.757  16.669  0.2420  0.4007 -0.1958
 7191SOL    HW133206   3.788   2.672  16.714  1.7329  1.8337  2.6155
 7191SOL    HW233207   3.704   2.761  16.630  0.1720 -0.6431 -0.1431
 7192SOL     OW33208   3.602   2.854   8.480 -0.6912 -0.0437 -0.8246
 7192SOL    HW133209   3.579   2.911   8.407  0.0300  2.5931  0.9928
 7192SOL    HW233210   3.666   2.798   8.435 -1.1671 -1.7848  0.6247
 7193SOL     OW33211   2.116   2.253   3.800  0.1841  0.1176 -0.0757
 7193SOL    HW133212   2.191   2.234   3.743  0.0538 -2.5493  0.6025
 7193SOL    HW233213   2.112   2.174   3.855  2.9286 -1.5347 -2.2499
 7194SOL     OW33214   0.634   4.342  11.845  0.3202  0.3738 -0.0949
 7194SOL    HW133215   0.633   4.391  11.763 -0.7950 -0.0964 -0.3674
 7194SOL    HW233216   0.717   4.294  11.844  0.0727 -0.0789  1.2360
 7195SOL     OW33217   3.913   2.765   9.490 -0.2905  0.4159  0.1919
 7195SOL    HW133218   3.938   2.819   9.415  1.4680  0.0351  0.4965
 7195SOL    HW233219   3.900   2.828   9.560 -0.6958  0.0384  0.4571
 7196SOL     OW33220   4.617   0.657   6.601 -0.7699  0.0608 -0.1167
 7196SOL    HW133221   4.575   0.593   6.658  0.7413 -1.3057 -0.5529
 7196SOL    HW233222   4.677   0.692   6.667 -3.2660  0.2832  2.0435
 7197SOL     OW33223   0.527   0.174  16.743 -0.5440 -0.9270 -0.3630
 7197SOL    HW133224   0.437   0.143  16.731 -1.0730 -0.1694  1.6663
 7197SOL    HW233225   0.512   0.267  16.726 -1.1061 -0.7123  1.3709
 7198SOL     OW33226   3.431   2.059   8.972  0.2399  0.4290  0.1754
 7198SOL    HW133227   3.379   2.131   9.007 -0.4479  0.6745 -1.3443
 7198SOL    HW233228   3.450   1.998   9.044  1.7207  0.9063  0.2018
 7199SOL     OW33229   4.567   3.164  10.306 -0.1912  0.1769 -0.0673
 7199SOL    HW133230   4.618   3.091  10.341  0.3039  0.4294 -0.2580
 7199SOL    HW233231   4.491   3.120  10.269  1.1870 -1.3284 -1.1176
 7200SOL     OW33232   2.075   3.581  16.190 -0.0222  0.1094 -0.1185
 7200SOL    HW133233   2.122   3.620  16.116  0.9688 -2.0405 -0.6029
 7200SOL    HW233234   2.123   3.615  16.266 -0.8560 -0.0999  0.5054
 7201SOL     OW33235   3.503   2.314   7.435  0.2868 -0.2350 -0.3818
 7201SOL    HW133236   3.451   2.359   7.502 -0.6309  0.5473 -1.6208
 7201SOL    HW233237   3.489   2.222   7.457 -2.6664  0.5177  0.9265
 7202SOL     OW33238   1.716   4.127   6.586 -0.6241 -0.3045 -0.9537
 7202SOL    HW133239   1.725   4.214   6.548 -2.0597 -0.5101 -1.7582
 7202SOL    HW233240   1.638   4.101   6.537 -0.5072 -0.3253 -1.1289
 7203SOL     OW33241   0.817   3.678   4.364  0.1727  0.1686  0.0534
 7203SOL    HW133242   0.823   3.646   4.454  1.7958 -4.4767 -1.7452
 7203SOL    HW233243   0.902   3.643   4.337  0.1278  1.2052 -1.4197
 7204SOL     OW33244   2.932   1.701   0.561  0.5426  0.1433  0.3749
 7204SOL    HW133245   2.882   1.620   0.569  0.6328  0.1804  1.4234
 7204SOL    HW233246   2.903   1.743   0.643  0.8994 -0.8445  0.9990
 7205SOL     OW33247   3.228   1.558   6.502 -0.3501  0.3656 -0.0027
 7205SOL    HW133248   3.317   1.528   6.488 -0.8166  0.0535 -2.4156
 7205SOL    HW233249   3.242   1.639   6.453 -1.6678  0.8129  0.3525
 7206SOL     OW33250   0.302   0.249   6.369  0.1245  0.0305  0.1891
 7206SOL    HW133251   0.221   0.204   6.391 -1.7346  3.4096  0.2010
 7206SOL    HW233252   0.324   0.292   6.452 -0.8453 -0.1738  0.5531
 7207SOL     OW33253   4.129   3.782  16.918 -0.3328  0.0930  0.1567
 7207SOL    HW133254   4.062   3.775  16.850  2.5790 -0.3567 -2.6739
 7207SOL    HW233255   4.136   3.697  16.959  2.4408  0.6148  0.7723
 7208SOL     OW33256   1.227   0.270  17.383 -0.0833 -0.1304 -1.0787
 7208SOL    HW133257   1.252   0.255  17.475  0.6629 -0.1485 -1.2838
 7208SOL    HW233258   1.305   0.316  17.351  1.4035 -2.0839 -0.2897
 7209SOL     OW33259   4.394   2.495   5.175 -0.7888 -0.1189  0.0650
 7209SOL    HW133260   4.342   2.421   5.145  0.3057 -1.0381  0.3991
 7209SOL    HW233261   4.460   2.437   5.214 -0.0465  1.0172  0.4879
 7210SOL     OW33262   4.579   2.488   8.927  0.0093  0.3859  0.5068
 7210SOL    HW133263   4.645   2.519   8.988 -0.1061 -0.6727  1.1731
 7210SOL    HW233264   4.627   2.474   8.845 -0.8811 -2.0919  0.3841
 7211SOL     OW33265   2.737   0.426   1.571  0.1172  0.5581  0.2565
 7211SOL    HW133266   2.831   0.437   1.580 -0.1296  0.5971  2.7940
 7211SOL    HW233267   2.706   0.446   1.659 -1.2106 -0.5032  0.0337
 7212SOL     OW33268   0.291   4.227   8.440  0.2925 -0.3684  0.6506
 7212SOL    HW133269   0.203   4.220   8.402  0.5226 -0.9164  0.2218
 7212SOL    HW233270   0.297   4.316   8.476 -0.4242  0.0412 -0.2270
 7213SOL     OW33271   0.921   1.215   7.284  0.0635  0.3440  0.7721
 7213SOL    HW133272   0.868   1.173   7.352 -1.0313 -1.0476 -0.9260
 7213SOL    HW233273   0.981   1.140   7.277 -1.1715 -0.6490  0.7190
 7214SOL     OW33274   1.014   1.173   7.019 -0.2722 -0.4386  0.5831
 7214SOL    HW133275   0.969   1.217   7.092 -0.3389  0.0692  0.2350
 7214SOL    HW233276   1.058   1.106   7.071 -1.0676  0.0170  1.8369
 7215SOL     OW33277   4.175   0.748   9.473  0.2111  0.5511  0.0902
 7215SOL    HW133278   4.180   0.809   9.399 -0.0171  0.4136 -0.0412
 7215SOL    HW233279   4.120   0.806   9.526  0.8646  1.9031 -0.7078
 7216SOL     OW33280   2.997   0.448   3.249  0.6490  0.2253  0.7114
 7216SOL    HW133281   3.088   0.476   3.252 -0.0619  2.6491 -0.6743
 7216SOL    HW233282   2.975   0.419   3.338  0.3021  0.3641  0.6699
 7217SOL     OW33283   0.145   1.984   1.964  0.4199  0.4240  0.4562
 7217SOL    HW133284   0.191   1.972   2.047 -0.5376  1.4055  1.1442
 7217SOL    HW233285   0.053   1.990   1.991  0.0743  0.3381 -0.7334
 7218SOL     OW33286   2.828   1.613   8.662  0.0776 -0.1716 -0.4673
 7218SOL    HW133287   2.889   1.541   8.646 -0.8507 -1.2326  0.7961
 7218SOL    HW233288   2.849   1.636   8.753  1.7001  2.6424 -1.5491
 7219SOL     OW33289   0.213   0.608  12.177 -0.3095 -0.3644  0.0739
 7219SOL    HW133290   0.123   0.581  12.159  1.0106 -2.1743 -3.8342
 7219SOL    HW233291   0.234   0.565  12.260 -0.6117 -0.5077  0.0744
 7220SOL     OW33292   2.814   1.486  15.570  0.0510  0.1594 -0.7314
 7220SOL    HW133293   2.780   1.460  15.656  0.7666 -0.0709 -0.5148
 7220SOL    HW233294   2.790   1.579  15.567 -2.6598 -0.4659  1.6197
 7221SOL     OW33295   3.702   1.520  11.238  0.0090  0.2439  0.3117
 7221SOL    HW133296   3.748   1.604  11.233  1.4306 -0.5035  0.7622
 7221SOL    HW233297   3.659   1.520  11.153  0.0215 -0.6701  0.3055
 7222SOL     OW33298   4.273   0.722  10.014 -0.0416 -0.9157 -0.2101
 7222SOL    HW133299   4.205   0.661  10.042 -1.4323  0.6182 -0.2911
 7222SOL    HW233300   4.268   0.722   9.918 -3.1023 -1.3311 -0.0399
 7223SOL     OW33301   4.405   0.123   4.666  0.3683 -0.1663  0.1342
 7223SOL    HW133302   4.359   0.041   4.650  1.1213 -0.3732 -0.9813
 7223SOL    HW233303   4.456   0.111   4.747  1.7976  2.1731 -0.4222
 7224SOL     OW33304   0.927   2.344   7.219 -0.1305  0.4987 -0.0922
 7224SOL    HW133305   0.913   2.272   7.157 -0.1635  0.9228 -0.5827
 7224SOL    HW233306   1.010   2.388   7.202  1.1729 -2.3407 -1.1304
 7225SOL     OW33307   3.949   1.542  13.258  0.4493 -0.0444 -0.1180
 7225SOL    HW133308   4.021   1.512  13.202  1.4746  0.1169  1.1168
 7225SOL    HW233309   3.918   1.608  13.196  0.3404 -0.1882 -0.2170
 7226SOL     OW33310   1.169   1.473   9.279  0.2694 -0.3546  0.3162
 7226SOL    HW133311   1.200   1.562   9.292 -0.4007 -0.2275  1.0594
 7226SOL    HW233312   1.238   1.424   9.324  0.0807 -0.3074  0.6573
 7227SOL     OW33313   3.003   3.634  10.905 -0.1821 -0.5537 -0.4077
 7227SOL    HW133314   3.081   3.646  10.960 -1.0478  1.3340  0.4135
 7227SOL    HW233315   2.960   3.719  10.899 -0.6640 -0.6429  1.8254
 7228SOL     OW33316   3.755   0.814   6.847 -0.5870 -0.6245 -0.8020
 7228SOL    HW133317   3.737   0.819   6.753  1.1023  1.6651 -0.9929
 7228SOL    HW233318   3.776   0.906   6.860  0.7452 -0.7260 -2.2096
 7229SOL     OW33319   0.545   2.973   7.548 -0.1415  0.4461 -0.0338
 7229SOL    HW133320   0.611   2.913   7.513  0.6600  0.5348  1.3169
 7229SOL    HW233321   0.490   2.907   7.591  1.7586  0.8993  3.0635
 7230SOL     OW33322   2.476   1.616   9.724 -0.5319 -0.1082 -0.2324
 7230SOL    HW133323   2.431   1.611   9.808 -0.2866 -1.1450 -0.1665
 7230SOL    HW233324   2.489   1.711   9.716 -0.1204 -0.0232  1.4775
 7231SOL     OW33325   3.059   0.329   4.414 -0.5355 -0.1807 -0.1550
 7231SOL    HW133326   3.142   0.285   4.394 -0.3688  0.2413 -0.3923
 7231SOL    HW233327   3.083   0.403   4.470  3.0462 -0.1277 -1.7588
 7232SOL     OW33328   3.712   2.041  16.654  0.4922 -0.4669  1.0215
 7232SOL    HW133329   3.796   2.087  16.641 -0.9842  1.3641 -2.1204
 7232SOL    HW233330   3.709   2.045  16.749 -0.3703 -3.4695  1.0908
 7233SOL     OW33331   4.240   0.880   7.962  0.0823  0.3544 -1.1026
 7233SOL    HW133332   4.177   0.940   8.002  1.2444 -0.5640  2.0777
 7233SOL    HW233333   4.203   0.795   7.938  1.8286 -0.7634  0.1603
 7234SOL     OW33334   4.603   0.161  15.856 -0.1403  0.9051 -0.3264
 7234SOL    HW133335   4.655   0.219  15.912 -0.0222 -1.1880  1.7564
 7234SOL    HW233336   4.563   0.218  15.792 -0.6723  1.5522  0.5848
 7235SOL     OW33337   2.624   4.139   9.584 -0.5786 -0.6043  0.1817
 7235SOL    HW133338   2.708   4.094   9.588 -0.0256  0.4190  0.2250
 7235SOL    HW233339   2.652   4.193   9.510 -0.4223  0.5879  1.1151
 7236SOL     OW33340   1.168   4.455   3.272 -0.0445  0.4717 -0.3109
 7236SOL    HW133341   1.118   4.384   3.311  0.6571  1.0286  1.6052
 7236SOL    HW233342   1.246   4.412   3.239 -1.1573 -2.3114  0.6897
 7237SOL     OW33343   4.410   3.356  10.399  0.4826  0.0788  0.2287
 7237SOL    HW133344   4.459   3.277  10.378  1.0738  0.3462  0.6256
 7237SOL    HW233345   4.435   3.407  10.322 -2.3228  1.6344  0.3306
 7238SOL     OW33346   2.780   0.811   6.704  0.0379  0.3049  0.3771
 7238SOL    HW133347   2.808   0.745   6.641 -1.4720 -0.1524  0.1910
 7238SOL    HW233348   2.833   0.888   6.682  1.9673 -1.8650 -2.5188
 7239SOL     OW33349   2.684   4.405   8.181  0.9888 -0.8503  0.3077
 7239SOL    HW133350   2.589   4.418   8.189  0.6840 -3.5381  1.0647
 7239SOL    HW233351   2.685   4.319   8.222  0.0464 -1.2334 -0.4666
 7240SOL     OW33352   1.599   3.801   6.304 -0.5101  0.6472  0.4525
 7240SOL    HW133353   1.693   3.782   6.294 -0.5620 -0.2150  1.5794
 7240SOL    HW233354   1.593   3.877   6.247  2.3887  0.1934 -0.4816
 7241SOL     OW33355   4.455   0.549  10.384  0.2708  0.0945 -0.2594
 7241SOL    HW133356   4.455   0.621  10.321 -1.8471  0.5424  0.2441
 7241SOL    HW233357   4.368   0.512  10.370  0.2020 -0.8445  2.7640
 7242SOL     OW33358   3.705   2.483   3.078 -0.5921  0.3901 -0.2499
 7242SOL    HW133359   3.798   2.503   3.076 -0.5967  0.4177 -0.1988
 7242SOL    HW233360   3.690   2.448   3.166 -3.5010  0.5441 -0.6566
 7243SOL     OW33361   0.919   1.485   3.289  0.1863  0.0162 -0.3388
 7243SOL    HW133362   0.881   1.565   3.253  0.7194 -0.4301 -1.8923
 7243SOL    HW233363   0.851   1.423   3.262 -0.4903  0.3640  0.5791
 7244SOL     OW33364   3.007   0.288  12.646 -0.4406  0.4713 -0.6268
 7244SOL    HW133365   2.967   0.336  12.574  0.4147  1.3731 -0.4985
 7244SOL    HW233366   3.079   0.341  12.679  0.8301 -0.9895 -1.0349
 7245SOL     OW33367   2.839   3.449   5.135 -0.3095 -0.1195 -0.5218
 7245SOL    HW133368   2.874   3.436   5.223 -0.6017 -1.5151 -0.6174
 7245SOL    HW233369   2.789   3.368   5.125 -1.7201  0.8181 -1.1547
 7246SOL     OW33370   2.142   4.705   8.589 -0.3419 -0.3702 -0.0379
 7246SOL    HW133371   2.090   0.047   8.608  2.1030  1.3345 -0.1861
 7246SOL    HW233372   2.227   0.005   8.616  0.2495 -1.2079 -0.8233
 7247SOL     OW33373   2.906   3.577   2.179  0.1079 -0.3966  0.5268
 7247SOL    HW133374   2.947   3.659   2.210 -1.9164  1.4069 -1.5532
 7247SOL    HW233375   2.814   3.603   2.170 -0.2312 -1.8969 -0.2696
 7248SOL     OW33376   3.524   0.446   1.107  0.5092  0.3145 -0.2503
 7248SOL    HW133377   3.473   0.365   1.106 -2.0365  1.9378 -0.8367
 7248SOL    HW233378   3.468   0.503   1.055 -0.4830  0.5721  1.0986
 7249SOL     OW33379   4.263   4.176   8.271 -0.5337  0.2435  0.1354
 7249SOL    HW133380   4.213   4.182   8.190  0.0165  0.0477 -0.2169
 7249SOL    HW233381   4.206   4.115   8.317  1.0643 -1.8411 -0.6605
 7250SOL     OW33382   2.624   2.465   3.016  0.3126  0.3573 -0.3167
 7250SOL    HW133383   2.621   2.386   3.070  0.6705  0.6891  0.1851
 7250SOL    HW233384   2.532   2.477   2.992  0.4017  0.4249 -0.6230
 7251SOL     OW33385   3.721   0.550   5.282  0.3036  0.5955  0.1013
 7251SOL    HW133386   3.752   0.563   5.192 -0.0013 -0.0362 -0.0912
 7251SOL    HW233387   3.691   0.459   5.278  1.8032  0.1280 -0.3888
 7252SOL     OW33388   4.578   0.178   3.939  0.3117 -0.2752 -0.2116
 7252SOL    HW133389   4.538   0.151   4.022  0.8422 -0.8311 -0.1322
 7252SOL    HW233390   4.535   0.115   3.880  0.5924 -0.0838 -0.6257
 7253SOL     OW33391   1.271   3.987   0.796 -0.1893 -0.3827 -0.4543
 7253SOL    HW133392   1.254   3.966   0.888 -2.2314  0.8849 -0.5363
 7253SOL    HW233393   1.278   3.902   0.752  0.1132  0.4491 -2.0261
 7254SOL     OW33394   4.537   1.083   5.861 -0.2544  0.5521 -0.2573
 7254SOL    HW133395   4.502   1.067   5.773  1.4541  0.0741 -0.8561
 7254SOL    HW233396   4.556   1.176   5.849 -2.8061  1.1225  0.1565
 7255SOL     OW33397   0.492   3.161   8.113 -0.0723 -0.4717 -0.3922
 7255SOL    HW133398   0.436   3.213   8.171  2.4394  0.0105  1.5925
 7255SOL    HW233399   0.511   3.220   8.040  1.0339  1.1145  1.1528
 7256SOL     OW33400   1.627   3.080  17.375  0.3112 -0.0610 -0.3102
 7256SOL    HW133401   1.584   2.996  17.361  1.7071 -0.9776  0.8334
 7256SOL    HW233402   1.643   3.098  17.282 -1.2795  0.2084 -0.5233
 7257SOL     OW33403   2.002   4.638  15.861  0.2029  0.6903 -0.1946
 7257SOL    HW133404   2.055   4.621  15.939 -1.1526  0.2995  0.6286
 7257SOL    HW233405   1.986   4.551  15.824 -0.5625  0.8304 -0.1843
 7258SOL     OW33406   3.354   2.605   4.410  0.8550  0.7138 -0.0210
 7258SOL    HW133407   3.425   2.605   4.345 -0.9013  1.3695 -1.9183
 7258SOL    HW233408   3.362   2.697   4.434 -0.8432  0.7194  0.4860
 7259SOL     OW33409   2.497   4.024  14.007  0.3724  0.1206  0.9519
 7259SOL    HW133410   2.504   4.058  14.096 -0.0974  0.4149  0.8763
 7259SOL    HW233411   2.554   3.948  14.002  0.9016  0.5683 -0.0201
 7260SOL     OW33412   0.590   0.494   8.244 -0.0798 -0.4093  0.2311
 7260SOL    HW133413   0.630   0.560   8.300 -0.7868  0.4973 -0.3337
 7260SOL    HW233414   0.581   0.538   8.159 -0.5451 -1.4738 -0.2746
 7261SOL     OW33415   4.164   0.996   3.009  0.5369  0.5285  0.2646
 7261SOL    HW133416   4.129   0.939   2.940 -0.4547  1.3906  0.0607
 7261SOL    HW233417   4.255   0.965   3.005  0.8586  1.3730  1.0879
 7262SOL     OW33418   3.129   2.356   2.725  0.0129 -0.1327 -0.9631
 7262SOL    HW133419   3.067   2.358   2.653 -0.6689  0.8262 -0.3528
 7262SOL    HW233420   3.203   2.306   2.691 -1.1469 -1.6781 -1.1723
 7263SOL     OW33421   1.283   2.353  17.673  0.1808 -0.2941  0.0428
 7263SOL    HW133422   1.305   2.315   0.016 -0.8617 -1.5848 -0.2609
 7263SOL    HW233423   1.296   2.285  17.607 -3.2265 -1.4383  0.5899
 7264SOL     OW33424   2.621   3.476   3.710  0.2511 -0.1178  0.2658
 7264SOL    HW133425   2.676   3.491   3.633  0.1456  1.9159  0.5799
 7264SOL    HW233426   2.676   3.406   3.746 -1.3852 -1.1907  0.6693
 7265SOL     OW33427   0.406   0.136   7.664 -0.3641  0.4648 -0.4240
 7265SOL    HW133428   0.388   0.147   7.570  1.2445 -1.2745 -0.9316
 7265SOL    HW233429   0.327   0.085   7.684  0.4049 -1.3900 -2.1666
 7266SOL     OW33430   1.784   2.756   1.154  0.0654  0.1379 -0.6248
 7266SOL    HW133431   1.813   2.791   1.070 -0.0006  0.9561 -0.3017
 7266SOL    HW233432   1.688   2.761   1.151 -0.0570 -1.5397  0.3879
 7267SOL     OW33433   4.715   0.568  13.230 -0.4576  0.3123  0.4037
 7267SOL    HW133434   4.632   0.520  13.235 -0.3349 -0.0617 -1.1199
 7267SOL    HW233435   4.681   0.646  13.274  2.0668  2.1950 -1.0077
 7268SOL     OW33436   4.082   1.116   0.522  0.2082 -0.1118 -0.1712
 7268SOL    HW133437   4.054   1.026   0.539  1.5283  0.2335  3.9199
 7268SOL    HW233438   4.162   1.127   0.574  0.6502  0.8286 -1.0573
 7269SOL     OW33439   4.453   2.882   2.559 -0.2761  0.2273 -0.5905
 7269SOL    HW133440   4.407   2.803   2.530  1.1855 -1.7702  2.4665
 7269SOL    HW233441   4.447   2.940   2.483  0.8024 -1.2585 -1.8137
 7270SOL     OW33442   2.895   4.155  11.486 -0.2661  0.3941 -0.0533
 7270SOL    HW133443   2.911   4.249  11.497  1.0153  0.1570  0.1543
 7270SOL    HW233444   2.924   4.115  11.568 -0.8427  1.0902  0.4928
 7271SOL     OW33445   0.690   4.499   6.784 -0.0744  0.4701  0.0372
 7271SOL    HW133446   0.662   4.412   6.756 -0.4941  1.0780 -1.4299
 7271SOL    HW233447   0.709   4.541   6.700 -1.0946  0.8078 -0.0198
 7272SOL     OW33448   3.145   3.327   4.313 -0.1251  0.4006 -0.1574
 7272SOL    HW133449   3.163   3.356   4.402 -2.0555  0.6088  0.1507
 7272SOL    HW233450   3.079   3.395   4.298 -1.2101 -1.2461 -2.9232
 7273SOL     OW33451   4.148   3.990  12.222 -0.6965 -0.8044  0.5838
 7273SOL    HW133452   4.181   4.047  12.291  0.3572  0.1750 -0.7144
 7273SOL    HW233453   4.128   4.053  12.152 -0.6022  0.4096  1.6497
 7274SOL     OW33454   1.460   3.484  10.175 -0.4405 -0.0228  0.2252
 7274SOL    HW133455   1.513   3.524  10.105  0.4890  0.0457  0.9566
 7274SOL    HW233456   1.486   3.397  10.145 -1.5230  0.5557 -2.4118
 7275SOL     OW33457   3.121   4.702  10.715 -0.1542  0.1656  0.4503
 7275SOL    HW133458   3.039   4.653  10.720 -0.1055  0.1561  1.1995
 7275SOL    HW233459   3.165   4.655  10.644  0.1452 -1.9006  1.9950
 7276SOL     OW33460   0.489   3.792   5.181  0.0551 -0.6537 -0.3379
 7276SOL    HW133461   0.529   3.874   5.151 -1.7396 -0.8672 -3.2910
 7276SOL    HW233462   0.417   3.789   5.118  0.2265  0.3246 -0.5850
 7277SOL     OW33463   0.598   1.783   7.453 -0.0268  0.5974  0.4175
 7277SOL    HW133464   0.670   1.847   7.446  1.2946 -0.6491  2.8282
 7277SOL    HW233465   0.545   1.826   7.520 -0.4881 -0.0301  0.4435
 7278SOL     OW33466   4.687   0.582  10.113 -0.4104  0.3050  0.2657
 7278SOL    HW133467   4.634   0.536  10.048 -0.4437 -2.1497  2.0175
 7278SOL    HW233468   4.622   0.635  10.160 -0.2676  1.7530 -1.1844
 7279SOL     OW33469   2.499   2.539  10.920 -0.0546  0.5407  0.0670
 7279SOL    HW133470   2.516   2.536  11.015  0.6734  2.2425 -0.0169
 7279SOL    HW233471   2.563   2.601  10.887  0.1160  0.7911  0.8581
 7280SOL     OW33472   0.813   0.739   8.012 -0.1738 -0.2504  0.1898
 7280SOL    HW133473   0.870   0.665   8.032  1.2934  0.2620 -2.0558
 7280SOL    HW233474   0.733   0.687   8.010  1.4944 -2.8230 -1.0495
 7281SOL     OW33475   0.799   0.997   7.422  0.3788 -0.3530 -0.2766
 7281SOL    HW133476   0.798   0.903   7.403 -0.6612 -0.6070  1.0180
 7281SOL    HW233477   0.866   0.997   7.490  0.8259 -0.7943 -0.7124
 7282SOL     OW33478   1.580   2.521   4.997 -0.2905  0.2772  0.2136
 7282SOL    HW133479   1.529   2.579   4.940  1.0813 -1.0340 -2.3339
 7282SOL    HW233480   1.636   2.585   5.041  1.1632 -1.2106  0.5222
 7283SOL     OW33481   1.970   4.221   7.308 -0.1557 -0.0738 -0.2294
 7283SOL    HW133482   1.915   4.290   7.271 -1.8075 -1.0443  0.4311
 7283SOL    HW233483   2.052   4.267   7.325 -0.5130 -0.0803  1.5229
 7284SOL     OW33484   1.166   1.454   5.202  0.3555 -0.6892  0.3549
 7284SOL    HW133485   1.212   1.424   5.124 -0.2680 -1.1324  0.1542
 7284SOL    HW233486   1.172   1.379   5.261 -2.0368 -0.8398  0.4311
 7285SOL     OW33487   0.495   1.461   1.185  0.3790  0.1970  0.0996
 7285SOL    HW133488   0.549   1.451   1.263  0.7976  0.2599 -0.1856
 7285SOL    HW233489   0.459   1.546   1.212 -0.7845 -0.2009 -0.1734
 7286SOL     OW33490   4.697   1.491   1.475 -0.0068 -0.5993 -0.5418
 7286SOL    HW133491   4.687   1.416   1.533  2.4166  0.1277  0.8058
 7286SOL    HW233492   4.713   1.566   1.531 -2.4317 -0.6958  0.2653
 7287SOL     OW33493   3.418   2.282   3.878 -0.5617 -0.4090  0.8199
 7287SOL    HW133494   3.324   2.277   3.893 -0.3540 -2.9491  1.2750
 7287SOL    HW233495   3.416   2.270   3.783 -1.5747  2.8432  0.4352
 7288SOL     OW33496   0.033   3.399   8.345 -0.1728  0.3950 -0.0089
 7288SOL    HW133497   0.021   3.404   8.251 -0.0815  1.7953  0.0544
 7288SOL    HW233498   4.687   3.353   8.362  0.0611 -0.5184 -1.4063
 7289SOL     OW33499   3.056   3.535   0.438 -0.0787 -0.5281 -0.3109
 7289SOL    HW133500   2.994   3.608   0.446 -0.2387 -0.7784  0.8595
 7289SOL    HW233501   3.128   3.567   0.384 -0.7772  1.6339  0.0213
 7290SOL     OW33502   0.578   0.489  10.723  0.1434 -0.6817 -0.7237
 7290SOL    HW133503   0.531   0.553  10.668  1.9705 -0.2427 -1.7869
 7290SOL    HW233504   0.512   0.435  10.767 -1.1027 -0.3476 -2.1636
 7291SOL     OW33505   2.875   3.422   3.109 -0.4114  0.3434 -0.0796
 7291SOL    HW133506   2.830   3.466   3.037 -0.7469  0.2982  0.1017
 7291SOL    HW233507   2.809   3.358   3.138  0.8014 -0.7665  0.2609
 7292SOL     OW33508   0.882   1.727   9.171 -0.4289  0.2074  0.2079
 7292SOL    HW133509   0.936   1.655   9.139  0.1245  0.5455  0.3971
 7292SOL    HW233510   0.888   1.793   9.103  0.4910 -0.2067 -0.1139
 7293SOL     OW33511   2.874   2.332  13.640 -0.0191  1.0096  0.1323
 7293SOL    HW133512   2.924   2.273  13.583 -1.1121 -0.1040  0.3420
 7293SOL    HW233513   2.897   2.418  13.605  0.0069  0.6693 -0.6941
 7294SOL     OW33514   2.750   3.188   5.328 -0.5744 -0.4452  0.8767
 7294SOL    HW133515   2.713   3.101   5.323  2.2498 -1.7863  2.8102
 7294SOL    HW233516   2.775   3.194   5.236 -2.4970 -0.4019  0.3748
 7295SOL     OW33517   0.575   3.158   6.257 -0.6090  0.5497 -0.7483
 7295SOL    HW133518   0.636   3.182   6.327 -2.1188  1.0134  0.4016
 7295SOL    HW233519   0.497   3.197   6.295 -0.7989 -1.6302  1.0752
 7296SOL     OW33520   1.180   3.062   3.531 -0.2701 -0.1937 -0.1889
 7296SOL    HW133521   1.252   3.101   3.580 -1.9252  3.3982 -0.5446
 7296SOL    HW233522   1.192   2.968   3.542 -0.7795 -0.2685 -0.2610
 7297SOL     OW33523   2.822   1.077   7.967 -0.2233 -0.4323 -0.1065
 7297SOL    HW133524   2.891   1.117   7.914  0.4148 -0.0738  0.9893
 7297SOL    HW233525   2.848   1.095   8.057 -0.1459 -0.4644 -0.1229
 7298SOL     OW33526   1.876   0.659   2.814  0.3716 -0.2611  0.3134
 7298SOL    HW133527   1.901   0.623   2.729 -0.5007  1.4806 -0.6837
 7298SOL    HW233528   1.931   0.737   2.822 -1.9136  1.5703 -1.6195
 7299SOL     OW33529   3.252   4.358  14.864 -0.1519  0.0059  0.4137
 7299SOL    HW133530   3.201   4.279  14.880  0.8678 -0.5575  0.7970
 7299SOL    HW233531   3.252   4.394  14.952  3.4410 -1.0600  0.8449
 7300SOL     OW33532   3.345   3.885   2.240 -0.1749  0.1546  0.0787
 7300SOL    HW133533   3.425   3.835   2.223 -0.1973 -0.0415  0.5289
 7300SOL    HW233534   3.275   3.850   2.185 -1.5333  0.5654  1.5448
 7301SOL     OW33535   2.465   4.564  16.471 -0.4887 -0.4702  0.5953
 7301SOL    HW133536   2.459   4.653  16.436 -0.3166 -1.0050 -0.7936
 7301SOL    HW233537   2.383   4.515  16.466 -1.2889  1.2178 -2.5839
 7302SOL     OW33538   2.163   1.328   5.961 -0.3206 -0.4916  0.4839
 7302SOL    HW133539   2.109   1.250   5.954 -0.7939 -0.0800 -0.4698
 7302SOL    HW233540   2.233   1.289   6.013 -0.6210 -1.8539 -0.1291
 7303SOL     OW33541   2.900   1.274   6.722 -0.3322 -0.0348  0.1545
 7303SOL    HW133542   2.979   1.325   6.703 -0.3141 -0.3030 -0.4866
 7303SOL    HW233543   2.878   1.304   6.810 -0.7966 -2.1413  0.7431
 7304SOL     OW33544   2.739   4.086  10.249 -0.2596  0.7770 -0.3684
 7304SOL    HW133545   2.798   4.151  10.210  1.6848 -1.8433 -1.7703
 7304SOL    HW233546   2.685   4.052  10.178 -0.3784  1.4567 -0.6042
 7305SOL     OW33547   0.325   2.234   2.690  0.2069 -0.2682 -0.6075
 7305SOL    HW133548   0.419   2.240   2.674  0.1814 -1.9613 -1.4619
 7305SOL    HW233549   0.300   2.146   2.719 -0.9693  0.0254 -0.7148
 7306SOL     OW33550   1.519   0.218  12.206 -0.2701  0.6799 -0.8564
 7306SOL    HW133551   1.512   0.303  12.249 -2.8595 -0.7506  1.5722
 7306SOL    HW233552   1.437   0.212  12.158 -1.3752  2.1686  0.8376
 7307SOL     OW33553   1.002   4.130   2.042 -0.0914 -0.6305 -0.1169
 7307SOL    HW133554   0.933   4.066   2.021 -0.5493 -0.2663  0.2778
 7307SOL    HW233555   1.069   4.089   2.096 -0.1608  0.2376  0.6220
 7308SOL     OW33556   1.753   4.250   5.649  0.6713  0.1027 -0.1528
 7308SOL    HW133557   1.791   4.306   5.581  1.5332  1.2575  1.2895
 7308SOL    HW233558   1.784   4.301   5.723 -3.8002  0.8356  1.2136
 7309SOL     OW33559   2.021   3.071   7.573  0.0400  0.0286 -0.0735
 7309SOL    HW133560   2.006   3.118   7.656 -0.3373 -1.6233  0.7902
 7309SOL    HW233561   1.987   3.128   7.504 -0.6537 -0.4578 -0.1383
 7310SOL     OW33562   2.384   0.849  11.716 -0.1056  0.1925 -0.0656
 7310SOL    HW133563   2.337   0.769  11.692 -1.0718  0.3139  1.4059
 7310SOL    HW233564   2.385   0.884  11.627  1.7927 -0.7714 -0.4165
 7311SOL     OW33565   0.124   2.147   7.303  0.2452 -0.3818 -0.3805
 7311SOL    HW133566   0.085   2.193   7.228 -0.3860 -0.1022  0.1254
 7311SOL    HW233567   0.167   2.222   7.344  0.0218  0.0794 -0.9729
 7312SOL     OW33568   4.527   3.201   6.026 -0.0611  0.4986  0.6615
 7312SOL    HW133569   4.578   3.280   6.046  0.4840  1.1527 -3.2261
 7312SOL    HW233570   4.570   3.171   5.945  0.2479  0.8992  0.6749
 7313SOL     OW33571   2.738   2.912   8.048  0.1581 -0.0925 -0.0110
 7313SOL    HW133572   2.643   2.920   8.045  0.2521  0.4996 -1.7420
 7313SOL    HW233573   2.760   2.900   8.140 -0.1861  3.4435  0.5346
 7314SOL     OW33574   4.666   2.758  10.331  0.0327  0.4076 -0.5693
 7314SOL    HW133575   4.605   2.822  10.370  1.9048  1.2497  0.9437
 7314SOL    HW233576   4.712   2.711  10.400 -0.9426  2.4420  1.4646
 7315SOL     OW33577   1.085   0.604  16.242 -0.3320  0.3514 -0.2347
 7315SOL    HW133578   1.138   0.618  16.320  2.1949  0.3182 -1.9415
 7315SOL    HW233579   1.028   0.528  16.254  0.9285 -0.6008 -0.2219
 7316SOL     OW33580   0.700   1.615  15.312  0.4183 -0.1340  0.0951
 7316SOL    HW133581   0.795   1.621  15.302  0.4101  0.7763  0.5551
 7316SOL    HW233582   0.696   1.607  15.407 -0.5411  0.3672  0.0930
 7317SOL     OW33583   1.860   3.669  14.679 -0.5451 -0.4975  0.3864
 7317SOL    HW133584   1.943   3.700  14.643  0.5584 -2.0195  1.6295
 7317SOL    HW233585   1.812   3.752  14.671 -1.0294 -1.0713 -2.6979
 7318SOL     OW33586   4.378   0.771   2.756 -0.4243  0.0976 -0.3098
 7318SOL    HW133587   4.436   0.760   2.831 -0.1059 -1.6683 -0.8135
 7318SOL    HW233588   4.397   0.859   2.721 -1.8498  1.6291  2.7467
 7319SOL     OW33589   4.690   2.293   9.572  0.7231 -0.0858 -0.4161
 7319SOL    HW133590   4.632   2.230   9.530  0.6104  0.1354 -0.5932
 7319SOL    HW233591   4.640   2.310   9.652 -0.1276  3.2202 -1.6628
 7320SOL     OW33592   0.923   2.398   3.396  0.5281 -0.0307  0.1160
 7320SOL    HW133593   0.984   2.384   3.324 -0.2032  1.3096 -0.7777
 7320SOL    HW233594   0.878   2.481   3.381 -1.0268 -1.2939 -2.2137
 7321SOL     OW33595   4.630   2.847   8.677 -0.2082  0.2143  0.0800
 7321SOL    HW133596   4.652   2.938   8.697 -1.6437  1.0246 -2.0347
 7321SOL    HW233597   4.719   2.812   8.670 -0.6384 -0.8238 -0.2141
 7322SOL     OW33598   1.106   1.912   2.702  0.5032  0.0714  0.1784
 7322SOL    HW133599   1.124   1.997   2.661  2.5054 -0.5243 -0.1513
 7322SOL    HW233600   1.088   1.857   2.626 -2.2628 -1.0183  1.6158
 7323SOL     OW33601   3.935   3.197   7.669  0.1304 -0.0963  0.0250
 7323SOL    HW133602   3.862   3.159   7.718 -0.3664  0.1775 -0.5185
 7323SOL    HW233603   3.947   3.115   7.620  0.9131  0.2859 -0.4203
 7324SOL     OW33604   2.494   0.554   7.644 -0.1124  0.7928 -0.1499
 7324SOL    HW133605   2.486   0.465   7.677 -0.2879  0.2028 -1.7940
 7324SOL    HW233606   2.574   0.554   7.592 -0.2639  1.5738 -0.3887
 7325SOL     OW33607   3.148   0.008  11.531  0.5452  0.1274  0.9181
 7325SOL    HW133608   3.207   0.075  11.498  0.5557  0.9007  2.4816
 7325SOL    HW233609   3.192   4.722  11.613 -1.2681  1.0341  2.1475
 7326SOL     OW33610   4.385   4.611  16.833 -0.0397 -0.3928 -0.5929
 7326SOL    HW133611   4.409   4.693  16.790 -0.9750  0.6302  0.8682
 7326SOL    HW233612   4.359   4.642  16.920  0.1602 -0.9625 -0.3287
 7327SOL     OW33613   2.188   3.155  13.160  0.1311 -0.0846 -0.2077
 7327SOL    HW133614   2.232   3.095  13.220  0.4959 -1.3898 -1.7815
 7327SOL    HW233615   2.248   3.228  13.151  0.7199 -0.5214  0.1589
 7328SOL     OW33616   2.530   2.180   2.125  0.2034  0.1644  0.2659
 7328SOL    HW133617   2.442   2.171   2.162  0.3379 -2.3283 -0.0791
 7328SOL    HW233618   2.566   2.097   2.156 -2.6470 -2.2025 -2.8783
 7329SOL     OW33619   2.457   4.302  13.631 -0.4629  0.0613  0.4179
 7329SOL    HW133620   2.462   4.289  13.537 -0.8403  0.3412  0.3604
 7329SOL    HW233621   2.524   4.251  13.676 -0.7144 -0.7423 -0.1179
 7330SOL     OW33622   1.973   1.081  11.981  0.3714  0.3740  0.5715
 7330SOL    HW133623   2.039   1.064  12.048 -0.4610 -4.0052  0.2383
 7330SOL    HW233624   1.887   1.065  12.019  0.2254  1.0719  0.5506
 7331SOL     OW33625   1.505   2.262   5.755  0.8265  0.6526 -0.0640
 7331SOL    HW133626   1.483   2.210   5.677 -3.2519  0.4010  1.2641
 7331SOL    HW233627   1.497   2.350   5.719 -1.9539 -0.0460 -1.1335
 7332SOL     OW33628   4.674   4.132   3.193 -0.3759 -0.8621  0.4430
 7332SOL    HW133629   4.609   4.201   3.180 -1.0954 -1.1302  2.7243
 7332SOL    HW233630   0.005   4.148   3.125 -0.7271 -0.2689  0.2414
 7333SOL     OW33631   1.470   3.876   7.114 -0.2399  0.3013 -0.3003
 7333SOL    HW133632   1.508   3.836   7.036  1.9402  0.6240  0.5961
 7333SOL    HW233633   1.504   3.815   7.180  2.5592 -0.0009 -2.0148
 7334SOL     OW33634   4.589   0.324  14.018  0.1098 -0.3165 -0.1158
 7334SOL    HW133635   4.667   0.333  13.964  0.5633  3.1040  1.0786
 7334SOL    HW233636   4.620   0.377  14.091  1.0621 -0.6799 -0.2617
 7335SOL     OW33637   3.739   4.175   8.773 -0.7034  0.2074 -0.4748
 7335SOL    HW133638   3.669   4.233   8.742 -0.3873 -0.0291 -1.6583
 7335SOL    HW233639   3.791   4.236   8.825  1.6762 -1.1847 -1.2218
 7336SOL     OW33640   3.565   1.423  11.619  0.0431 -0.2591 -0.0963
 7336SOL    HW133641   3.590   1.345  11.669  0.5500  0.5090  0.8567
 7336SOL    HW233642   3.650   1.438  11.578  0.1990  0.8870  0.6390
 7337SOL     OW33643   2.282   0.673   2.853 -0.3507  0.3176 -0.3470
 7337SOL    HW133644   2.224   0.749   2.847  0.4405  0.8865 -0.7956
 7337SOL    HW233645   2.244   0.611   2.792 -1.2082  0.1191  0.3859
 7338SOL     OW33646   4.410   1.214   1.467  0.2448  0.4477  0.6009
 7338SOL    HW133647   4.414   1.167   1.383  2.3303  1.2347  0.2676
 7338SOL    HW233648   4.431   1.142   1.527  0.6073  1.3032  1.4854
 7339SOL     OW33649   4.474   0.193   8.112  0.3064  0.2737 -0.0832
 7339SOL    HW133650   4.484   0.245   8.192 -2.2293  0.9035 -0.1691
 7339SOL    HW233651   4.561   0.205   8.074  0.7048  0.6715  0.9671
 7340SOL     OW33652   3.878   4.432  12.375  0.1263  0.7663  0.1072
 7340SOL    HW133653   3.798   4.379  12.379  0.3478  0.4616  0.5061
 7340SOL    HW233654   3.840   4.519  12.381  0.5401  0.9503  0.0575
 7341SOL     OW33655   2.001   3.022   5.132  0.5873 -0.2063 -0.6132
 7341SOL    HW133656   2.022   2.945   5.185  0.5753  0.5149  0.4479
 7341SOL    HW233657   2.063   3.087   5.164 -1.4112  1.5643 -0.3375
 7342SOL     OW33658   1.772   2.904   7.859  0.0080 -0.1117 -0.1840
 7342SOL    HW133659   1.761   2.816   7.896  0.1760  0.4906  1.2874
 7342SOL    HW233660   1.695   2.920   7.803  0.9165  1.5025 -0.9716
 7343SOL     OW33661   2.143   3.073  12.292 -0.5394  0.1309  0.7084
 7343SOL    HW133662   2.222   3.020  12.282 -1.4657 -1.2836  0.9530
 7343SOL    HW233663   2.076   3.007  12.306 -0.5757 -0.0776 -0.4288
 7344SOL     OW33664   4.223   1.148   4.436  0.0013  0.2008 -0.4460
 7344SOL    HW133665   4.253   1.161   4.346  1.5713  0.1601  0.0582
 7344SOL    HW233666   4.184   1.235   4.446 -0.6849 -0.1986  0.3222
 7345SOL     OW33667   3.545   2.792   6.538 -0.1359  0.0529 -0.6121
 7345SOL    HW133668   3.510   2.704   6.553  0.8454  0.3937  3.5870
 7345SOL    HW233669   3.490   2.832   6.470 -1.2037 -1.2589 -0.5253
 7346SOL     OW33670   4.074   3.511  11.310  0.1299 -0.4657 -0.4647
 7346SOL    HW133671   4.147   3.493  11.370 -0.6520 -1.4541  0.1924
 7346SOL    HW233672   4.027   3.582  11.354 -2.2673 -2.0924 -0.4338
 7347SOL     OW33673   1.195   4.202  17.158  0.0044  0.3900 -0.5477
 7347SOL    HW133674   1.245   4.261  17.213  0.5320 -1.7599  1.2767
 7347SOL    HW233675   1.171   4.138  17.224  0.4021 -0.7381 -1.4876
 7348SOL     OW33676   3.519   0.472   1.383  0.0870 -0.1247 -0.3805
 7348SOL    HW133677   3.427   0.493   1.398  0.7369  1.6770  1.0629
 7348SOL    HW233678   3.531   0.480   1.289  2.6767  2.4809  0.1551
 7349SOL     OW33679   4.494   1.021  15.339  0.0559 -0.0016  0.7873
 7349SOL    HW133680   4.489   1.091  15.275 -0.6481 -0.0897  0.7524
 7349SOL    HW233681   4.557   0.964  15.295 -1.2260  0.0538 -1.1362
 7350SOL     OW33682   0.720   1.604   6.663  0.5784  0.8090 -0.0914
 7350SOL    HW133683   0.689   1.634   6.748  0.3922 -0.9770  0.4549
 7350SOL    HW233684   0.685   1.668   6.601  0.4485 -1.0584 -1.9618
 7351SOL     OW33685   0.301   3.421  10.569 -0.6171  0.0099  0.1319
 7351SOL    HW133686   0.297   3.516  10.562 -1.1292  0.1083  1.6781
 7351SOL    HW233687   0.208   3.404  10.581 -0.4297 -0.9562  0.2243
 7352SOL     OW33688   0.343   3.202   6.442  0.2544 -0.1071  0.4223
 7352SOL    HW133689   0.248   3.205   6.444  0.3250  2.1125  0.0753
 7352SOL    HW233690   0.369   3.271   6.503  2.6587 -0.2253 -0.4710
 7353SOL     OW33691   2.080   1.712   3.825  0.1346 -0.3908 -0.8593
 7353SOL    HW133692   2.105   1.762   3.748 -1.6312 -0.0550 -1.2094
 7353SOL    HW233693   2.054   1.627   3.789 -0.0489 -0.0125 -1.6039
 7354SOL     OW33694   2.930   2.606   6.316 -0.4000  0.3699 -0.0755
 7354SOL    HW133695   2.966   2.626   6.230  0.9287  1.0210  0.6316
 7354SOL    HW233696   2.845   2.650   6.316 -0.7948 -0.3873 -0.6294
 7355SOL     OW33697   3.524   3.913   6.454  0.6041 -0.5214  0.3291
 7355SOL    HW133698   3.587   3.947   6.518 -1.1584  1.1200  1.1643
 7355SOL    HW233699   3.501   3.986   6.396  3.2561 -0.2576 -0.4052
 7356SOL     OW33700   2.154   2.579   2.810  0.4991  0.0418 -0.1909
 7356SOL    HW133701   2.061   2.558   2.821  0.4405  0.3723 -0.0281
 7356SOL    HW233702   2.157   2.675   2.811  1.3003  0.0119  1.9531
 7357SOL     OW33703   1.374   1.222   7.555  0.5502 -0.1936 -0.0828
 7357SOL    HW133704   1.310   1.250   7.620 -0.2364 -0.1579 -0.8835
 7357SOL    HW233705   1.403   1.142   7.598  1.9671  1.2406  1.6436
 7358SOL     OW33706   1.234   0.047  11.580 -0.7101  0.2105  0.0544
 7358SOL    HW133707   1.172   4.710  11.581  1.2855 -1.5193 -0.8563
 7358SOL    HW233708   1.212   0.101  11.655 -0.2444 -1.1118  1.1433
 7359SOL     OW33709   1.052   3.536   4.331  0.1521  0.2607 -0.0377
 7359SOL    HW133710   1.028   3.449   4.301  0.8826 -0.2985  1.0305
 7359SOL    HW233711   1.146   3.520   4.323 -0.1758 -0.8990 -1.6720
 7360SOL     OW33712   2.110   0.081  12.118 -0.4958  0.2426  0.5220
 7360SOL    HW133713   2.016   0.082  12.139 -0.5004  0.2376  0.5016
 7360SOL    HW233714   2.115   0.059  12.025  1.3917  0.5141  0.5610
 7361SOL     OW33715   0.246   3.115  12.293  0.5077  0.1853 -0.1333
 7361SOL    HW133716   0.217   3.169  12.366 -0.2044 -0.3137 -0.0429
 7361SOL    HW233717   0.273   3.032  12.332  0.5390 -0.9111 -2.4854
 7362SOL     OW33718   0.301   2.996   5.666  0.0903  0.2025  0.1660
 7362SOL    HW133719   0.280   3.032   5.752 -0.7375  2.2548 -0.9102
 7362SOL    HW233720   0.274   3.066   5.607  1.0840 -0.0910 -0.6326
 7363SOL     OW33721   2.414   2.029   7.555  0.0423  0.1172  0.2655
 7363SOL    HW133722   2.385   2.114   7.590  0.4737  0.1663  0.5150
 7363SOL    HW233723   2.446   2.058   7.470 -0.3608 -0.1313  0.0316
 7364SOL     OW33724   1.995   3.822   2.947 -0.5027 -0.0807 -0.0756
 7364SOL    HW133725   1.912   3.781   2.973 -0.8686 -0.3753 -1.6896
 7364SOL    HW233726   2.037   3.759   2.887 -1.3145  0.7167 -1.4836
 7365SOL     OW33727   0.486   2.158   5.732 -0.0231 -0.4887 -0.0463
 7365SOL    HW133728   0.578   2.136   5.719  0.4215  2.7245 -2.4083
 7365SOL    HW233729   0.505   2.238   5.781  1.4601 -2.4569  2.5845
 7366SOL     OW33730   3.432   3.735   2.862  0.3167  1.2001 -0.0346
 7366SOL    HW133731   3.513   3.759   2.819  0.9560  1.2808  1.2116
 7366SOL    HW233732   3.387   3.819   2.861 -0.2535  0.9000 -0.0475
 7367SOL     OW33733   4.139   1.107  15.094  0.1097  0.5498 -0.3723
 7367SOL    HW133734   4.137   1.170  15.166  0.0906  1.1468 -0.8911
 7367SOL    HW233735   4.158   1.028  15.144  0.9551 -0.0742 -1.6801
 7368SOL     OW33736   1.228   3.293  12.054 -0.3992  0.2359 -0.6150
 7368SOL    HW133737   1.275   3.268  11.974  1.3195  0.1325  0.4327
 7368SOL    HW233738   1.296   3.351  12.087  0.7976  0.8793 -4.2559
 7369SOL     OW33739   2.818   3.500   8.313  0.8272  0.4090  0.1067
 7369SOL    HW133740   2.761   3.575   8.298  2.1830  1.7088  1.3850
 7369SOL    HW233741   2.765   3.434   8.358 -0.3165  1.3844  0.1863
 7370SOL     OW33742   1.551   4.395  15.929 -0.3431  0.0675  0.5030
 7370SOL    HW133743   1.614   4.325  15.911 -1.4571 -1.0245  0.8194
 7370SOL    HW233744   1.505   4.359  16.004  0.3905  0.4012  1.1096
 7371SOL     OW33745   3.591   2.955   3.704  0.0872 -0.2770 -0.1035
 7371SOL    HW133746   3.639   3.025   3.660  0.4510  0.7547  1.9408
 7371SOL    HW233747   3.536   2.916   3.636 -1.4496  1.3038  0.2315
 7372SOL     OW33748   1.951   2.874  10.505  0.3590  0.2733  0.1264
 7372SOL    HW133749   1.949   2.793  10.556  0.8304  1.4497  2.0047
 7372SOL    HW233750   1.995   2.920  10.576 -1.0785  0.6812  0.7382
 7373SOL     OW33751   3.101   2.989  16.588 -0.2930  0.0411  0.0581
 7373SOL    HW133752   3.179   2.983  16.532 -0.3792  1.3192 -0.1991
 7373SOL    HW233753   3.047   2.996  16.509  1.5358  0.6669 -1.1307
 7374SOL     OW33754   1.647   1.548   8.158  0.1170  0.4847 -0.6036
 7374SOL    HW133755   1.728   1.531   8.108 -0.5013  0.4862 -1.5982
 7374SOL    HW233756   1.617   1.632   8.124  0.7102  1.1413  0.4902
 7375SOL     OW33757   2.138   3.070   7.152 -0.1015  0.4138 -0.7152
 7375SOL    HW133758   2.158   3.120   7.231  1.8005  0.5938 -1.3131
 7375SOL    HW233759   2.042   3.070   7.150 -0.1239 -0.7831  0.7426
 7376SOL     OW33760   0.330   1.175   8.830  0.4360  0.1623 -0.4726
 7376SOL    HW133761   0.272   1.234   8.879 -0.9982  0.6628 -2.7142
 7376SOL    HW233762   0.333   1.091   8.875 -0.6050  0.1977 -0.3414
 7377SOL     OW33763   2.907   3.801   4.274  0.4488  0.3456 -0.4120
 7377SOL    HW133764   2.868   3.836   4.194 -0.3317 -0.0150 -0.1901
 7377SOL    HW233765   2.916   3.879   4.329  0.5170 -0.7083  1.0673
 7378SOL     OW33766   4.567   0.104   8.756  0.4536 -0.4254  0.9062
 7378SOL    HW133767   4.605   0.023   8.723 -0.9110 -0.3713 -0.7837
 7378SOL    HW233768   4.639   0.145   8.804 -1.0457 -0.1622  2.9355
 7379SOL     OW33769   2.772   3.741  11.424  0.9354  0.2523  1.0109
 7379SOL    HW133770   2.789   3.647  11.418  0.7747  0.1796  1.6878
 7379SOL    HW233771   2.861   3.768  11.444  0.3824  0.9524  2.5194
 7380SOL     OW33772   2.455   1.668   7.461 -0.4989  0.2870  0.4214
 7380SOL    HW133773   2.394   1.617   7.408 -1.1663  0.0894  1.3792
 7380SOL    HW233774   2.457   1.613   7.539  0.5116 -0.3918 -0.0885
 7381SOL     OW33775   1.419   2.502   6.571  0.5010 -0.0643  0.1424
 7381SOL    HW133776   1.475   2.442   6.620 -4.5524 -1.8154  3.6930
 7381SOL    HW233777   1.457   2.504   6.483  0.2272 -0.5580  0.0142
 7382SOL     OW33778   0.875   4.286   3.839  0.4276 -0.4350 -0.0783
 7382SOL    HW133779   0.788   4.322   3.855 -0.5083 -1.9867 -1.6769
 7382SOL    HW233780   0.920   4.315   3.918 -0.6503  0.8280  0.0709
 7383SOL     OW33781   3.018   2.730  14.208 -0.4696 -0.6135  0.0480
 7383SOL    HW133782   3.000   2.637  14.192 -0.8506 -1.0396  2.9647
 7383SOL    HW233783   3.047   2.728  14.299  1.7491  4.1430 -0.5643
 7384SOL     OW33784   0.379   1.714  16.688 -0.0295  0.5677 -0.2429
 7384SOL    HW133785   0.471   1.686  16.683 -0.0276  0.9436 -2.1549
 7384SOL    HW233786   0.383   1.773  16.612  1.8071  1.0166  0.1943
 7385SOL     OW33787   4.515   1.390  11.769  0.0409  0.4378 -0.4720
 7385SOL    HW133788   4.586   1.437  11.726  0.9351 -0.3119  0.1921
 7385SOL    HW233789   4.484   1.343  11.691 -1.8959 -2.5666  2.1502
 7386SOL     OW33790   2.200   0.090   7.475 -0.0758 -0.0835 -0.2057
 7386SOL    HW133791   2.216   0.074   7.568 -1.0939 -0.9329 -0.1809
 7386SOL    HW233792   2.124   0.149   7.477  0.6505  0.8668 -0.3604
 7387SOL     OW33793   4.676   0.096   1.543  0.5126 -0.5090 -0.8281
 7387SOL    HW133794   4.674   0.096   1.447  0.4249  1.5444 -0.8111
 7387SOL    HW233795   4.635   0.179   1.564  0.0535 -0.7526 -0.7582
 7388SOL     OW33796   3.348   4.091  15.512  0.4404  0.3843 -0.3699
 7388SOL    HW133797   3.389   4.015  15.469  1.0334  1.6500 -2.0193
 7388SOL    HW233798   3.380   4.093  15.602 -0.1726 -0.4555 -0.1312
 7389SOL     OW33799   0.091   1.011  17.121 -0.2801  0.3043 -0.5285
 7389SOL    HW133800   0.115   1.101  17.146  1.7573  0.4482 -2.9124
 7389SOL    HW233801   0.182   0.987  17.102 -1.2798 -3.9994  0.2968
 7390SOL     OW33802   2.126   2.673   4.400 -0.0804  0.3721 -0.4950
 7390SOL    HW133803   2.139   2.597   4.458 -0.8910  0.6359  0.0344
 7390SOL    HW233804   2.090   2.627   4.324 -0.2734 -2.7563  1.4708
 7391SOL     OW33805   3.067   4.396   4.826 -0.5291 -0.9310  0.4778
 7391SOL    HW133806   3.046   4.458   4.897 -1.1946 -2.1706  1.3597
 7391SOL    HW233807   3.065   4.310   4.868  0.5162 -1.7654 -1.1878
 7392SOL     OW33808   3.754   0.588  10.042  0.0204  0.1489 -0.0470
 7392SOL    HW133809   3.685   0.604  10.107  1.5680  0.7008  1.4607
 7392SOL    HW233810   3.739   0.653   9.973  0.2366  0.3382  0.0836
 7393SOL     OW33811   1.545   0.007   6.180  0.0080 -0.5446 -0.6563
 7393SOL    HW133812   1.488   4.689   6.235 -2.3360  3.0203  0.4332
 7393SOL    HW233813   1.614   0.032   6.241 -0.5440  1.3106 -0.7960
 7394SOL     OW33814   0.658   3.453  16.296 -0.6513  0.7307 -0.0627
 7394SOL    HW133815   0.608   3.372  16.308  1.9468 -0.9650 -0.9099
 7394SOL    HW233816   0.710   3.449  16.376  1.3531 -1.2422 -1.4721
 7395SOL     OW33817   4.261   2.862  15.772  0.6908 -0.0028  0.6813
 7395SOL    HW133818   4.198   2.810  15.821 -0.1384 -1.0154 -1.4781
 7395SOL    HW233819   4.205   2.884  15.698  2.5773  1.2804 -0.3501
 7396SOL     OW33820   3.452   0.422   8.689  0.2139  0.4728 -0.1262
 7396SOL    HW133821   3.522   0.417   8.754 -1.6474 -0.8494  1.7871
 7396SOL    HW233822   3.404   0.339   8.695 -0.8772  1.1870  1.2117
 7397SOL     OW33823   2.987   2.002   8.902 -0.3107  0.8493 -0.8209
 7397SOL    HW133824   2.893   1.987   8.892  0.2037 -3.0504 -0.0084
 7397SOL    HW233825   3.031   1.936   8.850  0.8915  2.1742 -1.4667
 7398SOL     OW33826   1.378   3.408   3.954 -0.7316  0.2104  0.3094
 7398SOL    HW133827   1.315   3.410   3.881 -0.8488 -1.1916  0.3727
 7398SOL    HW233828   1.452   3.369   3.908  0.3526  1.1696  1.2394
 7399SOL     OW33829   3.127   2.999   9.642 -0.2910  0.5353 -0.3609
 7399SOL    HW133830   3.045   2.986   9.689 -1.4867 -0.3194 -2.6921
 7399SOL    HW233831   3.093   3.036   9.561 -1.6616  3.0859  1.3818
 7400SOL     OW33832   2.388   3.511  17.187 -0.7834 -0.1052  0.1164
 7400SOL    HW133833   2.451   3.580  17.168 -1.0110 -0.2108 -1.0028
 7400SOL    HW233834   2.424   3.446  17.126 -0.4533  0.7364 -0.5851
 7401SOL     OW33835   2.981   0.055   0.628  0.7665 -0.3692  0.2014
 7401SOL    HW133836   2.963   0.064   0.721  2.7577  2.0558  0.3559
 7401SOL    HW233837   2.899   0.020   0.593 -1.2395  2.8862  1.6063
 7402SOL     OW33838   1.837   3.264   2.854 -0.4103  0.7706 -0.2140
 7402SOL    HW133839   1.911   3.235   2.801 -2.8842  0.1454 -3.3137
 7402SOL    HW233840   1.763   3.231   2.804  0.1381  0.4039 -0.7832
 7403SOL     OW33841   1.905   1.525  16.423  0.1910 -0.3427 -0.7017
 7403SOL    HW133842   1.929   1.544  16.332  0.0462  0.8260 -0.5025
 7403SOL    HW233843   1.896   1.430  16.420 -0.1925 -0.4132  2.2728
 7404SOL     OW33844   1.523   2.889   1.867 -0.8941  0.2144 -0.0004
 7404SOL    HW133845   1.492   2.951   1.801 -0.1796  1.1076  0.5096
 7404SOL    HW233846   1.585   2.830   1.823 -0.2841  0.8170  0.0545
 7405SOL     OW33847   4.435   1.086   1.193 -0.2490 -0.2342  0.4011
 7405SOL    HW133848   4.392   1.131   1.120 -1.6830 -0.6344  0.9939
 7405SOL    HW233849   4.365   1.020   1.199  0.7795 -1.3997 -0.4606
 7406SOL     OW33850   4.088   4.556  15.232  0.2060  0.1400  0.2930
 7406SOL    HW133851   4.072   4.511  15.149 -0.9342 -2.4041  1.8984
 7406SOL    HW233852   4.177   4.589  15.218  1.6473 -4.7229 -1.9870
 7407SOL     OW33853   2.858   0.632   4.332  0.4167  0.1083 -0.0317
 7407SOL    HW133854   2.775   0.629   4.381 -1.1273 -1.1114 -2.6952
 7407SOL    HW233855   2.915   0.680   4.392  0.5360 -0.3526  0.2267
 7408SOL     OW33856   2.350   0.034   5.306 -0.4884  0.3908 -0.9125
 7408SOL    HW133857   2.394   0.094   5.366 -1.7749  0.8544 -0.4372
 7408SOL    HW233858   2.388   0.065   5.224 -0.4647 -0.4657 -1.2279
 7409SOL     OW33859   1.201   4.221   8.647 -0.2662  0.2168  0.4182
 7409SOL    HW133860   1.153   4.292   8.689  1.8799  1.9113  0.0235
 7409SOL    HW233861   1.277   4.255   8.695 -0.8010  1.0276  0.6907
 7410SOL     OW33862   2.246   3.736   8.141  0.4194 -0.0284  0.1534
 7410SOL    HW133863   2.290   3.668   8.091  0.1518 -0.0762 -0.0198
 7410SOL    HW233864   2.160   3.733   8.098 -0.7026 -0.4592  2.3931
 7411SOL     OW33865   3.105   0.582   9.625 -0.6099 -0.5858 -0.5551
 7411SOL    HW133866   3.095   0.665   9.672  0.1233  0.0283 -1.4818
 7411SOL    HW233867   3.020   0.537   9.629 -1.5283  1.3103  1.1171
 7412SOL     OW33868   0.877   4.464   2.554  0.0632 -0.5598 -0.9451
 7412SOL    HW133869   0.818   4.492   2.624  0.3693 -0.9605 -0.5273
 7412SOL    HW233870   0.829   4.388   2.521 -0.3138 -0.7822  0.1130
 7413SOL     OW33871   4.004   2.344   1.868  0.0075 -0.0475  0.5612
 7413SOL    HW133872   4.062   2.269   1.885  0.2147  0.1946  0.9163
 7413SOL    HW233873   3.959   2.310   1.791  0.2140 -1.8840  1.2426
 7414SOL     OW33874   0.648   4.561   9.432  0.5370  0.0446  0.1447
 7414SOL    HW133875   0.612   4.625   9.493 -0.5006 -0.8886  0.4929
 7414SOL    HW233876   0.567   4.526   9.396  1.3477  1.0521 -2.6734
 7415SOL     OW33877   4.072   3.630   4.032  0.7264  0.1988 -0.0701
 7415SOL    HW133878   4.117   3.557   4.076  0.6208 -0.2675 -0.7466
 7415SOL    HW233879   4.041   3.578   3.959  0.7431  0.5789 -0.3493
 7416SOL     OW33880   0.947   4.333  11.744  0.1255  0.2436  0.1804
 7416SOL    HW133881   0.990   4.375  11.670  0.6002 -0.2798  0.1613
 7416SOL    HW233882   0.955   4.399  11.814 -0.1932 -0.3037  0.7354
 7417SOL     OW33883   1.585   3.923  17.710 -0.0942  0.4676  0.7136
 7417SOL    HW133884   1.546   4.002   0.005  3.5034  2.5398  0.0476
 7417SOL    HW233885   1.672   3.950  17.738 -0.2575 -2.6657  4.2649
 7418SOL     OW33886   1.399   2.362   5.162  0.0020  0.0258  0.1584
 7418SOL    HW133887   1.439   2.398   5.083  0.7881 -0.0613  0.5213
 7418SOL    HW233888   1.404   2.441   5.215 -0.5585 -0.6055  1.1460
 7419SOL     OW33889   0.676   2.243   6.292  0.1346 -0.0092 -0.1030
 7419SOL    HW133890   0.733   2.204   6.358  1.7919 -0.1020 -1.6060
 7419SOL    HW233891   0.711   2.331   6.278  1.1889 -0.3658  0.3010
 7420SOL     OW33892   4.271   1.604   4.925 -0.1021  0.5006 -0.1613
 7420SOL    HW133893   4.270   1.643   5.013  0.4703 -1.9803  0.9675
 7420SOL    HW233894   4.361   1.570   4.929 -0.5951 -0.9833 -1.8912
 7421SOL     OW33895   3.152   0.900   1.923  0.4077 -0.1243 -0.3104
 7421SOL    HW133896   3.216   0.931   1.859 -0.6772 -1.2644 -1.9455
 7421SOL    HW233897   3.145   0.981   1.974  0.7733 -0.5260  0.3761
 7422SOL     OW33898   3.700   0.642  10.799  0.5142 -0.4443  0.2966
 7422SOL    HW133899   3.760   0.570  10.819 -0.2907 -0.6829  1.7943
 7422SOL    HW233900   3.750   0.721  10.818 -1.6182  1.1834 -0.9325
 7423SOL     OW33901   0.645   4.240   7.248  0.3849  0.0078  0.1714
 7423SOL    HW133902   0.551   4.236   7.265  0.2184 -3.0812 -1.5886
 7423SOL    HW233903   0.646   4.297   7.171 -0.6073 -0.6443 -0.3191
 7424SOL     OW33904   2.972   2.920   3.143  0.2770 -0.2880 -0.2784
 7424SOL    HW133905   3.031   2.987   3.109 -0.5000  0.5040 -0.0634
 7424SOL    HW233906   3.012   2.891   3.225  2.7218  1.8763 -0.7132
 7425SOL     OW33907   4.227   2.835   9.299 -0.7330 -0.6109 -0.2391
 7425SOL    HW133908   4.190   2.923   9.286 -1.3867 -0.9907 -0.9666
 7425SOL    HW233909   4.305   2.839   9.243 -0.1130 -0.1011  0.6663
 7426SOL     OW33910   3.837   3.846   6.905  0.2983  0.4963  0.2211
 7426SOL    HW133911   3.825   3.803   6.989 -1.9491 -0.8769 -0.8008
 7426SOL    HW233912   3.843   3.775   6.840  2.1328  0.8647 -0.0203
 7427SOL     OW33913   0.057   0.301   4.162  0.4852  0.0847 -0.0941
 7427SOL    HW133914   0.051   0.394   4.184 -3.2657  0.4137 -2.4983
 7427SOL    HW233915   0.070   0.296   4.068 -1.2486 -0.7156 -0.2948
 7428SOL     OW33916   1.111   3.714  17.138  0.4551  0.6251 -0.0860
 7428SOL    HW133917   1.108   3.638  17.196 -0.7609 -1.0629 -2.3527
 7428SOL    HW233918   1.040   3.775  17.157 -0.6935 -0.0358 -2.2012
 7429SOL     OW33919   1.545   4.170   0.064 -0.4413  0.3728 -0.1228
 7429SOL    HW133920   1.583   4.252   0.035 -0.3789  0.0469 -0.9506
 7429SOL    HW233921   1.513   4.199   0.150 -3.5932 -0.4500 -1.0227
 7430SOL     OW33922   1.111   4.373   3.706  0.6031  0.0069 -0.7231
 7430SOL    HW133923   1.046   4.335   3.764  2.8304  0.8939  2.3739
 7430SOL    HW233924   1.094   4.466   3.692  1.9629  0.5774  1.4131
 7431SOL     OW33925   0.593   0.714   4.219 -0.0160  0.3107  0.3131
 7431SOL    HW133926   0.640   0.674   4.291  2.7180  1.6561 -0.7491
 7431SOL    HW233927   0.639   0.703   4.136  2.3265  0.1618  1.6534
 7432SOL     OW33928   2.385   2.841   5.209 -0.0447 -0.1132 -0.4339
 7432SOL    HW133929   2.411   2.922   5.166  0.5601  0.4794  1.0276
 7432SOL    HW233930   2.347   2.796   5.134  1.7548 -2.2705 -0.0588
 7433SOL     OW33931   4.427   4.597  11.368  0.1763 -0.0553 -0.4050
 7433SOL    HW133932   4.490   4.658  11.406 -1.7725  1.4547  0.3875
 7433SOL    HW233933   4.486   4.536  11.324  1.7546  0.3197  1.2303
 7434SOL     OW33934   2.261   3.982  16.324 -0.5347 -0.4071 -0.4114
 7434SOL    HW133935   2.186   3.978  16.264 -0.0507  0.5548 -1.0942
 7434SOL    HW233936   2.228   3.941  16.404 -0.0596  0.0958  0.0436
 7435SOL     OW33937   2.989   2.714   0.239  0.2275 -0.0683  0.0380
 7435SOL    HW133938   3.020   2.635   0.196 -0.6780 -0.8815  0.8603
 7435SOL    HW233939   3.064   2.739   0.293 -1.2310  1.3178  1.4489
 7436SOL     OW33940   3.619   0.039  11.535 -0.2471  0.0756  0.1455
 7436SOL    HW133941   3.641   0.044  11.442 -1.6161 -0.6248 -0.2089
 7436SOL    HW233942   3.600   0.132  11.547  1.8831  0.2668  2.0569
 7437SOL     OW33943   4.342   3.332   3.999 -0.4803  0.1441  0.0789
 7437SOL    HW133944   4.357   3.420   3.963 -1.4792 -0.3697 -1.5637
 7437SOL    HW233945   4.310   3.281   3.925  1.4948 -0.6700 -0.2239
 7438SOL     OW33946   0.375   3.348   8.281 -0.8458 -0.5533 -0.2142
 7438SOL    HW133947   0.331   3.371   8.363 -0.6274  3.1134 -1.1051
 7438SOL    HW233948   0.458   3.393   8.296 -1.1660 -0.0270 -0.0114
 7439SOL     OW33949   0.312   2.864  16.708 -0.0145  0.0598  0.1710
 7439SOL    HW133950   0.337   2.826  16.793  3.4102  1.3142 -0.2883
 7439SOL    HW233951   0.275   2.949  16.730  0.8274  0.5464 -0.3147
 7440SOL     OW33952   4.105   0.493   5.278  0.1145 -0.0058 -0.1784
 7440SOL    HW133953   4.033   0.523   5.334  0.0830  2.2487 -1.4044
 7440SOL    HW233954   4.133   0.414   5.325  1.4441  0.7713  0.3475
 7441SOL     OW33955   4.150   2.447  16.426  0.6702 -0.7944 -0.4437
 7441SOL    HW133956   4.198   2.382  16.477 -0.2809 -0.4525  0.8619
 7441SOL    HW233957   4.063   2.409  16.432  0.5539 -0.0788  2.1286
 7442SOL     OW33958   1.647   4.266  11.996  0.2151 -0.0532  0.3584
 7442SOL    HW133959   1.634   4.347  12.045  0.1799 -0.3255  0.7975
 7442SOL    HW233960   1.695   4.303  11.922  0.6588  1.2868  1.3232
 7443SOL     OW33961   0.311   2.990  10.794  0.0513  0.2850 -0.0116
 7443SOL    HW133962   0.388   3.045  10.812 -0.3823  0.8593  0.0631
 7443SOL    HW233963   0.356   2.910  10.765 -0.1689 -0.1817  0.9488
 7444SOL     OW33964   1.990   1.320  13.392 -0.5025  0.8893  0.0774
 7444SOL    HW133965   2.019   1.298  13.303 -3.4334 -2.8781  0.0533
 7444SOL    HW233966   1.914   1.262  13.395  1.1306 -1.3089 -0.2986
 7445SOL     OW33967   2.777   0.984   5.544 -0.0476  0.6458  0.6330
 7445SOL    HW133968   2.683   1.002   5.535 -0.1492 -0.6099 -0.8217
 7445SOL    HW233969   2.818   1.068   5.526 -0.0637  0.5137 -0.0157
 7446SOL     OW33970   2.714   2.695   7.854  0.3580  0.3275 -0.4065
 7446SOL    HW133971   2.714   2.760   7.925  0.1258 -1.5750  1.3328
 7446SOL    HW233972   2.728   2.613   7.902 -2.1608 -0.9519 -1.8551
 7447SOL     OW33973   4.621   3.518   3.588 -0.4880 -0.5010 -0.3485
 7447SOL    HW133974   4.669   3.585   3.539  0.9245 -2.5820 -1.8049
 7447SOL    HW233975   4.697   3.473   3.625 -0.3415  0.1537  0.1579
 7448SOL     OW33976   3.455   1.678   4.171  0.4259 -0.1153  0.2769
 7448SOL    HW133977   3.368   1.654   4.140 -0.2644  0.8570  1.4952
 7448SOL    HW233978   3.491   1.712   4.089  0.9749  1.2133  1.0704
 7449SOL     OW33979   2.045   0.725   3.270  0.0179  0.1182 -0.2262
 7449SOL    HW133980   1.966   0.724   3.215 -1.2969  0.6141  1.6571
 7449SOL    HW233981   2.113   0.750   3.207 -0.8562 -0.4830 -1.4089
 7450SOL     OW33982   3.801   1.603   3.668 -0.0608 -0.1548  0.5446
 7450SOL    HW133983   3.756   1.616   3.751 -0.1556  1.2983  0.2680
 7450SOL    HW233984   3.866   1.672   3.680 -0.2783  0.4921 -1.9258
 7451SOL     OW33985   4.155   2.081   7.578 -0.0592 -0.4868  0.0345
 7451SOL    HW133986   4.157   2.047   7.667 -3.2664  2.1863  1.1284
 7451SOL    HW233987   4.249   2.084   7.560 -0.1426  2.1691  0.0985
 7452SOL     OW33988   3.759   1.743   2.963 -0.0466  0.2521 -0.1003
 7452SOL    HW133989   3.786   1.819   3.014 -1.8827  0.8074  0.0246
 7452SOL    HW233990   3.767   1.669   3.023  0.3574  0.7355  0.4416
 7453SOL     OW33991   2.870   4.052   5.362  0.5101  0.2875  0.0683
 7453SOL    HW133992   2.809   3.998   5.311  1.0445 -0.6019  0.3563
 7453SOL    HW233993   2.817   4.131   5.364  1.1193  0.6680  0.8635
 7454SOL     OW33994   3.562   2.725  16.347 -0.1958 -0.0054 -0.3581
 7454SOL    HW133995   3.617   2.690  16.277  1.3478  0.9000  0.4141
 7454SOL    HW233996   3.597   2.677  16.422 -1.0868  0.1784  0.1703
 7455SOL     OW33997   1.802   0.728   6.983 -0.2924  1.0433 -0.4936
 7455SOL    HW133998   1.818   0.728   7.078  1.7136 -1.3079 -0.8153
 7455SOL    HW233999   1.874   0.669   6.962 -1.6984 -0.7926 -0.2279
 7456SOL     OW34000   0.329   4.715  13.409 -0.3553  0.2374  0.1367
 7456SOL    HW134001   0.299   4.718  13.500  2.2533  0.5485  0.9760
 7456SOL    HW234002   0.402   0.041  13.412 -0.6999  0.7973 -3.5696
 7457SOL     OW34003   0.323   4.272   8.794 -0.0568  0.6507 -0.3213
 7457SOL    HW134004   0.280   4.317   8.867  0.5138  1.0392 -0.2210
 7457SOL    HW234005   0.410   4.310   8.786 -0.1291  0.8336 -0.2459
 7458SOL     OW34006   0.285   3.646   8.500  0.2373  0.0899  0.2882
 7458SOL    HW134007   0.365   3.679   8.460  1.6605 -2.1862  1.2670
 7458SOL    HW234008   0.267   3.710   8.569  1.0125  0.6565 -0.0425
 7459SOL     OW34009   1.336   0.647   5.906  0.1017  0.1889  0.4234
 7459SOL    HW134010   1.241   0.652   5.905  0.1890  1.8435  0.4112
 7459SOL    HW234011   1.355   0.553   5.896  1.3608  0.6183 -1.2237
 7460SOL     OW34012   4.199   3.364   2.827 -0.0311 -0.5570  0.0794
 7460SOL    HW134013   4.275   3.312   2.852 -0.5977 -1.5026 -0.1711
 7460SOL    HW234014   4.195   3.354   2.732 -0.1025  0.8222 -0.0549
 7461SOL     OW34015   0.745   2.825   1.455 -0.4230 -0.1563  0.1177
 7461SOL    HW134016   0.791   2.799   1.375  0.1624 -0.0502  0.4279
 7461SOL    HW234017   0.693   2.892   1.410 -0.3996  0.8024  1.5121
 7462SOL     OW34018   3.154   4.342  10.818 -0.1739 -0.1924  0.1807
 7462SOL    HW134019   3.144   4.255  10.857 -0.9644  0.0345  0.4672
 7462SOL    HW234020   3.103   4.342  10.737  0.7025 -0.1641 -0.3839
 7463SOL     OW34021   2.193   0.844   7.097 -0.1769 -0.3196 -0.5355
 7463SOL    HW134022   2.134   0.795   7.154 -0.0481  1.7154  1.3331
 7463SOL    HW234023   2.266   0.783   7.111  0.6325  0.2034 -2.4754
 7464SOL     OW34024   1.544   0.527   4.563  0.3259  0.4616 -0.5293
 7464SOL    HW134025   1.471   0.551   4.505 -1.3095 -0.7626  1.0052
 7464SOL    HW234026   1.623   0.551   4.515  1.4910  1.7384  2.0290
 7465SOL     OW34027   4.254   2.904   5.607 -0.2089 -0.6190  0.4810
 7465SOL    HW134028   4.293   2.824   5.572  1.0207  0.5661 -0.8932
 7465SOL    HW234029   4.336   2.946   5.633  0.1715 -2.0692  1.5829
 7466SOL     OW34030   4.152   1.590   4.161  0.0071 -0.4158  0.8672
 7466SOL    HW134031   4.127   1.655   4.226 -1.3942  0.2502 -0.3586
 7466SOL    HW234032   4.072   1.538   4.160 -1.3679  1.7521 -1.2093
 7467SOL     OW34033   0.961   3.156   0.830 -0.4699  0.2543 -0.0285
 7467SOL    HW134034   0.901   3.210   0.779 -0.4286  1.2159  0.9484
 7467SOL    HW234035   0.925   3.169   0.918 -1.7158  0.8333 -0.6264
 7468SOL     OW34036   1.248   0.132   4.076  0.7217 -0.1404 -0.0299
 7468SOL    HW134037   1.158   0.155   4.052  0.4656  1.9405  3.0092
 7468SOL    HW234038   1.289   0.216   4.057  1.0098 -0.0110  1.1576
 7469SOL     OW34039   2.022   3.635   3.985 -0.0413 -0.4346  0.2280
 7469SOL    HW134040   2.028   3.719   3.939 -1.7834 -0.5623 -0.2413
 7469SOL    HW234041   1.983   3.583   3.915  0.2662 -1.6996  1.0088
 7470SOL     OW34042   0.685   0.586   3.217  0.1582  0.6370  0.1351
 7470SOL    HW134043   0.711   0.673   3.188  0.6885 -0.1281 -1.7090
 7470SOL    HW234044   0.668   0.613   3.306 -1.0560 -0.6950  0.3079
 7471SOL     OW34045   2.211   2.007   8.821  0.2380 -0.0089 -0.5688
 7471SOL    HW134046   2.223   1.913   8.812  0.9590  0.0874 -0.6415
 7471SOL    HW234047   2.251   2.038   8.739 -1.2960  1.8330 -0.6228
 7472SOL     OW34048   1.632   3.001  15.059 -0.7655 -0.2293  0.1500
 7472SOL    HW134049   1.560   2.988  14.997  1.3409  0.6760 -2.5139
 7472SOL    HW234050   1.643   2.917  15.105  2.0221 -0.9442 -1.8143
 7473SOL     OW34051   2.139   4.558  11.291  0.3095 -0.2260 -0.0124
 7473SOL    HW134052   2.109   4.640  11.330  2.0294  0.9114 -1.0947
 7473SOL    HW234053   2.229   4.577  11.263  1.0149 -0.1685  2.3308
 7474SOL     OW34054   1.007   1.107  16.839  0.2085 -0.1271 -0.4356
 7474SOL    HW134055   0.926   1.076  16.879  1.5565 -1.1029  1.5070
 7474SOL    HW234056   0.984   1.104  16.746 -0.9356 -0.5287 -0.1329
 7475SOL     OW34057   1.154   0.766   1.467 -0.2461 -0.5214 -0.7486
 7475SOL    HW134058   1.059   0.775   1.474 -0.2748 -1.1069 -0.4588
 7475SOL    HW234059   1.172   0.720   1.548  0.7984  1.7297  0.3052
 7476SOL     OW34060   0.338   3.374  15.132 -0.2377 -0.1049  0.3502
 7476SOL    HW134061   0.390   3.391  15.053 -0.3215  1.1629  0.5675
 7476SOL    HW234062   0.281   3.451  15.143 -1.7441 -1.3699  1.3520
 7477SOL     OW34063   4.695   1.754  14.460 -0.2767 -0.0013 -0.3100
 7477SOL    HW134064   0.034   1.774  14.516 -0.4580  0.4662 -0.2357
 7477SOL    HW234065   4.678   1.671  14.505 -1.9809 -0.0199 -0.9871
 7478SOL     OW34066   2.531   1.566   0.675  0.2504  0.1318 -0.2314
 7478SOL    HW134067   2.507   1.644   0.726 -1.0185 -0.4083  0.0013
 7478SOL    HW234068   2.465   1.554   0.607  0.3703  0.8060 -0.4620
 7479SOL     OW34069   3.583   1.348   9.287  0.4991  0.2831 -0.9056
 7479SOL    HW134070   3.669   1.385   9.270  0.5216  0.6724  0.0664
 7479SOL    HW234071   3.533   1.410   9.234 -1.3846 -0.5148 -0.0688
 7480SOL     OW34072   4.002   3.580   3.450 -0.0194  0.1869 -0.2883
 7480SOL    HW134073   3.980   3.586   3.543  1.7349  0.6152  0.0976
 7480SOL    HW234074   3.943   3.507   3.430 -0.4570  0.1245  1.2242
 7481SOL     OW34075   3.624   0.572   6.830 -0.1209 -0.0861  0.1834
 7481SOL    HW134076   3.691   0.638   6.845 -0.4538  0.2772  0.0675
 7481SOL    HW234077   3.633   0.522   6.911 -0.5402 -1.3176 -0.5268
 7482SOL     OW34078   0.618   2.317   6.846  0.3167  0.0507 -0.2478
 7482SOL    HW134079   0.639   2.386   6.909 -1.2666  0.1509  0.1556
 7482SOL    HW234080   0.673   2.247   6.882 -1.1558 -0.2615  1.3423
 7483SOL     OW34081   2.701   4.198   7.139  0.0928 -0.1984  0.2182
 7483SOL    HW134082   2.750   4.128   7.096 -0.2257  0.9997 -2.0636
 7483SOL    HW234083   2.662   4.145   7.209 -1.9558 -0.4073 -1.0637
 7484SOL     OW34084   4.682   3.691   3.052  0.5811  0.3214 -0.7712
 7484SOL    HW134085   4.642   3.685   3.139  0.4545  1.4872 -0.7563
 7484SOL    HW234086   4.620   3.745   3.003 -0.0949 -0.9375 -1.3212
 7485SOL     OW34087   4.559   1.904   3.849  0.5184 -0.0488 -0.3957
 7485SOL    HW134088   4.479   1.896   3.798 -1.1167  1.5862  1.9210
 7485SOL    HW234089   4.608   1.964   3.793  1.2776 -0.4620 -0.1849
 7486SOL     OW34090   1.480   2.109   5.961  0.2004  0.7197 -0.0222
 7486SOL    HW134091   1.554   2.117   6.021 -0.9415  0.8305  1.3633
 7486SOL    HW234092   1.489   2.180   5.897  1.4894 -0.0942 -0.7432
 7487SOL     OW34093   0.058   3.747   3.560 -0.1711 -0.0987 -0.2340
 7487SOL    HW134094   0.090   3.758   3.649 -0.3250 -2.5283  0.1144
 7487SOL    HW234095   0.047   3.840   3.541 -0.8329 -0.4573 -1.6642
 7488SOL     OW34096   4.652   4.356   0.433 -0.3162 -0.0198  0.2851
 7488SOL    HW134097   4.647   4.276   0.484 -2.9457  0.6965  1.1614
 7488SOL    HW234098   0.009   4.378   0.442 -0.4157  0.5820 -0.1333
 7489SOL     OW34099   2.098   3.863   7.599 -0.4924 -0.1988 -0.2513
 7489SOL    HW134100   2.025   3.840   7.658  0.0676  0.2125  0.6086
 7489SOL    HW234101   2.064   3.845   7.512  2.9457 -1.5745 -1.2746
 7490SOL     OW34102   2.139   3.918   2.649 -0.1469  0.5420 -0.4286
 7490SOL    HW134103   2.224   3.903   2.608  0.8742  2.0306  1.1108
 7490SOL    HW234104   2.118   3.831   2.682 -1.7746  0.1449 -2.5030
 7491SOL     OW34105   4.201   0.858  11.153 -0.4440 -0.1493 -0.3520
 7491SOL    HW134106   4.158   0.773  11.156  0.7358 -0.7350 -0.1336
 7491SOL    HW234107   4.227   0.874  11.244  1.5765 -1.0279 -0.7729
 7492SOL     OW34108   2.178   3.404   4.858  0.1176  0.6215  0.1505
 7492SOL    HW134109   2.192   3.485   4.808  1.4869 -0.6414 -1.5244
 7492SOL    HW234110   2.160   3.436   4.946  2.3921 -0.1021  0.8787
 7493SOL     OW34111   2.814   2.189   9.369 -0.1280  0.5210 -0.3590
 7493SOL    HW134112   2.892   2.189   9.425 -0.6276  0.8067  0.3335
 7493SOL    HW234113   2.747   2.186   9.437  1.9847  0.3959  1.6977
 7494SOL     OW34114   3.465   1.259   6.481  0.7024  0.1610 -0.1909
 7494SOL    HW134115   3.419   1.255   6.565  0.7945 -1.2560 -0.2050
 7494SOL    HW234116   3.471   1.354   6.469 -0.6453  0.2013 -0.5091
 7495SOL     OW34117   1.403   2.503   5.395 -0.5488  0.0932  0.4255
 7495SOL    HW134118   1.399   2.595   5.366  2.2662  0.1334  0.1659
 7495SOL    HW234119   1.330   2.503   5.457 -0.9700  0.3959 -0.0633
 7496SOL     OW34120   0.198   2.940   2.591  0.2070 -0.0882 -0.1267
 7496SOL    HW134121   0.151   2.919   2.510  0.8961  0.3927 -0.6563
 7496SOL    HW234122   0.287   2.945   2.558 -0.4796 -1.6798 -2.2092
 7497SOL     OW34123   2.865   2.588  17.024  0.3210  0.6858  0.4684
 7497SOL    HW134124   2.810   2.532  17.079 -0.2128  1.3911  0.6563
 7497SOL    HW234125   2.809   2.604  16.948  0.3880  1.1480  0.5135
 7498SOL     OW34126   2.350   4.591  16.140  0.5162  0.2153  0.8841
 7498SOL    HW134127   2.401   4.511  16.152 -1.2861 -1.3934 -2.3268
 7498SOL    HW234128   2.416   4.654  16.171 -0.0315  0.9122  0.6475
 7499SOL     OW34129   3.451   2.985   4.893  0.0263  0.2966 -0.1196
 7499SOL    HW134130   3.531   2.961   4.848 -1.1343  1.5228 -2.8053
 7499SOL    HW234131   3.485   3.052   4.952 -0.1509  0.0997  0.2097
 7500SOL     OW34132   2.609   2.778   3.874  0.6809  0.0701 -0.4731
 7500SOL    HW134133   2.581   2.830   3.949  1.1944 -1.2117  0.6011
 7500SOL    HW234134   2.551   2.702   3.873 -0.1414  0.7036 -1.1005
 7501SOL     OW34135   0.731   0.405   3.002  0.1279  0.5972  0.2070
 7501SOL    HW134136   0.693   0.464   2.938 -0.6462 -0.6132 -0.4408
 7501SOL    HW234137   0.732   0.466   3.076 -0.3351 -0.0738  0.7712
 7502SOL     OW34138   1.282   1.992  17.728 -0.6084 -0.3898 -0.2050
 7502SOL    HW134139   1.191   2.016   0.005 -0.5903  0.0161 -0.6096
 7502SOL    HW234140   1.301   1.929   0.055 -0.7743  0.7904  0.9269
 7503SOL     OW34141   4.204   4.171   8.708  0.7076  0.3698 -0.1663
 7503SOL    HW134142   4.282   4.118   8.724  0.6984  0.6074  0.6296
 7503SOL    HW234143   4.126   4.117   8.720  1.0161 -0.1850 -0.6391
 7504SOL     OW34144   1.343   3.694   8.431 -1.0936  0.1416 -0.7677
 7504SOL    HW134145   1.372   3.732   8.514 -1.2466  0.1238 -0.7065
 7504SOL    HW234146   1.259   3.737   8.419 -0.3439  1.7750 -0.1750
 7505SOL     OW34147   0.150   2.633   8.355  0.1765 -0.7139 -0.0040
 7505SOL    HW134148   0.136   2.644   8.261 -1.3786 -1.0868  0.1884
 7505SOL    HW234149   0.071   2.581   8.368  0.2114 -0.8318 -0.2659
 7506SOL     OW34150   3.076   0.557   6.355 -0.2590 -0.4338  0.9242
 7506SOL    HW134151   3.080   0.503   6.276 -0.5886 -1.9477  1.9622
 7506SOL    HW234152   3.162   0.545   6.396  0.4800 -2.7180 -1.2848
 7507SOL     OW34153   2.164   0.393   4.132 -0.1980 -0.4419 -0.1362
 7507SOL    HW134154   2.079   0.348   4.138 -1.2462  1.5384 -0.0324
 7507SOL    HW234155   2.220   0.322   4.102  0.0466 -0.6129  0.7246
 7508SOL     OW34156   0.257   2.293   3.558 -0.4016 -0.1019  0.9156
 7508SOL    HW134157   0.313   2.368   3.537 -0.0915 -0.9567 -1.2895
 7508SOL    HW234158   0.298   2.228   3.502 -0.1337  1.0030 -0.1715
 7509SOL     OW34159   3.796   3.581   4.007  0.2148 -1.0578 -0.1602
 7509SOL    HW134160   3.802   3.671   3.975 -0.3962 -0.6073  1.0159
 7509SOL    HW234161   3.702   3.575   4.020  0.0183 -0.7809 -1.4851
 7510SOL     OW34162   4.207   2.411   5.859  0.0761  0.1439  0.5361
 7510SOL    HW134163   4.216   2.385   5.767 -0.6964 -0.3263  0.5927
 7510SOL    HW234164   4.274   2.352   5.894  1.3174  0.8921 -0.5640
 7511SOL     OW34165   3.808   2.930   9.768 -0.5739 -0.7230  0.1251
 7511SOL    HW134166   3.740   2.968   9.712  0.0416  0.0899 -0.0930
 7511SOL    HW234167   3.870   3.002   9.753  0.5772 -2.0292 -1.3767
 7512SOL     OW34168   1.157   2.847   2.251 -0.4633  0.2636 -0.0716
 7512SOL    HW134169   1.192   2.890   2.174 -0.7765  3.5710  1.6377
 7512SOL    HW234170   1.238   2.846   2.302  0.9597 -0.2244 -2.3425
 7513SOL     OW34171   0.469   2.421   3.844  0.0383 -0.6320 -0.5476
 7513SOL    HW134172   0.529   2.451   3.776 -0.6312 -2.0632 -1.7706
 7513SOL    HW234173   0.529   2.385   3.911  0.9565  2.9019  0.4974
 7514SOL     OW34174   2.178   0.626   6.510  0.4172  0.4596 -0.2359
 7514SOL    HW134175   2.210   0.536   6.513 -0.6955 -0.0241 -3.8832
 7514SOL    HW234176   2.250   0.672   6.552 -1.0690  2.6142 -0.0497
 7515SOL     OW34177   3.082   1.477   2.721  0.0504 -0.7162 -0.7577
 7515SOL    HW134178   3.049   1.388   2.722  1.9196 -1.4222 -1.0967
 7515SOL    HW234179   3.177   1.465   2.721 -0.0426 -1.3012  1.9352
 7516SOL     OW34180   4.357   1.586   2.888  0.1039  0.3402  0.0880
 7516SOL    HW134181   4.338   1.548   2.974  1.2874  0.0932  0.2394
 7516SOL    HW234182   4.270   1.618   2.863 -0.4503 -2.6199 -1.7307
 7517SOL     OW34183   0.112   3.049   1.872 -0.0773  0.0263  0.5431
 7517SOL    HW134184   0.074   3.104   1.804  0.1485  0.5254  0.8200
 7517SOL    HW234185   0.155   3.104   1.937 -2.2535  2.6727 -0.2764
 7518SOL     OW34186   1.507   3.350   5.495  0.0418  0.2358  0.6444
 7518SOL    HW134187   1.448   3.290   5.541  0.1543 -0.5113 -0.1757
 7518SOL    HW234188   1.581   3.344   5.554  0.4310  0.3162  0.1634
 7519SOL     OW34189   4.598   2.538   5.472  0.6579  0.1198  0.4194
 7519SOL    HW134190   4.620   2.499   5.387  0.5293 -2.0797  1.3770
 7519SOL    HW234191   4.668   2.601   5.487 -0.3917  1.9496 -2.4117
 7520SOL     OW34192   0.532   4.027   2.104 -0.3521 -0.1033 -0.2190
 7520SOL    HW134193   0.485   4.095   2.152  1.3218  1.3425 -0.6007
 7520SOL    HW234194   0.468   3.956   2.104 -0.5140  0.0474  2.4726
 7521SOL     OW34195   1.628   1.726   2.467  0.0394 -0.4056  0.1285
 7521SOL    HW134196   1.636   1.642   2.422 -1.5657 -0.1308 -0.7060
 7521SOL    HW234197   1.717   1.761   2.467  0.0676 -0.4802  1.7901
 7522SOL     OW34198   0.410   4.719  13.118  0.3174  0.4517  0.0446
 7522SOL    HW134199   0.378   4.730  13.208 -0.3406  2.4490 -0.4261
 7522SOL    HW234200   0.399   4.627  13.098 -2.1051  0.4818  1.2491
 7523SOL     OW34201   1.653   3.633   4.872 -0.3368  0.0384 -0.8328
 7523SOL    HW134202   1.649   3.589   4.957 -0.8501  3.2128  0.7965
 7523SOL    HW234203   1.745   3.613   4.852  0.4645  0.3459  2.5066
 7524SOL     OW34204   3.329   2.501   3.504 -0.7231 -0.0353  0.2793
 7524SOL    HW134205   3.320   2.534   3.414 -2.7583  0.1833  0.5667
 7524SOL    HW234206   3.241   2.519   3.538 -1.5754 -3.9798  0.1658
 7525SOL     OW34207   1.450   1.227  17.300  0.0163 -0.2838  0.0469
 7525SOL    HW134208   1.525   1.202  17.246  0.8767 -2.5062  2.2378
 7525SOL    HW234209   1.464   1.321  17.299 -0.6855 -0.1901 -1.8323
 7526SOL     OW34210   1.416   2.408   4.631  0.8298  0.4117 -0.1784
 7526SOL    HW134211   1.398   2.325   4.587  1.9234  0.5087 -0.8313
 7526SOL    HW234212   1.484   2.373   4.689  0.1938  0.5617  0.6469
 7527SOL     OW34213   4.543   0.394  10.768  0.4002  0.1916 -0.2517
 7527SOL    HW134214   4.537   0.473  10.715  0.1059  0.6628  0.4918
 7527SOL    HW234215   4.502   0.326  10.714  0.3061  0.5758 -0.6559
 7528SOL     OW34216   0.912   2.109   3.953  0.1287  0.1679  0.3561
 7528SOL    HW134217   0.928   2.015   3.950  2.0896  0.4041  2.9704
 7528SOL    HW234218   0.830   2.129   3.908 -1.0470 -2.8191  1.1822
 7529SOL     OW34219   0.654   3.254  13.654 -0.0374 -0.3121 -0.3524
 7529SOL    HW134220   0.694   3.298  13.579 -2.0803 -1.6002 -2.2007
 7529SOL    HW234221   0.713   3.178  13.657  1.1262  0.5425 -1.4420
 7530SOL     OW34222   2.967   0.689   1.862 -0.4923  0.2763  0.0533
 7530SOL    HW134223   2.913   0.767   1.854 -0.4343  0.4992  1.7546
 7530SOL    HW234224   3.045   0.730   1.899  0.2720 -0.3465 -0.8496
 7531SOL     OW34225   4.664   2.144   4.049 -0.4514  0.3667 -0.0754
 7531SOL    HW134226   4.720   2.170   4.121  2.2849 -1.2191 -1.6198
 7531SOL    HW234227   4.714   2.086   3.991  0.0953  0.7123  0.0585
 7532SOL     OW34228   1.834   1.305   8.916  0.8560  0.6529 -0.5675
 7532SOL    HW134229   1.849   1.352   8.998  1.2403 -1.4126  0.5435
 7532SOL    HW234230   1.891   1.352   8.857  0.8216 -1.9959 -2.7228
 7533SOL     OW34231   2.166   3.639  17.204 -0.2982  0.2504  0.3932
 7533SOL    HW134232   2.190   3.678  17.288  0.6526  1.0442 -0.2429
 7533SOL    HW234233   2.249   3.595  17.184 -0.0637  2.2565 -2.9582
 7534SOL     OW34234   0.560   1.383   6.551  0.7015  0.4964 -0.2401
 7534SOL    HW134235   0.465   1.387   6.545  0.5986  0.0730  1.1273
 7534SOL    HW234236   0.584   1.460   6.603  0.8992  0.6932 -0.6193
 7535SOL     OW34237   0.006   4.312   7.451 -0.5616 -0.1458  0.0245
 7535SOL    HW134238   4.651   4.283   7.448 -0.4792 -0.4124  0.1880
 7535SOL    HW234239   0.010   4.329   7.545 -0.0939  3.0950 -0.5762
 7536SOL     OW34240   4.408   4.579   8.912 -0.8002 -0.4908  0.3318
 7536SOL    HW134241   4.455   4.625   8.843 -1.3150 -0.9375 -0.3135
 7536SOL    HW234242   4.430   4.486   8.909 -1.5513 -0.6383 -0.5155
 7537SOL     OW34243   0.027   3.918  10.478 -0.6192  0.8222  0.4892
 7537SOL    HW134244   4.668   3.915  10.493 -0.2842  0.9098  2.6264
 7537SOL    HW234245   0.052   4.008  10.495 -1.2166  1.0205  0.3379
 7538SOL     OW34246   3.767   4.026  16.574  0.2056 -0.0553  0.7808
 7538SOL    HW134247   3.753   3.958  16.509  0.4388 -1.0074  1.7319
 7538SOL    HW234248   3.708   4.001  16.646 -1.4091  2.1556  0.2332
 7539SOL     OW34249   4.258   4.138   9.949  0.5010  0.3555 -0.5508
 7539SOL    HW134250   4.167   4.148   9.977  0.8383  1.6586  0.0933
 7539SOL    HW234251   4.264   4.059   9.896 -0.5308  1.6216 -2.6019
 7540SOL     OW34252   1.014   0.238   3.987 -0.4090 -0.2572  0.1592
 7540SOL    HW134253   0.942   0.223   3.926  0.7345 -0.1515 -1.2420
 7540SOL    HW234254   0.960   0.259   4.062 -1.2742  0.6747 -0.7219
 7541SOL     OW34255   1.007   3.153   1.251 -0.8858  0.6668 -0.0858
 7541SOL    HW134256   1.012   3.100   1.172  1.8409  0.3019  0.3455
 7541SOL    HW234257   1.069   3.222   1.227  0.6358 -0.1879  1.3984
 7542SOL     OW34258   0.383   4.069   9.370 -0.1065  0.0163  0.0562
 7542SOL    HW134259   0.462   4.122   9.383  1.3891 -2.1178 -0.1884
 7542SOL    HW234260   0.424   3.982   9.366 -0.6241 -0.1965 -0.5043
 7543SOL     OW34261   0.221   0.437   9.835  0.4266 -0.5604 -0.1931
 7543SOL    HW134262   0.187   0.519   9.871  1.2266  1.1721 -3.3621
 7543SOL    HW234263   0.313   0.464   9.833 -0.1734  1.4356 -0.7778
 7544SOL     OW34264   4.553   0.480   9.876  0.0358  0.2410 -0.1546
 7544SOL    HW134265   4.565   0.385   9.885  0.0474  0.3118  0.5399
 7544SOL    HW234266   4.482   0.482   9.812  0.5581  0.3849 -0.7221
 7545SOL     OW34267   0.714   1.030   8.926 -0.6988  0.7428  0.1209
 7545SOL    HW134268   0.729   0.940   8.899 -1.9409  1.0594 -1.5740
 7545SOL    HW234269   0.649   1.015   8.995  0.1757 -3.4480 -0.0038
 7546SOL     OW34270   3.009   0.742   3.947 -0.2632 -0.4783  0.6272
 7546SOL    HW134271   3.053   0.680   3.889  1.9047  1.7447 -0.1427
 7546SOL    HW234272   2.930   0.692   3.967  0.0842 -1.6703 -0.9945
 7547SOL     OW34273   1.660   1.832   0.927  0.6942 -0.2342 -0.3265
 7547SOL    HW134274   1.715   1.859   0.854 -0.5025  0.3660 -1.0152
 7547SOL    HW234275   1.677   1.901   0.991 -0.3184  0.6587 -1.0129
 7548SOL     OW34276   1.412   2.735   3.996  0.1386  0.0000  0.7407
 7548SOL    HW134277   1.470   2.708   4.066  0.2245  1.1907  1.1248
 7548SOL    HW234278   1.350   2.789   4.044  0.8420  0.1904  1.4182
 7549SOL     OW34279   3.249   4.167   5.689 -0.0250  0.0551  0.3303
 7549SOL    HW134280   3.228   4.074   5.703 -2.2714  0.8366  2.1852
 7549SOL    HW234281   3.207   4.207   5.765  1.5110  0.6713  0.8442
 7550SOL     OW34282   0.841   0.101   5.537  0.9356 -0.0736  0.3928
 7550SOL    HW134283   0.824   0.008   5.523 -2.3681  1.1474 -3.6881
 7550SOL    HW234284   0.894   0.125   5.460  0.2623  0.7205  0.1679
 7551SOL     OW34285   0.070   0.597   9.295  0.0947 -0.3408 -0.2374
 7551SOL    HW134286   0.093   0.676   9.344 -0.0805  0.6865 -1.7915
 7551SOL    HW234287   0.139   0.536   9.319 -1.3486 -0.2704  4.1805
 7552SOL     OW34288   3.885   4.421  15.359  0.0262  0.2290 -0.2670
 7552SOL    HW134289   3.951   4.471  15.311  2.4202  2.4985  5.3622
 7552SOL    HW234290   3.853   4.361  15.292  0.1722  0.2270 -0.3335
 7553SOL     OW34291   1.781   0.469   7.756 -0.1057  0.3654  0.2811
 7553SOL    HW134292   1.701   0.468   7.703  0.0933 -0.1684 -0.0036
 7553SOL    HW234293   1.781   0.554   7.801 -2.0252 -0.1402  1.2429
 7554SOL     OW34294   0.862   0.947   4.816 -0.1411 -0.3908 -0.2395
 7554SOL    HW134295   0.835   1.024   4.864  2.7169 -0.0127  0.7890
 7554SOL    HW234296   0.886   0.886   4.886 -0.0616 -1.2109 -0.9690
 7555SOL     OW34297   3.732   0.263  11.337 -0.0684  0.1209  0.1711
 7555SOL    HW134298   3.824   0.270  11.308  1.0682 -3.1525  3.0960
 7555SOL    HW234299   3.697   0.324  11.271  0.0982  0.3850  0.3247
 7556SOL     OW34300   1.339   3.056   1.049 -0.4695  0.8950 -0.4886
 7556SOL    HW134301   1.272   3.123   1.059  1.3203  2.5968  0.1654
 7556SOL    HW234302   1.326   3.029   0.958 -0.7277 -2.7399  0.6365
 7557SOL     OW34303   1.219   4.219   0.683  0.0364 -0.2417  0.6554
 7557SOL    HW134304   1.221   4.129   0.718  1.1355  0.3102  2.0080
 7557SOL    HW234305   1.150   4.257   0.737 -2.3197 -3.4824 -0.0611
 7558SOL     OW34306   0.449   2.034   3.009  0.3409  0.4488  0.9370
 7558SOL    HW134307   0.530   2.015   2.962  0.0173 -0.7749  0.8659
 7558SOL    HW234308   0.415   1.945   3.018  0.3026  0.3225 -0.5196
 7559SOL     OW34309   0.395   1.995   5.249 -0.9770  0.3516  0.1846
 7559SOL    HW134310   0.389   1.984   5.344  0.1390  2.4576  0.4833
 7559SOL    HW234311   0.489   1.993   5.232 -0.3160 -0.6661  3.8680
 7560SOL     OW34312   2.015   4.499   2.458 -0.0459 -0.0789  0.1807
 7560SOL    HW134313   1.920   4.500   2.473 -0.0998 -1.8034  0.0219
 7560SOL    HW234314   2.009   4.442   2.381 -0.1928  2.9292 -2.0123
 7561SOL     OW34315   4.051   0.708   4.847  0.2781  0.1681  0.2118
 7561SOL    HW134316   4.082   0.796   4.871  1.8996  0.3322 -2.3845
 7561SOL    HW234317   4.121   0.680   4.787 -0.1905 -0.0709 -0.2159
 7562SOL     OW34318   0.506   2.211   4.021 -0.4466  0.6763  0.7472
 7562SOL    HW134319   0.581   2.174   3.975 -0.0773  0.6894  1.3463
 7562SOL    HW234320   0.437   2.147   4.003 -2.7241  3.8512 -2.0379
 7563SOL     OW34321   4.473   0.107  13.911  0.8173  0.4236 -0.1956
 7563SOL    HW134322   4.523   0.180  13.947  0.8864  1.0475 -1.5584
 7563SOL    HW234323   4.394   0.160  13.901  0.3958 -0.1329  0.2010
 7564SOL     OW34324   3.675   0.670   2.813  0.4861 -0.1180  0.3552
 7564SOL    HW134325   3.655   0.663   2.906  1.1484 -2.3644  0.3237
 7564SOL    HW234326   3.732   0.747   2.808  1.7473 -0.8622  3.0014
 7565SOL     OW34327   4.097   1.922  17.241 -0.3289  0.2353  0.3208
 7565SOL    HW134328   4.112   1.924  17.336  0.1743 -3.1361  0.3185
 7565SOL    HW234329   4.015   1.968  17.226 -0.2842  0.3201  0.3340
 7566SOL     OW34330   0.458   1.154   2.499 -0.1507 -0.2541  0.7354
 7566SOL    HW134331   0.420   1.068   2.483 -1.5314  0.0628  2.3863
 7566SOL    HW234332   0.413   1.212   2.559 -1.0621  0.4417 -0.6266
 7567SOL     OW34333   4.024   1.239   4.817 -0.4189 -0.0574  0.1051
 7567SOL    HW134334   4.111   1.274   4.799 -0.7905  1.0471  0.5020
 7567SOL    HW234335   3.985   1.264   4.734  3.4012 -0.8733 -1.9417
 7568SOL     OW34336   4.483   3.951  14.789  0.3517 -0.3264  0.5569
 7568SOL    HW134337   4.419   4.023  14.785 -0.4202 -0.9846  1.2058
 7568SOL    HW234338   4.504   3.955  14.696  0.5158 -0.7589  0.5773
 7569SOL     OW34339   4.398   4.201   4.248  0.0839 -0.1938  0.4005
 7569SOL    HW134340   4.364   4.162   4.329 -0.9122 -2.4306 -1.0859
 7569SOL    HW234341   4.419   4.120   4.200 -1.2857  0.3725 -1.1719
 7570SOL     OW34342   3.306   2.297  17.444 -0.8009  0.2990  0.0060
 7570SOL    HW134343   3.267   2.238  17.509 -2.1055 -1.2104 -2.1427
 7570SOL    HW234344   3.304   2.384  17.483  0.2487 -0.0583  0.8801
 7571SOL     OW34345   2.662   1.907   0.849  0.7366  0.6704 -1.0500
 7571SOL    HW134346   2.617   1.953   0.919 -1.5574 -1.3818 -1.1706
 7571SOL    HW234347   2.592   1.856   0.808 -0.1510  0.0415  1.2389
 7572SOL     OW34348   2.992   2.255  17.600  0.0872 -0.3800  0.9210
 7572SOL    HW134349   3.003   2.250  17.505 -0.5700 -1.2031  0.8852
 7572SOL    HW234350   2.916   2.312  17.601  0.6670  0.4357 -0.8519
 7573SOL     OW34351   4.105   1.656   2.822 -0.1479  0.2462  0.6051
 7573SOL    HW134352   4.044   1.666   2.748 -0.3538  0.5391  0.8126
 7573SOL    HW234353   4.049   1.606   2.881 -0.8638  0.3426  0.0114
 7574SOL     OW34354   1.785   4.483  14.932 -0.0618  0.1481 -0.4188
 7574SOL    HW134355   1.833   4.401  14.946 -0.6274 -0.1187 -0.0636
 7574SOL    HW234356   1.840   4.560  14.944 -2.4492  1.1405  4.2468
 7575SOL     OW34357   3.279   1.846  16.391 -0.8171  0.2051 -0.0505
 7575SOL    HW134358   3.265   1.921  16.334 -1.1318  1.1474  1.2782
 7575SOL    HW234359   3.192   1.839  16.431 -1.4962 -1.7102 -1.8847
 7576SOL     OW34360   0.269   0.522   2.288 -0.0279 -0.0667  0.0132
 7576SOL    HW134361   0.294   0.531   2.196 -0.4199 -0.3269 -0.1185
 7576SOL    HW234362   0.175   0.536   2.274  0.0878 -1.5993 -2.2528
 7577SOL     OW34363   0.744   1.120   4.456  0.4448  0.0918 -0.6251
 7577SOL    HW134364   0.706   1.044   4.501 -0.2249 -0.1474 -1.5909
 7577SOL    HW234365   0.799   1.077   4.391  1.2923 -0.0786  0.2064
 7578SOL     OW34366   1.893   3.160   5.555 -0.5239 -0.3195  0.2693
 7578SOL    HW134367   1.978   3.198   5.532 -0.0337 -1.2757  0.4958
 7578SOL    HW234368   1.903   3.069   5.527 -1.6408 -0.2135 -0.4549
 7579SOL     OW34369   0.829   0.351   8.301  0.4702  0.6664 -0.2203
 7579SOL    HW134370   0.742   0.367   8.264  1.5291 -0.1534 -3.0563
 7579SOL    HW234371   0.816   0.275   8.358 -0.1159  1.2347  0.4094
 7580SOL     OW34372   1.580   3.422   3.678 -0.1987 -0.7361  0.0282
 7580SOL    HW134373   1.550   3.502   3.636 -1.3803 -0.5386  1.2310
 7580SOL    HW234374   1.596   3.436   3.772  2.6377  0.2707 -0.6170
 7581SOL     OW34375   1.368   1.032  12.166  0.1523 -0.5663  0.6633
 7581SOL    HW134376   1.281   1.028  12.127  0.8916 -1.0859 -0.9376
 7581SOL    HW234377   1.346   1.086  12.242 -3.6994  0.3991 -1.1386
 7582SOL     OW34378   1.483   1.420   8.906 -0.7596  0.2512 -0.0754
 7582SOL    HW134379   1.535   1.349   8.869  0.1645  0.6940  0.3841
 7582SOL    HW234380   1.399   1.374   8.917 -1.6453  1.7288 -0.6779
 7583SOL     OW34381   2.780   3.196   1.464  0.2831  0.2836 -0.1973
 7583SOL    HW134382   2.691   3.178   1.493  1.2432 -2.0585  1.2707
 7583SOL    HW234383   2.813   3.117   1.423  0.0115 -0.1482  0.4228
 7584SOL     OW34384   2.888   3.344   9.571 -0.3891  0.0698 -0.2364
 7584SOL    HW134385   2.934   3.301   9.643  0.9867  0.2732 -0.9899
 7584SOL    HW234386   2.849   3.265   9.534  0.4459 -0.7282  0.5913
 7585SOL     OW34387   1.986   0.412   5.803 -0.2832  0.2140 -0.1556
 7585SOL    HW134388   1.962   0.465   5.879 -0.4020 -2.1442  1.4546
 7585SOL    HW234389   2.067   0.367   5.829 -1.4944 -2.6592 -1.3863
 7586SOL     OW34390   4.509   4.548   2.863 -0.5087 -0.5706  0.3008
 7586SOL    HW134391   4.528   4.481   2.798 -0.0909 -1.1446  1.0128
 7586SOL    HW234392   4.431   4.583   2.819  0.5776  0.4414 -0.7932
 7587SOL     OW34393   4.486   3.711  10.553 -0.5023 -0.0081  0.5414
 7587SOL    HW134394   4.528   3.628  10.576 -1.4215 -1.3917 -2.8484
 7587SOL    HW234395   4.489   3.724  10.459  0.3456  0.7218  0.6689
 7588SOL     OW34396   4.252   4.491  14.769 -0.1930 -0.0923 -0.4422
 7588SOL    HW134397   4.178   4.551  14.779 -0.2897  0.0421 -1.9315
 7588SOL    HW234398   4.307   4.513  14.844 -1.2273  0.5846  0.1113
 7589SOL     OW34399   2.326   3.687   6.225  0.5724  0.3584  0.2744
 7589SOL    HW134400   2.320   3.671   6.130 -2.1729 -0.0352  0.5318
 7589SOL    HW234401   2.413   3.649   6.239 -0.6773 -2.3674  0.5679
 7590SOL     OW34402   4.352   0.729   7.564  0.6256  0.1762  0.2167
 7590SOL    HW134403   4.331   0.661   7.629  2.6429  0.9400  1.6445
 7590SOL    HW234404   4.283   0.715   7.499  0.8867  0.3356 -0.0885
 7591SOL     OW34405   1.298   2.114  15.827  0.0436 -0.3741  0.2036
 7591SOL    HW134406   1.390   2.105  15.800  0.1857  1.3264  0.1282
 7591SOL    HW234407   1.250   2.104  15.745  2.2648  1.0798 -1.2814
 7592SOL     OW34408   3.359   2.123   8.382  0.2233  0.0508 -0.4015
 7592SOL    HW134409   3.320   2.041   8.410 -1.3420  0.2145 -2.0833
 7592SOL    HW234410   3.450   2.113   8.409  0.8453  0.5495 -2.2925
 7593SOL     OW34411   3.859   2.557   8.143  0.4658 -0.3816  0.0917
 7593SOL    HW134412   3.785   2.604   8.105 -1.7143 -2.4855  1.7717
 7593SOL    HW234413   3.824   2.547   8.232  1.3437 -1.6903  0.2833
 7594SOL     OW34414   0.087   4.030   6.002 -0.1622 -0.1591  0.0681
 7594SOL    HW134415   4.734   4.050   6.033 -0.2212 -0.7655  0.2970
 7594SOL    HW234416   0.068   3.999   5.913 -1.5584 -0.0647  0.3290
 7595SOL     OW34417   3.124   2.852   4.323 -0.2189 -0.3560  0.4497
 7595SOL    HW134418   3.091   2.932   4.283 -0.2624  0.3746  1.9806
 7595SOL    HW234419   3.212   2.872   4.355  0.0474 -2.2022  0.8738
 7596SOL     OW34420   2.556   1.517   7.157 -0.4955  0.0505 -0.6090
 7596SOL    HW134421   2.575   1.481   7.244 -2.6260 -0.1001 -0.1955
 7596SOL    HW234422   2.469   1.479   7.141  0.4200 -2.0792 -0.4958
 7597SOL     OW34423   3.092   1.405   6.009  0.0665 -0.1121  0.3448
 7597SOL    HW134424   3.140   1.324   5.989 -0.6426  0.0177 -1.8004
 7597SOL    HW234425   3.043   1.383   6.088 -3.2513  2.4821 -1.0289
 7598SOL     OW34426   2.033   0.616   6.850 -0.3325  0.1925 -0.0960
 7598SOL    HW134427   2.106   0.559   6.873 -1.9547 -2.1138 -0.5958
 7598SOL    HW234428   2.001   0.581   6.766  0.5415 -2.5130  0.7216
 7599SOL     OW34429   3.497   3.852  15.466 -0.7568 -0.3582  0.0109
 7599SOL    HW134430   3.526   3.776  15.415  1.0176  0.3872 -0.0819
 7599SOL    HW234431   3.583   3.868  15.504 -1.1798  1.0768  0.3376
 7600SOL     OW34432   0.628   1.636   6.931 -0.1308 -0.5199  0.1922
 7600SOL    HW134433   0.533   1.625   6.922 -0.3321  0.5640  0.9763
 7600SOL    HW234434   0.635   1.613   7.024 -1.5824 -1.0099  0.1791
 7601SOL     OW34435   3.179   0.493   4.098  0.0663 -0.1430 -0.0081
 7601SOL    HW134436   3.119   0.542   4.155  0.8323  0.8929 -0.0802
 7601SOL    HW234437   3.130   0.500   4.017  0.7424  3.4812 -0.0983
 7602SOL     OW34438   0.320   0.589   2.037 -0.2225 -0.7752 -0.5522
 7602SOL    HW134439   0.307   0.574   1.944  1.2362 -0.6095 -0.7824
 7602SOL    HW234440   0.389   0.656   2.042 -1.0873 -0.0503  1.6815
 7603SOL     OW34441   4.357   4.258   3.214 -0.0764  0.1057 -0.1142
 7603SOL    HW134442   4.296   4.331   3.218  2.1868  1.9900  0.0196
 7603SOL    HW234443   4.312   4.193   3.268 -1.1001 -0.6923 -1.9077
 7604SOL     OW34444   2.227   0.042   9.062 -0.7223 -0.1807  0.4744
 7604SOL    HW134445   2.220   0.103   8.989  2.4761 -0.9473 -0.4608
 7604SOL    HW234446   2.135   0.022   9.077 -0.4950 -0.9162  0.8898
 7605SOL     OW34447   0.818   0.382   6.268  0.1300 -0.2684  0.0969
 7605SOL    HW134448   0.845   0.295   6.295  1.1034  0.6454  2.0790
 7605SOL    HW234449   0.733   0.387   6.313 -0.9099 -2.1217 -1.6559
 7606SOL     OW34450   1.826   4.246   8.681 -0.0599  0.9340  0.2006
 7606SOL    HW134451   1.772   4.302   8.737 -0.4083  0.8709 -0.0731
 7606SOL    HW234452   1.769   4.169   8.681 -1.0550  1.7048 -1.8009
 7607SOL     OW34453   1.824   3.949   4.404 -0.7594 -0.0397  0.1031
 7607SOL    HW134454   1.815   3.990   4.490  0.2855  0.0529  0.1633
 7607SOL    HW234455   1.879   3.876   4.430  0.9940  1.0797 -0.4723
 7608SOL     OW34456   3.252   4.112   7.766  0.1917 -0.3062  0.2417
 7608SOL    HW134457   3.215   4.024   7.773  0.9793 -0.8061 -1.8486
 7608SOL    HW234458   3.338   4.076   7.742 -1.0752 -1.7770 -2.0802
 7609SOL     OW34459   3.503   4.539   7.175 -0.4882  0.1701 -0.3886
 7609SOL    HW134460   3.435   4.486   7.135 -2.1091  1.9412  0.0451
 7609SOL    HW234461   3.451   4.616   7.196 -0.0269 -0.2440  2.2780
 7610SOL     OW34462   0.390   4.692   4.428 -0.4136  0.5359 -0.1052
 7610SOL    HW134463   0.304   4.652   4.440  0.1677 -1.1816 -1.5800
 7610SOL    HW234464   0.359   0.029   4.374 -1.4570 -0.3145 -0.6660
 7611SOL     OW34465   0.053   2.597   2.488 -0.1679 -0.3781 -0.1626
 7611SOL    HW134466   4.726   2.570   2.555 -0.9051 -2.0026 -1.5239
 7611SOL    HW234467   0.062   2.526   2.425 -0.4458 -0.9738  0.4664
 7612SOL     OW34468   2.552   4.016   4.573 -0.8487  0.3762  0.2388
 7612SOL    HW134469   2.618   3.962   4.616 -0.6355 -0.6098 -1.3096
 7612SOL    HW234470   2.472   3.967   4.554 -1.7339  1.8385  0.2871
 7613SOL     OW34471   2.771   0.934   1.677  0.7790  0.3853 -0.5110
 7613SOL    HW134472   2.737   0.883   1.604 -1.2130 -0.0568  0.7336
 7613SOL    HW234473   2.831   0.998   1.637  2.2751  0.4538  1.8381
 7614SOL     OW34474   1.941   0.455   4.743  0.7407  0.0401  0.3677
 7614SOL    HW134475   1.979   0.502   4.817  0.8247 -0.1319  0.4339
 7614SOL    HW234476   1.850   0.481   4.758  0.4187 -0.4485 -0.6906
 7615SOL     OW34477   2.410   1.613   9.468 -0.5743  0.1721  0.6799
 7615SOL    HW134478   2.424   1.700   9.504 -0.4135  1.1744 -1.8224
 7615SOL    HW234479   2.441   1.564   9.545  1.5490 -0.8201 -0.7999
 7616SOL     OW34480   1.838   2.373   3.008 -0.2205 -0.9827  0.0493
 7616SOL    HW134481   1.749   2.338   3.011 -1.0081  1.0019 -0.0986
 7616SOL    HW234482   1.833   2.430   3.084 -0.3218  0.4291 -1.0207
 7617SOL     OW34483   2.790   0.440   5.098  0.2826  0.2061 -0.2932
 7617SOL    HW134484   2.743   0.390   5.031  1.5609 -2.1841  0.5742
 7617SOL    HW234485   2.841   0.371   5.141 -1.1090 -0.6539 -0.0143
 7618SOL     OW34486   3.518   1.502   7.697  0.3944 -0.8496  0.4182
 7618SOL    HW134487   3.553   1.413   7.688  0.9909 -0.9721  3.7731
 7618SOL    HW234488   3.457   1.507   7.623 -0.6842 -0.1979  1.3444
 7619SOL     OW34489   1.201   2.856   4.385  0.4855 -0.0072  0.1149
 7619SOL    HW134490   1.246   2.907   4.453 -1.1399  1.0367  0.4064
 7619SOL    HW234491   1.217   2.771   4.427  0.2230 -0.5201 -0.8231
 7620SOL     OW34492   2.720   4.212   4.264 -0.3779 -1.1079  0.5296
 7620SOL    HW134493   2.725   4.265   4.184  0.6547 -3.0346 -0.7053
 7620SOL    HW234494   2.717   4.279   4.331  0.4055 -1.2240  0.6874
 7621SOL     OW34495   0.443   4.005   8.840 -0.1573 -0.8593  0.3779
 7621SOL    HW134496   0.357   4.039   8.815  0.6906  0.9330 -0.1177
 7621SOL    HW234497   0.444   4.053   8.923  1.2150 -1.0133  0.4498
 7622SOL     OW34498   2.195   1.485   8.375  0.0994  0.3392 -0.5584
 7622SOL    HW134499   2.181   1.392   8.359 -2.1392  0.5118  0.3952
 7622SOL    HW234500   2.109   1.523   8.357  0.1791  1.7833  2.0255
 7623SOL     OW34501   4.120   1.088  12.856 -0.2762 -0.0237  0.3123
 7623SOL    HW134502   4.138   1.172  12.812 -1.9784  0.2630  0.1568
 7623SOL    HW234503   4.113   1.024  12.786 -0.5300  1.2770 -0.8697
 7624SOL     OW34504   1.153   4.543   8.015  0.5662  0.4998  0.2148
 7624SOL    HW134505   1.155   4.592   8.098  1.1434  0.0118  0.4931
 7624SOL    HW234506   1.245   4.546   7.991  0.6205 -2.7276  0.0492
 7625SOL     OW34507   3.096   4.644   3.495 -0.4455 -0.1128 -0.2074
 7625SOL    HW134508   3.016   4.600   3.467  0.0775 -0.3401 -1.3507
 7625SOL    HW234509   3.065   4.735   3.496  2.4926  0.8661  0.4580
 7626SOL     OW34510   2.526   1.876   0.435 -0.4000 -0.5672  0.1037
 7626SOL    HW134511   2.485   1.900   0.352 -0.9301 -0.2195  0.4701
 7626SOL    HW234512   2.525   1.780   0.427 -0.2280 -0.4343 -1.5609
 7627SOL     OW34513   4.735   2.295   3.461 -0.4319  0.8534  0.1767
 7627SOL    HW134514   0.025   2.206   3.439 -1.9247  0.9782 -2.0728
 7627SOL    HW234515   0.073   2.332   3.511  0.0871 -1.2228  0.9360
 7628SOL     OW34516   4.723   3.255   5.424 -0.3991 -0.9318  0.4172
 7628SOL    HW134517   4.676   3.285   5.502 -2.6931  0.9085 -1.7102
 7628SOL    HW234518   0.056   3.322   5.429 -0.8974 -0.4967  1.4670
 7629SOL     OW34519   2.297   1.721   6.947  0.1387  0.8306  0.3155
 7629SOL    HW134520   2.338   1.648   6.993 -0.3411 -1.0208 -2.1910
 7629SOL    HW234521   2.288   1.693   6.856 -2.3962  1.3520  0.3966
 7630SOL     OW34522   4.364   0.633  12.787  0.0741 -0.3647  0.0608
 7630SOL    HW134523   4.335   0.608  12.700  0.7020 -1.3021  0.1128
 7630SOL    HW234524   4.280   0.651  12.829  0.8445 -0.2318  1.5541
 7631SOL     OW34525   1.517   3.084   4.123 -0.3306  0.0111 -0.5517
 7631SOL    HW134526   1.595   3.030   4.136  0.2351  1.3570  1.6314
 7631SOL    HW234527   1.447   3.023   4.100 -0.2909  0.9634 -3.1733
 7632SOL     OW34528   0.102   1.448   7.138  0.5084 -0.4288 -0.3065
 7632SOL    HW134529   0.195   1.445   7.163  0.0205  0.5093  1.5672
 7632SOL    HW234530   0.085   1.363   7.097  0.4372  0.4216 -2.0372
 7633SOL     OW34531   0.740   4.612  13.316 -0.7328  0.2481  0.2711
 7633SOL    HW134532   0.801   4.650  13.253 -1.0889 -1.0100 -0.8374
 7633SOL    HW234533   0.805   4.559  13.360  2.4986  2.8942 -1.3042
 7634SOL     OW34534   0.022   2.824   6.671 -0.4454 -0.0595  0.8629
 7634SOL    HW134535   0.068   2.750   6.631 -2.3013 -0.9806  0.4538
 7634SOL    HW234536   4.668   2.829   6.638 -0.0631 -0.1429 -0.1953
 7635SOL     OW34537   1.265   4.212   4.144 -0.4295 -0.2679  0.0352
 7635SOL    HW134538   1.290   4.140   4.086 -1.2573  0.2250 -0.9391
 7635SOL    HW234539   1.335   4.232   4.206  0.8473  0.2785 -1.5631
 7636SOL     OW34540   2.871   2.795   7.449  0.0610 -0.1945  0.5289
 7636SOL    HW134541   2.806   2.794   7.520 -2.5893  1.2050 -1.8807
 7636SOL    HW234542   2.837   2.869   7.400 -1.2726 -0.1684  1.4811
 7637SOL     OW34543   3.709   1.948   6.462 -0.0567  0.3163  0.4183
 7637SOL    HW134544   3.697   1.959   6.367  2.1052  0.3229  0.1497
 7637SOL    HW234545   3.765   2.024   6.480  1.1178 -0.6326  0.7329
 7638SOL     OW34546   1.368   3.112   2.468  0.0315  0.0142 -0.1144
 7638SOL    HW134547   1.418   3.151   2.396  1.3362 -0.6675  0.4177
 7638SOL    HW234548   1.278   3.124   2.439 -0.6052  0.3092  2.0114
 7639SOL     OW34549   1.569   0.401   5.673  0.3838  0.2713  0.1548
 7639SOL    HW134550   1.507   0.394   5.745  0.0606 -2.6576 -0.4374
 7639SOL    HW234551   1.628   0.331   5.702 -0.2576 -0.1573  0.4150
 7640SOL     OW34552   1.202   1.635   8.876 -0.2717  0.0216  0.1306
 7640SOL    HW134553   1.222   1.710   8.931 -1.0899  1.1781 -1.1458
 7640SOL    HW234554   1.130   1.599   8.928  0.4499 -0.2769  0.9144
 7641SOL     OW34555   1.381   0.864   9.127 -0.1092 -0.1149 -0.2186
 7641SOL    HW134556   1.322   0.874   9.201  0.9116 -1.6467  0.7914
 7641SOL    HW234557   1.312   0.877   9.062 -1.2343 -2.6267  0.5053
 7642SOL     OW34558   1.175   4.289   4.484  0.4449  0.3276  1.0531
 7642SOL    HW134559   1.176   4.193   4.488  2.2894  0.3004  0.1604
 7642SOL    HW234560   1.270   4.305   4.485  0.6700 -0.9099  0.6324
 7643SOL     OW34561   1.722   2.205   8.320  0.0684  0.6074  0.3454
 7643SOL    HW134562   1.815   2.182   8.310 -0.2326 -0.3986 -0.1370
 7643SOL    HW234563   1.717   2.260   8.242 -2.5116  1.1224  0.8891
 7644SOL     OW34564   3.656   0.038   1.810 -0.0795  0.0423  0.0754
 7644SOL    HW134565   3.602   0.090   1.750 -0.7802  0.6661  1.2482
 7644SOL    HW234566   3.645   0.081   1.895 -0.5309 -0.0844  0.0820
 7645SOL     OW34567   1.856   0.961   6.175 -0.0637 -0.1950 -0.3423
 7645SOL    HW134568   1.901   0.880   6.152  2.5023  1.4629 -1.2112
 7645SOL    HW234569   1.775   0.948   6.128  0.0873  1.1714 -0.9679
 7646SOL     OW34570   4.683   2.504  11.533 -0.0743 -0.3352 -0.2224
 7646SOL    HW134571   4.592   2.476  11.528 -0.2283  0.5109 -2.5748
 7646SOL    HW234572   4.711   2.482  11.444 -2.1309 -0.2466 -0.8940
 7647SOL     OW34573   1.925   2.752   2.337  0.6223  0.1966 -0.0742
 7647SOL    HW134574   1.908   2.828   2.281 -0.3140  0.7211  0.9371
 7647SOL    HW234575   1.993   2.787   2.394 -2.6719 -0.2231  4.0976
 7648SOL     OW34576   4.298   4.098   4.478 -0.5910  0.2315 -0.1174
 7648SOL    HW134577   4.203   4.087   4.483 -0.6462  0.9102  0.3483
 7648SOL    HW234578   4.317   4.005   4.490  3.0646  0.9489 -0.5134
 7649SOL     OW34579   0.993   3.484   9.336  0.4580 -0.1094  0.0352
 7649SOL    HW134580   0.919   3.476   9.397  0.3660 -0.3393 -0.1031
 7649SOL    HW234581   0.948   3.548   9.281 -0.2891 -0.9436 -0.3428
 7650SOL     OW34582   0.623   3.398   4.588 -0.2004  0.8028 -0.2051
 7650SOL    HW134583   0.658   3.347   4.661 -2.0896  0.7294  0.6542
 7650SOL    HW234584   0.684   3.471   4.594  0.5155  0.0746  1.3640
 7651SOL     OW34585   4.334   4.117   1.549  0.8874 -0.1377 -0.5349
 7651SOL    HW134586   4.353   4.133   1.457  0.1483  0.9557 -0.4862
 7651SOL    HW234587   4.410   4.062   1.570 -0.7989 -2.1928  0.1049
 7652SOL     OW34588   4.353   0.615   2.295 -0.1264  0.4479  0.0598
 7652SOL    HW134589   4.379   0.582   2.381 -3.2407  1.5848  1.4237
 7652SOL    HW234590   4.334   0.530   2.257  1.6611 -0.5029  1.3087
 7653SOL     OW34591   2.296   1.509   0.551  0.5107 -0.0315  0.1039
 7653SOL    HW134592   2.202   1.526   0.550  0.4678 -0.3231 -0.5753
 7653SOL    HW234593   2.294   1.451   0.627  1.9493 -0.2581 -0.0251
 7654SOL     OW34594   2.596   3.316   2.285 -0.3886 -0.0745  0.3268
 7654SOL    HW134595   2.584   3.308   2.190 -1.2906 -0.8674  0.4990
 7654SOL    HW234596   2.575   3.229   2.319 -2.6517  0.1160 -0.6019
 7655SOL     OW34597   2.158   2.433   6.999 -0.4916  0.1331 -0.2357
 7655SOL    HW134598   2.202   2.518   6.996 -1.6791  0.7227 -1.2022
 7655SOL    HW234599   2.108   2.438   7.080  1.0649 -1.6053  0.8202
 7656SOL     OW34600   1.940   0.745  10.361  0.5180 -1.0096 -0.6303
 7656SOL    HW134601   1.845   0.734  10.366  0.2833  0.3234 -2.1222
 7656SOL    HW234602   1.965   0.699  10.281  0.3443 -1.1583 -0.5981
 7657SOL     OW34603   4.112   1.313  16.032  0.2859  0.5259 -0.0768
 7657SOL    HW134604   4.092   1.341  16.122  0.7128 -1.1485  0.5403
 7657SOL    HW234605   4.023   1.293  16.002 -0.9555  2.2898  2.3940
 7658SOL     OW34606   4.204   1.991   5.842 -0.2601 -0.6500 -0.3850
 7658SOL    HW134607   4.247   2.077   5.846  2.1314 -1.9343  0.9272
 7658SOL    HW234608   4.134   2.008   5.778 -2.6509  2.6551  3.0694
 7659SOL     OW34609   0.432   1.746   3.697  0.7863 -0.0381 -0.0750
 7659SOL    HW134610   0.512   1.766   3.746  0.7773  0.1261 -0.1296
 7659SOL    HW234611   0.435   1.801   3.619 -2.5875  1.6487  1.0080
 7660SOL     OW34612   1.533   2.917   8.076 -0.0468  0.3336  0.1264
 7660SOL    HW134613   1.493   2.863   8.145 -0.5956  2.4956  1.4844
 7660SOL    HW234614   1.480   2.880   8.005 -1.1950  1.4388  0.4274
 7661SOL     OW34615   4.271   3.847  12.762 -0.3649  0.7441  0.0473
 7661SOL    HW134616   4.308   3.761  12.744  1.5928  1.5258  0.3111
 7661SOL    HW234617   4.184   3.834  12.726 -0.3560  0.6603  0.0580
 7662SOL     OW34618   0.298   2.204   0.425  0.0391 -0.2910 -0.1719
 7662SOL    HW134619   0.285   2.117   0.386  1.6586  0.4822 -2.4495
 7662SOL    HW234620   0.218   2.214   0.475 -0.7295  1.0067 -1.6787
 7663SOL     OW34621   0.439   2.006  12.322 -0.3291 -0.1195  0.1981
 7663SOL    HW134622   0.479   1.922  12.300  1.0453  0.1997  1.4452
 7663SOL    HW234623   0.462   2.024  12.413  0.5274 -2.2370  0.4179
 7664SOL     OW34624   1.821   1.493  15.124 -0.0699  0.1046  0.7410
 7664SOL    HW134625   1.881   1.554  15.081 -0.1057  0.0316  0.5898
 7664SOL    HW234626   1.843   1.414  15.075  0.3376  1.1390 -0.7371
 7665SOL     OW34627   3.820   4.155   9.635 -0.1491 -0.1286  0.2820
 7665SOL    HW134628   3.769   4.097   9.690  1.4052 -0.5535  1.2666
 7665SOL    HW234629   3.910   4.146   9.665  0.3031  1.1292 -0.6516
 7666SOL     OW34630   4.306   4.412   6.049  0.3483  0.5763 -0.2277
 7666SOL    HW134631   4.290   4.498   6.010 -1.2644 -0.3421 -1.6049
 7666SOL    HW234632   4.384   4.382   6.003  2.0615  0.9296  2.4477
 7667SOL     OW34633   0.982   1.825   5.444  0.0021 -0.0107 -0.2857
 7667SOL    HW134634   1.034   1.775   5.381  0.7383  0.0793  0.2509
 7667SOL    HW234635   0.985   1.764   5.517  2.0203  0.0412 -0.3239
 7668SOL     OW34636   1.527   3.516  13.708  0.0136  0.0707  0.3385
 7668SOL    HW134637   1.472   3.589  13.679 -0.3991  0.3561  1.8649
 7668SOL    HW234638   1.610   3.554  13.676  0.2442 -0.4241  0.3568
 7669SOL     OW34639   0.496   0.760  15.148 -0.3576  0.3712 -0.7803
 7669SOL    HW134640   0.529   0.765  15.238  1.0469  0.5390 -1.3004
 7669SOL    HW234641   0.570   0.728  15.095  0.3645 -1.9285  1.5894
 7670SOL     OW34642   1.777   2.877   3.747 -0.1598  0.4659 -0.3938
 7670SOL    HW134643   1.797   2.783   3.748 -3.3836 -0.2455  0.8651
 7670SOL    HW234644   1.849   2.909   3.694  1.0197 -0.1401  0.8609
 7671SOL     OW34645   1.462   1.596   5.124 -0.0311  0.0896 -0.4123
 7671SOL    HW134646   1.397   1.624   5.060  1.0244 -0.3504 -1.6759
 7671SOL    HW234647   1.517   1.535   5.074 -0.3673 -0.3464 -0.2506
 7672SOL     OW34648   3.085   3.843   9.578 -0.2365 -0.1992  0.1733
 7672SOL    HW134649   3.138   3.859   9.500  3.3588 -0.2794  2.5942
 7672SOL    HW234650   3.069   3.748   9.580  2.6670 -0.6547  1.1680
 7673SOL     OW34651   0.601   1.015   9.177  0.0129 -0.3102  0.1377
 7673SOL    HW134652   0.662   0.951   9.215  0.1246 -0.7479 -0.7817
 7673SOL    HW234653   0.625   1.099   9.215 -1.2620 -0.2529  0.8004
 7674SOL     OW34654   2.075   3.508   2.994  0.2941 -0.0824 -0.5157
 7674SOL    HW134655   2.107   3.428   2.952  0.6324  0.3516 -1.0764
 7674SOL    HW234656   2.088   3.566   2.919 -1.7987  2.2464  0.9317
 7675SOL     OW34657   4.590   1.106  15.583 -0.4316  0.1807 -0.2627
 7675SOL    HW134658   4.544   1.077  15.505 -1.8767 -0.4378  0.8220
 7675SOL    HW234659   4.684   1.087  15.575 -0.5619 -0.4866 -0.2173
 7676SOL     OW34660   3.719   3.953   3.072  0.1162 -0.0869 -0.0961
 7676SOL    HW134661   3.653   4.020   3.085 -1.8152 -1.8718 -0.7984
 7676SOL    HW234662   3.743   3.964   2.980 -0.4871  1.0205 -0.1125
 7677SOL     OW34663   3.307   1.588   5.998 -0.0707  0.1511 -0.3857
 7677SOL    HW134664   3.333   1.535   5.923  1.6214  1.3138 -0.6153
 7677SOL    HW234665   3.233   1.537   6.032  2.0072 -2.0586  0.8344
 7678SOL     OW34666   1.925   1.770   1.262  0.9638 -0.4516 -0.3523
 7678SOL    HW134667   1.940   1.843   1.322  0.2797 -0.6736  0.0829
 7678SOL    HW234668   1.875   1.818   1.196  0.3435 -2.5165 -1.3892
 7679SOL     OW34669   1.110   2.967   9.446  0.4125  0.0729  0.3856
 7679SOL    HW134670   1.180   2.930   9.392 -0.2728 -0.9033  0.1576
 7679SOL    HW234671   1.043   2.996   9.385  2.8401  0.3037 -2.1534
 7680SOL     OW34672   3.487   3.979   2.496  0.6835  0.4117  0.1369
 7680SOL    HW134673   3.551   4.019   2.436 -0.3645 -2.1417 -2.6706
 7680SOL    HW234674   3.436   3.925   2.435  1.9808 -0.6124 -0.0296
 7681SOL     OW34675   3.451   1.180   9.072 -0.2831 -0.4808  0.2307
 7681SOL    HW134676   3.373   1.232   9.089  1.4827  2.4082 -0.6061
 7681SOL    HW234677   3.516   1.213   9.134  0.0994 -0.8335  0.0176
 7682SOL     OW34678   4.689   1.883   2.840  0.4723  0.6258  0.5808
 7682SOL    HW134679   4.671   1.830   2.918  0.1131 -0.5001 -0.2500
 7682SOL    HW234680   4.597   1.882   2.812  0.6986  1.6958 -0.1995
 7683SOL     OW34681   1.785   0.831   4.631 -0.3571 -0.6101 -0.1819
 7683SOL    HW134682   1.821   0.744   4.611 -0.1507 -0.7599  0.8542
 7683SOL    HW234683   1.779   0.811   4.724 -1.8781 -0.1634 -0.1903
 7684SOL     OW34684   0.891   1.454  12.678  0.1189  0.3773  0.4562
 7684SOL    HW134685   0.857   1.365  12.674  0.4325  0.2876 -0.1657
 7684SOL    HW234686   0.985   1.441  12.666 -0.3967 -1.2844 -1.6940
 7685SOL     OW34687   3.184   3.818   6.878 -0.2259  0.3462  0.4853
 7685SOL    HW134688   3.264   3.848   6.833 -0.0054 -0.1542  0.5513
 7685SOL    HW234689   3.165   3.739   6.828  2.2039  0.3575 -0.4881
 7686SOL     OW34690   3.508   4.443   6.745 -0.3251  0.0446 -0.0295
 7686SOL    HW134691   3.539   4.377   6.683 -0.1423  1.4669 -1.4648
 7686SOL    HW234692   3.413   4.439   6.734 -0.3182  0.5087 -0.2521
 7687SOL     OW34693   2.953   1.871   5.218 -0.0660  0.2024  0.4799
 7687SOL    HW134694   2.963   1.821   5.299 -1.8975 -2.7813 -1.1378
 7687SOL    HW234695   2.890   1.939   5.240 -0.9491 -0.1133 -1.0386
 7688SOL     OW34696   3.253   4.551  15.377 -0.0180 -0.0533  0.2829
 7688SOL    HW134697   3.198   4.482  15.413 -1.2808  0.2128 -1.2021
 7688SOL    HW234698   3.291   4.575  15.462 -4.5880  2.8125  1.5200
 7689SOL     OW34699   3.976   1.170   5.850  0.0557  0.3887 -0.2636
 7689SOL    HW134700   4.044   1.143   5.789  0.0083  3.1937 -1.5341
 7689SOL    HW234701   3.903   1.128   5.805 -0.9803 -0.6447  2.3710
 7690SOL     OW34702   4.298   1.591   2.046 -0.1400  0.2496 -0.2513
 7690SOL    HW134703   4.374   1.549   2.005  1.5314  1.8221  1.2439
 7690SOL    HW234704   4.232   1.532   2.010  0.5911 -0.6973 -0.0486
 7691SOL     OW34705   4.349   1.755   7.252 -0.1825 -0.3355  0.0017
 7691SOL    HW134706   4.388   1.683   7.302 -1.6439  0.0179  1.6334
 7691SOL    HW234707   4.425   1.804   7.221 -0.3917  1.5723  2.5036
 7692SOL     OW34708   3.293   2.249  14.536  0.3518  0.7929 -0.2253
 7692SOL    HW134709   3.206   2.243  14.578  1.3475 -0.1217  1.7103
 7692SOL    HW234710   3.264   2.295  14.458 -1.4537 -1.3693 -0.8486
 7693SOL     OW34711   4.034   2.066   5.613  0.0559  0.1473 -0.2682
 7693SOL    HW134712   4.093   2.103   5.548  1.2025 -1.5539 -0.1922
 7693SOL    HW234713   3.950   2.111   5.600  0.3638  0.9339  0.5170
 7694SOL     OW34714   2.475   0.962  11.937 -0.2417 -0.3540  0.6378
 7694SOL    HW134715   2.489   1.047  11.894 -1.7625 -0.1509  0.5351
 7694SOL    HW234716   2.418   0.924  11.870 -0.2645 -1.3865  1.2434
 7695SOL     OW34717   3.043   1.122   7.531 -0.1165 -0.7784 -0.0402
 7695SOL    HW134718   3.086   1.153   7.611 -1.6087 -1.6990  1.1153
 7695SOL    HW234719   3.118   1.116   7.472 -1.0449  2.9767 -1.5690
 7696SOL     OW34720   0.728   1.174  10.128 -0.3339  0.4502 -0.0166
 7696SOL    HW134721   0.745   1.095  10.179  1.6330  0.3970 -0.7465
 7696SOL    HW234722   0.733   1.246  10.191 -2.1869 -0.5219  1.2431
 7697SOL     OW34723   1.725   3.077  13.927  0.3553 -0.2349  0.0581
 7697SOL    HW134724   1.655   3.131  13.964  0.7607 -0.5308  1.2365
 7697SOL    HW234725   1.685   2.992  13.912  2.0128 -1.0781  0.4419
 7698SOL     OW34726   2.037   4.047   8.819  0.3827 -0.2869 -0.0907
 7698SOL    HW134727   2.006   4.066   8.730 -0.2037  3.4661  0.9463
 7698SOL    HW234728   2.102   4.116   8.831  0.6156 -0.7385  1.1686
 7699SOL     OW34729   3.793   3.325   6.565 -0.1758  0.6790  0.1491
 7699SOL    HW134730   3.793   3.374   6.483  1.2183  1.3211  0.5282
 7699SOL    HW234731   3.863   3.260   6.554 -0.9449  0.1613 -1.6205
 7700SOL     OW34732   0.044   1.285   4.518  0.0536 -0.4344  0.2018
 7700SOL    HW134733   0.086   1.225   4.457  0.1551 -1.8559  1.6784
 7700SOL    HW234734   0.064   1.358   4.460  1.2554 -0.8362  0.1277
 7701SOL     OW34735   0.272   1.625  17.680  0.1565  0.0974  0.0069
 7701SOL    HW134736   0.202   1.561  17.685 -0.7086  1.1991  2.0437
 7701SOL    HW234737   0.317   1.608  17.597  0.2957  0.3379  0.0311
 7702SOL     OW34738   1.470   1.392   4.597 -0.0863 -0.7212 -0.1116
 7702SOL    HW134739   1.513   1.353   4.673 -0.5435 -3.1103 -1.0893
 7702SOL    HW234740   1.377   1.367   4.600 -0.9194  2.2655 -0.3103
 7703SOL     OW34741   2.994   0.271   1.978 -0.3068 -0.1375 -0.1518
 7703SOL    HW134742   3.036   0.206   1.922 -0.2683  0.4887 -0.8496
 7703SOL    HW234743   2.905   0.269   1.943 -0.7789  1.3085  0.9522
 7704SOL     OW34744   3.487   4.089  16.121  0.1662  0.5756 -0.1790
 7704SOL    HW134745   3.564   4.045  16.156 -1.0165 -1.5293 -0.1604
 7704SOL    HW234746   3.521   4.145  16.052 -0.0683  1.0909  0.1241
 7705SOL     OW34747   3.745   1.605  16.043  0.1030  0.0585  1.1368
 7705SOL    HW134748   3.789   1.636  16.122 -0.4185  1.7643  0.7728
 7705SOL    HW234749   3.655   1.629  16.062 -0.6544 -3.0600  1.3975
 7706SOL     OW34750   0.836   3.703   5.177  0.5996  0.2217 -0.9211
 7706SOL    HW134751   0.786   3.646   5.118  1.9751 -2.3637  0.3936
 7706SOL    HW234752   0.841   3.779   5.119 -2.8717  0.9376 -0.3259
 7707SOL     OW34753   0.498   4.119   1.084 -0.7920 -0.6738 -0.0035
 7707SOL    HW134754   0.572   4.178   1.072  0.7042 -2.3208  1.1916
 7707SOL    HW234755   0.434   4.182   1.051 -1.6327 -1.7310 -0.3967
 7708SOL     OW34756   3.753   4.359   6.862  0.1355  0.3818 -0.4658
 7708SOL    HW134757   3.664   4.395   6.866 -0.2396 -0.6058 -0.1094
 7708SOL    HW234758   3.739   4.270   6.894 -1.4111  0.5976 -0.5726
 7709SOL     OW34759   3.922   1.740   7.938 -0.1688 -0.2307 -0.4925
 7709SOL    HW134760   3.861   1.690   7.882 -0.0540 -0.0934 -0.7410
 7709SOL    HW234761   3.856   1.806   7.962 -0.9600 -1.2258  0.0883
 7710SOL     OW34762   1.053   3.586  15.020  0.2337  0.1535 -0.3121
 7710SOL    HW134763   1.011   3.651  15.076 -1.5821 -1.5492  0.2569
 7710SOL    HW234764   1.141   3.625  15.027 -0.4518  1.4993  0.8169
 7711SOL     OW34765   4.615   4.634   4.495  0.1321  0.0793 -0.1539
 7711SOL    HW134766   4.557   4.602   4.426 -1.3212  2.2687  0.0413
 7711SOL    HW234767   4.568   4.610   4.575 -0.5189  2.6768  0.2595
 7712SOL     OW34768   3.200   0.305   7.135 -0.2188  0.2027 -0.3376
 7712SOL    HW134769   3.271   0.327   7.196  0.3222  0.1273 -0.9399
 7712SOL    HW234770   3.242   0.329   7.053  0.0862 -1.4073 -0.6498
 7713SOL     OW34771   4.288   1.907   6.917  0.4286 -0.4727  0.3681
 7713SOL    HW134772   4.379   1.936   6.916  0.4454 -0.5316  0.1716
 7713SOL    HW234773   4.246   1.915   6.831  0.3383  3.7998  0.8408
 7714SOL     OW34774   2.780   2.103   8.708 -0.1497 -0.0692 -0.0433
 7714SOL    HW134775   2.698   2.067   8.743  2.5296 -1.4609  4.8557
 7714SOL    HW234776   2.754   2.195   8.708 -1.2525 -0.3749  1.3670
 7715SOL     OW34777   3.296   3.303   4.093  0.3661  0.5751  1.1081
 7715SOL    HW134778   3.234   3.310   4.166 -0.1015  1.0963  0.6647
 7715SOL    HW234779   3.335   3.219   4.117  0.4532  0.1857 -0.3983
 7716SOL     OW34780   1.266   0.510   2.209 -0.2077 -0.2835 -0.4895
 7716SOL    HW134781   1.261   0.550   2.296  3.1087  0.7567 -0.7662
 7716SOL    HW234782   1.236   0.582   2.154  0.4115 -0.1311 -0.6257
 7717SOL     OW34783   2.266   3.518   7.353  0.4106  0.0493  0.1126
 7717SOL    HW134784   2.195   3.553   7.407  0.4849 -0.3502  0.4695
 7717SOL    HW234785   2.219   3.468   7.287 -0.5665 -0.6738  1.3677
 7718SOL     OW34786   1.284   3.310   8.164 -0.8303 -0.0682  0.0083
 7718SOL    HW134787   1.195   3.344   8.162  0.3320  2.9708 -0.1665
 7718SOL    HW234788   1.261   3.225   8.126  0.0605  0.1233 -0.9450
 7719SOL     OW34789   2.939   4.186  10.086  0.3263 -0.6035  0.4112
 7719SOL    HW134790   2.957   4.174   9.993 -0.9068 -2.4347  0.4166
 7719SOL    HW234791   3.019   4.153  10.126 -1.3759 -1.0536  3.4563
 7720SOL     OW34792   1.720   1.949   0.650 -0.0367  0.4738 -0.2513
 7720SOL    HW134793   1.768   2.003   0.712 -1.0515  0.2905  0.6744
 7720SOL    HW234794   1.699   2.018   0.587 -2.7043  0.5772  0.7708
 7721SOL     OW34795   2.861   3.046  17.318 -0.1791 -0.3606 -0.4967
 7721SOL    HW134796   2.902   3.006  17.242  0.2015  0.3240 -0.6525
 7721SOL    HW234797   2.775   3.063  17.279 -0.8791 -2.3885  0.1373
 7722SOL     OW34798   4.469   2.158  11.755  0.1401  0.9247 -0.7108
 7722SOL    HW134799   4.450   2.239  11.802 -1.1590  0.4972 -0.4977
 7722SOL    HW234800   4.410   2.167  11.680  0.7938 -0.4138 -1.3855
 7723SOL     OW34801   2.512   2.478  12.530 -0.3776 -0.3590  0.4559
 7723SOL    HW134802   2.498   2.567  12.563  1.3679 -0.1180  0.5420
 7723SOL    HW234803   2.593   2.493  12.482 -1.0201 -1.1380 -0.8690
 7724SOL     OW34804   3.599   3.195   6.237 -0.3413 -0.0921  0.0918
 7724SOL    HW134805   3.567   3.187   6.327  1.0886  0.8397  0.6994
 7724SOL    HW234806   3.562   3.111   6.211 -0.7805 -0.8786  3.2646
 7725SOL     OW34807   4.536   1.883   9.674 -0.2809 -0.2083 -0.1794
 7725SOL    HW134808   4.469   1.826   9.635  1.0475 -0.9436 -1.3794
 7725SOL    HW234809   4.616   1.830   9.676  0.0238  0.2907  0.7816
 7726SOL     OW34810   0.301   1.632   2.510 -0.5522  0.0529  0.1749
 7726SOL    HW134811   0.383   1.629   2.560 -1.1212 -1.9154  1.0170
 7726SOL    HW234812   0.243   1.571   2.556 -1.5554  0.8322 -0.0821
 7727SOL     OW34813   2.949   1.436   6.258 -0.0689 -0.4086 -0.2969
 7727SOL    HW134814   3.009   1.390   6.317  0.2195 -1.9427 -1.7720
 7727SOL    HW234815   2.869   1.390   6.285  0.2066  0.2491  1.6596
 7728SOL     OW34816   4.719   1.303  15.774  0.6660 -0.1149 -0.1395
 7728SOL    HW134817   0.002   1.222  15.822  0.3214  0.4773  0.9839
 7728SOL    HW234818   0.071   1.337  15.758  0.2876  2.0315  2.3471
 7729SOL     OW34819   3.227   1.144   7.314 -0.1757 -0.5922 -0.2693
 7729SOL    HW134820   3.247   1.164   7.222  2.5754  1.5876  0.8032
 7729SOL    HW234821   3.284   1.212   7.351  0.4287 -1.4086  0.2979
 7730SOL     OW34822   3.478   3.799   6.856 -0.7524 -0.1548 -0.4848
 7730SOL    HW134823   3.489   3.767   6.945  3.9397 -0.0841 -1.0478
 7730SOL    HW234824   3.514   3.722   6.811 -3.4242 -1.4546 -0.4234
 7731SOL     OW34825   2.933   0.348   3.517 -0.7025  0.2460 -0.2590
 7731SOL    HW134826   2.857   0.386   3.561 -0.0847 -2.1644  2.8990
 7731SOL    HW234827   2.978   0.313   3.594 -0.1413 -1.0199 -1.1568
 7732SOL     OW34828   3.506   4.087   2.753  0.2599  0.4116 -0.6316
 7732SOL    HW134829   3.498   4.045   2.667  0.2313  0.7190 -0.7772
 7732SOL    HW234830   3.429   4.044   2.789  1.6678 -0.5283  1.2886
 7733SOL     OW34831   0.521   3.162  17.199  0.6390  0.2913  0.8240
 7733SOL    HW134832   0.524   3.138  17.106  3.1572  0.1448  0.9400
 7733SOL    HW234833   0.515   3.257  17.191 -0.4180  0.0458 -1.3978
 7734SOL     OW34834   2.944   1.496   5.793 -0.2420 -0.4035 -0.2156
 7734SOL    HW134835   2.918   1.582   5.826  1.5666 -0.6792  1.9745
 7734SOL    HW234836   3.012   1.463   5.852 -0.0059  0.4803  0.0133
 7735SOL     OW34837   0.662   0.507   1.676 -1.1031  0.5621  0.0304
 7735SOL    HW134838   0.611   0.588   1.669 -2.1153  0.0508  1.4956
 7735SOL    HW234839   0.665   0.492   1.581  0.0796 -1.8246  0.4475
 7736SOL     OW34840   1.856   0.242  17.103 -0.5798 -0.2629  0.2398
 7736SOL    HW134841   1.890   0.235  17.014 -1.2551 -1.3249  0.0579
 7736SOL    HW234842   1.778   0.187  17.094 -0.6301 -0.7059  3.2410
 7737SOL     OW34843   1.178   1.122   3.868 -0.7369  0.0631  0.6336
 7737SOL    HW134844   1.267   1.151   3.844 -0.7062  0.2410  0.9532
 7737SOL    HW234845   1.202   1.094   3.956  0.0352  0.2702  0.4975
 7738SOL     OW34846   1.418   2.839   4.975 -0.1315  0.3001  0.2973
 7738SOL    HW134847   1.494   2.895   4.994 -0.0053  0.1440  0.2442
 7738SOL    HW234848   1.433   2.825   4.882 -1.4339 -1.5678  0.3817
 7739SOL     OW34849   0.031   3.036  10.517 -0.6742 -0.1450  0.2289
 7739SOL    HW134850   0.040   3.082  10.600 -0.4981  0.1180  0.0671
 7739SOL    HW234851   4.694   2.977  10.537 -1.0363  0.2439  0.0614
 7740SOL     OW34852   4.125   2.853   5.056  0.0794 -0.3044  0.0528
 7740SOL    HW134853   4.069   2.837   4.980 -0.3076  0.6272  0.1460
 7740SOL    HW234854   4.203   2.799   5.044 -0.0451 -0.8123  1.5500
 7741SOL     OW34855   4.033   0.394   3.113  0.0728 -0.0788 -0.1327
 7741SOL    HW134856   4.123   0.362   3.114  0.9767  2.4445 -1.0338
 7741SOL    HW234857   4.040   0.458   3.042  2.7102 -0.4152 -0.1881
 7742SOL     OW34858   4.660   4.067   3.636  0.3454  0.7806 -0.1614
 7742SOL    HW134859   4.570   4.098   3.650 -0.2524 -0.4787 -1.2513
 7742SOL    HW234860   4.656   3.993   3.697  0.5083  2.1903  1.5676
 7743SOL     OW34861   0.269   4.734   6.715  0.2862 -0.1774 -0.2857
 7743SOL    HW134862   0.326   4.671   6.760 -1.4803 -0.8979  0.9766
 7743SOL    HW234863   0.188   4.725   6.765 -2.0447  0.9832 -3.8281
 7744SOL     OW34864   0.433   0.921  13.472 -0.2851  0.6293  0.1765
 7744SOL    HW134865   0.458   0.903  13.563  1.0477  2.4795  0.1870
 7744SOL    HW234866   0.338   0.913  13.472 -0.3831  1.8313 -2.0982
 7745SOL     OW34867   1.702   2.484   6.496 -0.6315 -0.0324 -0.5604
 7745SOL    HW134868   1.714   2.478   6.402  0.0334 -0.2740 -0.4591
 7745SOL    HW234869   1.746   2.404   6.527 -0.0603 -0.1310 -1.6455
 7746SOL     OW34870   0.473   1.209   7.031 -0.2866 -0.9772 -0.6703
 7746SOL    HW134871   0.406   1.177   6.969 -2.1931  1.5971  0.0592
 7746SOL    HW234872   0.488   1.135   7.089 -2.2444 -3.8881 -3.8308
 7747SOL     OW34873   3.914   3.940   9.058 -0.2036  0.5703 -0.5453
 7747SOL    HW134874   3.922   4.028   9.096 -1.0227  0.9135 -1.1555
 7747SOL    HW234875   4.006   3.917   9.050 -0.3562  0.0167 -0.7263
 7748SOL     OW34876   1.394   2.980   6.488  0.3103 -0.6287  0.3356
 7748SOL    HW134877   1.474   3.020   6.453  0.3019 -0.1846  0.8260
 7748SOL    HW234878   1.425   2.932   6.564  1.2967 -2.3068 -1.1312
 7749SOL     OW34879   1.819   2.122   0.821  0.2357  0.4708  0.2550
 7749SOL    HW134880   1.798   2.205   0.862  1.8231  0.1705  1.6739
 7749SOL    HW234881   1.914   2.129   0.808  0.3386 -1.5263 -0.0631
 7750SOL     OW34882   0.761   3.548   6.001 -0.2212 -0.0434 -0.6516
 7750SOL    HW134883   0.840   3.503   6.032 -1.5161 -0.5066  1.9746
 7750SOL    HW234884   0.734   3.477   5.942  0.5750  0.2117 -1.3301
 7751SOL     OW34885   1.625   3.381  15.040 -0.4713 -0.5164 -0.3152
 7751SOL    HW134886   1.656   3.294  15.014 -0.4358 -0.1666 -1.4152
 7751SOL    HW234887   1.531   3.367  15.031 -0.6585  1.1702 -1.0319
 7752SOL     OW34888   2.832   3.252   3.510  0.0236  0.2289  0.0302
 7752SOL    HW134889   2.800   3.227   3.424  2.0197 -1.6609 -0.1674
 7752SOL    HW234890   2.925   3.229   3.508  0.3544  1.8264 -2.6532
 7753SOL     OW34891   3.091   1.605  14.610 -0.0548  0.2324 -0.2390
 7753SOL    HW134892   3.122   1.623  14.699 -1.5070  0.3448  0.2387
 7753SOL    HW234893   3.166   1.629  14.556 -0.6750  2.1011 -0.2894
 7754SOL     OW34894   1.663   0.533   3.242 -0.1920  0.2508 -0.0021
 7754SOL    HW134895   1.609   0.594   3.192 -0.1132  0.9004  0.7144
 7754SOL    HW234896   1.746   0.579   3.227 -0.2113  0.0178 -0.7946
 7755SOL     OW34897   1.061   1.081   4.350  0.1766  0.4584 -1.3502
 7755SOL    HW134898   1.021   1.073   4.437  0.0914  0.6554 -1.3720
 7755SOL    HW234899   1.150   1.095   4.383  0.5681 -1.2133 -1.6566
 7756SOL     OW34900   3.730   4.246  17.607  0.0850 -0.0895 -0.6940
 7756SOL    HW134901   3.711   4.340  17.618  1.9882  0.2851 -0.6719
 7756SOL    HW234902   3.825   4.251  17.605  0.1363  0.4859  2.0866
 7757SOL     OW34903   2.348   2.991   6.272 -0.2104  0.0399  0.1379
 7757SOL    HW134904   2.318   3.043   6.197  0.3462  1.4343  0.8714
 7757SOL    HW234905   2.360   3.052   6.345 -0.8687  0.8986 -0.4626
 7758SOL     OW34906   3.617   1.746   2.725 -0.4842 -0.6444  0.0126
 7758SOL    HW134907   3.659   1.737   2.810  1.3166 -2.1857 -1.0273
 7758SOL    HW234908   3.533   1.781   2.756  0.1383  1.0590 -0.2267
 7759SOL     OW34909   0.093   2.446   9.375 -0.4599  0.1008  0.4659
 7759SOL    HW134910   0.011   2.456   9.326 -0.8904  0.4504  1.2642
 7759SOL    HW234911   0.060   2.432   9.463 -0.4682  0.1044  0.4633
 7760SOL     OW34912   0.274   3.418   7.498  0.2925 -0.0149 -0.5978
 7760SOL    HW134913   0.363   3.421   7.463 -0.2491  0.2904 -1.9559
 7760SOL    HW234914   0.223   3.358   7.443  1.5980 -1.1390 -0.5936
 7761SOL     OW34915   4.039   0.288  12.757  0.5387 -0.1053  0.4090
 7761SOL    HW134916   4.120   0.265  12.801  0.7760  0.2494  0.1586
 7761SOL    HW234917   4.062   0.279  12.664 -2.8209 -1.4982 -0.2876
 7762SOL     OW34918   1.104   2.886   4.843  0.6504 -0.1239  0.1244
 7762SOL    HW134919   1.182   2.938   4.823  0.7083 -0.0365  0.5674
 7762SOL    HW234920   1.111   2.819   4.776  0.1319  0.4664 -0.5225
 7763SOL     OW34921   3.094   3.171   5.059  0.5183 -0.3879  0.1397
 7763SOL    HW134922   3.131   3.084   5.074 -0.7494 -1.1305 -1.0855
 7763SOL    HW234923   3.100   3.218   5.142 -0.2825  1.6587 -0.9774
 7764SOL     OW34924   4.339   2.053   4.722 -0.5384  0.5599 -0.2533
 7764SOL    HW134925   4.271   1.986   4.730  0.7974 -0.8132 -0.3161
 7764SOL    HW234926   4.303   2.134   4.758 -0.3152  0.7610 -0.4901
 7765SOL     OW34927   3.240   3.218   9.069  0.0854 -0.2942 -0.2665
 7765SOL    HW134928   3.222   3.124   9.064  2.2182 -0.6969 -0.2741
 7765SOL    HW234929   3.166   3.253   9.119  1.2962 -1.1636  2.1623
 7766SOL     OW34930   4.401   4.137   6.641  0.7802 -0.4587  0.0071
 7766SOL    HW134931   4.331   4.136   6.706  2.1677 -1.0417  1.4602
 7766SOL    HW234932   4.482   4.118   6.687  0.1585 -2.0076  0.4618
 7767SOL     OW34933   1.525   1.266   4.171 -0.3456  0.4173 -0.5742
 7767SOL    HW134934   1.529   1.344   4.115  0.4527 -0.9506 -2.4312
 7767SOL    HW234935   1.554   1.196   4.111 -1.6274  1.2644 -2.1913
 7768SOL     OW34936   0.111   0.984  13.202  0.3365  0.1868 -0.4426
 7768SOL    HW134937   0.065   1.059  13.166  0.4151  0.6018  0.3106
 7768SOL    HW234938   0.131   0.932  13.124  0.5057 -2.4510  1.3423
 7769SOL     OW34939   0.115   2.892  14.790  0.0298 -0.1899 -0.2428
 7769SOL    HW134940   0.022   2.882  14.810 -0.1442 -0.4795 -1.2126
 7769SOL    HW234941   0.124   2.869  14.698 -1.9088 -2.1678  0.0693
 7770SOL     OW34942   4.730   4.094  11.112 -0.2691  0.1800  0.1809
 7770SOL    HW134943   0.010   4.186  11.090 -0.0625 -0.0768 -0.7358
 7770SOL    HW234944   0.076   4.048  11.131 -0.0968 -0.1909 -1.4313
 7771SOL     OW34945   0.242   1.102  12.410  0.4300  0.2737  0.4333
 7771SOL    HW134946   0.323   1.134  12.370  0.3895 -2.0207 -1.5440
 7771SOL    HW234947   0.189   1.074  12.335 -0.6939 -0.8113  1.6267
 7772SOL     OW34948   4.713   0.718   5.940 -0.0769  0.0700 -0.0880
 7772SOL    HW134949   4.638   0.662   5.921 -0.5006 -0.1652  2.3136
 7772SOL    HW234950   0.058   0.670   5.919 -0.5802 -0.7490 -0.1635
 7773SOL     OW34951   4.075   1.868  16.175  0.0606 -0.4578 -0.1767
 7773SOL    HW134952   4.050   1.911  16.093  0.1728 -2.3461 -1.1989
 7773SOL    HW234953   4.141   1.808  16.140 -1.2448 -2.5003  0.8903
 7774SOL     OW34954   1.533   1.878   8.489 -0.7661  0.8474  0.2502
 7774SOL    HW134955   1.557   1.788   8.466  0.3060  0.9819  0.8357
 7774SOL    HW234956   1.467   1.862   8.556 -1.0774 -4.7674 -1.3810
 7775SOL     OW34957   1.727   3.581   2.608  0.5156 -0.3034 -0.2868
 7775SOL    HW134958   1.729   3.561   2.702 -1.3120 -1.0014 -0.4080
 7775SOL    HW234959   1.652   3.528   2.580 -0.9416  0.7584  1.5757
 7776SOL     OW34960   2.655   0.776   1.500 -0.5475 -0.2984 -0.1282
 7776SOL    HW134961   2.682   0.769   1.408 -0.4506  1.3177 -0.2183
 7776SOL    HW234962   2.644   0.686   1.529  1.7337 -0.8615 -0.9616
 7777SOL     OW34963   0.616   3.569  16.652 -0.1038 -0.2058  0.1878
 7777SOL    HW134964   0.572   3.641  16.608 -1.6178 -0.3543  1.4564
 7777SOL    HW234965   0.545   3.507  16.669 -1.7228  0.5402 -3.9784
 7778SOL     OW34966   0.274   2.609   5.025  0.3100  0.2382  0.0676
 7778SOL    HW134967   0.244   2.531   5.071 -1.2376  1.0626  0.4651
 7778SOL    HW234968   0.253   2.590   4.934  2.0268  0.6350 -0.4133
 7779SOL     OW34969   0.405   2.799   3.675  0.2776  0.1133 -0.0054
 7779SOL    HW134970   0.489   2.846   3.671  1.2718 -1.2337  4.4168
 7779SOL    HW234971   0.373   2.829   3.591 -0.7672 -0.2136  0.2788
 7780SOL     OW34972   0.818   0.080   2.307 -0.4551 -0.5070  0.1773
 7780SOL    HW134973   0.880   0.075   2.234 -0.7959 -0.7662 -0.0970
 7780SOL    HW234974   0.782   0.166   2.287 -0.8442 -0.6126  0.4201
 7781SOL     OW34975   4.323   4.009  10.442  0.4947 -0.2520  0.0817
 7781SOL    HW134976   4.272   4.000  10.361 -0.5846 -1.0942  0.8540
 7781SOL    HW234977   4.406   3.967  10.418  0.8941  0.8818 -0.5355
 7782SOL     OW34978   3.049   2.239   9.029 -0.7365  0.3255 -0.3470
 7782SOL    HW134979   3.030   2.151   8.996  2.1217  0.2262 -1.7213
 7782SOL    HW234980   3.144   2.235   9.040 -0.6153  0.8011 -1.1858
 7783SOL     OW34981   4.353   3.177   7.067 -0.1453 -0.9560 -1.0270
 7783SOL    HW134982   4.280   3.189   7.006  0.6675  0.3662 -1.7441
 7783SOL    HW234983   4.422   3.235   7.036 -0.1544 -0.4640 -0.1128
 7784SOL     OW34984   0.415   4.705   3.037 -0.5490 -0.8856 -0.2480
 7784SOL    HW134985   0.332   4.660   3.049 -0.6632 -0.4636  0.5155
 7784SOL    HW234986   0.426   4.713   2.942  1.3460  2.3904  0.2341
 7785SOL     OW34987   1.139   2.190   5.833 -0.1134  0.6216  0.3581
 7785SOL    HW134988   1.142   2.146   5.918  1.3410  0.2946  0.1353
 7785SOL    HW234989   1.152   2.116   5.773  1.3252  1.1908 -0.0149
 7786SOL     OW34990   3.681   2.555   0.518  0.3316 -0.2274 -0.2000
 7786SOL    HW134991   3.619   2.485   0.540  1.2457 -1.0067 -0.1026
 7786SOL    HW234992   3.682   2.595   0.604  3.6430 -1.2276  0.2211
 7787SOL     OW34993   3.714   1.420   7.928 -0.1517  0.4446 -0.1116
 7787SOL    HW134994   3.732   1.329   7.906 -1.0444 -0.3111  2.3009
 7787SOL    HW234995   3.755   1.460   7.851  5.2660 -0.9156  2.1239
 7788SOL     OW34996   2.247   4.165   4.245 -0.0097 -0.6789  0.0864
 7788SOL    HW134997   2.303   4.185   4.320  0.2614  0.7758 -0.5024
 7788SOL    HW234998   2.283   4.079   4.224 -0.9655 -1.0606  0.0106
 7789SOL     OW34999   2.267   4.062   3.517 -0.3001  0.2988 -0.1385
 7789SOL    HW135000   2.245   4.008   3.592  1.0284  0.0402  0.0600
 7789SOL    HW235001   2.185   4.099   3.482 -1.1139  0.4565  1.9059
 7790SOL     OW35002   4.353   3.060   6.720 -0.2538 -0.3012  0.1093
 7790SOL    HW135003   4.370   3.154   6.731 -2.9149  0.3071 -0.8227
 7790SOL    HW235004   4.420   3.017   6.773  0.8422  1.9290  0.5575
 7791SOL     OW35005   4.673   2.298   6.779 -0.0375 -0.1876 -0.1655
 7791SOL    HW135006   4.719   2.354   6.841 -0.2994  0.3479 -0.4547
 7791SOL    HW235007   4.588   2.300   6.824  0.1671  0.6101  0.1788
 7792SOL     OW35008   0.331   2.178   7.690  0.0571 -0.0258  0.2469
 7792SOL    HW135009   0.236   2.180   7.698 -0.0608 -0.4768 -1.0293
 7792SOL    HW235010   0.351   2.196   7.782  0.4939 -0.0446  0.1555
 7793SOL     OW35011   0.900   4.494   9.346  0.0610 -0.1672  0.0184
 7793SOL    HW135012   0.935   4.505   9.434 -0.3378  1.7601 -0.0646
 7793SOL    HW235013   0.811   4.529   9.353  0.4614  0.6118  1.1560
 7794SOL     OW35014   2.191   2.363   5.353 -0.2391  0.2991 -0.3146
 7794SOL    HW135015   2.134   2.286   5.349 -0.2532  0.3257 -0.6092
 7794SOL    HW235016   2.126   2.422   5.390 -1.2978 -0.4273 -1.0193
 7795SOL     OW35017   1.481   2.403   3.453  0.3606  0.0530  0.2338
 7795SOL    HW135018   1.551   2.337   3.454  0.5871  0.3350  2.4601
 7795SOL    HW235019   1.526   2.488   3.458  2.1150 -0.7384 -1.9477
 7796SOL     OW35020   1.912   4.212  14.942 -0.4342  0.0895  0.7305
 7796SOL    HW135021   1.942   4.163  14.865 -1.0552  0.2129  0.4052
 7796SOL    HW235022   1.823   4.176  14.951  0.0528 -0.5432  3.0501
 7797SOL     OW35023   2.791   4.062  11.012  0.2374 -0.0227 -0.5003
 7797SOL    HW135024   2.798   4.156  11.025  2.8643 -0.4368  1.1117
 7797SOL    HW235025   2.758   4.035  11.098  0.6795 -3.3619 -1.3916
 7798SOL     OW35026   0.778   2.933   5.222  0.1360 -0.1413  0.0498
 7798SOL    HW135027   0.848   2.868   5.211  1.2996  0.9644  0.9462
 7798SOL    HW235028   0.789   2.972   5.309  2.8079 -0.6475 -0.0582
 7799SOL     OW35029   0.715   1.343   6.997 -0.1252 -0.2129  0.0288
 7799SOL    HW135030   0.629   1.310   7.022 -0.0695 -0.8541 -0.6225
 7799SOL    HW235031   0.742   1.300   6.916 -0.7321 -0.9779  0.2401
 7800SOL     OW35032   0.164   3.833   6.501 -0.1143  0.2340  0.2436
 7800SOL    HW135033   0.094   3.892   6.473  0.4382  1.1191  0.7188
 7800SOL    HW235034   0.226   3.857   6.432 -1.3614 -0.8668 -1.2460
 7801SOL     OW35035   0.169   4.162  14.970 -0.1139  0.2748  0.5733
 7801SOL    HW135036   0.109   4.090  14.951 -0.8488  1.0146  0.0802
 7801SOL    HW235037   0.244   4.103  14.981 -0.7499 -0.5141  0.6832
 7802SOL     OW35038   2.983   2.626   4.930 -0.2197  0.4307  0.3327
 7802SOL    HW135039   2.927   2.637   4.853 -0.3788 -4.4155 -0.2248
 7802SOL    HW235040   3.064   2.620   4.878  0.0436 -0.1256  0.8153
 7803SOL     OW35041   3.959   4.348  17.396  0.2444  0.2245 -0.4192
 7803SOL    HW135042   4.025   4.348  17.327 -0.3500 -0.7157 -0.9776
 7803SOL    HW235043   3.937   4.440  17.408 -2.0106 -0.2082 -1.2832
 7804SOL     OW35044   2.120   3.235  12.054 -0.1741  0.2034  0.8774
 7804SOL    HW135045   2.213   3.256  12.067 -0.2484  0.5594  0.8177
 7804SOL    HW235046   2.115   3.178  12.131 -1.4338  1.3074  1.6009
 7805SOL     OW35047   2.562   1.837   9.547 -0.2141  0.7188 -0.0780
 7805SOL    HW135048   2.494   1.889   9.505 -0.7417 -0.2872 -0.4771
 7805SOL    HW235049   2.616   1.909   9.579 -0.5611  1.5355 -1.3479
 7806SOL     OW35050   2.161   0.021   3.769 -0.1151  0.7003  0.1503
 7806SOL    HW135051   2.067   0.026   3.754  0.0804 -0.6184 -1.5764
 7806SOL    HW235052   2.178   0.099   3.821 -1.0655  0.4857  0.7801
 7807SOL     OW35053   0.392   1.051  13.247 -0.1788  0.6591 -0.1275
 7807SOL    HW135054   0.297   1.054  13.254 -0.3150  0.2338 -1.7236
 7807SOL    HW235055   0.421   0.986  13.310  1.2453  2.1036  0.7039
 7808SOL     OW35056   0.918   3.789   2.097 -0.0378 -0.1488  0.7403
 7808SOL    HW135057   0.992   3.732   2.116  0.5098 -0.1169 -1.3499
 7808SOL    HW235058   0.900   3.821   2.185  0.1547  1.5694  0.1444
 7809SOL     OW35059   4.045   1.606   8.995 -0.0181  0.2299  0.0937
 7809SOL    HW135060   4.002   1.671   8.940 -0.6373  0.2031  0.5572
 7809SOL    HW235061   3.999   1.524   8.978 -1.9754  0.8807  2.4105
 7810SOL     OW35062   2.258   4.650  10.963 -0.4045  0.3295  0.1566
 7810SOL    HW135063   2.268   4.590  10.889  0.7727 -1.4831  1.7538
 7810SOL    HW235064   2.177   4.696  10.943 -1.8541 -2.8070 -1.1854
 7811SOL     OW35065   2.816   4.377  15.812 -0.0444 -0.4487  0.5183
 7811SOL    HW135066   2.853   4.461  15.835  1.0136 -0.7458 -0.0686
 7811SOL    HW235067   2.813   4.383  15.716 -2.1762 -1.1358  0.5472
 7812SOL     OW35068   2.117   0.920  11.009  0.2378  0.5013  0.4427
 7812SOL    HW135069   2.180   0.931  10.937  0.0191 -0.7667  0.0526
 7812SOL    HW235070   2.156   0.971  11.080  2.1156  0.3892 -0.4809
 7813SOL     OW35071   2.349   2.857   5.891  0.2687  0.0678  0.1997
 7813SOL    HW135072   2.365   2.802   5.813 -1.5833  0.0425 -0.1466
 7813SOL    HW235073   2.305   2.796   5.951  0.8426 -0.8292 -0.2819
 7814SOL     OW35074   0.112   0.166   5.323 -0.2352 -0.1104  0.4026
 7814SOL    HW135075   0.157   0.248   5.345 -1.3353 -0.1719  2.8832
 7814SOL    HW235076   0.120   0.111   5.401 -2.7089  1.3405  1.6892
 7815SOL     OW35077   0.643   1.536   9.980 -0.4961  0.2641  0.1233
 7815SOL    HW135078   0.643   1.496  10.067 -1.9325  1.4227  0.6692
 7815SOL    HW235079   0.560   1.583   9.987  0.5563  2.1591 -0.1567
 7816SOL     OW35080   2.272   0.535   4.501  0.0432  0.8648  0.0324
 7816SOL    HW135081   2.263   0.627   4.526  2.1890  1.2991 -0.8003
 7816SOL    HW235082   2.196   0.497   4.546 -0.0055  0.6918 -0.1982
 7817SOL     OW35083   0.714   0.059  15.299  0.4407  0.0247 -0.3744
 7817SOL    HW135084   0.729   0.137  15.354 -0.5931  1.7255 -2.5073
 7817SOL    HW235085   0.622   0.039  15.313  0.6687 -0.2568  0.6830
 7818SOL     OW35086   2.386   4.225   8.997 -0.2094  0.2320  0.1751
 7818SOL    HW135087   2.417   4.310   9.029 -0.8677  1.1343 -1.5814
 7818SOL    HW235088   2.402   4.171   9.074 -0.6712 -0.6416 -0.3415
 7819SOL     OW35089   0.095   1.298   1.926 -0.6811 -0.0533  0.0650
 7819SOL    HW135090   0.023   1.283   1.987 -0.6021  0.8898  0.3923
 7819SOL    HW235091   0.152   1.358   1.973  0.0474 -0.5267 -0.2172
 7820SOL     OW35092   4.233   0.200   9.063 -0.2180  0.1986  0.2537
 7820SOL    HW135093   4.262   0.175   8.976  1.3717  3.1533 -0.0855
 7820SOL    HW235094   4.318   0.211   9.104  0.5344  0.6388 -1.4204
 7821SOL     OW35095   4.042   4.087   4.525  0.4104 -0.2016  0.0396
 7821SOL    HW135096   4.010   4.169   4.563 -0.1087  0.2428 -1.3404
 7821SOL    HW235097   3.962   4.046   4.492 -0.3456  0.6483  0.8257
 7822SOL     OW35098   3.813   1.148   4.392 -0.0543 -0.5228  0.1529
 7822SOL    HW135099   3.830   1.107   4.307 -0.0426 -1.4160  0.5861
 7822SOL    HW235100   3.899   1.144   4.434 -0.4680 -0.5837  1.0013
 7823SOL     OW35101   0.308   0.261  12.077  0.0955  0.0364  0.3529
 7823SOL    HW135102   0.220   0.258  12.042  0.4689  0.6578 -0.6433
 7823SOL    HW235103   0.288   0.212  12.157  0.0926  2.1998  1.6946
 7824SOL     OW35104   3.427   1.059   2.819  0.0017 -0.1539  0.3918
 7824SOL    HW135105   3.504   1.019   2.859  0.3386  2.3694  2.3073
 7824SOL    HW235106   3.366   0.991   2.791 -1.8318  1.2639  0.9701
 7825SOL     OW35107   3.701   3.022   0.036  0.1685 -0.3782 -0.3171
 7825SOL    HW135108   3.790   3.049   0.015 -0.1695  2.3297  1.7678
 7825SOL    HW235109   3.673   3.089   0.099  0.3574  0.5776 -1.2520
 7826SOL     OW35110   0.025   0.246   3.195  0.4083  0.1616 -1.2008
 7826SOL    HW135111   4.703   0.186   3.241  2.8900  0.3637  2.1258
 7826SOL    HW235112   0.095   0.255   3.259 -0.2424 -0.7034 -0.3813
 7827SOL     OW35113   3.609   2.122   2.847  0.1688 -0.1992 -0.6945
 7827SOL    HW135114   3.668   2.198   2.857 -0.2148  0.3317 -2.5738
 7827SOL    HW235115   3.638   2.075   2.926 -1.7149 -0.5760 -0.2395
 7828SOL     OW35116   3.793   3.785   2.364 -0.1512  0.1445 -0.0179
 7828SOL    HW135117   3.857   3.826   2.305 -0.6445 -1.3557 -1.5996
 7828SOL    HW235118   3.800   3.837   2.444 -0.1628  0.5766 -0.2983
 7829SOL     OW35119   0.907   0.070   7.142  0.6378  0.5410  0.3566
 7829SOL    HW135120   0.910   0.067   7.046 -1.5806 -1.2589  0.3409
 7829SOL    HW235121   0.987   0.027   7.170 -0.8762 -2.3967  0.1874
 7830SOL     OW35122   2.353   2.706   4.955 -0.3702  0.0708  0.2291
 7830SOL    HW135123   2.340   2.613   4.938  0.5000 -0.2144  1.0687
 7830SOL    HW235124   2.376   2.746   4.872  3.5179 -0.3708  1.1024
 7831SOL     OW35125   1.017   2.227   9.528  0.1624  0.8418  0.1630
 7831SOL    HW135126   0.974   2.251   9.446 -0.9610  0.9237  0.7797
 7831SOL    HW235127   0.943   2.214   9.587  1.3697 -2.6606  0.9118
 7832SOL     OW35128   2.425   2.857  12.574 -0.1014  0.6078 -0.2233
 7832SOL    HW135129   2.369   2.799  12.523 -2.6655  3.5743 -0.7727
 7832SOL    HW235130   2.437   2.816  12.660  1.8612  0.1385 -0.7104
 7833SOL     OW35131   2.947   3.339   7.937  0.8177  0.5320 -0.2652
 7833SOL    HW135132   2.987   3.278   7.876 -1.6324 -1.4194  0.0864
 7833SOL    HW235133   2.906   3.403   7.878 -0.9062  0.6637  1.0718
 7834SOL     OW35134   4.297   3.803   4.469 -0.0551 -0.6581 -0.1030
 7834SOL    HW135135   4.231   3.751   4.514 -2.7539  1.0039 -2.1541
 7834SOL    HW235136   4.246   3.830   4.393  0.9014 -0.2270 -0.5873
 7835SOL     OW35137   4.045   0.834   2.823 -0.2303 -0.5343 -0.1997
 7835SOL    HW135138   3.957   0.862   2.798  0.4927  2.8813  1.0597
 7835SOL    HW235139   4.089   0.836   2.739 -2.4857  0.6396 -1.3563
 7836SOL     OW35140   4.272   0.259   7.373 -0.1079 -0.2399 -0.1633
 7836SOL    HW135141   4.202   0.323   7.360  0.5560  0.2754 -1.2204
 7836SOL    HW235142   4.247   0.221   7.457 -0.1885  1.1274  0.4410
 7837SOL     OW35143   1.194   1.364  10.849 -0.4968  0.1533  0.0939
 7837SOL    HW135144   1.283   1.397  10.842  0.0423 -0.9536  1.8090
 7837SOL    HW235145   1.214   1.273  10.872 -0.0049 -0.4808 -2.7805
 7838SOL     OW35146   2.372   2.059   7.274  0.5319 -0.2812  0.2279
 7838SOL    HW135147   2.438   1.994   7.251 -0.5802 -1.2047 -0.3913
 7838SOL    HW235148   2.299   2.027   7.220 -1.3653  2.4754  1.1191
 7839SOL     OW35149   0.822   3.488   5.014 -0.1278  0.0117  0.7631
 7839SOL    HW135150   0.898   3.433   5.036 -1.2227 -1.7587  0.1328
 7839SOL    HW235151   0.794   3.446   4.933 -2.2944  3.2055 -0.1348
 7840SOL     OW35152   2.411   3.703   8.395 -0.1697 -0.4147 -0.3273
 7840SOL    HW135153   2.378   3.749   8.318 -2.3996  1.9102  2.0197
 7840SOL    HW235154   2.349   3.732   8.462  0.1579  0.0136 -0.2147
 7841SOL     OW35155   1.160   0.596   4.241 -0.1544 -0.5455  0.1860
 7841SOL    HW135156   1.080   0.545   4.254 -0.7764  0.6247  0.9357
 7841SOL    HW235157   1.158   0.664   4.309  3.1937 -1.6191  1.3402
 7842SOL     OW35158   4.487   3.517  10.991 -0.5356 -0.4065 -0.0578
 7842SOL    HW135159   4.401   3.513  10.949 -0.2474  1.1218 -0.7645
 7842SOL    HW235160   4.495   3.612  11.000  1.1599 -0.4895 -0.5966
 7843SOL     OW35161   1.374   4.626   7.268  0.5007 -0.0965 -0.3818
 7843SOL    HW135162   1.317   4.609   7.193  0.7336  0.4604 -0.6856
 7843SOL    HW235163   1.343   4.716   7.274 -0.3734 -0.4634  0.6512
 7844SOL     OW35164   2.296   2.124   2.241  0.0620 -0.3188  0.2585
 7844SOL    HW135165   2.274   2.147   2.332 -1.0544 -0.4058  0.0114
 7844SOL    HW235166   2.220   2.080   2.202 -0.2774 -0.4911  1.1100
 7845SOL     OW35167   3.829   3.065   6.922 -0.6626 -0.0043 -0.1496
 7845SOL    HW135168   3.751   3.033   6.876  0.3785 -0.9942 -1.2125
 7845SOL    HW235169   3.820   3.009   6.999  1.6660 -0.3437 -0.1229
 7846SOL     OW35170   4.538   0.369   8.941 -0.3101  0.9577  0.2231
 7846SOL    HW135171   4.484   0.446   8.961  0.2026  1.5305 -0.6281
 7846SOL    HW235172   4.536   0.376   8.846  1.8084  2.8824  0.3093
 7847SOL     OW35173   2.882   2.353   3.007  0.4016 -0.5623  0.2731
 7847SOL    HW135174   2.797   2.383   2.977  1.5128  1.6936 -0.6074
 7847SOL    HW235175   2.918   2.345   2.918  3.1947  1.7592  1.2063
 7848SOL     OW35176   0.267   1.464  12.034  0.1707 -0.2612  0.4394
 7848SOL    HW135177   0.268   1.549  12.077  4.5278  0.4819 -1.0898
 7848SOL    HW235178   0.333   1.425  12.091  1.3737 -1.1564 -1.5306
 7849SOL     OW35179   2.608   3.229   2.786  0.4260 -0.1703  0.0052
 7849SOL    HW135180   2.603   3.133   2.792 -1.0100 -0.0761  0.4115
 7849SOL    HW235181   2.562   3.257   2.866  0.2148 -0.3585 -0.0510
 7850SOL     OW35182   2.744   2.090   2.564 -0.0589 -0.1824 -0.1357
 7850SOL    HW135183   2.834   2.107   2.536  0.2531  1.0521  1.5766
 7850SOL    HW235184   2.716   2.166   2.513  0.5463 -0.1308 -0.3881
 7851SOL     OW35185   1.484   3.982   0.386  0.0990 -0.5522 -0.0759
 7851SOL    HW135186   1.506   3.982   0.480  0.1747 -0.4805 -0.0943
 7851SOL    HW235187   1.565   3.973   0.336  0.0973 -1.9973  0.1801
 7852SOL     OW35188   2.425   2.670   8.164 -0.0326 -0.4382 -0.1750
 7852SOL    HW135189   2.347   2.692   8.214 -0.9647 -3.8998 -0.0914
 7852SOL    HW235190   2.417   2.730   8.090 -0.2481  0.7764  0.8488
 7853SOL     OW35191   4.685   4.050   2.033  0.1738 -0.4463  0.7242
 7853SOL    HW135192   4.664   4.014   2.120 -0.9664 -0.0693  0.6122
 7853SOL    HW235193   4.600   4.088   2.011 -0.2630 -2.1284 -0.4923
 7854SOL     OW35194   2.593   0.769   9.656  0.2120 -0.0305  0.2471
 7854SOL    HW135195   2.555   0.825   9.723 -1.4328 -1.6437  0.6703
 7854SOL    HW235196   2.522   0.706   9.642  0.6334 -0.5896  0.6313
 7855SOL     OW35197   2.707   3.204   3.257  0.7609  0.2672 -0.2089
 7855SOL    HW135198   2.694   3.174   3.167 -0.1660 -0.1822  0.0686
 7855SOL    HW235199   2.625   3.180   3.301  2.1661  1.4474  3.0334
 7856SOL     OW35200   0.611   3.060   2.597  0.0143 -0.0582 -0.6760
 7856SOL    HW135201   0.640   2.998   2.530  0.4420  1.7701 -2.1766
 7856SOL    HW235202   0.689   3.106   2.628 -0.8340  1.7177 -1.1959
 7857SOL     OW35203   1.371   0.905   4.644 -0.6348  0.0225 -0.6403
 7857SOL    HW135204   1.459   0.936   4.623 -0.4456  0.7221  1.2090
 7857SOL    HW235205   1.315   0.971   4.685  0.5018  1.0534 -0.7494
 7858SOL     OW35206   3.050   1.125   0.237  0.9213 -0.1064 -0.0438
 7858SOL    HW135207   3.095   1.091   0.160 -0.6100  2.0797 -1.8834
 7858SOL    HW235208   2.988   1.053   0.246  2.0738 -1.0135  0.6571
 7859SOL     OW35209   2.055   4.373  13.844 -0.3271  0.4101  0.7658
 7859SOL    HW135210   2.031   4.298  13.898  1.0822 -0.9832 -0.5493
 7859SOL    HW235211   2.091   4.330  13.767 -0.1675 -0.5665  1.3965
 7860SOL     OW35212   2.645   1.636   5.640  0.2536  0.2136  0.5998
 7860SOL    HW135213   2.670   1.654   5.731 -0.3889  0.0465  0.8088
 7860SOL    HW235214   2.570   1.695   5.634  0.4660  0.4300  0.0646
 7861SOL     OW35215   3.449   2.296   4.729  0.0819 -0.2042  0.2228
 7861SOL    HW135216   3.434   2.218   4.783 -1.9969 -0.0024 -0.0680
 7861SOL    HW235217   3.405   2.359   4.786  1.3830  0.9242 -0.0130
 7862SOL     OW35218   0.324   0.167  15.607 -0.6910 -0.1854 -0.1680
 7862SOL    HW135219   0.340   0.258  15.632 -1.6537  0.2894 -1.2976
 7862SOL    HW235220   0.344   0.131  15.694  1.1276  0.0958 -0.4722
 7863SOL     OW35221   0.444   3.845  12.177  0.1038 -0.0175 -0.0100
 7863SOL    HW135222   0.501   3.921  12.175  0.2445 -0.1620 -1.3115
 7863SOL    HW235223   0.502   3.782  12.221 -0.3170 -0.4979 -0.1344
 7864SOL     OW35224   1.281   1.378   4.965 -0.4781  0.2900  0.5204
 7864SOL    HW135225   1.271   1.461   4.920  0.3457 -0.5940 -1.2867
 7864SOL    HW235226   1.347   1.327   4.917 -0.4885  0.6329  0.1480
 7865SOL     OW35227   3.201   0.521   7.815 -0.2331  0.6193 -0.1951
 7865SOL    HW135228   3.256   0.453   7.855 -2.9437 -0.6257  1.3962
 7865SOL    HW235229   3.151   0.472   7.749  0.5259  1.3776 -1.3464
 7866SOL     OW35230   0.572   1.219   5.733 -0.2679  0.2891  0.2759
 7866SOL    HW135231   0.590   1.307   5.701  1.1511 -0.8535 -2.1178
 7866SOL    HW235232   0.646   1.180   5.686 -1.3945 -0.7203 -0.6731
 7867SOL     OW35233   1.948   1.434  14.858  0.2174  0.3157  0.4932
 7867SOL    HW135234   1.957   1.494  14.784  0.8024  0.5265  0.7402
 7867SOL    HW235235   2.036   1.399  14.874  0.2665  0.2641  0.1075
 7868SOL     OW35236   2.884   2.630   6.829 -0.2564 -0.0421  0.2850
 7868SOL    HW135237   2.828   2.646   6.905  1.0376  4.7830  0.2006
 7868SOL    HW235238   2.971   2.657   6.858  0.6714 -0.1887 -2.3377
 7869SOL     OW35239   1.044   0.337  12.345  0.0402 -0.3540  0.0741
 7869SOL    HW135240   0.980   0.289  12.397 -0.8898 -1.0814 -1.7088
 7869SOL    HW235241   1.034   0.429  12.369 -0.4604  0.2951 -2.5758
 7870SOL     OW35242   0.546   1.245   9.937  0.1618  0.1814  0.3271
 7870SOL    HW135243   0.550   1.336   9.966  0.3382  0.0336  0.7638
 7870SOL    HW235244   0.582   1.196  10.011 -0.1873  0.5365  0.7316
 7871SOL     OW35245   0.125   3.584   4.945 -0.5053  0.3223 -0.3114
 7871SOL    HW135246   0.178   3.662   4.961 -1.2235  0.3517  1.8576
 7871SOL    HW235247   0.065   3.599   5.018  0.4921  1.6361  0.2509
 7872SOL     OW35248   3.073   0.656   9.118  0.2546  0.0541 -0.6012
 7872SOL    HW135249   3.114   0.680   9.202  0.3167  1.1104 -0.9407
 7872SOL    HW235250   3.017   0.732   9.103 -1.3429 -1.1520 -0.7200
 7873SOL     OW35251   1.334   4.333   3.843 -0.1765 -0.2261 -0.2871
 7873SOL    HW135252   1.266   4.341   3.776  3.0316  1.0265 -3.3924
 7873SOL    HW235253   1.312   4.405   3.902 -0.2655 -2.0145  1.8286
 7874SOL     OW35254   3.463   1.762  13.932 -0.1748 -0.5670 -0.0963
 7874SOL    HW135255   3.499   1.784  14.019  0.1815  0.7646 -0.5810
 7874SOL    HW235256   3.440   1.671  13.953 -1.5035  0.0875  1.2311
 7875SOL     OW35257   1.664   0.704   0.040 -0.0141 -0.4946  0.2123
 7875SOL    HW135258   1.600   0.671   0.103 -0.8244  1.4583  0.4482
 7875SOL    HW235259   1.647   0.799   0.042  1.7232 -0.1734 -0.3185
 7876SOL     OW35260   0.926   1.734   1.843  0.0605 -0.3848 -0.2286
 7876SOL    HW135261   1.018   1.728   1.870 -0.2848  1.3298  1.2685
 7876SOL    HW235262   0.892   1.809   1.891  1.0754 -1.1851  1.7679
 7877SOL     OW35263   2.186   3.500   5.548  0.4836  0.2839  0.1810
 7877SOL    HW135264   2.126   3.555   5.498  0.1504 -0.2665 -0.0129
 7877SOL    HW235265   2.158   3.525   5.637 -0.0313  0.8542 -0.1367
 7878SOL     OW35266   1.089   0.785   6.603  0.5452  0.5282  0.2170
 7878SOL    HW135267   1.004   0.744   6.591  1.0283 -1.1517  2.5196
 7878SOL    HW235268   1.065   0.875   6.623  0.5111  0.1337  1.9854
 7879SOL     OW35269   4.521   0.401  15.169 -1.0466  0.7759 -0.1567
 7879SOL    HW135270   4.458   0.473  15.160 -0.0046  1.7404  0.3158
 7879SOL    HW235271   4.474   0.342  15.109 -1.5258  0.2531  0.7321
 7880SOL     OW35272   4.134   1.734   2.412  0.4861  0.0757  0.1850
 7880SOL    HW135273   4.118   1.711   2.321 -0.2600 -0.3069  0.4166
 7880SOL    HW235274   4.191   1.810   2.398  1.5553 -0.7386  0.0617
 7881SOL     OW35275   3.593   3.015   6.764  0.5991 -0.1064 -0.3908
 7881SOL    HW135276   3.499   3.014   6.749  0.2685  0.1016  1.6078
 7881SOL    HW235277   3.624   2.953   6.698  0.5215  0.1496 -0.6679
 7882SOL     OW35278   3.210   4.133   2.278  0.1560 -0.0193  0.2223
 7882SOL    HW135279   3.191   4.120   2.371 -1.7259 -2.7778 -0.5510
 7882SOL    HW235280   3.261   4.057   2.254 -0.3394 -0.2559 -0.0880
 7883SOL     OW35281   4.378   2.749   8.274  0.1029 -0.0853  0.2939
 7883SOL    HW135282   4.379   2.775   8.366 -2.0488  1.4658 -0.1308
 7883SOL    HW235283   4.292   2.708   8.269  0.0478  0.0897 -0.1967
 7884SOL     OW35284   0.802   4.275  13.589  0.3482 -0.2396  0.5880
 7884SOL    HW135285   0.848   4.353  13.559 -0.7395  0.7378  1.4718
 7884SOL    HW235286   0.728   4.285  13.528  1.3366 -0.2724 -0.6175
 7885SOL     OW35287   3.943   4.686   3.667  0.1205  0.1563 -0.0147
 7885SOL    HW135288   4.003   0.013   3.707  2.0422 -2.0208  0.5654
 7885SOL    HW235289   3.962   4.600   3.705  0.2577  1.1200  2.0726
 7886SOL     OW35290   0.879   0.920   6.032 -0.0178  0.4715 -0.5689
 7886SOL    HW135291   0.827   0.844   6.058 -2.1083  2.0652 -0.1049
 7886SOL    HW235292   0.827   0.988   6.074  1.6243 -0.2610  2.6025
 7887SOL     OW35293   3.801   1.295   4.648  0.0120  0.5055  0.6607
 7887SOL    HW135294   3.773   1.267   4.561 -0.6754  0.9230  0.7435
 7887SOL    HW235295   3.719   1.298   4.696  0.9951  2.0652  2.2602
 7888SOL     OW35296   2.367   1.340   1.167  0.1529  0.0038 -0.0563
 7888SOL    HW135297   2.382   1.376   1.080  2.1041  1.6371  0.9542
 7888SOL    HW235298   2.272   1.331   1.166  0.3252 -2.0579  2.3457
 7889SOL     OW35299   4.430   2.491   4.501  0.4764 -0.7785 -0.2624
 7889SOL    HW135300   4.414   2.398   4.486  0.7376 -0.7778 -0.5394
 7889SOL    HW235301   4.372   2.530   4.436  0.3315 -2.1759 -0.9839
 7890SOL     OW35302   3.423   2.154  11.755  0.4040  0.3796 -0.0854
 7890SOL    HW135303   3.414   2.108  11.839  1.6544 -2.6968 -1.6651
 7890SOL    HW235304   3.405   2.086  11.691  1.2243  0.6595 -0.6128
 7891SOL     OW35305   2.042   1.594   0.506 -0.2802 -0.4740  0.7887
 7891SOL    HW135306   1.991   1.653   0.562 -1.7108 -1.9211  1.0005
 7891SOL    HW235307   1.968   1.554   0.460 -0.7805  1.1527  0.1802
 7892SOL     OW35308   1.045   0.613   2.388 -0.5128 -0.3904  0.1622
 7892SOL    HW135309   1.132   0.627   2.426 -1.3984 -1.3487  2.5443
 7892SOL    HW235310   0.998   0.688   2.425 -1.2380 -0.6408 -0.2540
 7893SOL     OW35311   2.619   3.466   4.058  0.2817  0.0695 -0.0393
 7893SOL    HW135312   2.714   3.456   4.052  0.4306 -0.1389  2.7068
 7893SOL    HW235313   2.592   3.513   3.979  2.5113  0.7344 -0.3878
 7894SOL     OW35314   4.625   1.314   3.154  0.2885  0.8928  0.0794
 7894SOL    HW135315   4.601   1.269   3.235  2.5732 -1.1690 -0.3716
 7894SOL    HW235316   4.593   1.404   3.163  0.5273  0.7476  2.4709
 7895SOL     OW35317   3.529   3.579  17.205 -0.0361  0.7482  0.6223
 7895SOL    HW135318   3.558   3.588  17.296  0.9457 -0.4909  0.4259
 7895SOL    HW235319   3.595   3.524  17.162  0.0050 -0.5822  2.4020
 7896SOL     OW35320   3.385   0.705   6.739  0.3464  0.0664 -0.2560
 7896SOL    HW135321   3.331   0.679   6.814 -0.5868  2.0734 -0.2132
 7896SOL    HW235322   3.466   0.727   6.785 -1.2179  0.8476  2.1599
 7897SOL     OW35323   4.309   0.153   8.804  0.1528  0.2470 -0.1584
 7897SOL    HW135324   4.304   0.229   8.746 -0.9352 -0.7575 -1.3863
 7897SOL    HW235325   4.400   0.126   8.795  0.0051 -0.4813  0.5311
 7898SOL     OW35326   4.287   3.416   5.611 -0.5114 -0.1180 -0.1353
 7898SOL    HW135327   4.315   3.503   5.639  1.7646 -0.8422 -0.1997
 7898SOL    HW235328   4.200   3.403   5.650  0.5985  0.6654  2.5699
 7899SOL     OW35329   0.567   1.463   3.921 -0.5536 -0.3169  0.2564
 7899SOL    HW135330   0.607   1.512   3.993 -2.0637  1.9243 -0.4176
 7899SOL    HW235331   0.649   1.433   3.882  0.1183  2.2568 -0.3513
 7900SOL     OW35332   2.583   0.732   6.857  0.0905  0.2471  0.3753
 7900SOL    HW135333   2.528   0.732   6.778 -1.3559  1.5072  1.3880
 7900SOL    HW235334   2.661   0.764   6.813  0.1858  0.4014  0.6567
 7901SOL     OW35335   3.843   1.852   5.595 -0.1831 -0.1571  0.2844
 7901SOL    HW135336   3.918   1.909   5.578  0.1723  0.1891  3.1177
 7901SOL    HW235337   3.859   1.779   5.534 -1.3816  0.4941 -0.7985
 7902SOL     OW35338   3.111   1.148   1.744  0.5361 -0.0929 -0.0774
 7902SOL    HW135339   3.120   1.243   1.752 -0.3425  0.1320 -1.7801
 7902SOL    HW235340   3.196   1.123   1.782  0.8753 -0.2354 -0.9324
 7903SOL     OW35341   4.202   4.703  13.995 -0.6094  0.1622 -0.1417
 7903SOL    HW135342   4.177   4.628  13.940  1.3214  0.0224 -0.8445
 7903SOL    HW235343   4.132   4.703  14.060 -1.5620  0.6756 -1.1657
 7904SOL     OW35344   4.483   0.778   4.484 -0.4738  0.0254  0.5246
 7904SOL    HW135345   4.415   0.834   4.520 -2.3537 -1.7176 -0.2976
 7904SOL    HW235346   4.426   0.720   4.434 -1.0138 -0.3229  1.5419
 7905SOL     OW35347   0.022   3.475   3.238 -0.3776  0.1785  0.1976
 7905SOL    HW135348   0.017   3.540   3.167 -0.3293 -1.0061 -0.8801
 7905SOL    HW235349   0.113   3.488   3.266  0.6093 -1.6641 -2.1896
 7906SOL     OW35350   1.735   1.213   2.734 -0.3506 -0.2343  0.1352
 7906SOL    HW135351   1.727   1.305   2.708 -0.8133 -0.6418 -1.1647
 7906SOL    HW235352   1.641   1.204   2.716 -0.2570 -0.0420 -0.4554
 7907SOL     OW35353   3.555   1.766   5.003 -0.0215  0.1940  0.1806
 7907SOL    HW135354   3.478   1.774   4.948  0.2966  0.2803 -0.2488
 7907SOL    HW235355   3.511   1.776   5.087  1.0651  2.9452  0.4282
 7908SOL     OW35356   4.581   0.235   6.614 -0.2408 -0.1276  0.5558
 7908SOL    HW135357   4.596   0.257   6.706 -0.7402 -2.6305  1.2292
 7908SOL    HW235358   4.532   0.153   6.623 -1.2639  0.5058  0.7316
 7909SOL     OW35359   1.442   0.061   2.595  0.0585  0.1162 -0.4582
 7909SOL    HW135360   1.436   0.056   2.500 -0.9311  3.2066 -0.5576
 7909SOL    HW235361   1.408   4.711   2.623  1.6050 -0.3260  0.0864
 7910SOL     OW35362   0.308   1.553   6.783  0.0808  0.3858 -0.3250
 7910SOL    HW135363   0.319   1.585   6.873 -4.5599 -0.3884  0.4977
 7910SOL    HW235364   0.242   1.617   6.756  2.7716  2.0978 -2.8119
 7911SOL     OW35365   1.786   2.120  10.101 -0.5464 -0.1387  0.0966
 7911SOL    HW135366   1.722   2.171  10.053  0.7318  0.6568 -0.7691
 7911SOL    HW235367   1.755   2.035  10.070  0.5456 -1.2070  1.8731
 7912SOL     OW35368   4.716   0.867  15.292  0.0714  0.3295  0.4405
 7912SOL    HW135369   0.058   0.852  15.239  0.9725 -2.6621  2.5971
 7912SOL    HW235370   0.026   0.908  15.366  2.5489 -1.9890  0.1921
 7913SOL     OW35371   4.151   3.108   2.468  0.2062 -0.2134  0.1520
 7913SOL    HW135372   4.156   3.201   2.493 -1.1063  0.6026 -2.6611
 7913SOL    HW235373   4.065   3.104   2.427 -1.1289  2.3626  2.6924
 7914SOL     OW35374   4.542   1.087   3.579 -0.0101  0.1439 -0.2916
 7914SOL    HW135375   4.526   0.993   3.570  0.3617 -0.1903  2.5139
 7914SOL    HW235376   4.631   1.084   3.614 -0.2949 -1.1732  0.3331
 7915SOL     OW35377   2.904   2.697  13.301 -0.4765 -0.1570  0.2359
 7915SOL    HW135378   2.980   2.755  13.313 -0.8078  0.2982  0.1187
 7915SOL    HW235379   2.922   2.639  13.375 -0.7361  2.5412  2.4450
 7916SOL     OW35380   0.558   1.471   2.343  0.1212 -0.2949 -0.7469
 7916SOL    HW135381   0.605   1.545   2.304 -0.9702  1.0648  0.5119
 7916SOL    HW235382   0.473   1.476   2.300  0.3359 -1.2762 -1.2957
 7917SOL     OW35383   1.394   1.462   9.956 -0.0905  0.0588  0.3329
 7917SOL    HW135384   1.318   1.513   9.984 -0.4061 -0.5276  0.5524
 7917SOL    HW235385   1.449   1.529   9.916  1.5197  0.0479  2.5269
 7918SOL     OW35386   3.694   1.883   7.967  0.2911  0.2115  0.2520
 7918SOL    HW135387   3.619   1.917   8.015 -1.4274 -0.1323 -2.1704
 7918SOL    HW235388   3.650   1.867   7.884 -0.2648  0.8456  0.4259
 7919SOL     OW35389   0.620   0.204   1.993  0.2005 -0.7048  0.1209
 7919SOL    HW135390   0.688   0.248   1.943 -0.3993  2.9939  2.5712
 7919SOL    HW235391   0.545   0.200   1.934 -0.3363 -1.7051  0.8609
 7920SOL     OW35392   3.388   0.187   5.405 -0.6375 -0.6330  0.2744
 7920SOL    HW135393   3.394   0.165   5.312  0.9503  0.0527  0.2073
 7920SOL    HW235394   3.416   0.279   5.412 -0.2537 -0.8628  1.8591
 7921SOL     OW35395   3.644   1.505   2.554 -0.4102  0.0562  0.4123
 7921SOL    HW135396   3.611   1.573   2.612 -1.0020  0.4317 -0.3618
 7921SOL    HW235397   3.738   1.518   2.568 -0.0684 -0.9305 -0.9230
 7922SOL     OW35398   1.733   4.507   2.498  0.5292  0.0443  0.1413
 7922SOL    HW135399   1.745   4.549   2.583  1.7542  2.7132 -1.3362
 7922SOL    HW235400   1.644   4.518   2.465  0.2453  0.5992  1.0822
 7923SOL     OW35401   0.242   2.495  12.886 -0.3312 -0.1090  0.1538
 7923SOL    HW135402   0.315   2.524  12.939  0.3040 -1.4915  0.0463
 7923SOL    HW235403   0.269   2.403  12.879  2.2152  0.7966 -1.9191
 7924SOL     OW35404   0.277   0.011   9.266 -0.0793  0.0134 -0.0201
 7924SOL    HW135405   0.284   4.655   9.242 -0.8908  0.0487 -0.3758
 7924SOL    HW235406   0.182   0.019   9.275 -0.1129  0.9210 -1.0934
 7925SOL     OW35407   3.997   1.493   5.336 -0.4826 -0.8034  1.3163
 7925SOL    HW135408   4.052   1.416   5.351 -1.0158 -1.3302  0.5096
 7925SOL    HW235409   4.044   1.565   5.379  0.8056  0.4435 -2.1842
 7926SOL     OW35410   3.057   2.989   2.448 -0.4809  0.3142  0.9217
 7926SOL    HW135411   2.989   3.056   2.462  2.4696  2.8085  3.4160
 7926SOL    HW235412   3.070   2.988   2.354 -3.5483  2.3628  0.4814
 7927SOL     OW35413   1.556   1.264   4.812  0.0970 -0.1537  0.0135
 7927SOL    HW135414   1.519   1.191   4.862  1.8434 -0.1499  1.3071
 7927SOL    HW235415   1.645   1.233   4.796  0.4188  1.2018 -0.8326
 7928SOL     OW35416   4.487   1.131   1.718 -0.4408  0.2288  0.7202
 7928SOL    HW135417   4.537   1.049   1.723  0.8132  0.9919  0.5375
 7928SOL    HW235418   4.426   1.133   1.792 -0.8640 -1.2445  0.4209
 7929SOL     OW35419   4.456   4.519   9.940  0.0683  0.0746 -0.0512
 7929SOL    HW135420   4.527   4.562   9.989 -0.3830  0.3142  0.3920
 7929SOL    HW235421   4.469   4.429   9.970 -0.8547  0.1369  0.5379
 7930SOL     OW35422   4.530   4.151   5.970  0.1100  0.0789 -0.8171
 7930SOL    HW135423   4.535   4.181   5.879 -2.3284  0.8508 -0.6780
 7930SOL    HW235424   4.472   4.076   5.962 -0.6583  0.6956 -0.9739
 7931SOL     OW35425   0.965   1.485   3.559  0.2866 -0.4090 -0.0811
 7931SOL    HW135426   0.973   1.484   3.464  0.7153 -0.1383 -0.0417
 7931SOL    HW235427   1.031   1.421   3.587 -1.3246 -1.7545  0.7104
 7932SOL     OW35428   4.578   0.404   3.042 -0.4993 -0.3750 -0.2727
 7932SOL    HW135429   4.587   0.335   2.976 -0.2115 -1.1162  0.5269
 7932SOL    HW235430   4.638   0.365   3.106  0.9317  0.6044 -1.0221
 7933SOL     OW35431   1.889   0.160  15.893  0.6805 -0.2786 -1.1563
 7933SOL    HW135432   1.920   0.069  15.897  0.3109 -0.5102 -3.4046
 7933SOL    HW235433   1.795   0.153  15.877  0.3244  1.2182  0.2558
 7934SOL     OW35434   1.639   1.671  15.193 -0.3511  0.1578  0.5760
 7934SOL    HW135435   1.694   1.613  15.141 -1.1376  0.1905 -0.2995
 7934SOL    HW235436   1.683   1.697  15.274 -1.1010  0.4621  0.8858
 7935SOL     OW35437   1.949   2.665  10.693  0.2208  0.0818  0.6432
 7935SOL    HW135438   2.022   2.723  10.711  0.2351  0.9676 -2.3828
 7935SOL    HW235439   1.930   2.628  10.780  0.3207 -1.8072 -0.1304
 7936SOL     OW35440   0.725   0.010   7.833 -0.5783  0.0869 -0.4168
 7936SOL    HW135441   0.732   4.652   7.849  1.2756  0.1461 -0.8636
 7936SOL    HW235442   0.817   0.029   7.853 -0.1183 -0.1704 -2.2898
 7937SOL     OW35443   0.267   1.787   1.137  0.6387  0.0650  0.3374
 7937SOL    HW135444   0.188   1.812   1.185 -0.6556 -0.2183 -1.6258
 7937SOL    HW235445   0.316   1.723   1.189 -1.1183 -0.5150  1.2820
 7938SOL     OW35446   3.528   3.505   4.046 -0.1676  0.7643 -0.4876
 7938SOL    HW135447   3.499   3.459   4.124 -0.7719  1.4654 -0.3016
 7938SOL    HW235448   3.436   3.516   4.021 -0.5167 -1.2086 -0.0840
 7939SOL     OW35449   4.730   1.158   1.422 -0.4548  0.0700  0.3270
 7939SOL    HW135450   4.694   1.218   1.357 -0.8300 -1.4106 -0.8386
 7939SOL    HW235451   4.712   1.195   1.508 -0.7889  0.6926 -0.0077
 7940SOL     OW35452   0.083   1.939   5.190  0.4373 -0.2112 -0.9204
 7940SOL    HW135453   0.025   1.872   5.226  2.1579 -1.6722 -0.8835
 7940SOL    HW235454   0.166   1.892   5.200 -0.2401 -1.3570 -0.7056
 7941SOL     OW35455   1.055   4.611   2.830 -0.6310  0.0383 -0.2145
 7941SOL    HW135456   1.047   4.531   2.881 -2.7800  1.8100  2.2145
 7941SOL    HW235457   0.979   4.594   2.774 -0.7961 -0.6576  0.2276
 7942SOL     OW35458   1.799   1.490  15.420 -0.1092  0.0182  0.4079
 7942SOL    HW135459   1.799   1.474  15.326  2.2872 -3.0812  0.9429
 7942SOL    HW235460   1.707   1.476  15.443 -0.7398 -1.2799 -2.8570
 7943SOL     OW35461   2.320   2.816   7.912 -0.2974  0.1655 -0.2786
 7943SOL    HW135462   2.366   2.881   7.964 -1.6074  1.3307 -0.5869
 7943SOL    HW235463   2.235   2.857   7.896 -0.7269 -0.2175  1.0204
 7944SOL     OW35464   3.535   3.643  15.297  0.1494  0.1892 -0.1750
 7944SOL    HW135465   3.533   3.691  15.215 -0.1024 -0.3019 -0.4575
 7944SOL    HW235466   3.532   3.553  15.265  1.1433 -0.4726  1.6081
 7945SOL     OW35467   1.980   2.897   4.474 -0.1809  0.0968  0.1054
 7945SOL    HW135468   1.916   2.879   4.405 -1.7185 -0.8529  1.7976
 7945SOL    HW235469   2.023   2.811   4.478 -0.6406 -0.0610  1.5492
 7946SOL     OW35470   3.920   0.610   0.787 -0.0242 -0.1777 -0.7744
 7946SOL    HW135471   3.847   0.642   0.840 -1.5634 -2.4624 -1.5041
 7946SOL    HW235472   3.885   0.547   0.724  1.1814  0.4037 -2.0414
 7947SOL     OW35473   4.348   1.178   5.020 -0.3309  0.0534  0.5869
 7947SOL    HW135474   4.407   1.107   4.998 -2.1971 -1.3583  0.1379
 7947SOL    HW235475   4.293   1.186   4.942  1.1461 -1.0673 -0.5487
 7948SOL     OW35476   3.275   0.164  13.729 -0.2768  0.3032  0.0808
 7948SOL    HW135477   3.213   0.203  13.667  0.3481 -0.5719 -1.1098
 7948SOL    HW235478   3.338   0.236  13.735  2.8418 -2.3651 -0.8070
 7949SOL     OW35479   1.459   4.430   6.403 -0.1151  0.6333 -0.9273
 7949SOL    HW135480   1.444   4.436   6.309 -0.6764  0.3365 -0.8564
 7949SOL    HW235481   1.412   4.348   6.419 -1.2752  1.7585  1.4001
 7950SOL     OW35482   4.289   2.091   6.605  0.4376  0.2381  0.2667
 7950SOL    HW135483   4.244   2.114   6.524  0.2058  0.1936  0.3826
 7950SOL    HW235484   4.382   2.102   6.588  0.6966 -0.5275  1.1997
 7951SOL     OW35485   4.643   0.510   4.538  0.2305 -0.2363 -0.4025
 7951SOL    HW135486   4.589   0.588   4.550  0.1258 -0.7263  2.3164
 7951SOL    HW235487   4.649   0.526   4.444 -0.0219 -4.7637 -1.2035
 7952SOL     OW35488   1.182   2.793   2.733  0.6120  0.0604 -0.2996
 7952SOL    HW135489   1.124   2.801   2.808 -0.6344 -1.9183 -1.0473
 7952SOL    HW235490   1.204   2.885   2.722 -0.4428  0.2733 -0.6241
 7953SOL     OW35491   3.295   4.357   7.100 -0.0829  0.0078  1.2687
 7953SOL    HW135492   3.226   4.410   7.060 -0.2339 -1.7123 -0.7803
 7953SOL    HW235493   3.274   4.274   7.057  0.1325  0.7315 -0.2226
 7954SOL     OW35494   2.793   2.408   3.553  0.4184  0.4891 -0.6209
 7954SOL    HW135495   2.751   2.323   3.537  1.9522 -0.1046 -1.5762
 7954SOL    HW235496   2.831   2.423   3.466  1.5743 -2.2356 -0.5871
 7955SOL     OW35497   1.302   3.038   2.720  0.3239 -0.6132 -0.3882
 7955SOL    HW135498   1.345   3.046   2.635 -0.3321  0.3848 -0.6213
 7955SOL    HW235499   1.256   3.121   2.733  4.1473  1.2293  1.2641
 7956SOL     OW35500   0.386   2.517  14.903  0.5696 -0.4934 -0.2959
 7956SOL    HW135501   0.350   2.483  14.821  0.6679  2.0056 -1.3690
 7956SOL    HW235502   0.407   2.607  14.881  1.3888 -0.4154  0.8024
 7957SOL     OW35503   4.206   0.004   7.281 -0.3305 -0.7269  0.1222
 7957SOL    HW135504   4.256   4.685   7.342 -0.0368 -0.2622  0.2978
 7957SOL    HW235505   4.231   0.093   7.305 -3.8954  0.2495  0.2098
 7958SOL     OW35506   0.148   1.836  15.757  0.0298 -1.0077 -0.2435
 7958SOL    HW135507   0.168   1.761  15.701 -0.9982 -0.8190 -0.8698
 7958SOL    HW235508   0.115   1.798  15.838  1.7025 -3.9565 -0.9374
 7959SOL     OW35509   3.703   0.813   9.282  0.1758  0.5376 -0.0386
 7959SOL    HW135510   3.691   0.726   9.244 -2.3364  0.4787  0.8643
 7959SOL    HW235511   3.610   0.834   9.290  0.1636  1.2100 -2.1641
 7960SOL     OW35512   1.903   2.125   6.809  0.1431 -0.1489  0.2231
 7960SOL    HW135513   1.922   2.213   6.777  2.8262 -1.4050 -1.6250
 7960SOL    HW235514   1.965   2.130   6.882 -1.1145  1.9375  1.1481
 7961SOL     OW35515   0.960   1.272   2.315 -0.1902 -0.8710 -0.0269
 7961SOL    HW135516   0.866   1.263   2.330 -0.3219 -1.0408 -0.9272
 7961SOL    HW235517   0.956   1.325   2.235 -0.5603  1.6123  1.6433
 7962SOL     OW35518   2.737   1.930   6.795  0.2344 -0.2364  0.1750
 7962SOL    HW135519   2.700   1.948   6.881  0.7875 -4.7058  1.3477
 7962SOL    HW235520   2.668   1.877   6.755 -0.7540  0.8226  0.4583
 7963SOL     OW35521   2.766   1.433  16.086 -0.2266 -0.3016  0.6683
 7963SOL    HW135522   2.860   1.446  16.100  0.0076 -2.5527  1.1645
 7963SOL    HW235523   2.731   1.507  16.136  0.4711  0.4984 -0.0173
 7964SOL     OW35524   4.356   2.607   4.737 -0.0077 -0.3283  0.7617
 7964SOL    HW135525   4.349   2.561   4.654 -0.9167 -1.6753  1.5927
 7964SOL    HW235526   4.448   2.631   4.745 -0.3821  0.8317  1.6472
 7965SOL     OW35527   3.093   3.227  10.531 -0.1847 -0.0695  0.5346
 7965SOL    HW135528   3.042   3.229  10.450 -1.7856 -1.6372  1.5072
 7965SOL    HW235529   3.138   3.311  10.526 -2.8292  1.3434  0.5230
 7966SOL     OW35530   1.824   2.566   8.188  0.4346 -0.0335 -0.5728
 7966SOL    HW135531   1.826   2.619   8.108 -1.2607 -0.5316 -0.9527
 7966SOL    HW235532   1.821   2.624   8.265  2.8473  0.4918 -0.8674
 7967SOL     OW35533   3.191   2.192   9.413 -0.3511 -0.2692 -0.0477
 7967SOL    HW135534   3.105   2.179   9.451 -0.5426 -0.2989 -0.4878
 7967SOL    HW235535   3.184   2.281   9.380 -0.4865 -1.2959 -2.8158
 7968SOL     OW35536   3.717   1.360  13.758  0.1748 -0.1325  0.3063
 7968SOL    HW135537   3.797   1.410  13.742 -0.9954  1.1535 -1.4835
 7968SOL    HW235538   3.661   1.436  13.742  0.9890  0.1321 -1.2205
 7969SOL     OW35539   2.788   4.122   6.243  0.3531 -0.5984  0.8224
 7969SOL    HW135540   2.849   4.192   6.266  1.0830 -0.8651 -0.3250
 7969SOL    HW235541   2.847   4.050   6.223  0.5913  0.3892 -2.1151
 7970SOL     OW35542   2.492   1.409   5.608  0.5636  0.3396  0.1920
 7970SOL    HW135543   2.549   1.485   5.623 -1.2161  1.7582 -0.2935
 7970SOL    HW235544   2.534   1.350   5.670 -0.1266 -0.4825 -0.1337
 7971SOL     OW35545   4.439   3.196  11.425 -0.1964 -0.6357 -0.1304
 7971SOL    HW135546   4.523   3.202  11.471 -0.0160  0.2979 -0.5852
 7971SOL    HW235547   4.466   3.192  11.334 -1.4006 -3.2643 -0.3647
 7972SOL     OW35548   2.161   1.762  10.688 -0.0473  0.1969  0.5249
 7972SOL    HW135549   2.225   1.762  10.759  0.3681  0.8341  0.1440
 7972SOL    HW235550   2.223   1.796  10.624  0.1645 -1.9563 -0.4365
 7973SOL     OW35551   1.342   3.035  12.911  0.3148  0.3679  0.2281
 7973SOL    HW135552   1.305   3.122  12.926 -1.4836 -0.5333  1.1195
 7973SOL    HW235553   1.371   3.004  12.997 -3.8707  0.7155  1.8039
 7974SOL     OW35554   4.448   3.488  10.137  0.2685 -0.8363 -0.1391
 7974SOL    HW135555   4.519   3.530  10.089 -1.4945  0.2943 -1.7474
 7974SOL    HW235556   4.392   3.456  10.067  0.6616 -4.1460  1.0582
 7975SOL     OW35557   3.882   0.874   6.420  0.0003 -0.5636 -0.5399
 7975SOL    HW135558   3.825   0.932   6.470  2.8973  0.9099  1.0212
 7975SOL    HW235559   3.921   0.928   6.351 -0.2301  1.3194  0.8057
 7976SOL     OW35560   0.628   0.745   8.407 -0.5168  0.2150  0.1839
 7976SOL    HW135561   0.533   0.761   8.414 -1.2380 -3.3631 -1.8387
 7976SOL    HW235562   0.653   0.746   8.499 -1.6256 -1.0370  0.5015
 7977SOL     OW35563   0.311   4.321   2.472  0.2680 -0.0811 -0.3337
 7977SOL    HW135564   0.376   4.252   2.490 -2.3973 -1.8939  2.3251
 7977SOL    HW235565   0.362   4.402   2.477  2.5756 -1.5993  0.9225
 7978SOL     OW35566   4.527   3.738   6.425  0.7170 -0.0488 -0.8946
 7978SOL    HW135567   4.443   3.783   6.414  0.8950  0.3215 -0.7062
 7978SOL    HW235568   4.510   3.646   6.405  0.8562 -0.3935  0.5997
 7979SOL     OW35569   2.161   3.342   8.595  0.2399  0.3483  0.4235
 7979SOL    HW135570   2.116   3.404   8.652 -1.4279 -0.4051 -0.0901
 7979SOL    HW235571   2.087   3.311   8.544  0.3575  0.8065 -0.0285
 7980SOL     OW35572   3.915   1.391   8.906 -0.3385 -0.0317 -0.3263
 7980SOL    HW135573   3.980   1.331   8.872  0.4316  0.0424  1.0049
 7980SOL    HW235574   3.833   1.368   8.863  0.4093 -2.0255 -0.6728
 7981SOL     OW35575   2.899   0.293  13.339  0.0815  0.1348 -0.4572
 7981SOL    HW135576   2.804   0.295  13.348  0.1168  0.3381 -0.1359
 7981SOL    HW235577   2.904   0.358  13.269  2.3857 -0.9848 -1.3220
 7982SOL     OW35578   3.061   1.125   7.847 -0.0159 -0.2987  0.4256
 7982SOL    HW135579   3.109   1.208   7.851 -0.9521  0.3138 -0.9686
 7982SOL    HW235580   3.121   1.064   7.889 -0.4534 -0.9365  0.1366
 7983SOL     OW35581   1.088   1.183  14.676 -0.3696 -0.4818  0.0795
 7983SOL    HW135582   1.169   1.191  14.725 -1.3303  0.6294  1.4719
 7983SOL    HW235583   1.113   1.118  14.610  0.2793 -1.2036  1.0466
 7984SOL     OW35584   2.750   2.535  12.430  0.4308 -0.4312  0.7003
 7984SOL    HW135585   2.819   2.549  12.496  1.0757  0.2586 -0.1188
 7984SOL    HW235586   2.804   2.488  12.367 -0.7885 -0.0011 -0.6646
 7985SOL     OW35587   2.079   3.425   9.454 -0.1807  0.4166 -0.6805
 7985SOL    HW135588   2.107   3.504   9.499 -1.2214  0.0830  0.5518
 7985SOL    HW235589   2.157   3.401   9.404  0.5117 -1.0095  1.0885
 7986SOL     OW35590   2.755   1.331   6.958  0.8530  0.2203  0.5569
 7986SOL    HW135591   2.723   1.373   7.038 -2.6067 -1.5204  0.0821
 7986SOL    HW235592   2.704   1.250   6.959  0.8810  0.1625 -2.8739
 7987SOL     OW35593   3.657   0.431   8.029 -0.4439  0.3593  0.0535
 7987SOL    HW135594   3.715   0.355   8.034 -0.9704 -0.0587 -0.1860
 7987SOL    HW235595   3.585   0.397   8.082 -2.6614  1.5464 -2.1657
 7988SOL     OW35596   2.878   1.749   0.063 -0.0206  0.0991 -0.3671
 7988SOL    HW135597   2.922   1.744   0.148 -0.7972  1.6149  0.1144
 7988SOL    HW235598   2.874   1.844   0.057 -1.0239  0.0865  0.2043
 7989SOL     OW35599   4.692   3.404   6.080 -0.2945 -0.2883  0.5704
 7989SOL    HW135600   0.022   3.470   6.105 -0.2791 -0.4116  0.8551
 7989SOL    HW235601   4.683   3.357   6.163  2.5916 -0.1866  0.9605
 7990SOL     OW35602   3.785   1.866   5.886  0.1560  0.3639  0.3134
 7990SOL    HW135603   3.795   1.867   5.791  0.5828 -0.5064  0.3518
 7990SOL    HW235604   3.828   1.782   5.904  0.0949  0.3650  0.4678
 7991SOL     OW35605   1.390   2.294   4.280  0.2301  0.3651  0.2178
 7991SOL    HW135606   1.368   2.223   4.341  0.4200  1.2272  1.2919
 7991SOL    HW235607   1.485   2.292   4.293  0.5607  3.0693 -1.8391
 7992SOL     OW35608   1.282   1.815   4.435 -0.1769  0.2214 -0.0298
 7992SOL    HW135609   1.265   1.835   4.527 -0.9241 -0.8003  0.0488
 7992SOL    HW235610   1.211   1.860   4.390  1.7901  3.6732  0.2698
 7993SOL     OW35611   2.965   1.757   4.024 -0.0758  0.1097 -0.3483
 7993SOL    HW135612   2.898   1.693   4.047 -1.1455  1.0108 -0.9634
 7993SOL    HW235613   3.015   1.762   4.106 -1.9196 -1.0486  0.8418
 7994SOL     OW35614   0.900   4.298   9.821  0.3056 -0.1396  0.3759
 7994SOL    HW135615   0.949   4.368   9.865  0.3642 -0.8582  1.4434
 7994SOL    HW235616   0.807   4.302   9.845  0.5785 -1.1931  1.5861
 7995SOL     OW35617   3.911   2.482   8.565  0.1394 -0.2158 -0.7479
 7995SOL    HW135618   3.850   2.455   8.633  0.1483 -0.3194 -0.7815
 7995SOL    HW235619   3.906   2.574   8.590 -0.1519 -0.3487 -0.3254
 7996SOL     OW35620   2.693   0.468   7.262 -0.0330  0.7845 -0.0066
 7996SOL    HW135621   2.787   0.464   7.278  0.1686  1.0744 -1.1300
 7996SOL    HW235622   2.686   0.518   7.181  2.0087  0.4118 -0.4206
 7997SOL     OW35623   2.875   1.666   7.001 -0.2323  0.2692  0.1113
 7997SOL    HW135624   2.965   1.680   6.973  0.5659 -2.6432  1.2148
 7997SOL    HW235625   2.821   1.683   6.923  1.5411  1.1961 -0.9027
 7998SOL     OW35626   3.034   3.666  13.721 -0.5190  0.2298 -0.7206
 7998SOL    HW135627   2.948   3.627  13.705 -0.0624 -0.7038 -0.8576
 7998SOL    HW235628   3.059   3.697  13.634 -0.2682  0.0024 -0.7278
 7999SOL     OW35629   3.325   1.018   5.441 -0.6993 -0.6375  0.2116
 7999SOL    HW135630   3.414   1.004   5.409 -1.4851 -1.6468 -1.5759
 7999SOL    HW235631   3.299   0.927   5.453 -2.3671 -0.0811  0.8411
 8000SOL     OW35632   4.425   0.776   6.114 -0.3511  0.0380  0.1209
 8000SOL    HW135633   4.465   0.740   6.193  2.8220  3.9539  0.2912
 8000SOL    HW235634   4.490   0.842   6.092  0.7885 -2.3209 -3.5839
 8001SOL     OW35635   3.665   3.184   4.766 -0.0815  0.2732 -0.1227
 8001SOL    HW135636   3.708   3.227   4.840  0.9307 -0.8102 -0.0877
 8001SOL    HW235637   3.689   3.092   4.778 -2.2971 -0.2188  0.5472
 8002SOL     OW35638   3.244   4.667  12.657 -0.7976 -0.0016  0.7138
 8002SOL    HW135639   3.258   4.676  12.751 -1.0551  1.7317  0.5900
 8002SOL    HW235640   3.150   4.681  12.651 -0.5934  0.7994 -0.8087
 8003SOL     OW35641   0.208   3.370   6.635  0.8063 -0.1058  0.0023
 8003SOL    HW135642   0.140   3.423   6.677  0.1212 -0.7580 -0.2848
 8003SOL    HW235643   0.196   3.280   6.665  0.2269  1.0976  3.3877
 8004SOL     OW35644   3.105   1.878   9.190  0.0511 -0.2816 -0.2976
 8004SOL    HW135645   3.076   1.864   9.280  0.0882  1.9793  0.0739
 8004SOL    HW235646   3.033   1.920   9.143  0.2653 -1.0618 -1.3270
 8005SOL     OW35647   4.287   1.160   0.947  0.5017 -0.4446  0.0413
 8005SOL    HW135648   4.200   1.156   0.987  0.2270 -0.3674 -0.5389
 8005SOL    HW235649   4.280   1.244   0.902 -0.9140 -1.5464 -1.7737
 8006SOL     OW35650   0.008   3.201   0.874  0.1919  0.2414 -0.3185
 8006SOL    HW135651   0.088   3.241   0.837  0.7564 -0.3236  0.2872
 8006SOL    HW235652   4.701   3.164   0.798  2.6566  0.0348 -1.6263
 8007SOL     OW35653   2.792   2.500  11.077  0.1908 -0.2771 -0.3653
 8007SOL    HW135654   2.877   2.467  11.109  0.1810  0.4974  0.4744
 8007SOL    HW235655   2.753   2.413  11.070 -1.7855  0.7418 -1.8351
 8008SOL     OW35656   0.399   2.165   7.957 -0.1341 -0.2355  0.1067
 8008SOL    HW135657   0.478   2.135   8.002 -0.3122 -1.4224 -0.3796
 8008SOL    HW235658   0.401   2.260   7.970  2.0738 -0.1799 -0.5859
 8009SOL     OW35659   2.646   2.201   5.757 -0.3119 -0.0079  0.0763
 8009SOL    HW135660   2.709   2.259   5.798 -2.1362  3.0364 -1.4157
 8009SOL    HW235661   2.565   2.233   5.796  0.1047 -1.2211  1.9261
 8010SOL     OW35662   1.264   3.480   3.450  0.8086 -0.3217 -0.5222
 8010SOL    HW135663   1.196   3.418   3.478 -1.0690  2.6728  1.5279
 8010SOL    HW235664   1.223   3.563   3.474 -1.1116 -1.1224 -0.9996
 8011SOL     OW35665   1.307   3.976   6.419  0.0582  0.1848  0.4465
 8011SOL    HW135666   1.319   3.996   6.326 -3.1240  0.5844  0.1303
 8011SOL    HW235667   1.240   3.909   6.411  2.3947 -2.0746 -0.0605
 8012SOL     OW35668   2.780   4.624   2.031  0.2751  0.0439  0.2892
 8012SOL    HW135669   2.722   4.636   1.956  0.7005 -0.4005 -0.1188
 8012SOL    HW235670   2.809   4.532   2.034  0.9876  0.3070  1.3152
 8013SOL     OW35671   0.245   0.428   9.058 -0.3532  0.7800 -0.0800
 8013SOL    HW135672   0.178   0.386   9.111 -0.2894 -1.1699 -1.5458
 8013SOL    HW235673   0.220   0.388   8.975 -0.3444  1.3532 -0.3518
 8014SOL     OW35674   0.847   0.315  10.284  0.1379 -0.3858 -0.0948
 8014SOL    HW135675   0.777   0.292  10.222  0.3136  1.5200 -0.9843
 8014SOL    HW235676   0.802   0.314  10.369  4.5696  0.3275  2.2539
 8015SOL     OW35677   0.932   3.734   6.183 -0.2178  0.0905 -0.2884
 8015SOL    HW135678   0.932   3.641   6.204  1.1367  0.1638  0.0368
 8015SOL    HW235679   0.918   3.737   6.089 -0.3963  1.7947 -0.2201
 8016SOL     OW35680   3.241   1.244  12.543  0.0456  0.4988  0.3496
 8016SOL    HW135681   3.213   1.152  12.542  0.7521  0.2877  0.5810
 8016SOL    HW235682   3.200   1.268  12.626 -0.1074  0.7912  0.1918
 8017SOL     OW35683   0.600   1.043   8.517 -0.0114  0.1176  1.0030
 8017SOL    HW135684   0.622   1.026   8.426  1.0387 -0.7845  1.4241
 8017SOL    HW235685   0.584   0.953   8.547 -0.0477 -0.2339 -0.0545
 8018SOL     OW35686   4.124   4.527  16.808  0.4935 -0.2409 -0.6937
 8018SOL    HW135687   4.168   4.443  16.821  0.2593  0.0332  2.0399
 8018SOL    HW235688   4.192   4.589  16.782 -1.4709  1.7514 -1.0927
 8019SOL     OW35689   2.060   4.704   6.683  0.0570  0.0483 -0.0897
 8019SOL    HW135690   1.997   4.731   6.749 -0.7986 -1.0036 -0.4733
 8019SOL    HW235691   2.138   4.706   6.738  0.3204 -3.1520 -0.3660
 8020SOL     OW35692   1.078   2.874   7.475  0.0286  0.0177  0.1100
 8020SOL    HW135693   1.004   2.919   7.516 -1.6684 -1.2151 -1.6411
 8020SOL    HW235694   1.060   2.781   7.466 -0.8571  0.1894  0.1681
 8021SOL     OW35695   0.881   2.360   7.617  0.5028 -0.0132  0.2302
 8021SOL    HW135696   0.854   2.286   7.672  0.8334  0.7649  1.4541
 8021SOL    HW235697   0.800   2.403   7.591  0.5674  1.1969  2.0154
 8022SOL     OW35698   0.403   0.176   9.440  0.9152 -0.0701 -0.3309
 8022SOL    HW135699   0.343   0.127   9.383  0.8008 -0.9953  0.5807
 8022SOL    HW235700   0.434   0.097   9.485 -0.9564 -0.0924  0.9444
 8023SOL     OW35701   2.224   1.030   6.021 -0.1944 -0.3185  0.3342
 8023SOL    HW135702   2.295   1.094   6.020  0.4628 -1.0399  1.6304
 8023SOL    HW235703   2.247   0.964   6.086 -2.3901 -0.0732  1.3678
 8024SOL     OW35704   0.905   2.104   3.123  0.1614  0.8440 -0.1603
 8024SOL    HW135705   0.942   2.045   3.057 -2.5472 -1.4144  0.3463
 8024SOL    HW235706   0.966   2.177   3.116  2.1319 -0.6234  1.6912
 8025SOL     OW35707   3.481   4.699   2.090 -0.1826  0.4204  0.1463
 8025SOL    HW135708   3.453   4.619   2.134 -0.0098  0.1157 -0.2945
 8025SOL    HW235709   3.558   4.672   2.040  0.3193 -0.7284  1.5799
 8026SOL     OW35710   0.790   3.185  15.038  0.3221 -0.2037 -0.4409
 8026SOL    HW135711   0.727   3.153  14.974  0.6470 -1.7844  0.0304
 8026SOL    HW235712   0.757   3.147  15.119  0.2977 -0.2356 -0.4660
 8027SOL     OW35713   2.177   0.021   4.736  0.1476 -0.6481 -0.1612
 8027SOL    HW135714   2.246   4.724   4.679  0.8882 -1.8883  1.4599
 8027SOL    HW235715   2.154   0.103   4.692  0.5771 -0.3501  0.1697
 8028SOL     OW35716   2.128   2.810   5.280 -0.2725  0.0644  0.1985
 8028SOL    HW135717   2.224   2.816   5.276 -0.2551 -0.3221 -0.0634
 8028SOL    HW235718   2.130   2.718   5.253 -2.2661  0.0782  0.0251
 8029SOL     OW35719   2.836   3.194  12.365 -0.9830  0.0097 -0.0873
 8029SOL    HW135720   2.880   3.162  12.444  1.1383  0.9466 -0.8935
 8029SOL    HW235721   2.767   3.128  12.352 -0.7774 -0.5807  1.7462
 8030SOL     OW35722   0.985   2.556   6.272 -0.0738  0.5980 -0.0696
 8030SOL    HW135723   1.002   2.578   6.364 -1.6216  1.8027 -0.0572
 8030SOL    HW235724   1.025   2.634   6.233  0.5893  0.7497  0.9236
 8031SOL     OW35725   0.729   4.250   1.073 -0.5607  0.0055  0.0320
 8031SOL    HW135726   0.714   4.321   1.135  0.4590  0.3404 -0.1037
 8031SOL    HW235727   0.824   4.260   1.060 -0.7583 -0.1843 -1.5287
 8032SOL     OW35728   2.522   3.881   8.189  0.7180 -0.1545  0.2375
 8032SOL    HW135729   2.575   3.808   8.222 -1.5250 -1.6891  0.4453
 8032SOL    HW235730   2.589   3.948   8.176 -1.2416  1.8519  0.5612
 8033SOL     OW35731   2.490   1.128   7.980  0.4089  0.0919  0.3742
 8033SOL    HW135732   2.432   1.059   7.947 -0.4808  0.1500  1.8520
 8033SOL    HW235733   2.574   1.081   7.982  1.0901  1.2387 -0.8220
 8034SOL     OW35734   2.609   3.936   4.304 -0.0530 -0.2751  0.5188
 8034SOL    HW135735   2.647   4.015   4.265 -1.1873  0.8906  1.7560
 8034SOL    HW235736   2.593   3.964   4.394  0.8090 -1.5553  1.0708
 8035SOL     OW35737   3.321   4.682   9.380 -0.4600 -0.0451  0.1417
 8035SOL    HW135738   3.249   4.649   9.435 -0.1956 -1.8851 -0.5997
 8035SOL    HW235739   3.343   0.033   9.413  1.7723 -0.4008 -0.3916
 8036SOL     OW35740   4.709   1.213  16.680 -0.3235 -0.4952  0.3806
 8036SOL    HW135741   4.640   1.153  16.652 -1.3420  0.8278  0.0088
 8036SOL    HW235742   4.672   1.299  16.658  0.5336 -0.4970 -1.0993
 8037SOL     OW35743   4.252   3.551  17.661 -0.1417 -0.2838 -0.4770
 8037SOL    HW135744   4.312   3.512  17.598  1.9263 -0.1239  1.3807
 8037SOL    HW235745   4.301   3.625  17.697 -1.7378  0.1309  0.8971
 8038SOL     OW35746   1.204   2.498   3.954 -0.0115 -0.8390 -0.0384
 8038SOL    HW135747   1.209   2.405   3.973  1.0672 -0.8673 -0.4699
 8038SOL    HW235748   1.275   2.499   3.890 -0.1558 -0.7688 -0.1976
 8039SOL     OW35749   1.342   3.018   4.594 -0.0612  0.2034 -0.3048
 8039SOL    HW135750   1.350   3.062   4.679  0.9930  0.3885 -0.5103
 8039SOL    HW235751   1.426   3.051   4.563 -0.7922  3.1552  0.8004
 8040SOL     OW35752   3.751   0.796   0.976  0.0497  0.1462 -0.2608
 8040SOL    HW135753   3.694   0.862   0.936 -0.7479  0.0005  0.6478
 8040SOL    HW235754   3.791   0.846   1.047 -1.7229  0.7005  0.3625
 8041SOL     OW35755   3.629   1.309   5.219 -0.1507 -0.0131 -0.9783
 8041SOL    HW135756   3.620   1.404   5.228  1.0358  0.0457 -0.3609
 8041SOL    HW235757   3.719   1.314   5.188  0.2162 -1.4906 -0.1768
 8042SOL     OW35758   1.174   1.316   3.622 -0.4556 -0.6375  0.2929
 8042SOL    HW135759   1.220   1.264   3.556  0.1689  1.3146 -0.8074
 8042SOL    HW235760   1.122   1.247   3.663 -0.0888 -0.6896  0.6786
 8043SOL     OW35761   3.778   3.956  12.533  0.4708 -0.3143  0.4350
 8043SOL    HW135762   3.724   4.018  12.485 -1.9626 -1.7815  1.2503
 8043SOL    HW235763   3.715   3.885  12.522  0.0002  0.4402 -1.7211
 8044SOL     OW35764   3.166   1.289  11.922  0.1731  0.9929 -0.0712
 8044SOL    HW135765   3.196   1.248  11.841  0.1630  1.8940 -0.5342
 8044SOL    HW235766   3.158   1.376  11.883  1.1517  0.7432 -0.8423
 8045SOL     OW35767   4.220   0.894   5.903 -0.1517  0.3091 -0.2971
 8045SOL    HW135768   4.272   0.891   5.983  0.0618  0.8405 -0.4193
 8045SOL    HW235769   4.256   0.816   5.861 -0.5278  0.7537 -1.4386
 8046SOL     OW35770   2.219   3.186   7.409  0.0530 -0.2236  0.4814
 8046SOL    HW135771   2.226   3.238   7.490 -2.5320  1.7868 -0.5785
 8046SOL    HW235772   2.224   3.095   7.437 -2.6243 -0.2493  0.8512
 8047SOL     OW35773   0.380   0.410   8.399  0.2685  0.2116 -0.2261
 8047SOL    HW135774   0.312   0.475   8.383  0.7434  0.7636 -0.0201
 8047SOL    HW235775   0.454   0.452   8.356  0.1983 -0.0175 -0.5691
 8048SOL     OW35776   3.789   0.852  14.723 -0.1707 -0.2897  0.1678
 8048SOL    HW135777   3.849   0.798  14.673 -0.5517 -0.7020  0.1606
 8048SOL    HW235778   3.720   0.792  14.750 -0.2948 -0.9199 -1.5302
 8049SOL     OW35779   0.088   4.212   1.694  0.9952 -0.0487 -0.4397
 8049SOL    HW135780   0.100   4.119   1.708 -0.2194 -0.3430 -1.2796
 8049SOL    HW235781   0.144   4.240   1.621 -0.8920  1.9398 -1.1302
 8050SOL     OW35782   3.266   4.525  10.539  0.5247 -0.2864  0.7090
 8050SOL    HW135783   3.302   4.438  10.557  1.9139  0.1840  0.2543
 8050SOL    HW235784   3.243   4.523  10.447 -0.9383  0.9352  1.0384
 8051SOL     OW35785   0.535   1.093  11.023  0.0549 -0.2386  0.0149
 8051SOL    HW135786   0.526   1.188  11.021 -1.7653 -0.3797  1.0157
 8051SOL    HW235787   0.569   1.070  11.110 -2.0293  0.5219  1.0595
 8052SOL     OW35788   0.906   0.568   8.840  0.2233 -0.1203 -0.0828
 8052SOL    HW135789   0.877   0.522   8.761 -0.7868  0.0886  0.1621
 8052SOL    HW235790   0.999   0.587   8.834  0.6518 -1.5875  2.1693
 8053SOL     OW35791   1.425   0.704   8.508  0.4672 -0.4411 -0.1351
 8053SOL    HW135792   1.463   0.725   8.594 -1.8748  0.7616  0.6026
 8053SOL    HW235793   1.425   0.791   8.467 -1.1035 -1.2262 -1.7710
 8054SOL     OW35794   4.655   4.482   2.395 -0.2654 -0.4629 -0.2537
 8054SOL    HW135795   4.716   4.551   2.422 -1.1026  0.6689 -1.2416
 8054SOL    HW235796   4.688   4.468   2.306 -2.1430  0.2755 -1.0732
 8055SOL     OW35797   1.490   4.492   5.473  0.7177  0.1215 -0.2381
 8055SOL    HW135798   1.506   4.576   5.429  0.9440 -0.0820 -0.5462
 8055SOL    HW235799   1.423   4.533   5.527  0.2608  0.1126 -0.7971
 8056SOL     OW35800   1.873   0.213   7.724 -0.4752 -0.0735  0.0515
 8056SOL    HW135801   1.917   0.227   7.640 -2.4875 -0.8422 -1.1398
 8056SOL    HW235802   1.842   0.303   7.733 -1.1185 -0.3370  0.4900
 8057SOL     OW35803   1.163   2.698  10.105  0.3238 -0.3047 -0.0728
 8057SOL    HW135804   1.184   2.737  10.020 -1.9260  0.9980 -0.0300
 8057SOL    HW235805   1.123   2.775  10.146  0.4855 -0.8950  1.1862
 8058SOL     OW35806   2.323   2.957   8.518  0.1748  0.1020  0.7937
 8058SOL    HW135807   2.334   2.885   8.579 -2.2947 -0.3425  0.6965
 8058SOL    HW235808   2.393   2.940   8.455 -0.1993 -0.6200  0.5809
 8059SOL     OW35809   1.827   1.362   7.204 -0.6376 -0.2145 -0.1645
 8059SOL    HW135810   1.823   1.439   7.261 -1.4911  0.1631 -0.7342
 8059SOL    HW235811   1.758   1.375   7.138 -0.9196  0.0646  0.1825
 8060SOL     OW35812   3.771   1.233  15.523 -0.2552  0.5112 -0.2873
 8060SOL    HW135813   3.682   1.265  15.513 -0.6348 -0.4279  0.0851
 8060SOL    HW235814   3.805   1.257  15.437  1.4978 -1.4186 -0.1399
 8061SOL     OW35815   2.454   3.454  16.799  0.2770 -0.2562 -0.1865
 8061SOL    HW135816   2.474   3.436  16.891 -1.6728  2.7639  0.7934
 8061SOL    HW235817   2.543   3.465  16.765 -0.1601  0.9677 -0.9025
 8062SOL     OW35818   1.973   1.385  15.648  0.1915  0.2712  0.0722
 8062SOL    HW135819   1.945   1.296  15.625  3.5241 -0.1767 -2.2113
 8062SOL    HW235820   1.936   1.447  15.585  0.2256  0.3191  0.0991
 8063SOL     OW35821   0.948   0.273   3.017 -0.1688 -0.3547  0.1101
 8063SOL    HW135822   0.979   0.246   2.931 -1.2418  0.4767 -0.5358
 8063SOL    HW235823   0.887   0.344   2.999 -1.5530 -0.7804  3.1409
 8064SOL     OW35824   3.269   2.282   7.961 -0.0569  0.5192 -0.0840
 8064SOL    HW135825   3.189   2.270   7.910 -1.1776 -0.1695  1.8802
 8064SOL    HW235826   3.331   2.244   7.897 -0.1867  0.0222  0.0857
 8065SOL     OW35827   3.754   1.866   9.629  0.1316  0.2181 -0.6830
 8065SOL    HW135828   3.836   1.894   9.588 -0.2998 -1.3224 -2.6168
 8065SOL    HW235829   3.708   1.948   9.646 -1.7865 -0.7804 -1.1044
 8066SOL     OW35830   4.296   0.465  11.603 -0.0024  0.2159 -0.2693
 8066SOL    HW135831   4.359   0.465  11.676 -2.9732 -1.5504  2.2913
 8066SOL    HW235832   4.233   0.536  11.618 -1.4181 -0.8938 -1.0891
 8067SOL     OW35833   1.967   1.895   3.220 -0.1976  0.3472 -0.3814
 8067SOL    HW135834   1.945   1.915   3.129  0.2060 -0.9314 -0.7535
 8067SOL    HW235835   1.942   1.975   3.266  0.7864 -0.3632  1.3975
 8068SOL     OW35836   2.222   3.907   6.015  0.6367  0.4038  0.0482
 8068SOL    HW135837   2.194   3.938   5.929 -1.5887 -0.0984  0.5921
 8068SOL    HW235838   2.156   3.846   6.050  0.3647  0.6817  0.0155
 8069SOL     OW35839   4.063   0.450   5.773  0.3481 -0.2048 -0.4139
 8069SOL    HW135840   4.026   0.402   5.847  2.1062  1.6322  1.6712
 8069SOL    HW235841   3.983   0.466   5.722  0.1596  1.0468  0.2745
 8070SOL     OW35842   4.150   4.144   1.979 -0.5948  0.4942  0.0871
 8070SOL    HW135843   4.105   4.172   1.900  1.5874 -0.9060 -1.6589
 8070SOL    HW235844   4.104   4.204   2.038  0.8404  0.1183  1.6084
 8071SOL     OW35845   3.782   4.662   2.102  0.1832  0.0232  0.2962
 8071SOL    HW135846   3.793   4.615   2.019  1.6153 -0.3052  0.6673
 8071SOL    HW235847   3.867   4.648   2.143 -0.1229  0.9139  1.2355
 8072SOL     OW35848   3.874   0.561   9.004 -0.2679 -0.2524  0.0389
 8072SOL    HW135849   3.935   0.499   9.046 -0.3977  1.1730  2.3523
 8072SOL    HW235850   3.915   0.565   8.918  1.0199  4.4194  0.8797
 8073SOL     OW35851   3.655   4.257  12.487 -0.5988  0.1546  0.4090
 8073SOL    HW135852   3.713   4.225  12.556  0.7938  0.2517 -0.7269
 8073SOL    HW235853   3.569   4.259  12.530 -0.3811 -2.1011  0.9187
 8074SOL     OW35854   4.245   3.089   7.464  0.8669  0.6794 -0.4003
 8074SOL    HW135855   4.222   3.182   7.463  2.6937  1.1630  1.7065
 8074SOL    HW235856   4.159   3.048   7.468  0.3995  1.6647 -0.2118
 8075SOL     OW35857   3.961   2.738  11.217  0.0872  0.3010  0.0298
 8075SOL    HW135858   4.034   2.721  11.276  1.0093  1.0780 -0.8854
 8075SOL    HW235859   3.896   2.678  11.254  0.5341 -0.5599 -0.5819
 8076SOL     OW35860   4.420   2.211   2.608  0.3729  0.0195 -0.5861
 8076SOL    HW135861   4.508   2.213   2.647  1.3568 -0.8033 -2.7944
 8076SOL    HW235862   4.430   2.256   2.525 -1.2710 -1.3913 -1.5382
 8077SOL     OW35863   4.483   2.263   7.960 -0.2893 -0.2496  0.3944
 8077SOL    HW135864   4.407   2.306   7.997 -1.2651 -0.8416 -0.8972
 8077SOL    HW235865   4.533   2.339   7.932 -0.2625 -0.2850  0.3444
 8078SOL     OW35866   2.720   1.138  14.262 -0.1603  0.2952  0.2051
 8078SOL    HW135867   2.748   1.095  14.182  0.8602 -1.4613  1.4867
 8078SOL    HW235868   2.784   1.100  14.323  0.2671  1.8099  0.7190
 8079SOL     OW35869   1.001   0.357   4.290  0.5780  0.1839 -0.1347
 8079SOL    HW135870   1.049   0.298   4.347  0.7130  1.0089  0.6004
 8079SOL    HW235871   0.922   0.308   4.268  0.3396 -0.8449  3.1246
 8080SOL     OW35872   1.637   3.723   9.787  0.2811 -0.0744  0.2698
 8080SOL    HW135873   1.727   3.754   9.777  0.0081  1.1516  1.5825
 8080SOL    HW235874   1.593   3.797   9.746 -0.9778 -0.5313  0.8149
 8081SOL     OW35875   2.806   0.420   5.470 -0.0891 -0.4578  0.5194
 8081SOL    HW135876   2.768   0.507   5.473 -0.5373 -0.5379 -2.3821
 8081SOL    HW235877   2.896   0.433   5.440 -1.1681 -0.8089 -2.8816
 8082SOL     OW35878   1.922   2.858  11.058  0.0582 -0.8063  0.1555
 8082SOL    HW135879   1.909   2.767  11.031  0.8815 -0.6514 -0.7456
 8082SOL    HW235880   1.863   2.897  10.994 -0.5069  0.0262  1.1904
 8083SOL     OW35881   4.615   1.956   2.014  0.0750  0.0212 -0.1487
 8083SOL    HW135882   4.571   1.931   1.933 -1.7715  0.5008  0.6906
 8083SOL    HW235883   4.553   1.919   2.078 -0.1876  1.4188  0.4011
 8084SOL     OW35884   4.483   1.325   9.298 -0.0859 -0.2646  0.3055
 8084SOL    HW135885   4.399   1.285   9.321 -0.6874  1.6289  1.3920
 8084SOL    HW235886   4.545   1.263   9.338 -0.3616 -1.8718 -1.7450
 8085SOL     OW35887   0.337   2.609   6.343 -0.0311 -0.7290  0.5346
 8085SOL    HW135888   0.329   2.560   6.261  0.9588  0.4969 -0.3052
 8085SOL    HW235889   0.322   2.697   6.308 -0.0715 -0.6377  0.7823
 8086SOL     OW35890   0.335   0.931   7.743  0.1228 -0.1496  0.1639
 8086SOL    HW135891   0.360   0.861   7.683 -1.2654 -0.0795 -0.5184
 8086SOL    HW235892   0.405   0.990   7.715  1.1099 -2.3811 -2.0718
 8087SOL     OW35893   3.602   2.742   4.385  0.3967  0.4101 -0.0929
 8087SOL    HW135894   3.673   2.679   4.374 -0.7635 -0.1668 -4.3922
 8087SOL    HW235895   3.615   2.803   4.312 -0.7124 -0.8283 -1.3348
 8088SOL     OW35896   0.291   3.693   2.471 -0.2555 -0.5143  0.2412
 8088SOL    HW135897   0.316   3.623   2.531  0.3889 -1.2851 -0.9466
 8088SOL    HW235898   0.251   3.741   2.544  0.5443  0.2578  0.1639
 8089SOL     OW35899   1.103   4.105   9.871 -0.6095 -0.2777  0.2628
 8089SOL    HW135900   1.082   4.068   9.957  3.7741 -1.2480  0.8952
 8089SOL    HW235901   1.020   4.150   9.855  0.4699  0.5635 -2.7623
 8090SOL     OW35902   1.426   0.101   0.460  0.2223 -0.1544 -0.4015
 8090SOL    HW135903   1.438   0.049   0.540  1.6362  0.9232  0.0985
 8090SOL    HW235904   1.384   0.039   0.401  0.4779  0.0078 -0.7532
 8091SOL     OW35905   4.468   4.056  11.071 -0.2119 -0.4330  0.1497
 8091SOL    HW135906   4.471   4.109  10.991 -1.4481 -0.2052  0.2562
 8091SOL    HW235907   4.556   4.070  11.106  0.1466  0.0225 -0.9151
 8092SOL     OW35908   4.608   4.147  10.759 -0.0654 -0.6275 -0.5256
 8092SOL    HW135909   4.596   4.184  10.847  0.0595 -0.8892 -0.4016
 8092SOL    HW235910   4.529   4.167  10.709 -0.5110 -1.3821 -0.1208
 8093SOL     OW35911   3.416   2.000  13.824  0.1445 -0.2162 -0.5634
 8093SOL    HW135912   3.433   1.917  13.868 -1.8666  1.0021  2.5686
 8093SOL    HW235913   3.505   2.029  13.801  0.5787 -1.2737 -0.1893
 8094SOL     OW35914   2.184   0.994   3.601 -0.2703 -0.7556 -0.2133
 8094SOL    HW135915   2.237   1.012   3.523  0.8039 -2.4966  0.1283
 8094SOL    HW235916   2.234   0.925   3.645  0.7743 -0.5676 -1.1035
 8095SOL     OW35917   0.275   4.043   3.866  0.0679 -0.2097  0.0202
 8095SOL    HW135918   0.342   4.066   3.930  0.2431  1.8428 -0.8896
 8095SOL    HW235919   0.277   4.125   3.816 -1.5766 -0.1235  0.1149
 8096SOL     OW35920   2.181   3.371  15.151 -0.0416  0.0736  0.4025
 8096SOL    HW135921   2.101   3.322  15.136 -0.0915  0.1751  0.3395
 8096SOL    HW235922   2.211   3.345  15.238  0.5649 -0.7745 -0.0579
 8097SOL     OW35923   1.671   1.993   2.832  0.3915  0.1314  0.2821
 8097SOL    HW135924   1.614   2.002   2.909 -2.8252 -3.6375 -1.6827
 8097SOL    HW235925   1.606   1.982   2.763  0.5516  0.0634  0.1447
 8098SOL     OW35926   4.691   0.944  11.089  0.7583 -0.0719 -0.2625
 8098SOL    HW135927   4.719   1.019  11.141 -0.6250 -0.5869  1.2350
 8098SOL    HW235928   4.619   0.929  11.151 -0.5090  0.8357 -1.5233
 8099SOL     OW35929   4.471   1.999   8.061  0.4019 -0.3764 -0.2197
 8099SOL    HW135930   4.497   2.034   8.146 -1.6824 -0.4984  0.4845
 8099SOL    HW235931   4.482   2.076   8.006  2.3725 -0.4585  0.0681
 8100SOL     OW35932   0.744   2.634  17.098  0.8966 -0.0517  0.7574
 8100SOL    HW135933   0.780   2.620  17.011  4.6142  2.0647  1.9717
 8100SOL    HW235934   0.760   2.727  17.113  1.2717 -0.2068  1.3130
 8101SOL     OW35935   4.381   3.614   4.206 -0.0084 -0.4820 -0.3381
 8101SOL    HW135936   4.334   3.685   4.248  0.0377  0.6684 -2.2292
 8101SOL    HW235937   4.327   3.535   4.209 -2.0039  1.0046  2.0180
 8102SOL     OW35938   3.931   4.681   6.916 -0.0602  0.7693 -0.1381
 8102SOL    HW135939   3.949   4.643   7.002  0.5957  0.0327 -0.5931
 8102SOL    HW235940   3.848   4.728   6.918  0.4561  1.6272  1.0794
 8103SOL     OW35941   4.029   0.204   4.264 -0.2346 -0.1415  0.5245
 8103SOL    HW135942   3.935   0.220   4.268 -0.0780  0.6698  0.9625
 8103SOL    HW235943   4.047   0.248   4.181  1.9151  1.4213  1.8116
 8104SOL     OW35944   0.097   4.185  11.934 -0.4753 -0.8085 -0.2575
 8104SOL    HW135945   0.002   4.174  11.934 -0.4240 -1.3811  1.6241
 8104SOL    HW235946   0.116   4.148  12.021  3.9274  0.3180 -0.7283
 8105SOL     OW35947   0.664   2.302  14.186 -0.1489  0.5424 -0.3499
 8105SOL    HW135948   0.618   2.288  14.269 -1.4655 -0.0512 -1.1911
 8105SOL    HW235949   0.606   2.372  14.155 -0.1414  0.8728  0.3761
 8106SOL     OW35950   1.447   4.270   5.348  0.3586 -0.5230 -0.0220
 8106SOL    HW135951   1.464   4.348   5.401 -0.7410  1.0159 -1.9178
 8106SOL    HW235952   1.352   4.263   5.351  0.1930  1.6995 -0.2257
 8107SOL     OW35953   0.085   0.273  10.862  0.0800  0.5610  0.6714
 8107SOL    HW135954   0.051   0.186  10.883  0.5730  0.3344  0.5368
 8107SOL    HW235955   0.007   0.312  10.821  0.1942 -0.1782 -0.2496
 8108SOL     OW35956   4.385   3.895  10.761  0.7194  0.1794 -0.2396
 8108SOL    HW135957   4.443   3.877  10.836  2.5329  0.6002 -1.5449
 8108SOL    HW235958   4.417   3.838  10.691  1.2919  0.0795  0.0997
 8109SOL     OW35959   3.124   2.600   8.287  0.6093 -0.2520 -0.0722
 8109SOL    HW135960   3.150   2.589   8.195  3.1386  2.4634  0.3343
 8109SOL    HW235961   3.150   2.510   8.308 -1.5139 -0.8896 -0.2238
 8110SOL     OW35962   4.419   4.715   3.550  0.2489 -0.0454 -0.4959
 8110SOL    HW135963   4.437   4.621   3.556  2.5731  0.4006 -0.3733
 8110SOL    HW235964   4.413   0.004   3.642  0.8527 -1.9707  0.0537
 8111SOL     OW35965   1.601   1.257  11.970  0.5803 -0.1468  0.1632
 8111SOL    HW135966   1.516   1.238  11.930  0.9672 -2.3813  0.3926
 8111SOL    HW235967   1.662   1.193  11.935 -1.6593 -1.3891 -1.4904
 8112SOL     OW35968   0.398   0.592  17.576  0.1664  0.3692  0.2754
 8112SOL    HW135969   0.437   0.656  17.635  2.0903 -0.6317  0.1213
 8112SOL    HW235970   0.440   0.511  17.607 -0.3460  0.6282  1.6330
 8113SOL     OW35971   2.023   2.445   7.867  0.1669 -0.2802  0.8949
 8113SOL    HW135972   2.112   2.478   7.877  0.3244 -0.0324 -1.4317
 8113SOL    HW235973   2.020   2.419   7.775  1.6024 -3.1420  1.6618
 8114SOL     OW35974   2.709   1.783   3.480 -0.1442  0.0040  0.1366
 8114SOL    HW135975   2.693   1.689   3.491 -1.7848  0.3763  0.8932
 8114SOL    HW235976   2.647   1.800   3.409  0.0543 -1.3061 -0.3500
 8115SOL     OW35977   2.099   4.137  12.725 -0.2129 -0.1745 -0.0969
 8115SOL    HW135978   2.152   4.109  12.651  0.5007  1.3144 -0.1313
 8115SOL    HW235979   2.093   4.056  12.777  2.2921 -0.1815  0.1648
 8116SOL     OW35980   0.130   0.642  10.743  0.2696 -0.7097  0.0786
 8116SOL    HW135981   0.075   0.567  10.721 -0.3581  0.0269 -0.8559
 8116SOL    HW235982   0.077   0.717  10.716  0.1494 -0.1895  1.7798
 8117SOL     OW35983   0.092   0.955  15.526 -0.2402 -0.3706 -0.0041
 8117SOL    HW135984   0.101   0.928  15.617 -1.2910  1.7657  0.7334
 8117SOL    HW235985   0.178   0.995  15.513 -0.8678  1.1027  0.4330
 8118SOL     OW35986   4.403   2.724   8.896 -0.0009  0.3718  0.3158
 8118SOL    HW135987   4.330   2.664   8.915  0.6727 -0.0618  1.5518
 8118SOL    HW235988   4.472   2.657   8.892 -0.3706 -0.0641  1.2510
 8119SOL     OW35989   2.760   3.900  15.324  0.8328  0.0011 -0.1143
 8119SOL    HW135990   2.691   3.847  15.285 -1.3467  1.1284  2.1367
 8119SOL    HW235991   2.840   3.854  15.299 -0.5315 -1.4145 -1.9012
 8120SOL     OW35992   3.163   1.072   1.345  0.0391  0.2611 -0.7069
 8120SOL    HW135993   3.192   0.982   1.331 -1.8729 -0.4308 -0.0525
 8120SOL    HW235994   3.210   1.120   1.276  3.7558 -2.1500  0.1514
 8121SOL     OW35995   0.678   0.523  16.587 -0.3130  0.5395  0.2121
 8121SOL    HW135996   0.630   0.536  16.669 -1.9653 -0.4321 -0.5884
 8121SOL    HW235997   0.761   0.492  16.622  0.1519 -0.6476 -1.9114
 8122SOL     OW35998   2.468   2.428   5.282  0.1922 -0.2288 -0.0686
 8122SOL    HW135999   2.425   2.392   5.205 -0.0774  0.4716 -0.2536
 8122SOL    HW236000   2.392   2.467   5.327  0.0575  0.1761 -0.6471
 8123SOL     OW36001   1.865   1.287  11.825 -0.4920 -0.0519  0.0120
 8123SOL    HW136002   1.879   1.379  11.850  1.5100 -0.0802 -1.0153
 8123SOL    HW236003   1.928   1.234  11.874 -1.9987  0.3042  2.3237
 8124SOL     OW36004   1.004   4.099  10.606 -0.0207 -0.7802 -0.2798
 8124SOL    HW136005   1.073   4.110  10.540 -0.4467 -0.0471 -0.6008
 8124SOL    HW236006   1.027   4.011  10.636  0.5818 -0.3011  0.6620
 8125SOL     OW36007   2.633   0.889   8.380 -0.3338 -0.4136  0.4730
 8125SOL    HW136008   2.692   0.814   8.390  1.7372  1.2300  0.5695
 8125SOL    HW236009   2.613   0.876   8.287  3.0244  1.6524 -0.5149
 8126SOL     OW36010   0.658   2.584   3.647 -0.1025  0.3011  0.1525
 8126SOL    HW136011   0.715   2.586   3.570 -0.9677 -0.6746 -0.5174
 8126SOL    HW236012   0.681   2.665   3.691  2.2007 -0.8024  0.9565
 8127SOL     OW36013   3.046   2.070   3.706  0.0516 -0.0758  0.1642
 8127SOL    HW136014   3.093   1.989   3.729  1.0522 -1.0759 -5.3804
 8127SOL    HW236015   3.048   2.067   3.611 -0.9697 -0.5913  0.1630
 8128SOL     OW36016   3.623   3.949   8.746 -0.6248  0.3060 -0.1105
 8128SOL    HW136017   3.653   4.038   8.762  0.9568  0.2196 -2.7171
 8128SOL    HW236018   3.536   3.968   8.712 -0.7990 -1.4021 -0.6172
 8129SOL     OW36019   0.820   0.101   3.819 -0.2779  0.0563 -0.1541
 8129SOL    HW136020   0.737   0.079   3.861 -1.8294  1.1139 -2.6157
 8129SOL    HW236021   0.812   0.071   3.728 -0.0251 -0.3513 -0.0403
 8130SOL     OW36022   3.991   0.449   3.371 -0.6330 -0.1113 -0.4296
 8130SOL    HW136023   4.001   0.429   3.278 -2.1162  0.1354 -0.6477
 8130SOL    HW236024   3.991   0.367   3.421 -2.2207  0.1820  0.0517
 8131SOL     OW36025   0.375   3.360  16.972 -0.0596 -0.4163  0.2908
 8131SOL    HW136026   0.360   3.427  16.906 -2.3933 -0.8145  0.4274
 8131SOL    HW236027   0.301   3.302  16.953  0.1745 -0.1023 -1.5762
 8132SOL     OW36028   4.333   3.682  13.153 -0.2617  0.1238 -0.2644
 8132SOL    HW136029   4.283   3.641  13.082  0.6123 -2.3083  0.5438
 8132SOL    HW236030   4.271   3.743  13.194 -0.1723  0.9794 -1.3858
 8133SOL     OW36031   0.014   1.894  12.169 -1.0655 -0.1935 -0.3884
 8133SOL    HW136032   0.083   1.960  12.175 -2.7200  1.4821  0.0857
 8133SOL    HW236033   4.722   1.902  12.078 -1.3070 -0.3145 -0.3260
 8134SOL     OW36034   4.591   3.329   8.570 -0.4920  0.0368 -0.3537
 8134SOL    HW136035   4.650   3.259   8.596  0.0306  0.2400 -0.9796
 8134SOL    HW236036   4.604   3.395   8.638  0.3592  2.6649 -3.0561
 8135SOL     OW36037   4.576   2.440   1.293 -0.4594  0.2008 -0.1631
 8135SOL    HW136038   4.523   2.519   1.292  1.5982  1.6221  2.2777
 8135SOL    HW236039   4.574   2.428   1.388 -2.3079  1.3902 -0.0457
 8136SOL     OW36040   2.293   1.026   7.403  0.6075  0.3882 -0.2104
 8136SOL    HW136041   2.336   0.952   7.446 -0.2619 -0.6324 -1.1072
 8136SOL    HW236042   2.347   1.057   7.330  0.1742  0.9341 -0.3027
 8137SOL     OW36043   2.489   3.161   7.302 -0.5594  0.5421  0.8469
 8137SOL    HW136044   2.492   3.223   7.229  3.8375 -2.2681 -1.3161
 8137SOL    HW236045   2.396   3.154   7.323 -0.2850 -0.2437  1.8206
 8138SOL     OW36046   4.249   2.359   5.582  0.0022 -0.6435 -0.2915
 8138SOL    HW136047   4.323   2.334   5.526  0.3260  1.1110 -0.6304
 8138SOL    HW236048   4.180   2.361   5.515 -2.0005 -0.5058  1.7767
 8139SOL     OW36049   1.760   3.237   3.623  0.3156  0.9227  0.1629
 8139SOL    HW136050   1.707   3.316   3.612 -0.4558  0.5568  1.2561
 8139SOL    HW236051   1.708   3.180   3.567  0.7894 -1.5903  2.2853
 8140SOL     OW36052   2.467   1.926   0.142  0.1328 -0.5759 -0.0677
 8140SOL    HW136053   2.522   1.978   0.085  2.6036 -2.0898  0.9442
 8140SOL    HW236054   2.397   1.984   0.172 -0.0595 -0.4586 -0.7396
 8141SOL     OW36055   3.319   1.655  12.000 -0.4519  0.5297 -0.1582
 8141SOL    HW136056   3.333   1.659  12.095 -0.5927  2.8810 -0.2264
 8141SOL    HW236057   3.378   1.582  11.983 -2.3396 -0.4659 -2.3644
 8142SOL     OW36058   0.661   3.441   3.108 -0.3629  0.6536 -0.1920
 8142SOL    HW136059   0.650   3.522   3.158 -2.7091 -1.0444  2.0803
 8142SOL    HW236060   0.679   3.482   3.023 -1.1306  1.3041 -0.0433
 8143SOL     OW36061   0.891   0.623   3.542  0.0994  0.0068  0.7661
 8143SOL    HW136062   0.804   0.639   3.505 -0.9472 -1.4724  2.5566
 8143SOL    HW236063   0.892   0.528   3.554 -1.8816 -0.3664 -2.0957
 8144SOL     OW36064   3.439   0.469   6.218  0.2645  0.2821  0.1637
 8144SOL    HW136065   3.424   0.382   6.254  0.9846  1.6678  3.7715
 8144SOL    HW236066   3.354   0.480   6.176  0.4527  0.4411 -0.1754
 8145SOL     OW36067   3.156   0.310   1.014 -0.1990  0.0618 -0.1627
 8145SOL    HW136068   3.180   0.265   1.095  0.8794  2.1978  0.7074
 8145SOL    HW236069   3.214   0.264   0.953 -1.5417 -1.7226 -0.1071
 8146SOL     OW36070   4.004   3.399   5.617  0.1642  0.4759  0.2788
 8146SOL    HW136071   4.004   3.317   5.567  0.2130 -0.8676  2.4673
 8146SOL    HW236072   3.955   3.371   5.694  1.7275 -0.3426  0.9787
 8147SOL     OW36073   0.902   1.459   6.526  0.3805  0.9484  0.2708
 8147SOL    HW136074   0.859   1.491   6.605 -0.5103  0.9011 -0.2042
 8147SOL    HW236075   0.901   1.536   6.471 -0.2205  1.0490  0.4264
 8148SOL     OW36076   0.012   3.073   6.952  0.3776  0.5323 -0.1039
 8148SOL    HW136077   0.001   3.147   6.892 -1.6212 -1.3265 -1.9927
 8148SOL    HW236078   0.090   3.033   6.914 -1.8273 -3.3177 -0.4732
 8149SOL     OW36079   2.794   3.574  13.704 -0.8847 -0.1131  0.2535
 8149SOL    HW136080   2.747   3.569  13.621  1.9951 -0.7623 -1.3293
 8149SOL    HW236081   2.722   3.613  13.753 -0.6644 -0.4866  0.8731
 8150SOL     OW36082   0.675   1.613   2.113 -0.0862  0.5754  0.0685
 8150SOL    HW136083   0.756   1.567   2.089 -1.0407 -0.4455 -1.1844
 8150SOL    HW236084   0.640   1.650   2.032  0.5367  0.1307 -0.3980
 8151SOL     OW36085   2.834   1.952   9.227 -0.0530  0.3553 -0.0116
 8151SOL    HW136086   2.821   2.033   9.276  1.1441  0.9657 -0.6933
 8151SOL    HW236087   2.790   1.980   9.147  1.7546 -0.8089 -1.4259
 8152SOL     OW36088   2.789   3.217   4.603 -0.0078  0.3305 -0.4836
 8152SOL    HW136089   2.840   3.286   4.645  1.3577 -1.7446  1.2457
 8152SOL    HW236090   2.704   3.258   4.588  0.9101  2.7406  1.0030
 8153SOL     OW36091   3.660   4.676   0.319  0.0779 -0.3603 -0.2560
 8153SOL    HW136092   3.725   4.705   0.383  0.3195  1.4320 -1.3134
 8153SOL    HW236093   3.627   4.592   0.351 -0.7538 -0.4718 -1.3962
 8154SOL     OW36094   2.031   2.885   5.513  0.5153 -0.2505  0.3068
 8154SOL    HW136095   2.101   2.914   5.572  2.2743 -2.0219 -0.9051
 8154SOL    HW236096   2.076   2.860   5.432 -0.8400  3.1947 -1.5265
 8155SOL     OW36097   2.653   2.334   9.217  0.2729 -0.3039  0.4090
 8155SOL    HW136098   2.710   2.281   9.272 -0.7521  1.1549  2.8777
 8155SOL    HW236099   2.590   2.375   9.277  2.2232  1.9972  0.8661
 8156SOL     OW36100   0.136   3.183  14.235  0.4200  0.0960  0.2952
 8156SOL    HW136101   0.138   3.184  14.331  2.4581  1.0729  0.2225
 8156SOL    HW236102   0.226   3.209  14.219  0.9568 -0.3579  2.5617
 8157SOL     OW36103   1.242   3.268  10.222  0.1157 -0.2692  0.3461
 8157SOL    HW136104   1.316   3.273  10.161  0.1255 -0.4061  0.3462
 8157SOL    HW236105   1.294   3.277  10.302  0.7824  0.4734 -0.1701
 8158SOL     OW36106   2.701   0.260   4.873 -0.0394 -0.2684 -0.5418
 8158SOL    HW136107   2.681   0.291   4.784  0.5477  0.6073 -0.3584
 8158SOL    HW236108   2.794   0.239   4.876 -0.0659 -0.1183  1.1289
 8159SOL     OW36109   1.941   1.281   2.216  0.1653  0.0171 -0.0243
 8159SOL    HW136110   1.852   1.316   2.222  1.2252  2.7053 -0.3207
 8159SOL    HW236111   1.927   1.210   2.152 -2.9799  1.2653 -0.7239
 8160SOL     OW36112   0.717   0.985   7.715  0.5974  0.2183  0.7965
 8160SOL    HW136113   0.764   0.913   7.674  1.5478  2.4492 -2.0506
 8160SOL    HW236114   0.661   1.003   7.639  0.1732 -1.2122  0.7680
 8161SOL     OW36115   3.278   2.573  10.393  0.1541 -0.2465 -0.0456
 8161SOL    HW136116   3.251   2.661  10.366  0.3145 -0.1571  0.0922
 8161SOL    HW236117   3.202   2.523  10.362 -1.6737  2.4340  0.0925
 8162SOL     OW36118   0.852   0.394   9.524  0.8801  0.1597  0.1656
 8162SOL    HW136119   0.791   0.332   9.482 -2.5040  2.2938  1.9504
 8162SOL    HW236120   0.848   0.454   9.450 -1.1714 -2.3934 -1.7919
 8163SOL     OW36121   3.554   1.914   4.655  0.1637  0.4284  0.4111
 8163SOL    HW136122   3.529   1.860   4.580  1.3800  1.5371 -0.8029
 8163SOL    HW236123   3.503   1.865   4.719 -0.2860 -0.2536 -0.4668
 8164SOL     OW36124   0.805   1.865   2.415 -0.0397  0.0028 -0.1423
 8164SOL    HW136125   0.883   1.821   2.451 -1.6319 -0.6418  2.4972
 8164SOL    HW236126   0.806   1.950   2.458  1.2411 -0.1479  0.1478
 8165SOL     OW36127   2.759   4.621   1.068  0.0520 -1.1152  0.3555
 8165SOL    HW136128   2.725   4.550   1.123  0.6543 -2.5154 -1.0711
 8165SOL    HW236129   2.693   4.624   0.999 -1.8681 -0.5163  2.2117
 8166SOL     OW36130   2.347   3.149   4.798 -0.0371 -0.2747  0.9212
 8166SOL    HW136131   2.370   3.080   4.860  1.5978 -1.0398 -0.5629
 8166SOL    HW236132   2.340   3.217   4.866 -1.3262  0.1533  0.3479
 8167SOL     OW36133   2.985   2.527   5.188 -0.3065  0.1648 -0.1604
 8167SOL    HW136134   2.893   2.504   5.178 -0.7031  1.9497 -0.6220
 8167SOL    HW236135   3.010   2.554   5.100  1.0429 -0.4479  0.0267
 8168SOL     OW36136   2.913   0.768   6.966  0.0638  0.1021  0.0712
 8168SOL    HW136137   2.919   0.862   6.986  0.4004  0.0852  0.0569
 8168SOL    HW236138   2.896   0.773   6.872  2.2014 -0.9250 -0.3737
 8169SOL     OW36139   3.295   3.668  16.931 -0.0971 -0.0419  0.1414
 8169SOL    HW136140   3.324   3.746  16.979  0.0376 -1.1559  1.8715
 8169SOL    HW236141   3.375   3.623  16.906 -1.2850 -1.2925 -1.3670
 8170SOL     OW36142   2.558   4.102   6.074 -0.2059  0.4020  0.1798
 8170SOL    HW136143   2.637   4.097   6.128  0.4383 -2.7842 -1.0262
 8170SOL    HW236144   2.493   4.098   6.144 -0.7442  1.2250 -0.2807
 8171SOL     OW36145   3.880   4.209   4.773  0.5134  0.1491 -0.0862
 8171SOL    HW136146   3.799   4.249   4.802  0.3584 -0.6353  0.5586
 8171SOL    HW236147   3.859   4.116   4.774  2.2032 -0.2431 -0.3233
 8172SOL     OW36148   1.493   2.713   5.766  0.3725  0.2049 -0.2683
 8172SOL    HW136149   1.503   2.704   5.861  1.7332 -0.5184 -0.4792
 8172SOL    HW236150   1.568   2.764   5.734  2.0773 -1.7711  0.5113
 8173SOL     OW36151   1.142   0.433   9.047 -0.2860  0.2706  0.1343
 8173SOL    HW136152   1.233   0.464   9.052 -0.5294  1.4503 -2.7963
 8173SOL    HW236153   1.087   0.505   9.076  0.0087  0.5671 -0.0395
 8174SOL     OW36154   1.892   4.474   7.163  0.3117 -0.4799  0.5051
 8174SOL    HW136155   1.984   4.472   7.137 -0.1742  1.9403 -1.4106
 8174SOL    HW236156   1.852   4.556   7.133  0.2316 -0.9264 -0.6335
 8175SOL     OW36157   3.330   3.741  14.223  0.0889  0.4942  0.5311
 8175SOL    HW136158   3.289   3.655  14.215  0.3423  0.4107  0.1826
 8175SOL    HW236159   3.423   3.721  14.220 -0.5898 -2.5190 -0.7671
 8176SOL     OW36160   0.575   1.489   7.729 -0.1958 -0.4174  0.1686
 8176SOL    HW136161   0.651   1.490   7.671  1.4081  0.3025  2.2977
 8176SOL    HW236162   0.604   1.564   7.780  0.0215  1.4256 -2.6987
 8177SOL     OW36163   2.770   3.110   8.775  0.0880 -0.0188 -0.1174
 8177SOL    HW136164   2.831   3.110   8.701 -1.0800 -1.1591 -1.0901
 8177SOL    HW236165   2.685   3.130   8.735 -0.7369  0.0353  1.6729
 8178SOL     OW36166   3.108   3.229   3.444 -0.4861  0.0520 -0.2924
 8178SOL    HW136167   3.154   3.180   3.376  0.8781 -0.6925  1.1837
 8178SOL    HW236168   3.178   3.233   3.508  0.0943 -2.1969 -0.8192
 8179SOL     OW36169   2.589   4.617  14.869 -0.5341  0.1383 -0.0614
 8179SOL    HW136170   2.518   4.663  14.912 -0.6530 -1.5570  1.5098
 8179SOL    HW236171   2.666   4.653  14.913  1.0129 -1.7238 -1.2114
 8180SOL     OW36172   4.544   4.128  17.144 -0.2235 -0.0264 -0.5419
 8180SOL    HW136173   4.559   4.108  17.236  0.8601  1.2795 -0.4385
 8180SOL    HW236174   4.524   4.222  17.147  4.2320  0.9056 -0.4959
 8181SOL     OW36175   3.337   1.261   4.573 -0.7141  0.3535 -0.0330
 8181SOL    HW136176   3.398   1.302   4.634 -0.8383  1.2389 -0.5169
 8181SOL    HW236177   3.397   1.211   4.518  1.8243  1.8451  1.3970
 8182SOL     OW36178   0.164   3.834   2.656  0.3028  0.4981  0.1354
 8182SOL    HW136179   0.157   3.770   2.727  0.0254 -1.4052 -1.6048
 8182SOL    HW236180   0.125   3.910   2.700 -2.4450 -2.0063  2.0206
 8183SOL     OW36181   0.214   4.376   6.918 -0.1486 -0.2734 -0.1379
 8183SOL    HW136182   0.269   4.336   6.850  1.6916 -2.2250  2.4692
 8183SOL    HW236183   0.122   4.364   6.896 -0.3191 -0.2687  0.5724
 8184SOL     OW36184   4.576   3.768   4.537  0.1659  0.1147 -0.0297
 8184SOL    HW136185   4.581   3.673   4.548 -3.4110 -0.0991 -0.3459
 8184SOL    HW236186   4.483   3.785   4.521  0.0100 -0.7102 -0.0023
 8185SOL     OW36187   3.934   4.345   8.559 -0.0273 -0.3024  0.2349
 8185SOL    HW136188   3.960   4.367   8.649  0.6797  1.3380 -0.3846
 8185SOL    HW236189   3.946   4.252   8.537  1.5030 -0.1939  0.6154
 8186SOL     OW36190   3.852   0.691   8.356 -0.6037 -0.0811  0.2582
 8186SOL    HW136191   3.874   0.777   8.391  0.9606  0.0319 -1.0237
 8186SOL    HW236192   3.797   0.662   8.429 -1.3961  0.1667 -0.2400
 8187SOL     OW36193   0.133   4.235  12.448  0.0866 -0.8732  0.1858
 8187SOL    HW136194   0.197   4.296  12.485 -2.1182  0.5506  1.7065
 8187SOL    HW236195   0.055   4.277  12.486 -0.0913  1.1267 -2.3077
 8188SOL     OW36196   1.007   2.201   0.244  0.0203 -0.1826 -0.3016
 8188SOL    HW136197   0.938   2.201   0.177 -0.3132  0.0779  0.0400
 8188SOL    HW236198   1.084   2.240   0.204  0.5885 -0.9293  0.0637
 8189SOL     OW36199   2.911   0.682  15.713 -0.0400 -0.2492 -0.0148
 8189SOL    HW136200   2.912   0.606  15.770 -0.2803  1.3075  2.0680
 8189SOL    HW236201   3.004   0.682  15.690  0.0183  2.4586  0.1453
 8190SOL     OW36202   0.132   0.948   1.657  0.1637  0.4272  0.5147
 8190SOL    HW136203   0.190   1.014   1.694  1.0860  0.4866 -1.0557
 8190SOL    HW236204   0.134   0.968   1.563  0.3201 -2.7130 -0.1487
 8191SOL     OW36205   1.837   0.915   6.787  0.9509  0.2914 -0.3864
 8191SOL    HW136206   1.850   0.997   6.835  1.0249  0.3697 -0.5412
 8191SOL    HW236207   1.820   0.856   6.860  2.0561 -1.0427 -1.2203
 8192SOL     OW36208   2.053   3.574   5.801  0.0077  0.2386 -0.3110
 8192SOL    HW136209   2.061   3.632   5.876  2.0260  1.4951 -1.5115
 8192SOL    HW236210   1.972   3.605   5.762  0.4749  0.6960 -0.9113
 8193SOL     OW36211   4.157   1.132   7.150 -0.2512  0.2242  0.8720
 8193SOL    HW136212   4.235   1.153   7.098 -1.6650 -0.3515 -1.5036
 8193SOL    HW236213   4.188   1.126   7.240  2.8665  0.0283 -0.2048
 8194SOL     OW36214   1.649   1.291  15.682 -0.0511 -0.6372 -0.3588
 8194SOL    HW136215   1.681   1.282  15.592 -0.1496 -0.4210 -0.4148
 8194SOL    HW236216   1.586   1.220  15.694 -1.9032  0.8442 -1.5012
 8195SOL     OW36217   2.071   2.328   2.176  0.0900 -0.2100  0.0394
 8195SOL    HW136218   2.011   2.268   2.132  2.1625 -0.1456 -2.8825
 8195SOL    HW236219   2.134   2.265   2.211 -1.3202 -0.5668  1.9279
 8196SOL     OW36220   3.078   3.759   3.273  0.6380  0.1099  0.1827
 8196SOL    HW136221   3.061   3.666   3.287 -1.1275  0.4819  0.5137
 8196SOL    HW236222   3.169   3.754   3.299  0.4942 -2.6319  0.2115
 8197SOL     OW36223   4.597   4.628   5.222  0.4176 -0.4292  0.6242
 8197SOL    HW136224   4.508   4.636   5.255  0.2231  0.9676 -0.2470
 8197SOL    HW236225   4.583   4.585   5.137  0.6072  1.0163 -0.1457
 8198SOL     OW36226   3.854   3.305   8.689  0.1377  0.4796  0.0174
 8198SOL    HW136227   3.889   3.380   8.738  2.2319 -0.7865  0.4674
 8198SOL    HW236228   3.821   3.345   8.609  0.4992 -1.0849 -0.9181
 8199SOL     OW36229   3.377   0.915   0.228  0.0954 -0.6029  0.1451
 8199SOL    HW136230   3.387   0.951   0.140 -1.1600 -0.4156  0.0824
 8199SOL    HW236231   3.383   0.822   0.205 -0.8069 -0.6990  0.2891
 8200SOL     OW36232   3.699   3.504  14.211 -0.0048  0.1975  0.1913
 8200SOL    HW136233   3.776   3.526  14.159  1.0525  0.9151  2.0468
 8200SOL    HW236234   3.731   3.460  14.290  0.3519  1.7240  0.9042
 8201SOL     OW36235   3.156   1.591  13.308  0.4073 -0.3243 -0.1799
 8201SOL    HW136236   3.132   1.628  13.393 -1.2352  2.3266 -1.8140
 8201SOL    HW236237   3.161   1.673  13.258  2.2334 -0.7742 -0.7489
 8202SOL     OW36238   4.109   1.126   3.930  0.5647  0.4615  0.2011
 8202SOL    HW136239   4.090   1.033   3.917 -1.3006  0.9615 -0.6504
 8202SOL    HW236240   4.177   1.130   3.863  0.6602 -1.1365  0.2068
 8203SOL     OW36241   1.975   3.461   5.250 -0.0204  0.3327 -0.2975
 8203SOL    HW136242   2.050   3.487   5.196 -1.7865 -0.1907 -2.9721
 8203SOL    HW236243   1.966   3.540   5.303 -1.0573  0.6740 -0.9906
 8204SOL     OW36244   0.467   3.252   9.308  0.5102 -0.6681  0.2756
 8204SOL    HW136245   0.489   3.159   9.303 -1.4769 -0.9904 -1.9547
 8204SOL    HW236246   0.439   3.272   9.219  2.6598 -2.3195 -0.7858
 8205SOL     OW36247   4.709   4.442   1.024  0.4183  0.6426 -0.4159
 8205SOL    HW136248   0.009   4.530   1.032  0.9302  0.2814  1.2585
 8205SOL    HW236249   4.678   4.440   0.933 -0.0271 -0.0982 -0.2518
 8206SOL     OW36250   0.571   3.187   1.052  0.0174 -0.3327 -0.3731
 8206SOL    HW136251   0.537   3.272   1.080  1.0901  0.7055 -2.1996
 8206SOL    HW236252   0.489   3.138   1.042 -0.3920 -0.4402  3.3904
 8207SOL     OW36253   4.056   1.433   9.563  0.8146  0.0089  0.2125
 8207SOL    HW136254   4.039   1.510   9.509 -0.4887  0.3589  1.1146
 8207SOL    HW236255   3.999   1.436   9.639  1.5766  2.2196  0.6997
 8208SOL     OW36256   4.237   3.533   1.352  0.3769  0.8601 -0.2908
 8208SOL    HW136257   4.235   3.441   1.326  0.1395  0.6463  0.4734
 8208SOL    HW236258   4.285   3.527   1.435 -0.2076  2.1352  0.1415
 8209SOL     OW36259   1.492   2.955   2.925 -0.0947  0.4326  0.4655
 8209SOL    HW136260   1.459   3.001   2.848 -1.8119  0.2805  1.1109
 8209SOL    HW236261   1.463   2.867   2.900  2.4797  0.2216 -1.8023
 8210SOL     OW36262   0.273   3.156   5.259 -0.2284 -0.3915 -0.1038
 8210SOL    HW136263   0.289   3.108   5.177 -0.6096  1.0408 -1.0179
 8210SOL    HW236264   0.232   3.228   5.212  1.8065  0.3548 -0.7495
 8211SOL     OW36265   0.087   2.261   7.782  0.0038 -0.4467  1.0350
 8211SOL    HW136266   0.037   2.200   7.837  0.2034 -1.9990 -0.4949
 8211SOL    HW236267   0.018   2.287   7.721  2.2563  3.3656  0.1295
 8212SOL     OW36268   1.854   0.305   5.026  0.1910  0.0507 -0.2091
 8212SOL    HW136269   1.919   0.373   5.007  2.1204 -1.3719  1.1774
 8212SOL    HW236270   1.867   0.301   5.121  0.3746  1.3605 -0.1866
 8213SOL     OW36271   2.774   4.294   2.983 -0.1262  0.0374  0.1003
 8213SOL    HW136272   2.798   4.345   2.906  0.3400  2.5504  1.9078
 8213SOL    HW236273   2.716   4.358   3.023 -0.6820 -2.1249  2.7543
 8214SOL     OW36274   2.779   1.338   3.980  0.5391  0.0038 -0.4501
 8214SOL    HW136275   2.704   1.396   3.962 -0.9760 -1.4772  1.0257
 8214SOL    HW236276   2.777   1.272   3.911 -0.0925 -0.7961  0.3339
 8215SOL     OW36277   0.272   1.445  11.757 -0.4601  0.7053 -0.3750
 8215SOL    HW136278   0.277   1.427  11.851 -1.4228  0.3198 -0.3983
 8215SOL    HW236279   0.314   1.531  11.757 -0.9470  0.9303  2.6513
 8216SOL     OW36280   2.685   3.319   6.830  0.1490 -0.0469 -0.2420
 8216SOL    HW136281   2.731   3.387   6.781 -0.3687  0.3494 -0.1720
 8216SOL    HW236282   2.608   3.368   6.856  0.4242  1.6182 -2.5233
 8217SOL     OW36283   0.061   1.435   4.231  0.4365  0.2888 -0.4066
 8217SOL    HW136284   0.096   1.500   4.171 -1.9118  0.5192 -1.5159
 8217SOL    HW236285   0.064   1.363   4.168 -0.1788 -0.3816  0.3254
 8218SOL     OW36286   3.313   0.752   1.498  0.0159  0.6251 -0.2737
 8218SOL    HW136287   3.378   0.768   1.430 -1.4820 -0.5819 -1.9866
 8218SOL    HW236288   3.313   0.826   1.559 -3.1079  0.8255 -0.5069
 8219SOL     OW36289   0.707   0.730   6.127  0.1193  0.2133 -0.2023
 8219SOL    HW136290   0.689   0.699   6.215 -1.4913  0.8961 -0.2927
 8219SOL    HW236291   0.620   0.755   6.097  0.2012 -2.4877 -2.6573
 8220SOL     OW36292   0.592   0.976  13.074  0.3015  0.3459 -0.1692
 8220SOL    HW136293   0.519   1.021  13.115 -0.2217 -1.4096  0.8476
 8220SOL    HW236294   0.638   0.930  13.144  1.7600 -0.3252 -1.5458
 8221SOL     OW36295   3.911   3.982  17.578  0.2789 -0.4748  0.1361
 8221SOL    HW136296   3.921   4.020  17.490 -1.4874 -0.4844 -0.0749
 8221SOL    HW236297   3.930   4.068  17.616 -0.3937 -0.2061 -0.1280
 8222SOL     OW36298   2.983   0.043   7.973  0.2400  0.5549  0.0300
 8222SOL    HW136299   2.998   4.726   7.895 -0.3442 -0.0766  0.3432
 8222SOL    HW236300   2.887   0.044   7.972  0.2230  0.0382  1.0321
 8223SOL     OW36301   4.060   4.024   6.190  0.4168 -0.1074  0.1278
 8223SOL    HW136302   4.060   4.099   6.130  0.5394 -0.2330 -0.0285
 8223SOL    HW236303   4.107   4.070   6.260  0.3204 -0.9969  0.7730
 8224SOL     OW36304   4.577   3.554   7.414 -0.8892 -0.4284 -0.6361
 8224SOL    HW136305   4.572   3.459   7.419  1.3278 -0.5721 -0.7896
 8224SOL    HW236306   4.488   3.576   7.441  0.0899  2.5876  0.2336
 8225SOL     OW36307   4.228   2.845   7.805  0.3711  0.4910  0.4519
 8225SOL    HW136308   4.173   2.804   7.738 -0.8392  2.5354  0.1889
 8225SOL    HW236309   4.228   2.779   7.874 -0.1202  0.7246  0.6748
 8226SOL     OW36310   4.125   1.928   7.251 -0.3965 -0.1658  0.1829
 8226SOL    HW136311   4.137   1.949   7.343 -1.5950 -1.3059  0.5966
 8226SOL    HW236312   4.187   1.855   7.254 -0.1194  0.0678  0.1069
 8227SOL     OW36313   0.480   0.886   8.041  0.5363  0.3212 -0.0488
 8227SOL    HW136314   0.419   0.864   7.971  1.9845 -1.1845 -0.8157
 8227SOL    HW236315   0.422   0.917   8.111  1.3648  0.8271  0.4134
 8228SOL     OW36316   1.522   1.388   6.569 -0.1211 -0.8915  0.1805
 8228SOL    HW136317   1.470   1.311   6.591 -0.2363 -1.1169 -0.8358
 8228SOL    HW236318   1.505   1.443   6.645 -0.6377  1.3113 -1.5198
 8229SOL     OW36319   0.921   2.035   7.140 -1.0519 -0.2916  0.4823
 8229SOL    HW136320   0.912   1.941   7.129 -0.3856 -0.6251  2.7538
 8229SOL    HW236321   1.007   2.024   7.180  0.2533  1.0316 -1.9715
 8230SOL     OW36322   0.017   3.673  14.991  0.0923  0.1629  0.1164
 8230SOL    HW136323   0.043   3.763  14.973  1.6048 -0.0412  1.2247
 8230SOL    HW236324   4.665   3.672  14.954  0.0629 -2.3793  0.2313
 8231SOL     OW36325   4.562   2.515   5.749 -0.5403  0.0373  0.1388
 8231SOL    HW136326   4.545   2.488   5.658  2.1588 -1.8933  0.2173
 8231SOL    HW236327   4.637   2.573   5.745  0.0756 -0.8079 -0.6125
 8232SOL     OW36328   1.167   1.527   3.201  0.1850 -0.3448  0.1430
 8232SOL    HW136329   1.092   1.494   3.251  0.0745 -1.2763 -0.6467
 8232SOL    HW236330   1.141   1.504   3.112 -0.1550  2.0198 -0.3748
 8233SOL     OW36331   4.398   1.997   6.240  0.1142  0.0219 -0.5826
 8233SOL    HW136332   4.410   2.092   6.234  0.2010  0.0770  0.5096
 8233SOL    HW236333   4.448   1.972   6.318  1.9123 -1.1208 -2.1058
 8234SOL     OW36334   2.976   4.377   3.696  0.5518  0.2829  0.3059
 8234SOL    HW136335   3.018   4.461   3.674  0.5173  1.1465  3.5950
 8234SOL    HW236336   3.035   4.311   3.659 -1.5874 -2.1232  1.1908
 8235SOL     OW36337   4.446   0.410   4.757 -0.2198  0.4166 -0.2781
 8235SOL    HW136338   4.504   0.428   4.831 -2.1763 -1.2445  1.6864
 8235SOL    HW236339   4.426   0.320   4.783 -0.2180  0.4318 -0.2224
 8236SOL     OW36340   3.493   0.349  15.886  0.1046 -0.0635 -0.2605
 8236SOL    HW136341   3.554   0.400  15.937  0.8539 -0.5131 -0.7031
 8236SOL    HW236342   3.514   0.258  15.906 -0.8341 -0.2336 -0.0552
 8237SOL     OW36343   4.318   0.393   8.680 -0.0781  0.0425 -0.2094
 8237SOL    HW136344   4.376   0.436   8.617 -1.1096  3.2134  1.0104
 8237SOL    HW236345   4.330   0.453   8.754 -3.4000  0.9127 -0.3761
 8238SOL     OW36346   2.740   2.639   6.593 -0.6051 -0.2041 -0.1265
 8238SOL    HW136347   2.650   2.633   6.624 -0.7024 -1.0465 -0.5845
 8238SOL    HW236348   2.770   2.653   6.683  2.4144  0.8043 -1.2765
 8239SOL     OW36349   4.322   1.397   7.797 -0.6320  0.2487 -0.3015
 8239SOL    HW136350   4.277   1.478   7.819 -0.1967  0.1048  1.1323
 8239SOL    HW236351   4.349   1.357   7.880 -0.4656  1.6277  0.3178
 8240SOL     OW36352   2.028   0.705   3.662  0.1004 -1.2782 -0.0459
 8240SOL    HW136353   2.114   0.718   3.702 -0.7018  0.7949  0.9932
 8240SOL    HW236354   2.051   0.632   3.604  1.1692 -1.2196  0.3046
 8241SOL     OW36355   2.225   4.446  16.473  0.2248  0.0429  0.4988
 8241SOL    HW136356   2.150   4.502  16.455 -0.1134 -0.6690 -0.2858
 8241SOL    HW236357   2.207   4.398  16.555 -1.3449 -0.0678  0.0901
 8242SOL     OW36358   2.088   3.751   6.369  0.1912 -0.2191 -0.3933
 8242SOL    HW136359   2.171   3.758   6.321  2.0878 -0.6997  2.7792
 8242SOL    HW236360   2.103   3.683   6.435 -2.8064 -1.7785 -1.3067
 8243SOL     OW36361   4.480   4.730   6.056 -0.4738 -0.0432  0.3969
 8243SOL    HW136362   4.478   0.088   6.074 -2.8126 -0.6365  3.1502
 8243SOL    HW236363   4.462   4.699   6.145 -1.2707 -1.5780 -0.2959
 8244SOL     OW36364   1.311   3.598  17.614 -0.0978  0.2405  0.2679
 8244SOL    HW136365   1.267   3.624  17.694  1.6946 -0.8750  1.6264
 8244SOL    HW236366   1.404   3.600  17.634 -0.1923 -2.3288  1.0464
 8245SOL     OW36367   1.460   4.469   6.723 -0.7319  0.0087 -0.5255
 8245SOL    HW136368   1.463   4.382   6.683 -0.4836  0.8849 -2.3727
 8245SOL    HW236369   1.405   4.456   6.801 -1.3147  1.2768 -0.7194
 8246SOL     OW36370   1.233   3.449  14.739  0.0634 -0.3557  0.3147
 8246SOL    HW136371   1.309   3.401  14.708 -1.1928 -2.9390  1.2393
 8246SOL    HW236372   1.254   3.539  14.713  0.9122 -0.7627 -0.3883
 8247SOL     OW36373   0.150   2.464   8.852  0.1964 -0.0236 -0.1887
 8247SOL    HW136374   0.192   2.493   8.933  1.7164 -1.9501 -0.2836
 8247SOL    HW236375   0.122   2.377   8.881  0.3271  0.5252  1.5648
 8248SOL     OW36376   0.627   0.005   4.035 -0.2766  0.6576 -0.2303
 8248SOL    HW136377   0.546   0.053   4.021 -1.9694 -2.2927 -0.4729
 8248SOL    HW236378   0.602   4.698   4.117  2.4353  3.4302  1.9992
 8249SOL     OW36379   1.242   0.575  12.663 -0.2698  0.0485  0.1142
 8249SOL    HW136380   1.164   0.577  12.607 -0.2362  3.5594  0.1725
 8249SOL    HW236381   1.257   0.485  12.692  0.9191  0.0044 -0.6391
 8250SOL     OW36382   4.355   2.599   6.563 -0.0725 -0.4090  0.3232
 8250SOL    HW136383   4.266   2.564   6.564  0.2098 -1.1376 -0.2857
 8250SOL    HW236384   4.384   2.578   6.474 -0.3402 -2.3489  0.6845
 8251SOL     OW36385   2.352   0.010   4.327  0.1639 -0.5087 -0.8345
 8251SOL    HW136386   2.438   4.727   4.289 -0.4173 -0.8727 -1.9772
 8251SOL    HW236387   2.298   0.008   4.248 -1.1613  0.9769  0.0267
 8252SOL     OW36388   0.045   0.971   5.887 -0.0600  0.1958 -0.2525
 8252SOL    HW136389   4.699   1.021   5.888 -0.8329 -1.1155  1.6538
 8252SOL    HW236390   0.013   0.885   5.914 -0.6425  0.3562 -0.4301
 8253SOL     OW36391   0.436   0.956  14.047  0.3811 -0.1936 -0.5776
 8253SOL    HW136392   0.431   0.877  14.100 -0.3705  0.2256 -0.0301
 8253SOL    HW236393   0.348   0.962  14.009  0.1221 -1.2029 -0.1163
 8254SOL     OW36394   0.214   2.561   7.545  0.3561 -0.0367  0.4653
 8254SOL    HW136395   0.126   2.588   7.522  0.8485 -0.0249 -1.4566
 8254SOL    HW236396   0.262   2.609   7.478  1.8551 -1.4017  0.5333
 8255SOL     OW36397   3.410   0.285   7.313 -0.5013  0.0361  0.4072
 8255SOL    HW136398   3.459   0.252   7.389 -0.5103 -0.0299  0.3838
 8255SOL    HW236399   3.487   0.285   7.257  1.3400 -0.5867  2.9369
 8256SOL     OW36400   1.138   3.970   4.999 -0.4712  0.1858 -0.4797
 8256SOL    HW136401   1.055   3.998   4.960 -1.3935  1.3750  2.3927
 8256SOL    HW236402   1.153   3.882   4.964  0.4123  0.0896  0.1559
 8257SOL     OW36403   3.067   2.504  14.685  0.1970 -0.3195 -0.0669
 8257SOL    HW136404   3.125   2.495  14.760  1.8933 -0.2552 -1.3846
 8257SOL    HW236405   3.034   2.589  14.716  0.6291  0.7508 -2.5326
 8258SOL     OW36406   2.874   4.138   8.820 -0.4082  0.3453  0.5336
 8258SOL    HW136407   2.967   4.159   8.830  0.1305 -2.2745  1.0789
 8258SOL    HW236408   2.836   4.192   8.889 -1.7166 -0.7232  0.6530
 8259SOL     OW36409   0.814   2.550   5.134 -0.1239 -0.2648 -0.2221
 8259SOL    HW136410   0.719   2.565   5.129 -0.3002 -1.4544 -0.5795
 8259SOL    HW236411   0.825   2.481   5.068  0.5597  1.0925 -1.5275
 8260SOL     OW36412   2.329   4.272   3.734 -0.3849  0.1036  0.1331
 8260SOL    HW136413   2.339   4.185   3.695  1.3453  0.4821 -0.2669
 8260SOL    HW236414   2.310   4.330   3.660  0.0132  0.7074  0.5039
 8261SOL     OW36415   3.828   1.702   9.886 -0.7802 -0.1112  0.0026
 8261SOL    HW136416   3.841   1.772   9.823  0.3534 -0.9795 -0.7192
 8261SOL    HW236417   3.750   1.662   9.847 -2.1275  1.4611  1.0841
 8262SOL     OW36418   4.575   3.183   0.322 -0.2707 -0.1249  0.2236
 8262SOL    HW136419   4.653   3.136   0.294 -0.3388 -0.6460  0.9272
 8262SOL    HW236420   4.509   3.117   0.344  0.0428 -0.7132 -0.5955
 8263SOL     OW36421   4.486   0.753  10.209  0.5790  0.0665  0.2580
 8263SOL    HW136422   4.480   0.836  10.257  0.4740 -0.2036  0.7091
 8263SOL    HW236423   4.418   0.766  10.142  0.7405  0.6425  0.2062
 8264SOL     OW36424   1.525   3.438   6.827 -0.6550  0.3902  0.0894
 8264SOL    HW136425   1.479   3.425   6.744 -1.4317  2.6208  0.1727
 8264SOL    HW236426   1.525   3.348   6.860  1.7252 -0.0378 -1.0972
 8265SOL     OW36427   1.995   0.289   1.664  0.1007 -0.1499 -0.4833
 8265SOL    HW136428   1.990   0.220   1.730  2.2545  1.3527  1.2466
 8265SOL    HW236429   2.068   0.262   1.608  0.4770  0.8129 -0.4573
 8266SOL     OW36430   1.501   3.270  17.530 -0.7540 -0.0935 -0.0556
 8266SOL    HW136431   1.416   3.272  17.487 -0.8375  1.6505  0.2132
 8266SOL    HW236432   1.556   3.228  17.464 -0.2273 -1.3275  1.1597
 8267SOL     OW36433   3.967   3.595   6.272 -0.6056  0.2376 -0.5258
 8267SOL    HW136434   3.916   3.515   6.284 -2.3578  1.0784 -2.5128
 8267SOL    HW236435   3.918   3.643   6.205 -0.4514  0.8743 -0.1801
 8268SOL     OW36436   3.822   0.581   2.404 -0.6256  0.2023 -0.1053
 8268SOL    HW136437   3.848   0.493   2.430 -0.4033 -0.3699 -2.2532
 8268SOL    HW236438   3.759   0.604   2.472 -1.3472 -0.8078 -0.4341
 8269SOL     OW36439   1.771   3.169   3.878 -0.2632 -0.3523  0.2511
 8269SOL    HW136440   1.865   3.152   3.879 -0.0845  0.5892 -0.7325
 8269SOL    HW236441   1.768   3.220   3.797 -0.7482 -1.5164 -0.4641
 8270SOL     OW36442   2.626   1.095   6.957  0.1535  0.0132 -0.3743
 8270SOL    HW136443   2.702   1.043   6.933  0.2266 -1.1775  2.4339
 8270SOL    HW236444   2.554   1.035   6.937  0.0577  0.0217 -0.0544
 8271SOL     OW36445   2.654   2.198   6.728 -0.5320 -0.1486 -0.2780
 8271SOL    HW136446   2.716   2.259   6.768  1.7330 -1.9359 -1.1098
 8271SOL    HW236447   2.668   2.121   6.782 -0.9836  0.4931  0.7473
 8272SOL     OW36448   0.569   2.710   6.729 -0.3643 -0.6241 -0.3173
 8272SOL    HW136449   0.492   2.766   6.738 -1.1370 -1.8528  0.6336
 8272SOL    HW236450   0.525   2.630   6.700 -1.0915 -0.3372  0.0137
 8273SOL     OW36451   1.481   1.751  14.237 -0.1912  0.0955 -0.2971
 8273SOL    HW136452   1.387   1.750  14.257  0.2575  1.8234  1.8360
 8273SOL    HW236453   1.466   1.795  14.153  1.6330  1.0115 -0.1404
 8274SOL     OW36454   0.993   2.054   3.427 -0.6440  0.0559  0.1156
 8274SOL    HW136455   1.084   2.030   3.448 -0.0715  1.7180 -0.4351
 8274SOL    HW236456   1.000   2.079   3.335  0.9040  1.1231  0.5095
 8275SOL     OW36457   4.349   3.875   9.864 -0.2897  0.0119  0.3965
 8275SOL    HW136458   4.359   3.870   9.769 -0.5521  2.6585  0.2154
 8275SOL    HW236459   4.433   3.836   9.890  0.6760  1.2550 -0.8785
 8276SOL     OW36460   0.366   1.450   9.183  0.2901 -0.1647  0.5466
 8276SOL    HW136461   0.324   1.512   9.243 -0.8511  0.7584 -1.1972
 8276SOL    HW236462   0.456   1.482   9.188  0.6248 -1.1690  0.9056
 8277SOL     OW36463   0.129   0.013  11.436  0.0492 -0.3811  0.1029
 8277SOL    HW136464   0.218   0.039  11.414 -0.2953 -0.1808 -1.0138
 8277SOL    HW236465   0.081   0.020  11.354 -1.1797  0.4838  0.8910
 8278SOL     OW36466   1.997   0.320   6.090  0.1829  1.1827 -0.7012
 8278SOL    HW136467   2.090   0.328   6.069  0.7320 -0.6586  1.0076
 8278SOL    HW236468   1.967   0.403   6.052  1.0390  1.7498 -0.1346
 8279SOL     OW36469   4.507   0.034   9.108  0.1765  0.2745  0.5514
 8279SOL    HW136470   4.475   4.692   9.061  0.9486  1.2531 -1.5654
 8279SOL    HW236471   4.584   0.001   9.154  0.6762  0.3407 -0.2274
 8280SOL     OW36472   1.067   0.656   5.821 -0.0731  0.3022 -0.5644
 8280SOL    HW136473   1.007   0.606   5.876  0.1651  0.3925 -0.2250
 8280SOL    HW236474   1.011   0.712   5.768 -0.3804  1.1988  0.7107
 8281SOL     OW36475   4.708   0.605   6.960 -0.2027  0.5682  0.1441
 8281SOL    HW136476   4.666   0.527   6.923  1.2567 -0.0926 -0.0905
 8281SOL    HW236477   4.631   0.651   6.995 -0.9109 -1.8032  1.6969
 8282SOL     OW36478   0.596   3.860   4.281 -0.1682  0.3149 -0.7300
 8282SOL    HW136479   0.523   3.815   4.238 -0.6533 -0.9951  1.4501
 8282SOL    HW236480   0.662   3.797   4.309  0.6246  0.3166 -2.6290
 8283SOL     OW36481   1.624   4.398  14.710  0.2577 -0.6674  0.7832
 8283SOL    HW136482   1.669   4.375  14.791  2.2042 -2.9082 -0.9089
 8283SOL    HW236483   1.644   4.491  14.708 -0.9325 -0.4575 -1.3788
 8284SOL     OW36484   1.406   2.124  17.512 -0.1623  0.4770 -0.3728
 8284SOL    HW136485   1.370   2.076  17.587 -0.0350  1.9884  0.6504
 8284SOL    HW236486   1.501   2.117  17.518 -0.1888 -0.1351 -0.6601
 8285SOL     OW36487   2.555   3.353  17.026 -0.5382  0.7130 -0.2657
 8285SOL    HW136488   2.638   3.393  17.001  0.6725 -1.3902  0.4213
 8285SOL    HW236489   2.585   3.294  17.096  1.2864  2.0887  0.1038
 8286SOL     OW36490   0.341   3.382  11.535 -0.0826  0.7383  0.3322
 8286SOL    HW136491   0.336   3.288  11.556  1.1146  0.6316  0.1639
 8286SOL    HW236492   0.414   3.411  11.590  0.3132 -1.1172  0.8095
 8287SOL     OW36493   1.673   0.588   0.886  0.8433 -1.0546  0.9833
 8287SOL    HW136494   1.588   0.614   0.922  1.1926  2.4654 -0.6283
 8287SOL    HW236495   1.655   0.568   0.794  1.5101 -2.3294  1.1354
 8288SOL     OW36496   2.990   0.008   7.429  0.4322 -0.3188  0.2110
 8288SOL    HW136497   2.896   0.010   7.447  0.9590 -0.3859  2.9741
 8288SOL    HW236498   3.004   4.651   7.411  0.6123 -0.6995  2.3289
 8289SOL     OW36499   1.135   4.641  16.589  0.7205 -0.3952  0.2264
 8289SOL    HW136500   1.138   4.605  16.678  2.5692  3.4799  1.7186
 8289SOL    HW236501   1.165   4.731  16.606  0.4147  0.0685 -1.6861
 8290SOL     OW36502   3.237   0.977   4.695 -0.3863  0.0496  0.4538
 8290SOL    HW136503   3.168   0.996   4.631 -0.3424 -0.1609  0.3438
 8290SOL    HW236504   3.274   0.906   4.642  1.1100  0.6783  0.6476
 8291SOL     OW36505   4.272   3.198   6.106  0.3234 -0.3415 -0.2813
 8291SOL    HW136506   4.242   3.264   6.043  0.8880  0.5877  0.4109
 8291SOL    HW236507   4.363   3.187   6.078  0.0733 -0.5153 -1.0305
 8292SOL     OW36508   0.114   1.824   0.441  0.6752  0.1509 -0.1720
 8292SOL    HW136509   0.145   1.872   0.364  2.9501 -0.1455  0.5491
 8292SOL    HW236510   0.094   1.904   0.489  1.0896 -0.8066  1.6062
 8293SOL     OW36511   0.400   1.022  12.603 -0.7472  0.1624  0.3670
 8293SOL    HW136512   0.345   1.042  12.527 -0.7352 -0.2008  0.2622
 8293SOL    HW236513   0.372   1.092  12.661 -1.0854  0.2032  0.1545
 8294SOL     OW36514   2.543   4.702  15.630 -0.2708 -0.7496  0.4545
 8294SOL    HW136515   2.538   4.633  15.563 -1.5865  0.6032 -0.8231
 8294SOL    HW236516   2.456   0.005  15.617  1.3098  2.7292  0.2877
 8295SOL     OW36517   4.164   2.580   3.862 -0.1376 -0.1835 -0.5019
 8295SOL    HW136518   4.249   2.616   3.889 -1.3388  1.0383  1.6735
 8295SOL    HW236519   4.143   2.638   3.789 -3.3215  0.1888  0.7344
 8296SOL     OW36520   3.368   0.020   8.234  0.7412  0.3284 -0.3353
 8296SOL    HW136521   3.358   0.025   8.329 -0.7522 -1.8997 -0.3669
 8296SOL    HW236522   3.285   4.714   8.211  0.7573  0.1726 -0.1071
 8297SOL     OW36523   4.162   2.190   6.369  0.5542  0.3591 -0.3985
 8297SOL    HW136524   4.242   2.213   6.322  0.3072 -0.6609 -1.3057
 8297SOL    HW236525   4.100   2.188   6.296  1.1343  0.0580 -0.8853
 8298SOL     OW36526   4.179   2.662  11.350 -0.0652 -0.5720  0.3284
 8298SOL    HW136527   4.275   2.664  11.344 -0.2065  1.0676 -1.1164
 8298SOL    HW236528   4.158   2.583  11.400  0.6418 -0.5071  0.7271
 8299SOL     OW36529   4.400   3.065   2.336 -0.1221 -0.4975 -0.1619
 8299SOL    HW136530   4.314   3.032   2.363  1.3759 -3.2292  1.2453
 8299SOL    HW236531   4.385   3.159   2.327  0.9406 -0.3884 -0.7853
 8300SOL     OW36532   3.167   4.428   4.176 -0.3399 -0.3117  0.5381
 8300SOL    HW136533   3.110   4.490   4.222  1.4874  1.4496  0.4143
 8300SOL    HW236534   3.097   4.394   4.120 -0.5730  0.4795  0.3369
 8301SOL     OW36535   0.796   1.970   1.955  0.1511 -0.0613 -0.2426
 8301SOL    HW136536   0.871   2.029   1.955 -0.3923  0.6344  0.0753
 8301SOL    HW236537   0.780   1.970   2.050 -1.9997 -0.4729 -0.6054
 8302SOL     OW36538   4.610   4.362  15.730 -0.1647  0.3876 -0.2857
 8302SOL    HW136539   4.577   4.273  15.725  2.8763 -0.6739 -1.0799
 8302SOL    HW236540   4.648   4.369  15.642 -2.7176 -0.8874 -1.4956
 8303SOL     OW36541   1.052   1.803   0.530 -0.2911  0.4659 -0.2674
 8303SOL    HW136542   1.146   1.814   0.515 -0.4450  3.0410  0.6005
 8303SOL    HW236543   1.028   1.893   0.510  0.2066  0.9018  1.1037
 8304SOL     OW36544   1.043   3.144   5.813 -0.2648 -0.1129  0.1160
 8304SOL    HW136545   1.088   3.063   5.786 -0.2628  0.1006 -0.5291
 8304SOL    HW236546   1.002   3.113   5.894  0.1214 -0.1794  0.2890
 8305SOL     OW36547   3.701   2.421   7.863 -0.1738  0.4324  0.0143
 8305SOL    HW136548   3.750   2.395   7.785  0.0831  0.7578  0.0659
 8305SOL    HW236549   3.754   2.383   7.934 -2.9658  1.2240  2.5369
 8306SOL     OW36550   3.631   1.417   5.582  0.5296  0.5338 -0.2126
 8306SOL    HW136551   3.658   1.326   5.591 -0.2305  0.3440  0.1499
 8306SOL    HW236552   3.711   1.457   5.617  1.0982  0.0826 -0.9775
 8307SOL     OW36553   0.120   3.590   7.324  0.7320 -0.2230 -0.3140
 8307SOL    HW136554   0.177   3.545   7.387 -0.4502  1.2593  1.8052
 8307SOL    HW236555   0.031   3.577   7.358  0.3596  0.4617 -1.0122
 8308SOL     OW36556   3.306   4.687  13.909 -0.0179  0.2907 -0.1546
 8308SOL    HW136557   3.287   0.022  13.848  0.5810 -0.4385 -1.1770
 8308SOL    HW236558   3.386   4.656  13.868 -0.4320 -1.9785  0.7794
 8309SOL     OW36559   3.019   1.402   8.819 -0.0963 -0.4927 -0.1203
 8309SOL    HW136560   2.935   1.424   8.859 -0.4368 -2.2574  0.1358
 8309SOL    HW236561   3.004   1.310   8.796  2.3661 -0.7975 -0.4775
 8310SOL     OW36562   3.361   3.206   8.275  0.1353 -0.4479  0.5536
 8310SOL    HW136563   3.351   3.201   8.180  0.6362 -0.1132  0.4823
 8310SOL    HW236564   3.422   3.132   8.283 -0.8971 -1.4291 -0.6606
 8311SOL     OW36565   0.124   3.923  17.521 -0.2383  0.0882  0.0271
 8311SOL    HW136566   0.209   3.961  17.540 -0.1274  0.6778 -1.6923
 8311SOL    HW236567   0.153   3.841  17.480  2.2140  0.9392  0.0817
 8312SOL     OW36568   4.707   3.194  11.555 -0.0505 -0.2650  0.3442
 8312SOL    HW136569   4.707   3.274  11.607  1.3369 -0.6380  0.9331
 8312SOL    HW236570   4.721   3.129  11.625 -1.2702  0.9532  1.7151
 8313SOL     OW36571   1.484   4.247   5.698  0.0831  0.0953  0.8144
 8313SOL    HW136572   1.510   4.339   5.691  2.5681 -0.7448 -1.0099
 8313SOL    HW236573   1.565   4.209   5.665  1.3044  2.2057  1.3678
 8314SOL     OW36574   1.637   1.314   8.560  0.0540 -1.0542  0.5435
 8314SOL    HW136575   1.731   1.318   8.577  0.2199 -0.7282 -0.4138
 8314SOL    HW236576   1.637   1.238   8.502  0.3034 -0.9919  0.4638
 8315SOL     OW36577   1.918   2.903  13.549 -0.8475  0.9462  0.1502
 8315SOL    HW136578   1.916   2.808  13.541 -0.3496  0.9919 -0.5557
 8315SOL    HW236579   1.941   2.919  13.457  2.4923 -0.0989  0.8200
 8316SOL     OW36580   3.846   2.672   8.964 -0.1274 -0.6956 -0.1328
 8316SOL    HW136581   3.909   2.706   8.901  0.7437 -2.0800  0.0024
 8316SOL    HW236582   3.782   2.623   8.914 -1.9793  2.4542 -0.8662
 8317SOL     OW36583   2.828   0.897   3.665  0.2121  0.2612 -0.0130
 8317SOL    HW136584   2.788   0.899   3.578 -1.0217 -1.0361  0.5244
 8317SOL    HW236585   2.793   0.812   3.690 -0.0359  0.1796 -0.6271
 8318SOL     OW36586   3.941   4.650   4.827  0.3728 -0.2824 -0.1968
 8318SOL    HW136587   3.973   4.720   4.771  2.5423 -0.9285  0.2627
 8318SOL    HW236588   3.996   4.574   4.809  0.8691 -0.1481  0.7415
 8319SOL     OW36589   2.803   3.397   5.631  0.4181 -0.0680  0.5905
 8319SOL    HW136590   2.796   3.313   5.678 -0.3613 -0.4453 -0.2091
 8319SOL    HW236591   2.728   3.396   5.572  0.3541  1.5578  0.6287
 8320SOL     OW36592   2.327   3.536  13.105 -0.0629  0.1230  0.2601
 8320SOL    HW136593   2.300   3.589  13.030 -0.3111  0.1538  0.3704
 8320SOL    HW236594   2.352   3.450  13.070 -1.1898  0.7836 -2.1541
 8321SOL     OW36595   0.270   2.936   2.140  0.1124  0.2734  0.3618
 8321SOL    HW136596   0.204   2.957   2.206  1.1191  0.7703  1.1927
 8321SOL    HW236597   0.356   2.970   2.164 -1.2084  1.8000  2.9500
 8322SOL     OW36598   3.438   0.700  10.779 -0.1919 -0.6158  0.3883
 8322SOL    HW136599   3.402   0.615  10.755 -2.6230  0.1146  1.4138
 8322SOL    HW236600   3.531   0.680  10.779 -0.2961 -1.1076 -1.0066
 8323SOL     OW36601   1.111   4.703   4.279 -0.1160  0.0804  0.1219
 8323SOL    HW136602   1.131   0.003   4.193 -0.4473 -0.2625 -0.0934
 8323SOL    HW236603   1.132   4.612   4.259 -1.3617 -0.3965  1.0097
 8324SOL     OW36604   1.783   1.874  14.991 -0.3170  0.1333  0.1242
 8324SOL    HW136605   1.721   1.829  15.048  1.0910 -0.4891  1.1449
 8324SOL    HW236606   1.869   1.851  15.024 -0.5992 -0.7643  0.2260
 8325SOL     OW36607   4.053   1.984   4.586  0.1152 -0.1152  0.1341
 8325SOL    HW136608   4.082   1.932   4.662  0.6557  1.4674  1.0235
 8325SOL    HW236609   3.961   1.996   4.611  0.0397 -1.4287  0.4726
 8326SOL     OW36610   0.350   0.319  12.819 -0.4966  0.5224 -0.2514
 8326SOL    HW136611   0.419   0.381  12.795  0.9818 -1.3610 -0.7823
 8326SOL    HW236612   0.274   0.350  12.770 -1.0285 -0.7979 -0.2564
 8327SOL     OW36613   3.178   1.300   9.887 -0.4930  0.4752  0.2945
 8327SOL    HW136614   3.100   1.289   9.832  0.1423 -1.9536 -0.1028
 8327SOL    HW236615   3.134   1.303   9.972 -1.1871  0.4170 -0.0629
 8328SOL     OW36616   4.174   3.212   4.492  0.3109  0.6437  0.6117
 8328SOL    HW136617   4.081   3.230   4.506  0.2834  1.7354 -0.8666
 8328SOL    HW236618   4.200   3.150   4.559  1.1475 -0.1387 -0.4466
 8329SOL     OW36619   4.512   1.257  10.458 -0.3665 -0.1158 -0.3014
 8329SOL    HW136620   4.443   1.283  10.397  0.4215  0.8542 -0.7973
 8329SOL    HW236621   4.474   1.256  10.545 -2.7660  1.2668 -1.3465
 8330SOL     OW36622   4.219   4.313   3.504 -0.2201  0.0365  0.0484
 8330SOL    HW136623   4.196   4.230   3.463 -1.2753 -0.0184  0.7558
 8330SOL    HW236624   4.138   4.364   3.510 -0.4152 -0.2111 -0.4811
 8331SOL     OW36625   3.826   2.178   6.510 -0.7818 -0.2210  0.0062
 8331SOL    HW136626   3.909   2.214   6.542 -0.4283  0.8171 -2.0673
 8331SOL    HW236627   3.769   2.254   6.500  0.2301  0.4002 -1.0573
 8332SOL     OW36628   2.548   0.045  10.109  0.0462 -0.6621  0.1732
 8332SOL    HW136629   2.475   0.007  10.060 -0.1580 -0.3192  0.2146
 8332SOL    HW236630   2.519   0.013  10.195  0.4226 -2.2221 -0.2684
 8333SOL     OW36631   2.724   1.594   5.364  0.3767  0.1158  0.7830
 8333SOL    HW136632   2.813   1.616   5.393  0.1013  0.3890  1.4202
 8333SOL    HW236633   2.685   1.573   5.449 -0.0042  0.7466  0.7555
 8334SOL     OW36634   0.743   1.175   3.926 -0.5851  0.1764  0.4683
 8334SOL    HW136635   0.780   1.087   3.922 -1.4323 -0.2205  1.2896
 8334SOL    HW236636   0.820   1.223   3.896 -0.4267  0.3585  1.1828
 8335SOL     OW36637   3.425   4.528   4.127 -0.2198  0.0858 -0.3980
 8335SOL    HW136638   3.465   4.582   4.196  1.3882 -0.7781 -0.6603
 8335SOL    HW236639   3.334   4.516   4.155 -0.4297  1.0127 -0.6752
 8336SOL     OW36640   0.199   2.944  15.388 -0.2984 -0.5688  0.0878
 8336SOL    HW136641   0.213   2.867  15.443  1.4782  2.0422  3.3360
 8336SOL    HW236642   0.133   2.984  15.445  0.5316  1.2571 -0.2328
 8337SOL     OW36643   0.542   2.277   8.280 -1.0395  0.3261  0.3642
 8337SOL    HW136644   0.450   2.292   8.300 -1.0710  1.4024 -0.5943
 8337SOL    HW236645   0.581   2.359   8.310  1.8152 -0.0143 -2.4351
 8338SOL     OW36646   3.406   2.987   7.889  0.3297 -0.1295  0.0591
 8338SOL    HW136647   3.327   3.036   7.869  1.0134  0.5984 -0.8430
 8338SOL    HW236648   3.386   2.899   7.856 -1.7862  0.5813 -0.5769
 8339SOL     OW36649   2.124   4.688   4.156  0.5966  0.1130  0.4822
 8339SOL    HW136650   2.031   4.686   4.180  0.5312  0.4154  0.2707
 8339SOL    HW236651   2.149   4.603   4.190  2.1033  0.1424 -0.5598
 8340SOL     OW36652   3.988   2.940   8.417 -0.1636  0.0562 -0.6066
 8340SOL    HW136653   4.015   3.007   8.480  2.3916 -2.0932  0.5678
 8340SOL    HW236654   4.054   2.961   8.352  0.4346  0.6347  0.1924
 8341SOL     OW36655   0.262   1.400   7.943 -0.1193  0.1717  0.1286
 8341SOL    HW136656   0.335   1.356   7.901  1.8981  1.8212  1.9199
 8341SOL    HW236657   0.298   1.485   7.968 -0.4687  0.5034 -0.4828
 8342SOL     OW36658   3.061   2.165   3.108  0.0351 -0.1549  0.6429
 8342SOL    HW136659   3.006   2.238   3.079  1.4942 -0.3474 -2.6047
 8342SOL    HW236660   3.009   2.086   3.096 -0.6367  0.1915  1.3149
 8343SOL     OW36661   4.379   1.673   0.601 -0.7091  0.2923  0.0061
 8343SOL    HW136662   4.302   1.719   0.568 -0.0278  0.1733 -1.7682
 8343SOL    HW236663   4.340   1.653   0.685 -0.2400 -0.5912  0.0266
 8344SOL     OW36664   0.211   4.284   1.958  1.0649 -0.5945 -0.1163
 8344SOL    HW136665   0.190   4.374   1.933 -2.6252 -0.7795  2.3972
 8344SOL    HW236666   0.141   4.236   1.915 -0.4650  0.9854  0.6181
 8345SOL     OW36667   2.356   1.594   4.057  0.0777 -0.3403 -0.6808
 8345SOL    HW136668   2.339   1.540   4.134  0.4560 -0.1200 -0.4443
 8345SOL    HW236669   2.292   1.663   4.075 -1.2115 -1.7342  0.1015
 8346SOL     OW36670   4.724   0.657  15.036 -0.3767  0.0711 -0.2016
 8346SOL    HW136671   0.059   0.612  14.990 -0.3491  1.7672 -1.8050
 8346SOL    HW236672   0.027   0.662  15.123  0.8480 -1.0749 -0.6860
 8347SOL     OW36673   4.376   1.684   7.565 -0.7785  0.1243  0.2079
 8347SOL    HW136674   4.378   1.779   7.554 -1.3367  0.2881  1.5775
 8347SOL    HW236675   4.471   1.670   7.568 -0.5882  1.0064 -1.4549
 8348SOL     OW36676   3.690   4.660  12.305  0.7952  0.4665  0.3272
 8348SOL    HW136677   3.667   4.575  12.266 -1.1066  0.5730  1.2261
 8348SOL    HW236678   3.620   4.679  12.367  0.3124 -2.8225  0.8031
 8349SOL     OW36679   4.696   3.835   6.123 -0.7681 -0.1681 -0.2171
 8349SOL    HW136680   0.000   3.750   6.137 -0.8280 -0.3533 -1.1250
 8349SOL    HW236681   0.040   3.875   6.086 -0.1857 -0.4408  0.7458
 8350SOL     OW36682   3.180   3.864   7.468 -0.1458 -0.4839 -0.2025
 8350SOL    HW136683   3.116   3.794   7.458  0.3118 -0.8712 -0.4096
 8350SOL    HW236684   3.262   3.818   7.487 -0.2705  0.1523  1.9148
 8351SOL     OW36685   1.490   0.204   7.081 -0.2219  0.1649 -0.0508
 8351SOL    HW136686   1.414   0.243   7.125 -1.5882 -0.5409 -1.7816
 8351SOL    HW236687   1.492   0.247   6.996  1.5235  1.2489  0.5387
 8352SOL     OW36688   2.388   2.664  13.853 -0.3139  0.3540  0.3829
 8352SOL    HW136689   2.301   2.703  13.861  0.3947  1.9861  0.1202
 8352SOL    HW236690   2.375   2.570  13.863  0.4386  0.2837  0.6835
 8353SOL     OW36691   4.584   0.386   0.817  0.4042 -0.3174 -0.1151
 8353SOL    HW136692   4.526   0.452   0.854  2.5908  1.0923  0.7807
 8353SOL    HW236693   4.668   0.424   0.843 -0.7509  1.7309  0.6514
 8354SOL     OW36694   2.660   4.345   8.517 -0.9027 -0.4220 -0.4276
 8354SOL    HW136695   2.700   4.259   8.516 -3.2606 -1.5308 -0.3933
 8354SOL    HW236696   2.574   4.319   8.552 -0.6128 -0.9668 -0.1189
 8355SOL     OW36697   1.006   2.022   0.028  0.1986  0.5663  0.2521
 8355SOL    HW136698   0.944   2.092   0.047  1.1766  1.5070  0.0266
 8355SOL    HW236699   1.011   2.037  17.675  0.3725  1.7195  0.4357
 8356SOL     OW36700   3.817   2.812   8.264  0.1782  0.2559 -0.0883
 8356SOL    HW136701   3.797   2.724   8.294  1.7139 -0.2477 -0.5314
 8356SOL    HW236702   3.890   2.845   8.316 -0.7269  1.2356  0.5619
 8357SOL     OW36703   0.196   3.086   8.970 -0.3135  0.4070 -0.1244
 8357SOL    HW136704   0.170   3.078   9.061 -0.5783  0.8940 -0.1631
 8357SOL    HW236705   0.241   3.170   8.982  0.5622  0.0471 -0.8421
 8358SOL     OW36706   2.677   0.539   6.147 -0.0767 -0.4217  0.3337
 8358SOL    HW136707   2.702   0.615   6.095  3.6577 -1.8325  0.0632
 8358SOL    HW236708   2.651   0.574   6.232  1.3444  1.7040 -0.1091
 8359SOL     OW36709   0.195   3.332   2.711  0.0779 -0.6547 -0.4235
 8359SOL    HW136710   0.283   3.368   2.715 -0.9971  1.9763 -0.2587
 8359SOL    HW236711   0.176   3.330   2.617 -0.6066 -0.0202 -0.3011
 8360SOL     OW36712   4.639   1.129   9.377  0.2294  0.0238 -0.0662
 8360SOL    HW136713   4.688   1.136   9.459 -1.2184 -2.0186  0.9685
 8360SOL    HW236714   4.604   1.040   9.381 -4.4293  1.9724  2.1910
 8361SOL     OW36715   1.384   0.575   7.247 -0.7044 -0.0947 -0.0211
 8361SOL    HW136716   1.446   0.621   7.304  1.0808 -1.1085 -1.1517
 8361SOL    HW236717   1.405   0.625   7.168  1.5222 -0.4769  0.3455
 8362SOL     OW36718   2.003   0.464   4.368  0.3497  0.0599 -0.3569
 8362SOL    HW136719   1.937   0.417   4.418  0.7498 -2.1039 -1.8656
 8362SOL    HW236720   2.021   0.388   4.313  0.6505  0.7448 -1.2040
 8363SOL     OW36721   4.386   4.427  12.193  0.7843 -0.5978  0.5569
 8363SOL    HW136722   4.310   4.453  12.244  1.3971 -0.3855  1.3757
 8363SOL    HW236723   4.345   4.363  12.135  0.5706 -0.2602  0.3364
 8364SOL     OW36724   4.263   1.490   2.543 -0.5873  0.0267  0.2227
 8364SOL    HW136725   4.340   1.506   2.598 -1.4879 -2.0024  2.0894
 8364SOL    HW236726   4.232   1.581   2.538 -2.5202 -0.6388  0.2878
 8365SOL     OW36727   2.737   4.211   3.629 -0.4259  0.1562 -0.2223
 8365SOL    HW136728   2.733   4.231   3.536 -0.9601 -0.9002 -0.4191
 8365SOL    HW236729   2.832   4.216   3.640 -0.7712  2.4690  1.8992
 8366SOL     OW36730   4.555   0.919   7.550 -0.5832  0.0160  0.4142
 8366SOL    HW136731   4.500   0.840   7.556  0.3224 -0.5882  0.7247
 8366SOL    HW236732   4.497   0.991   7.576 -1.7899 -0.4916 -0.9016
 8367SOL     OW36733   4.044   2.838   5.317 -0.2144  0.1804  0.2313
 8367SOL    HW136734   4.062   2.870   5.228 -1.8036  1.9787  0.5733
 8367SOL    HW236735   4.063   2.923   5.356  0.0465 -0.1102  0.7375
 8368SOL     OW36736   2.313   1.390   7.032 -0.2264  0.4945 -0.1789
 8368SOL    HW136737   2.235   1.388   7.089 -0.5140  1.7910 -0.5301
 8368SOL    HW236738   2.286   1.320   6.972 -2.0422  0.1936  0.9711
 8369SOL     OW36739   1.946   3.119  13.076  0.3862  0.3819  0.1994
 8369SOL    HW136740   2.029   3.135  13.119  0.6707 -1.8432  0.4969
 8369SOL    HW236741   1.910   3.206  13.091 -0.4315  0.2906 -1.1623
 8370SOL     OW36742   3.466   2.583   6.162  0.1122  0.4646 -0.0674
 8370SOL    HW136743   3.466   2.498   6.117 -0.1802  0.4706 -0.0769
 8370SOL    HW236744   3.384   2.582   6.210  0.6488 -0.2253  0.8545
 8371SOL     OW36745   0.640   0.970  11.401 -0.3088  0.0643 -0.5847
 8371SOL    HW136746   0.722   0.920  11.402 -1.0866 -1.1773  1.5142
 8371SOL    HW236747   0.674   1.046  11.353  2.8620 -1.7293 -1.1756
 8372SOL     OW36748   2.176   3.891  17.065  0.1660  0.5284  0.6255
 8372SOL    HW136749   2.245   3.838  17.026 -1.4969 -0.0839 -1.5244
 8372SOL    HW236750   2.112   3.826  17.096  1.2256 -0.0728  1.5334
 8373SOL     OW36751   1.407   1.127   6.891  0.5007  0.1492  0.4208
 8373SOL    HW136752   1.319   1.164   6.897 -0.1953 -1.5964  0.9752
 8373SOL    HW236753   1.457   1.206   6.870 -0.9412  0.9448 -0.0532
 8374SOL     OW36754   2.492   3.248   8.163 -0.4045  0.7611  0.4067
 8374SOL    HW136755   2.448   3.293   8.235 -1.4810 -1.7819  1.3593
 8374SOL    HW236756   2.577   3.233   8.203  0.9571  0.2758 -2.6525
 8375SOL     OW36757   0.906   1.822  13.035 -0.2570  0.7992 -0.4504
 8375SOL    HW136758   0.961   1.772  13.094  0.0039  2.6799  0.8843
 8375SOL    HW236759   0.882   1.763  12.963 -0.0113  0.0403  0.0912
 8376SOL     OW36760   1.366   1.897   7.214  0.2345 -0.4212 -0.8375
 8376SOL    HW136761   1.445   1.948   7.193 -0.2095  0.2326 -0.9203
 8376SOL    HW236762   1.329   1.883   7.127 -1.4917 -0.4902 -0.0826
 8377SOL     OW36763   1.629   3.012   2.346  0.6560  0.0477 -0.3347
 8377SOL    HW136764   1.668   3.091   2.385 -1.2046  1.0156 -0.4645
 8377SOL    HW236765   1.655   3.013   2.253 -0.6318 -3.2758 -0.7388
 8378SOL     OW36766   0.218   2.153  17.475  0.2402  0.2917 -0.2883
 8378SOL    HW136767   0.151   2.122  17.415  0.2061  0.5686 -0.3895
 8378SOL    HW236768   0.271   2.073  17.481 -0.6105 -0.1694  1.0499
 8379SOL     OW36769   3.805   4.502   4.488  0.2914  0.5090 -0.4472
 8379SOL    HW136770   3.758   4.512   4.571 -2.7157 -2.5545 -1.7840
 8379SOL    HW236771   3.744   4.446   4.440  0.2928  1.2760 -1.3572
 8380SOL     OW36772   2.511   2.152   5.459 -0.3795 -0.1491  0.3429
 8380SOL    HW136773   2.454   2.224   5.487  1.8085  0.6157  2.8198
 8380SOL    HW236774   2.537   2.130   5.548 -0.4333  2.2699  0.9566
 8381SOL     OW36775   2.175   2.258   3.103  0.0129  0.2162 -0.8447
 8381SOL    HW136776   2.186   2.164   3.115  4.2274  0.5042 -2.6763
 8381SOL    HW236777   2.093   2.281   3.058 -0.6284 -0.4887 -0.0502
 8382SOL     OW36778   1.584   1.736   6.609 -0.3114  0.8170  0.4881
 8382SOL    HW136779   1.674   1.725   6.576 -0.5227  2.5025 -0.6236
 8382SOL    HW236780   1.539   1.720   6.526  1.1569 -2.8137  0.3498
 8383SOL     OW36781   4.482   3.718  12.482 -0.5236 -0.0422  0.1805
 8383SOL    HW136782   4.531   3.800  12.491 -1.5326  0.4420  1.2083
 8383SOL    HW236783   4.431   3.743  12.406  0.9204  2.0847 -0.0771
 8384SOL     OW36784   2.888   0.624   9.941 -0.1707  0.3117  0.0757
 8384SOL    HW136785   2.828   0.557   9.908 -1.5515  0.7721  1.6635
 8384SOL    HW236786   2.898   0.600  10.033 -0.2210  0.1374  0.0352
 8385SOL     OW36787   2.204   1.435   4.966 -0.0915  0.7594 -0.0997
 8385SOL    HW136788   2.216   1.460   4.875 -1.2019 -0.0269 -0.4654
 8385SOL    HW236789   2.295   1.408   4.979  0.3128  1.8395 -0.7612
 8386SOL     OW36790   0.292   1.036   1.281  0.0265  0.2071 -0.2657
 8386SOL    HW136791   0.379   1.056   1.314  1.7827  1.1218 -5.3655
 8386SOL    HW236792   0.282   1.108   1.218  0.2631 -0.1589 -0.7207
 8387SOL     OW36793   2.413   0.687   7.114 -0.3066 -0.4123 -0.4458
 8387SOL    HW136794   2.407   0.630   7.191 -0.9123 -0.9385 -0.8905
 8387SOL    HW236795   2.508   0.702   7.115 -0.2305 -0.8669 -1.4256
 8388SOL     OW36796   4.082   0.832   0.801  0.0748 -0.5902 -0.4628
 8388SOL    HW136797   4.086   0.739   0.825 -1.7736 -1.0122 -1.8148
 8388SOL    HW236798   3.994   0.841   0.766 -0.0427 -0.2359 -0.0783
 8389SOL     OW36799   1.054   2.353   3.168  0.0099 -0.0551  0.5605
 8389SOL    HW136800   1.037   2.414   3.096  0.3446 -0.9789 -0.3065
 8389SOL    HW236801   1.149   2.364   3.170  0.4027 -3.1355 -1.0331
 8390SOL     OW36802   0.898   2.873   2.183 -0.4023 -0.3415  0.4358
 8390SOL    HW136803   0.854   2.788   2.193 -0.0181 -0.6270 -0.3157
 8390SOL    HW236804   0.986   2.852   2.215 -0.2644  0.1648  0.3775
 8391SOL     OW36805   0.953   2.965   8.239  0.4419 -0.1953 -0.3184
 8391SOL    HW136806   0.899   2.925   8.171 -0.9392 -1.3161  1.4436
 8391SOL    HW236807   0.934   2.895   8.302 -1.0420  1.3920  0.9949
 8392SOL     OW36808   2.599   4.162   5.825  0.6411  0.2463 -0.1856
 8392SOL    HW136809   2.559   4.142   5.909  3.2387 -2.4293  0.4383
 8392SOL    HW236810   2.680   4.113   5.840 -0.7271 -2.4140 -1.2925
 8393SOL     OW36811   4.535   0.472   9.457 -0.4473  0.5410  0.5066
 8393SOL    HW136812   4.607   0.427   9.413 -0.0771 -0.2910  1.9542
 8393SOL    HW236813   4.498   0.534   9.394 -2.9224 -2.4566 -1.0299
 8394SOL     OW36814   2.203   0.853  11.429  0.1685 -0.2295 -0.0549
 8394SOL    HW136815   2.173   0.939  11.458  1.3100  0.9186 -2.2202
 8394SOL    HW236816   2.167   0.803  11.502 -0.8976 -0.0393 -0.4446
 8395SOL     OW36817   4.171   3.134   8.322 -0.1836 -0.0099  0.3985
 8395SOL    HW136818   4.154   3.223   8.354  2.8238  1.1652 -1.2701
 8395SOL    HW236819   4.242   3.103   8.379  0.0956 -2.4159 -1.2572
 8396SOL     OW36820   2.873   1.691   8.922  0.6986 -0.2002  0.0225
 8396SOL    HW136821   2.785   1.729   8.926 -0.1441 -2.2180  0.7089
 8396SOL    HW236822   2.886   1.640   9.003  0.3970 -1.4867 -0.7371
 8397SOL     OW36823   4.568   4.440  13.540 -0.1847 -0.4234  0.4529
 8397SOL    HW136824   4.508   4.409  13.472 -0.5596 -0.5944  0.8657
 8397SOL    HW236825   4.644   4.481  13.498  0.1867 -0.5726  0.9805
 8398SOL     OW36826   3.876   1.731  12.792 -0.1053 -0.1091  0.1211
 8398SOL    HW136827   3.932   1.691  12.726  0.8809 -0.3351  1.0929
 8398SOL    HW236828   3.905   1.822  12.791  1.3420 -0.5619  1.3629
 8399SOL     OW36829   4.607   3.231   7.911 -0.1327  0.1201 -0.1859
 8399SOL    HW136830   4.663   3.297   7.951  1.5478 -1.7422  0.5136
 8399SOL    HW236831   4.596   3.276   7.827  2.2314  1.9483  0.4847
 8400SOL     OW36832   1.763   2.011   1.116  0.1515 -0.2066 -0.3977
 8400SOL    HW136833   1.825   2.077   1.147 -0.7433  0.8613 -0.8925
 8400SOL    HW236834   1.677   2.026   1.155 -0.4798 -1.6008 -1.2503
 8401SOL     OW36835   3.765   2.689   6.618  0.6932 -0.0064 -0.5515
 8401SOL    HW136836   3.708   2.756   6.581  0.2352 -0.3371 -0.4464
 8401SOL    HW236837   3.847   2.733   6.595  1.9159 -2.1671 -0.3353
 8402SOL     OW36838   0.019   1.390  12.333  0.3499 -0.4930  1.1255
 8402SOL    HW136839   0.114   1.395  12.338  0.4947 -3.1528  1.2206
 8402SOL    HW236840   0.002   1.471  12.284 -1.6955 -1.0983  0.8478
 8403SOL     OW36841   1.349   3.752   6.076 -0.0576 -0.0540 -0.2352
 8403SOL    HW136842   1.316   3.711   6.156 -2.3628 -0.9474 -1.6286
 8403SOL    HW236843   1.330   3.843   6.100 -0.3821  0.0070 -0.7163
 8404SOL     OW36844   4.150   2.092   8.352 -0.6057 -0.5017  0.2946
 8404SOL    HW136845   4.244   2.099   8.372 -0.5637 -1.9714  0.6277
 8404SOL    HW236846   4.133   1.998   8.347  2.0824 -0.9177 -1.1700
 8405SOL     OW36847   4.433   4.001   7.885 -0.7199  0.4786 -0.1805
 8405SOL    HW136848   4.500   3.943   7.848 -0.8328  0.1809  0.0804
 8405SOL    HW236849   4.479   4.068   7.934  0.2890 -0.6977  0.4903
 8406SOL     OW36850   1.199   1.666   2.770 -0.0534  0.2401  0.4517
 8406SOL    HW136851   1.284   1.677   2.811 -0.7870 -0.9392  2.2939
 8406SOL    HW236852   1.185   1.758   2.746 -0.0354  0.2835  0.6112
 8407SOL     OW36853   1.300   0.662   2.433 -0.0240  0.1539  0.0212
 8407SOL    HW136854   1.365   0.632   2.497 -1.4593 -1.0980  0.8918
 8407SOL    HW236855   1.299   0.757   2.441  0.5795  0.0090  1.9125
 8408SOL     OW36856   3.676   3.640   8.717 -0.2654 -0.7696 -0.9977
 8408SOL    HW136857   3.656   3.713   8.659  0.6447  0.2327 -0.0514
 8408SOL    HW236858   3.623   3.569   8.681  1.2173 -2.3377 -0.0827
 8409SOL     OW36859   3.212   3.226   5.551 -0.5438 -0.3578 -0.2097
 8409SOL    HW136860   3.156   3.216   5.628 -2.0531  1.3535 -1.0660
 8409SOL    HW236861   3.289   3.254   5.600 -1.6117  1.3907  0.4743
 8410SOL     OW36862   0.474   0.002  15.366 -0.1085  0.5558  0.6315
 8410SOL    HW136863   0.413   4.667  15.389  0.9284 -0.3977  0.4576
 8410SOL    HW236864   0.453   0.056  15.442 -1.3445  0.8731  0.0596
 8411SOL     OW36865   1.681   1.551  11.997 -0.3497 -0.2403  0.3861
 8411SOL    HW136866   1.754   1.591  11.951 -1.2691  1.5023  0.4323
 8411SOL    HW236867   1.669   1.475  11.940 -0.0117 -0.1735  0.2272
 8412SOL     OW36868   1.675   1.533   2.995 -0.5385  0.2656 -0.5167
 8412SOL    HW136869   1.684   1.551   3.089  0.0172 -1.6389 -0.2047
 8412SOL    HW236870   1.716   1.449   2.975  3.4762  2.2769 -0.7628
 8413SOL     OW36871   3.818   0.990   1.140  0.2054  0.5697  0.6809
 8413SOL    HW136872   3.912   1.007   1.135  0.3242 -0.1611  0.3891
 8413SOL    HW236873   3.820   0.973   1.234  3.0820 -0.8573  0.3720
 8414SOL     OW36874   3.918   3.914   1.935 -0.1517  0.6113  0.4984
 8414SOL    HW136875   4.005   3.943   1.910  0.0337  0.1902  0.6564
 8414SOL    HW236876   3.881   3.894   1.849 -0.0737 -0.7264  0.7694
 8415SOL     OW36877   0.940   3.038   6.586 -0.2562 -0.1238 -0.6454
 8415SOL    HW136878   0.848   3.042   6.558 -0.1882  1.6725 -0.6028
 8415SOL    HW236879   0.952   3.109   6.650  0.6186  1.7167 -2.8821
 8416SOL     OW36880   0.629   3.608   2.691 -0.1220  0.0235  0.4185
 8416SOL    HW136881   0.720   3.579   2.686  0.4199  1.4733  1.9763
 8416SOL    HW236882   0.620   3.630   2.783 -0.0791  0.9329  0.2038
 8417SOL     OW36883   1.665   3.623   2.881  0.3584 -0.1284 -0.1966
 8417SOL    HW136884   1.688   3.543   2.927  0.7560 -0.0860 -0.3243
 8417SOL    HW236885   1.571   3.613   2.866  0.2225 -1.4321  1.5187
 8418SOL     OW36886   1.222   0.293  16.286  0.1189 -0.2919  0.3352
 8418SOL    HW136887   1.293   0.354  16.267 -1.1805  1.6296  1.6419
 8418SOL    HW236888   1.148   0.328  16.236 -0.1517 -1.8543 -0.3394
 8419SOL     OW36889   2.159   2.855   2.887 -0.2422  0.0672 -0.0362
 8419SOL    HW136890   2.159   2.924   2.953 -2.3053 -1.4411  1.5321
 8419SOL    HW236891   2.095   2.893   2.827 -1.5811  0.2016  1.4880
 8420SOL     OW36892   4.184   3.404   4.207  0.6635 -0.4168  0.4009
 8420SOL    HW136893   4.148   3.326   4.247 -3.2237  1.1984  0.0813
 8420SOL    HW236894   4.238   3.362   4.140  0.6978  0.7459 -0.3050
 8421SOL     OW36895   3.742   1.481   1.855 -0.0363 -0.1737  0.5729
 8421SOL    HW136896   3.768   1.453   1.943  2.4862 -1.1249 -0.4750
 8421SOL    HW236897   3.802   1.429   1.801 -0.4690  0.3432 -0.4018
 8422SOL     OW36898   3.251   0.240   2.857 -0.2959 -0.3733 -0.0303
 8422SOL    HW136899   3.260   0.266   2.766 -0.8849  1.7418  0.5109
 8422SOL    HW236900   3.159   0.260   2.872 -0.6388 -1.3886 -0.8071
 8423SOL     OW36901   1.551   0.071   2.220 -0.1630  0.2596 -0.2069
 8423SOL    HW136902   1.512   4.736   2.271 -0.2265  0.2709 -0.2399
 8423SOL    HW236903   1.490   0.144   2.231  1.0083  0.8688  2.4108
 8424SOL     OW36904   0.189   4.263  11.363 -0.0095 -0.2406  0.1345
 8424SOL    HW136905   0.099   4.249  11.393  0.0601 -1.0123 -0.0070
 8424SOL    HW236906   0.218   4.293  11.449  0.4434 -0.9550  0.2324
 8425SOL     OW36907   2.640   1.052   7.526 -0.6592  0.4868 -0.1921
 8425SOL    HW136908   2.721   1.099   7.546 -1.1066  1.0187  0.3766
 8425SOL    HW236909   2.580   1.127   7.521  0.0047  1.0400  0.0731
 8426SOL     OW36910   0.014   1.974   4.455  0.2803  0.0007  0.8701
 8426SOL    HW136911   4.697   1.915   4.401  0.5959  1.7137 -1.3233
 8426SOL    HW236912   4.681   2.005   4.514  1.2550  2.2774  0.8088
 8427SOL     OW36913   0.209   2.864   6.266  0.0311  0.0168 -0.3203
 8427SOL    HW136914   0.174   2.952   6.281  0.3592 -0.0476  0.8277
 8427SOL    HW236915   0.136   2.823   6.220 -0.2047  1.2908 -1.0735
 8428SOL     OW36916   3.187   0.670   6.982  0.6266 -0.1172  0.8564
 8428SOL    HW136917   3.097   0.701   6.973  0.6014  0.0021  1.4749
 8428SOL    HW236918   3.218   0.728   7.052 -1.0291  0.8910  0.7566
 8429SOL     OW36919   1.765   0.158   8.842 -0.0378 -0.2701  0.0763
 8429SOL    HW136920   1.768   0.068   8.874 -0.6390  0.1863  1.4174
 8429SOL    HW236921   1.797   0.133   8.755  1.7455 -1.4953  1.1109
 8430SOL     OW36922   0.052   3.215   4.152  0.2944  0.3480  0.2743
 8430SOL    HW136923   0.046   3.280   4.221  1.4099 -0.9087  1.5537
 8430SOL    HW236924   4.695   3.196   4.135 -0.3023  2.0958  1.5405
 8431SOL     OW36925   1.865   2.128   7.776  0.0239  0.1116  0.7450
 8431SOL    HW136926   1.817   2.092   7.701 -1.9491 -0.4109  2.2550
 8431SOL    HW236927   1.915   2.053   7.808  4.1456  2.4932 -0.1131
 8432SOL     OW36928   0.629   4.515  11.625 -0.3628  0.3664  0.3889
 8432SOL    HW136929   0.642   4.605  11.655  0.1764  0.4473 -0.0774
 8432SOL    HW236930   0.535   4.500  11.624 -0.5297  1.4399  0.2314
 8433SOL     OW36931   1.935   0.568  15.714  0.7935  0.0644  0.1810
 8433SOL    HW136932   1.852   0.548  15.672 -0.2111  1.6021  1.4386
 8433SOL    HW236933   1.986   0.488  15.697 -2.5042 -1.9163 -0.3676
 8434SOL     OW36934   3.543   3.745   7.487  0.9409  0.0876 -0.2398
 8434SOL    HW136935   3.484   3.697   7.545  0.6756  0.3807 -0.2703
 8434SOL    HW236936   3.529   3.708   7.400 -4.0186  1.3176  0.0417
 8435SOL     OW36937   0.468   2.367   0.288  0.0406 -0.0453  0.5871
 8435SOL    HW136938   0.425   2.300   0.342 -0.5569 -0.9781 -1.0386
 8435SOL    HW236939   0.554   2.325   0.279  0.3809  1.0426 -1.1531
 8436SOL     OW36940   0.288   4.525   2.689 -0.0231  0.0009 -0.3402
 8436SOL    HW136941   0.314   4.613   2.716  3.0134 -0.8627 -0.5184
 8436SOL    HW236942   0.336   4.517   2.607  1.8664 -0.8326  0.8517
 8437SOL     OW36943   1.638   3.582   5.784  1.0949 -0.2238  0.4127
 8437SOL    HW136944   1.657   3.499   5.741 -0.2957 -1.0541  1.4041
 8437SOL    HW236945   1.550   3.561   5.816  1.8781 -2.2668  1.2223
 8438SOL     OW36946   3.003   1.922   5.732  0.3558 -0.0106 -0.3495
 8438SOL    HW136947   3.033   1.984   5.665 -1.4770  1.5327  0.2706
 8438SOL    HW236948   3.080   1.883   5.774  0.1490 -0.5960 -0.5123
 8439SOL     OW36949   0.598   1.915   6.921  0.4528  0.1001  0.3205
 8439SOL    HW136950   0.635   1.992   6.965 -0.5839  1.9631 -2.1023
 8439SOL    HW236951   0.610   1.838   6.976 -0.3231  0.2675  0.7227
 8440SOL     OW36952   1.869   1.000  12.305  0.2128  0.4147 -0.5233
 8440SOL    HW136953   1.899   1.036  12.388  0.3407 -0.9030  0.0047
 8440SOL    HW236954   1.775   0.993  12.321 -0.0679  1.8368 -1.5956
 8441SOL     OW36955   3.896   4.377   8.894  0.6447  0.0281  0.1849
 8441SOL    HW136956   3.991   4.372   8.901  0.4421 -1.3142  2.0689
 8441SOL    HW236957   3.882   4.472   8.899  2.5699  0.4265 -2.0501
 8442SOL     OW36958   0.711   4.388   7.040 -0.6227 -0.0289  0.0065
 8442SOL    HW136959   0.766   4.447   7.092  1.5619 -2.1975  0.1828
 8442SOL    HW236960   0.707   4.431   6.955  1.4440 -0.0966 -0.1217
 8443SOL     OW36961   3.946   1.524  13.767 -0.3522  0.1460 -0.1368
 8443SOL    HW136962   4.031   1.487  13.790 -0.9279  0.0764  1.8969
 8443SOL    HW236963   3.978   1.614  13.759  2.7693 -0.8401  1.0568
 8444SOL     OW36964   1.173   1.352   7.277 -0.3711  0.3527 -0.1419
 8444SOL    HW136965   1.224   1.322   7.202 -2.1130 -1.5349 -0.5752
 8444SOL    HW236966   1.109   1.281   7.288  2.9427 -3.0120 -2.5961
 8445SOL     OW36967   3.303   0.768   5.137  0.0322 -0.4270 -0.4726
 8445SOL    HW136968   3.331   0.769   5.228 -1.1977 -0.3371 -0.0965
 8445SOL    HW236969   3.226   0.825   5.134 -0.1654 -0.7762 -1.9515
 8446SOL     OW36970   1.636   2.852   7.424  0.2222 -0.0525 -0.4676
 8446SOL    HW136971   1.721   2.863   7.466 -1.0197  1.6251  1.5890
 8446SOL    HW236972   1.589   2.935   7.420  0.1290 -0.0068  2.1110
 8447SOL     OW36973   2.077   2.075   4.016  0.0590 -0.0910 -0.0757
 8447SOL    HW136974   2.103   2.087   4.107 -0.0416 -1.3700  0.1164
 8447SOL    HW236975   1.983   2.086   4.024  0.3956  1.2226  1.8623
 8448SOL     OW36976   1.994   2.455   1.603  0.7130 -0.3171 -0.4356
 8448SOL    HW136977   2.085   2.475   1.627  1.1142 -1.5247 -0.9234
 8448SOL    HW236978   2.001   2.447   1.508 -1.5108 -1.5226 -0.4905
 8449SOL     OW36979   0.655   4.560  11.143 -0.2136 -0.3547 -0.6181
 8449SOL    HW136980   0.738   4.524  11.111  0.3708  1.2076 -0.8590
 8449SOL    HW236981   0.635   4.484  11.199  1.5725  0.2034  0.7623
 8450SOL     OW36982   1.661   2.067  12.485 -0.0397 -0.3899  1.0076
 8450SOL    HW136983   1.567   2.065  12.501 -0.1343  0.3577  0.5283
 8450SOL    HW236984   1.698   2.022  12.561 -1.3082 -2.4369  0.4203
 8451SOL     OW36985   3.957   3.972   4.228 -0.3800  0.3298 -0.5653
 8451SOL    HW136986   3.947   4.067   4.223  2.2176  0.6003 -0.9729
 8451SOL    HW236987   3.863   3.953   4.222 -0.1592 -1.3490  1.7259
 8452SOL     OW36988   3.715   1.787  13.702 -0.2273 -0.1865 -0.4455
 8452SOL    HW136989   3.699   1.882  13.708  1.2763  0.0377  0.1482
 8452SOL    HW236990   3.810   1.789  13.714 -0.0015  1.1022 -2.4833
 8453SOL     OW36991   0.257   2.091   8.181  0.0956  0.5937  0.4209
 8453SOL    HW136992   0.280   2.180   8.207  0.4239  0.9396 -1.0204
 8453SOL    HW236993   0.302   2.087   8.096 -1.0375 -2.8209 -0.0064
 8454SOL     OW36994   0.834   1.820  15.568  0.1753  0.3181 -0.2775
 8454SOL    HW136995   0.884   1.805  15.487 -0.2053  0.2325 -0.4996
 8454SOL    HW236996   0.755   1.858  15.529  0.6238  1.4140 -0.1257
 8455SOL     OW36997   0.624   0.609   5.126 -0.4356  0.1984 -0.5321
 8455SOL    HW136998   0.630   0.517   5.102 -0.5945  0.0268  0.0939
 8455SOL    HW236999   0.623   0.602   5.222 -1.0818  1.2100 -0.4590
 8456SOL     OW37000   1.183   3.873   5.818 -0.8003 -0.7846  0.4354
 8456SOL    HW137001   1.097   3.844   5.788 -0.6527 -2.5563  1.7569
 8456SOL    HW237002   1.208   3.906   5.732 -1.0815 -0.8209  0.3389
 8457SOL     OW37003   3.026   0.581   5.887 -0.1624 -0.3003  0.5567
 8457SOL    HW137004   3.033   0.650   5.954 -2.9537  0.7502 -0.2320
 8457SOL    HW237005   2.931   0.571   5.886 -0.2353  0.4453 -0.0204
 8458SOL     OW37006   2.580   0.900   2.253  0.1435 -0.3362 -1.1760
 8458SOL    HW137007   2.501   0.860   2.291  1.0110  0.2933  1.2975
 8458SOL    HW237008   2.535   0.985   2.246  3.4488  1.3988 -1.4330
 8459SOL     OW37009   1.895   4.689   2.056 -0.0410  0.0306  0.0311
 8459SOL    HW137010   1.808   4.651   2.070  1.0916 -2.3548  0.5665
 8459SOL    HW237011   1.945   4.607   2.053 -0.2987 -0.1552  0.8135
 8460SOL     OW37012   4.694   3.510   5.806  0.2281  0.2349  0.7003
 8460SOL    HW137013   4.720   3.469   5.889  1.8164  1.1697  0.6556
 8460SOL    HW237014   4.639   3.581   5.840 -2.3048 -1.5601  0.3826
 8461SOL     OW37015   4.400   2.463   3.563  0.0819  0.2546  0.1828
 8461SOL    HW137016   4.386   2.394   3.629  0.7684  0.0602  0.1265
 8461SOL    HW237017   4.487   2.491   3.594 -0.2819  1.3185  0.2434
 8462SOL     OW37018   4.473   1.448  15.887 -0.5858  0.3350  0.2280
 8462SOL    HW137019   4.488   1.392  15.963 -0.4894 -1.0445 -0.7994
 8462SOL    HW237020   4.543   1.406  15.837  0.5043  1.6110  0.6835
 8463SOL     OW37021   1.375   2.615  12.142 -0.3980  0.1083  0.0389
 8463SOL    HW137022   1.350   2.699  12.103  0.2331  0.4040  0.2757
 8463SOL    HW237023   1.292   2.579  12.173 -1.9753  0.1289 -4.1200
 8464SOL     OW37024   4.273   4.135   6.887  0.6169 -0.5764 -0.2937
 8464SOL    HW137025   4.248   4.214   6.935 -2.2247 -1.7920  0.2072
 8464SOL    HW237026   4.189   4.091   6.902  1.1152 -0.8614  1.6292
 8465SOL     OW37027   0.261   1.198   1.547 -0.1195  0.0198  0.2703
 8465SOL    HW137028   0.181   1.204   1.495 -2.6537 -0.7731  4.0588
 8465SOL    HW237029   0.309   1.276   1.520  0.7434 -1.1555 -1.5925
 8466SOL     OW37030   3.976   4.635   8.067  0.0668  0.1160 -0.0833
 8466SOL    HW137031   3.936   4.595   8.144  1.0853 -2.1208 -0.7259
 8466SOL    HW237032   4.049   4.683   8.105  0.9681 -0.5087 -1.0353
 8467SOL     OW37033   1.141   1.147   3.031  0.0617  0.2675 -0.2351
 8467SOL    HW137034   1.173   1.059   3.012  1.8653  1.2659 -1.7822
 8467SOL    HW237035   1.097   1.137   3.115 -1.8665 -1.5682 -1.4913
 8468SOL     OW37036   0.556   4.529   5.836 -0.2532 -0.1653  0.0892
 8468SOL    HW137037   0.494   4.599   5.855  0.5512  0.3807  0.6745
 8468SOL    HW237038   0.510   4.512   5.754  1.5122 -1.5941 -0.6070
 8469SOL     OW37039   1.921   2.731   3.115 -0.4396  0.5639  0.6052
 8469SOL    HW137040   1.940   2.721   3.022 -0.5856  2.0733  0.4186
 8469SOL    HW237041   1.995   2.677   3.142 -0.5227  0.9364  1.5867
 8470SOL     OW37042   3.083   3.813   2.701 -0.2402 -0.3102  0.2216
 8470SOL    HW137043   3.134   3.812   2.620  0.9216 -2.7457  0.9883
 8470SOL    HW237044   3.089   3.719   2.716 -0.5118  0.1039  2.9725
 8471SOL     OW37045   2.237   0.893  14.425  0.0063  0.0271 -0.2011
 8471SOL    HW137046   2.195   0.968  14.384  1.1313  0.7707 -0.0086
 8471SOL    HW237047   2.299   0.936  14.484 -2.6456  3.0926  0.3379
 8472SOL     OW37048   0.915   0.831   2.477 -0.1292 -0.0420  0.2327
 8472SOL    HW137049   0.914   0.807   2.569  3.0701 -0.3386  0.1881
 8472SOL    HW237050   0.900   0.925   2.468 -3.0836 -0.6554 -1.3015
 8473SOL     OW37051   4.050   4.106   0.366 -0.2379 -0.1012  0.1246
 8473SOL    HW137052   4.049   4.191   0.323 -0.7423  0.5004  1.3216
 8473SOL    HW237053   3.964   4.075   0.336  0.5021 -1.1161 -0.9292
 8474SOL     OW37054   3.174   4.352   9.164  1.0606  0.3914  0.3101
 8474SOL    HW137055   3.238   4.377   9.231  2.7081 -0.0278 -1.0845
 8474SOL    HW237056   3.241   4.330   9.099 -0.0829 -0.5891 -0.5252
 8475SOL     OW37057   4.731   3.119   0.622  0.1154 -0.2009  0.5832
 8475SOL    HW137058   4.660   3.055   0.616 -0.2387 -0.0005  2.7662
 8475SOL    HW237059   0.040   3.110   0.538  0.6594 -1.2754  0.9969
 8476SOL     OW37060   3.671   4.450   8.127 -0.7115 -0.0136  0.3214
 8476SOL    HW137061   3.622   4.431   8.047 -1.3288 -0.3106  0.7734
 8476SOL    HW237062   3.719   4.369   8.144  2.7334  2.1628  0.9028
 8477SOL     OW37063   2.467   4.137   3.966 -0.0448 -0.2825  0.5790
 8477SOL    HW137064   2.401   4.173   3.907  1.4468  0.6614 -0.5041
 8477SOL    HW237065   2.410   4.079   4.017  0.8993  1.1786  3.2752
 8478SOL     OW37066   2.853   2.233  10.342  0.0090 -0.8578 -0.2098
 8478SOL    HW137067   2.807   2.230  10.426  2.5738  0.3106  1.2408
 8478SOL    HW237068   2.931   2.183  10.365 -0.3625  0.5640  4.1169
 8479SOL     OW37069   3.707   0.171   8.744  0.1297  0.3270 -0.1568
 8479SOL    HW137070   3.801   0.155   8.740  0.2417  0.2347  3.2785
 8479SOL    HW237071   3.723   0.260   8.775 -0.4121  0.1977  0.4905
 8480SOL     OW37072   4.658   0.432   2.554  0.2640 -0.8578 -0.0403
 8480SOL    HW137073   4.566   0.436   2.579 -0.1658 -0.7699 -1.6398
 8480SOL    HW237074   4.660   0.358   2.494  2.5534  0.8203 -2.0411
 8481SOL     OW37075   1.554   3.026   3.199  0.3227  0.0714 -0.1457
 8481SOL    HW137076   1.503   3.032   3.118 -1.4648 -0.6279  0.9165
 8481SOL    HW237077   1.625   3.088   3.185 -0.1581  0.6108 -0.2123
 8482SOL     OW37078   3.352   4.385   5.240  0.0434  0.0689 -0.9560
 8482SOL    HW137079   3.274   4.436   5.264  0.9163  0.9178  0.0705
 8482SOL    HW237080   3.357   4.337   5.323 -0.5096 -2.1690 -2.2374
 8483SOL     OW37081   3.563   4.033   8.346  0.0657  0.0704 -0.0751
 8483SOL    HW137082   3.625   4.016   8.416 -0.4017 -0.7780  0.1296
 8483SOL    HW237083   3.589   3.964   8.285 -1.5835 -0.1607 -0.5324
 8484SOL     OW37084   0.064   4.435   8.813 -0.4915 -0.9796 -0.0180
 8484SOL    HW137085   0.008   4.375   8.862  0.8844 -0.5605  2.0857
 8484SOL    HW237086   0.082   4.503   8.878 -1.5509  0.5025 -1.2580
 8485SOL     OW37087   3.261   3.272   1.720  0.1730  0.4181 -0.5714
 8485SOL    HW137088   3.193   3.254   1.655  0.0227  2.3233 -0.9474
 8485SOL    HW237089   3.336   3.220   1.690 -0.1841  0.6108 -1.7930
 8486SOL     OW37090   1.907   2.335   4.404 -0.3295  0.6515  0.4878
 8486SOL    HW137091   1.912   2.381   4.487 -0.6411  0.2927  0.7024
 8486SOL    HW237092   1.924   2.244   4.428 -1.8054 -0.2051 -1.7407
 8487SOL     OW37093   2.718   4.125   3.884  0.4541 -0.5971 -0.3478
 8487SOL    HW137094   2.711   4.141   3.790  2.0042 -0.5139 -0.4488
 8487SOL    HW237095   2.626   4.106   3.900  0.2671 -0.1202 -0.8558
 8488SOL     OW37096   2.668   3.532   2.979  0.1143  0.2772 -0.2091
 8488SOL    HW137097   2.627   3.602   3.029 -0.1788 -0.3250  0.3867
 8488SOL    HW237098   2.596   3.516   2.918 -0.8352 -0.4464  1.1008
 8489SOL     OW37099   2.775   2.245   6.015 -0.4350 -0.7530  0.4178
 8489SOL    HW137100   2.825   2.167   5.989 -0.6295 -0.7916  0.1540
 8489SOL    HW237101   2.745   2.215   6.100 -0.1781  0.8201  1.0580
 8490SOL     OW37102   4.040   0.895   8.143  0.1775  0.4362 -0.5182
 8490SOL    HW137103   3.950   0.915   8.119 -0.2888 -2.7450 -1.4100
 8490SOL    HW237104   4.060   0.972   8.197  0.7601 -1.6715  2.2473
 8491SOL     OW37105   1.703   3.374   2.193 -0.4165  0.4324 -0.3371
 8491SOL    HW137106   1.764   3.335   2.129  0.1731 -0.3198  0.6966
 8491SOL    HW237107   1.682   3.455   2.147 -1.2680  0.0958 -0.5286
 8492SOL     OW37108   4.014   1.055   6.591  0.3323 -0.0125  0.3269
 8492SOL    HW137109   3.923   1.065   6.563 -0.1699 -0.9237  1.6463
 8492SOL    HW237110   4.046   1.145   6.589 -1.4714  0.5995 -1.6956
 8493SOL     OW37111   1.823   0.859   8.065  0.5790  0.3377 -0.0342
 8493SOL    HW137112   1.792   0.780   8.110 -1.0886  0.8549 -0.2896
 8493SOL    HW237113   1.742   0.909   8.070  0.9516  1.0693 -1.3883
 8494SOL     OW37114   1.259   3.007  17.591 -0.2979 -0.0318  0.3433
 8494SOL    HW137115   1.186   2.969  17.542 -0.7055  1.5609 -0.2823
 8494SOL    HW237116   1.227   3.097  17.600 -0.8403 -0.1404 -0.4673
 8495SOL     OW37117   0.195   4.692   9.980 -0.0786 -0.2789 -0.0804
 8495SOL    HW137118   0.141   4.614   9.993  1.7148 -1.5022 -0.0015
 8495SOL    HW237119   0.128   0.025   9.989 -0.1735 -0.4557  0.6077
 8496SOL     OW37120   2.579   1.316   1.850  0.7732  0.3231  0.6733
 8496SOL    HW137121   2.521   1.307   1.774  1.0761 -0.6201  0.5579
 8496SOL    HW237122   2.529   1.344   1.927  0.5934  2.2997 -0.1429
 8497SOL     OW37123   4.395   2.722   3.466 -0.8148 -0.3915  0.1827
 8497SOL    HW137124   4.385   2.644   3.520 -0.0818 -0.6010  0.0042
 8497SOL    HW237125   4.447   2.695   3.391 -0.5722 -1.5687  0.7740
 8498SOL     OW37126   2.409   2.202  12.539  0.6038 -0.5818  0.0253
 8498SOL    HW137127   2.386   2.216  12.447 -1.1134 -0.4714  0.4722
 8498SOL    HW237128   2.437   2.289  12.567  2.9100 -1.2300 -0.2959
 8499SOL     OW37129   1.391   2.026   1.355 -0.1077 -0.6332 -0.6100
 8499SOL    HW137130   1.324   2.091   1.374  0.7645  0.9215 -2.9219
 8499SOL    HW237131   1.454   2.080   1.308 -1.8886 -1.5414 -4.1294
 8500SOL     OW37132   3.954   1.527   3.025 -0.2685  0.1226 -0.4025
 8500SOL    HW137133   3.953   1.447   3.077  1.0378 -1.2522 -2.5036
 8500SOL    HW237134   3.989   1.574   3.101 -1.0177  0.4649 -0.2701
 8501SOL     OW37135   4.306   4.138   6.389  0.4124 -0.7523  0.0685
 8501SOL    HW137136   4.346   4.136   6.476  1.4862 -0.9008 -0.4304
 8501SOL    HW237137   4.297   4.231   6.372  0.3679 -1.0634 -1.6618
 8502SOL     OW37138   0.618   3.806  17.162  0.0787  0.4495  0.4214
 8502SOL    HW137139   0.560   3.876  17.190  2.9491  2.9462  0.1671
 8502SOL    HW237140   0.698   3.859  17.164  1.5923 -1.7560 -0.4652
 8503SOL     OW37141   3.689   3.474  11.976 -0.3457 -0.1588 -0.6532
 8503SOL    HW137142   3.689   3.390  11.930 -3.0644  0.4696 -1.7908
 8503SOL    HW237143   3.784   3.483  11.984 -0.3415 -2.8151  2.0255
 8504SOL     OW37144   0.101   2.045   0.585 -0.2465  0.0826  1.0992
 8504SOL    HW137145   0.133   2.028   0.673 -0.0042 -0.1510  0.9662
 8504SOL    HW237146   0.060   2.129   0.607  0.4834  1.1715 -1.7137
 8505SOL     OW37147   1.540   1.086   9.257  0.5627 -0.2695 -0.2812
 8505SOL    HW137148   1.489   1.008   9.234 -0.7885  0.7995 -0.8673
 8505SOL    HW237149   1.573   1.107   9.170 -1.0679 -1.1123 -1.1022
 8506SOL     OW37150   3.348   4.268   8.978  0.0354  0.2068  0.7683
 8506SOL    HW137151   3.409   4.205   9.017  0.3410  0.4696  0.7138
 8506SOL    HW237152   3.396   4.286   8.897  1.6635 -0.4493  1.5777
 8507SOL     OW37153   4.663   2.691   3.249 -0.7282  0.5786 -0.0860
 8507SOL    HW137154   0.014   2.703   3.210 -1.5602  0.4856 -1.9622
 8507SOL    HW237155   4.693   2.717   3.336 -1.7443  0.2614  0.3649
 8508SOL     OW37156   1.919   0.225   2.026 -0.0271 -0.2423 -0.2193
 8508SOL    HW137157   1.923   0.130   2.034  0.2173 -0.3341 -1.3733
 8508SOL    HW237158   1.827   0.247   2.011  0.4633  2.1195  0.3322
 8509SOL     OW37159   2.821   1.108   9.389  0.1533  0.0085  0.3847
 8509SOL    HW137160   2.730   1.118   9.363  0.3823 -1.1299 -0.8956
 8509SOL    HW237161   2.860   1.120   9.303  0.9642 -0.8887  0.6300
 8510SOL     OW37162   4.058   3.654   8.183  0.4010 -0.3236 -0.4369
 8510SOL    HW137163   4.023   3.587   8.241 -0.9764  0.0501 -0.8475
 8510SOL    HW237164   4.149   3.646   8.214 -0.1303  0.0098  1.2195
 8511SOL     OW37165   0.012   4.391   9.819  0.0949 -0.1708 -0.1793
 8511SOL    HW137166   4.683   4.441   9.768 -0.2702 -1.6729 -1.1919
 8511SOL    HW237167   4.698   4.370   9.898 -0.0252  1.3627  0.1529
 8512SOL     OW37168   3.666   0.946   1.782  0.1762  0.3175  0.0883
 8512SOL    HW137169   3.709   0.991   1.709  0.8090 -2.4857 -1.2918
 8512SOL    HW237170   3.678   0.853   1.762  2.5905  0.7967 -0.6499
 8513SOL     OW37171   0.934   4.386   8.039  0.4095 -0.2277  0.4363
 8513SOL    HW137172   1.015   4.438   8.041 -0.3329  0.9659 -0.7504
 8513SOL    HW237173   0.964   4.295   8.045 -1.8246 -0.9726  0.2488
 8514SOL     OW37174   2.186   3.726  15.995 -0.2566  0.1490  0.8217
 8514SOL    HW137175   2.228   3.688  15.918  2.3699  0.0280  2.3269
 8514SOL    HW237176   2.207   3.815  15.969  0.4843 -0.1377  0.4521
 8515SOL     OW37177   1.939   0.525  17.202 -0.4659  0.2760  0.4201
 8515SOL    HW137178   1.843   0.522  17.204 -0.4924  1.5226  0.9740
 8515SOL    HW237179   1.961   0.446  17.153  3.0657  1.6118 -0.1760
 8516SOL     OW37180   0.253   2.390  14.339  0.2979  0.0999  1.2213
 8516SOL    HW137181   0.289   2.419  14.256 -0.3592  0.6756  1.1390
 8516SOL    HW237182   0.319   2.328  14.371  1.0510  1.8499  3.0142
 8517SOL     OW37183   4.265   0.627   5.800 -0.2094 -0.0853 -0.3594
 8517SOL    HW137184   4.355   0.595   5.793 -1.0661 -2.2775 -1.3255
 8517SOL    HW237185   4.207   0.553   5.786 -0.3566 -0.0634  0.1148
 8518SOL     OW37186   2.555   2.268   6.346  0.4682 -0.1819 -0.3543
 8518SOL    HW137187   2.494   2.237   6.414 -0.8061 -1.2936 -1.9879
 8518SOL    HW237188   2.564   2.198   6.282  1.1390 -2.5719  2.3621
 8519SOL     OW37189   1.073   4.629  17.405 -0.1843 -0.1111 -0.0988
 8519SOL    HW137190   1.111   4.544  17.428 -1.1448  0.0727  2.1426
 8519SOL    HW237191   1.028   4.642  17.488 -0.5420 -1.3170 -0.0938
 8520SOL     OW37192   0.092   4.303   3.746  0.0897 -0.0941 -0.0547
 8520SOL    HW137193   0.173   4.305   3.695  0.7392 -1.4821  0.9205
 8520SOL    HW237194   0.048   4.232   3.700 -0.7496 -0.1440  0.8338
 8521SOL     OW37195   3.575   1.559  13.647  0.4768  0.5972  0.0118
 8521SOL    HW137196   3.630   1.624  13.691 -0.0863  2.0093 -1.3765
 8521SOL    HW237197   3.631   1.526  13.577  3.9386 -0.2415  3.1824
 8522SOL     OW37198   2.050   1.073   7.526  0.4406  0.2040 -0.3522
 8522SOL    HW137199   2.131   1.062   7.476  0.0650 -0.0432 -0.9070
 8522SOL    HW237200   2.020   1.160   7.497 -0.1766  0.6034  1.4496
 8523SOL     OW37201   2.966   0.194   4.812 -0.0749 -0.2941 -0.3047
 8523SOL    HW137202   2.986   0.214   4.904 -0.0404  0.1034 -0.4004
 8523SOL    HW237203   3.040   0.225   4.760 -0.4037 -0.8603 -1.1058
 8524SOL     OW37204   3.127   2.166   6.294  0.3032 -0.3574 -0.3538
 8524SOL    HW137205   3.065   2.230   6.328  1.7060 -0.2118  1.8941
 8524SOL    HW237206   3.164   2.128   6.373  1.0533  2.1429  0.5027
 8525SOL     OW37207   0.826   1.339   9.109 -0.2163 -0.5984  0.1555
 8525SOL    HW137208   0.732   1.331   9.093  0.1275 -1.1223 -1.5978
 8525SOL    HW237209   0.836   1.335   9.204  0.2338 -0.5917  0.1064
 8526SOL     OW37210   3.453   4.122   0.922  0.2502 -0.4954 -0.0128
 8526SOL    HW137211   3.428   4.213   0.911 -0.0155 -0.6334 -0.5407
 8526SOL    HW237212   3.421   4.096   1.009 -1.6664  0.7106 -0.3699
 8527SOL     OW37213   0.058   2.526  14.767 -0.6273 -0.2882 -0.4189
 8527SOL    HW137214   0.112   2.452  14.740  0.1417 -0.5619  1.8167
 8527SOL    HW237215   0.019   2.558  14.686  2.3567  1.7713 -1.0484
 8528SOL     OW37216   0.490   1.710   1.289  0.0143 -0.1969 -0.3354
 8528SOL    HW137217   0.562   1.749   1.239  0.2315 -0.5662 -0.3082
 8528SOL    HW237218   0.511   1.747   1.374  0.9987  0.3435 -0.8091
 8529SOL     OW37219   0.167   4.629   3.515 -0.0431 -0.0636 -0.0465
 8529SOL    HW137220   0.104   4.607   3.446 -2.7298  0.2853  2.2912
 8529SOL    HW237221   0.134   4.577   3.588  0.1962  1.1262  0.8989
 8530SOL     OW37222   2.769   2.772  17.270 -0.1606  0.4224  0.3932
 8530SOL    HW137223   2.806   2.843  17.323 -0.4226 -0.6654  2.0394
 8530SOL    HW237224   2.830   2.702  17.290 -2.5680 -1.8340 -0.1330
 8531SOL     OW37225   1.781   1.878   4.901 -0.6056 -0.0736 -0.0877
 8531SOL    HW137226   1.767   1.794   4.857 -2.0294 -0.5030  1.2073
 8531SOL    HW237227   1.836   1.917   4.833 -0.7003 -0.4778 -0.3981
 8532SOL     OW37228   4.481   4.108   1.310 -0.8795  0.2070 -0.0475
 8532SOL    HW137229   4.548   4.040   1.302 -0.7730  0.4744 -1.3104
 8532SOL    HW237230   4.534   4.185   1.332  1.2657 -0.3935 -3.0293
 8533SOL     OW37231   4.716   3.719   8.427 -0.1415 -0.2863 -0.3681
 8533SOL    HW137232   0.003   3.626   8.433 -0.5512 -0.3334  0.6588
 8533SOL    HW237233   0.063   3.749   8.392 -1.4598  2.1929 -1.3339
 8534SOL     OW37234   3.278   2.453   2.427  0.3789  0.1571  0.2087
 8534SOL    HW137235   3.337   2.430   2.500  1.3094 -1.3288 -1.0118
 8534SOL    HW237236   3.273   2.545   2.455 -0.1072  0.3275 -0.4417
 8535SOL     OW37237   3.901   0.332   2.533  0.1215  0.2291 -0.6634
 8535SOL    HW137238   3.838   0.261   2.544 -1.0867  1.3986 -0.1026
 8535SOL    HW237239   3.956   0.337   2.611 -0.2515  2.1915 -0.5352
 8536SOL     OW37240   2.940   3.062   7.494 -0.4530 -0.0141 -0.3557
 8536SOL    HW137241   2.988   3.130   7.540 -0.7675  0.6640 -1.0243
 8536SOL    HW237242   2.859   3.108   7.473 -0.2432  0.5555  0.1038
 8537SOL     OW37243   4.587   0.858   9.888 -0.2148 -0.1023  0.2299
 8537SOL    HW137244   4.572   0.764   9.877 -2.6212  0.2809  0.0783
 8537SOL    HW237245   4.587   0.879   9.795  0.0871  1.2367  0.5291
 8538SOL     OW37246   0.579   4.023  11.197 -0.2850 -0.0421  0.2449
 8538SOL    HW137247   0.535   4.101  11.165 -0.1232 -0.2192 -0.4119
 8538SOL    HW237248   0.591   4.052  11.288 -2.1367  1.9622 -0.1585
 8539SOL     OW37249   1.901   4.188   2.388 -0.3879 -0.3034 -0.1570
 8539SOL    HW137250   1.930   4.108   2.345 -1.9067 -1.2741  0.6118
 8539SOL    HW237251   1.940   4.252   2.329  0.4382 -0.0605  0.6540
 8540SOL     OW37252   1.820   2.644   4.637  0.5856  0.4431  0.2800
 8540SOL    HW137253   1.781   2.558   4.657 -0.0324  0.3857 -1.1960
 8540SOL    HW237254   1.748   2.685   4.589  0.5796 -3.0459 -2.6927
 8541SOL     OW37255   1.708   1.763  12.298 -0.3434 -0.4993 -0.1927
 8541SOL    HW137256   1.709   1.790  12.390  0.5874 -0.8947 -0.0909
 8541SOL    HW237257   1.634   1.814  12.264 -0.2541 -0.2687 -0.0454
 8542SOL     OW37258   2.056   1.906   1.585  0.1330 -0.1052 -0.0800
 8542SOL    HW137259   2.048   1.944   1.673 -0.7327 -1.6900  0.5265
 8542SOL    HW237260   2.017   1.819   1.597 -1.7237  0.6970 -0.3619
 8543SOL     OW37261   2.613   1.174  16.081  0.3746  0.9001 -0.4360
 8543SOL    HW137262   2.679   1.202  16.018 -0.1810 -0.7909 -1.7580
 8543SOL    HW237263   2.537   1.197  16.028  1.3088  2.2672 -1.1842
 8544SOL     OW37264   3.900   1.170   7.279 -0.1773 -0.4971 -0.2638
 8544SOL    HW137265   3.987   1.176   7.241 -0.5622 -0.4072 -1.1373
 8544SOL    HW237266   3.860   1.244   7.231  1.0840  0.2177 -0.2049
 8545SOL     OW37267   0.675   1.030   1.676 -0.1914 -0.0036 -0.5355
 8545SOL    HW137268   0.653   1.037   1.769  0.8300 -1.7812 -0.1704
 8545SOL    HW237269   0.668   1.123   1.657  0.9651 -0.0196 -1.0395
 8546SOL     OW37270   3.668   0.945   6.073  0.2352  0.1902 -0.3773
 8546SOL    HW137271   3.681   1.015   6.136 -0.8720  0.2716 -0.2427
 8546SOL    HW237272   3.761   0.929   6.056 -0.4178 -0.0705 -3.8237
 8547SOL     OW37273   4.051   0.658   7.994  0.4039  0.5702 -0.0226
 8547SOL    HW137274   3.959   0.635   7.999  0.7684 -0.6154  1.2882
 8547SOL    HW237275   4.035   0.730   8.055 -0.0879  1.1234 -0.8071
 8548SOL     OW37276   3.126   4.576  14.090 -0.1060 -0.2538 -0.1334
 8548SOL    HW137277   3.175   4.647  14.050 -0.3267  1.3811  2.4417
 8548SOL    HW237278   3.151   4.500  14.038  0.1874 -1.8014  2.2306
 8549SOL     OW37279   1.154   2.526   2.634  0.1048 -0.7231  0.8814
 8549SOL    HW137280   1.180   2.610   2.672  0.9352 -1.1033  1.1387
 8549SOL    HW237281   1.182   2.539   2.543 -0.5367 -0.2289  0.7470
 8550SOL     OW37282   3.631   2.212   1.748  0.0950 -0.1535 -0.5477
 8550SOL    HW137283   3.642   2.301   1.782 -2.4481  1.0501 -2.9398
 8550SOL    HW237284   3.643   2.156   1.825  2.1586 -0.0420 -0.7877
 8551SOL     OW37285   1.950   1.432   9.616  0.4694  0.3845  0.0972
 8551SOL    HW137286   1.908   1.356   9.575  0.1358  0.7208 -0.1820
 8551SOL    HW237287   1.877   1.493   9.620 -0.1594 -0.2833 -1.2137
 8552SOL     OW37288   3.865   3.147   2.393 -0.0213 -0.4695 -0.2404
 8552SOL    HW137289   3.874   3.233   2.352  0.0784 -0.9225 -1.1739
 8552SOL    HW237290   3.886   3.099   2.313 -1.2101 -2.5684  0.7062
 8553SOL     OW37291   1.696   3.067  13.218 -0.5574 -0.8126 -0.0642
 8553SOL    HW137292   1.669   3.153  13.251  1.4084 -0.4646  0.6556
 8553SOL    HW237293   1.753   3.089  13.144 -1.2938 -1.6467 -0.8748
 8554SOL     OW37294   4.699   3.954  12.243 -0.2662  0.3106 -0.3403
 8554SOL    HW137295   4.701   3.967  12.337  0.3048 -1.9752 -0.0495
 8554SOL    HW237296   4.637   4.016  12.204 -0.6820 -1.2595 -2.1797
 8555SOL     OW37297   4.618   1.657   6.705 -0.3512 -0.4391 -0.4900
 8555SOL    HW137298   4.670   1.646   6.785 -0.2793 -0.6805 -0.5698
 8555SOL    HW237299   4.647   1.588   6.646 -2.2053 -1.4316 -0.2605
 8556SOL     OW37300   2.987   2.241   9.582  0.2796  0.2637  0.7431
 8556SOL    HW137301   3.018   2.332   9.586  1.8807 -0.3136  1.6164
 8556SOL    HW237302   2.954   2.225   9.670 -1.4063 -0.6228 -0.0362
 8557SOL     OW37303   1.003   3.129   2.573 -0.0229  0.3976 -0.0985
 8557SOL    HW137304   1.064   3.146   2.645  1.2891 -0.8325 -0.9404
 8557SOL    HW237305   0.960   3.215   2.575  0.0536  0.3986  1.3400
 8558SOL     OW37306   3.258   1.849   5.828  0.1157 -0.1565 -0.1715
 8558SOL    HW137307   3.286   1.773   5.880 -0.1661 -0.8966 -1.1065
 8558SOL    HW237308   3.338   1.900   5.816  0.4254 -0.5387  0.2761
 8559SOL     OW37309   4.268   1.719  10.797  0.0092  0.5186  0.8506
 8559SOL    HW137310   4.177   1.731  10.770  0.6629 -0.3291 -1.7658
 8559SOL    HW237311   4.269   1.635  10.842 -2.2029 -0.1771 -0.3816
 8560SOL     OW37312   3.174   1.444   2.303  0.2459  0.0326 -0.3155
 8560SOL    HW137313   3.089   1.403   2.286 -0.1290 -0.1013  1.9112
 8560SOL    HW237314   3.172   1.515   2.238  2.5195 -0.2543 -0.7035
 8561SOL     OW37315   0.952   2.467   4.287  0.2388  0.1187  0.3695
 8561SOL    HW137316   1.040   2.472   4.250 -0.4804 -0.2736 -1.4090
 8561SOL    HW237317   0.910   2.536   4.235  0.7009 -0.6302 -0.9988
 8562SOL     OW37318   0.661   2.007   5.192  0.6322 -0.2711 -0.3083
 8562SOL    HW137319   0.695   1.922   5.220  0.1737 -0.6123 -0.7862
 8562SOL    HW237320   0.675   2.001   5.097  1.7061 -1.4700 -0.0654
 8563SOL     OW37321   3.334   3.306   7.389 -0.1224  0.7954  0.2086
 8563SOL    HW137322   3.291   3.368   7.330  0.5829 -0.1173 -1.2511
 8563SOL    HW237323   3.299   3.224   7.355 -2.2110  1.3078  1.1489
 8564SOL     OW37324   0.956   0.897  14.280 -0.6486 -0.0067  0.1146
 8564SOL    HW137325   0.881   0.877  14.225 -1.9838 -1.3525  2.4047
 8564SOL    HW237326   0.965   0.807  14.312 -0.9650 -0.1683 -0.2533
 8565SOL     OW37327   3.892   3.534   5.151  0.3851 -0.0564  0.3857
 8565SOL    HW137328   3.834   3.507   5.222  2.5741 -1.5215  1.5934
 8565SOL    HW237329   3.923   3.615   5.191  0.5678  0.0232  0.0810
 8566SOL     OW37330   1.692   4.476   4.087 -0.0243 -0.1605  0.0596
 8566SOL    HW137331   1.609   4.476   4.135 -0.7039 -0.3238 -1.1416
 8566SOL    HW237332   1.745   4.426   4.150  0.0089  0.5402  0.5924
 8567SOL     OW37333   0.833   1.040   4.198 -0.0206 -0.0170  0.2377
 8567SOL    HW137334   0.923   1.046   4.229  0.4289  3.8887 -1.9099
 8567SOL    HW237335   0.846   0.979   4.125  1.2198  0.9978 -0.3860
 8568SOL     OW37336   3.916   1.144  16.407 -0.7303  0.2452  0.3898
 8568SOL    HW137337   3.875   1.077  16.461 -1.2975 -0.0766 -0.4469
 8568SOL    HW237338   3.842   1.185  16.362 -1.1391 -1.6757 -0.7052
 8569SOL     OW37339   2.182   0.662   5.665 -0.1660  0.3603  0.5213
 8569SOL    HW137340   2.165   0.616   5.582  2.2235  3.0756 -1.4791
 8569SOL    HW237341   2.210   0.588   5.719  2.8569  0.7470 -0.5312
 8570SOL     OW37342   1.305   4.517   2.722 -0.1822  0.4913 -0.3682
 8570SOL    HW137343   1.299   4.436   2.672 -0.4004 -0.6778  1.5620
 8570SOL    HW237344   1.218   4.524   2.759  0.0419  0.3076  0.1900
 8571SOL     OW37345   3.576   4.330   9.609  0.3389  0.2666  0.4600
 8571SOL    HW137346   3.670   4.340   9.622  0.5259  0.5314 -1.0584
 8571SOL    HW237347   3.558   4.424   9.618  0.5483  0.2953  0.5693
 8572SOL     OW37348   1.081   1.745   4.679  0.8682 -0.4039 -0.2662
 8572SOL    HW137349   0.996   1.787   4.670  0.7447 -1.1341 -2.4201
 8572SOL    HW237350   1.052   1.654   4.685  3.1355 -0.8552  3.8098
 8573SOL     OW37351   3.635   2.642   7.971  0.1809  0.3155  0.1577
 8573SOL    HW137352   3.584   2.674   7.897 -0.2328  1.1392  0.7978
 8573SOL    HW237353   3.634   2.550   7.946  0.3331  0.4896 -0.4689
 8574SOL     OW37354   0.751   2.720   7.659 -0.1195  0.4397 -0.2122
 8574SOL    HW137355   0.722   2.641   7.614  1.7921  0.1046 -0.8438
 8574SOL    HW237356   0.684   2.725   7.727 -0.6503 -2.5042 -0.5479
 8575SOL     OW37357   2.116   2.084   5.038 -0.3499 -0.0296  0.1695
 8575SOL    HW137358   2.027   2.070   5.072 -0.3094 -0.6389  0.0231
 8575SOL    HW237359   2.108   2.037   4.954  0.4083  3.7615 -2.0126
 8576SOL     OW37360   3.044   3.599   2.401 -0.2091 -0.3548  0.2576
 8576SOL    HW137361   3.009   3.571   2.316 -0.0627 -1.0273  0.4206
 8576SOL    HW237362   3.021   3.531   2.464  0.7576  0.3772  1.4035
 8577SOL     OW37363   2.160   0.017   3.176  0.3552  0.2116  0.0275
 8577SOL    HW137364   2.164   0.089   3.112 -0.0434  1.5455  1.5046
 8577SOL    HW237365   2.131   4.680   3.121 -1.5174  2.1054 -1.4974
 8578SOL     OW37366   1.639   2.675   6.963  0.6093  0.2506 -0.4300
 8578SOL    HW137367   1.701   2.624   7.014  1.4944  1.2373 -0.5121
 8578SOL    HW237368   1.683   2.682   6.879  0.5669 -0.1948 -0.4896
 8579SOL     OW37369   0.796   1.730   9.675 -0.4627  0.2834 -0.2102
 8579SOL    HW137370   0.842   1.647   9.692 -1.9913 -0.1285  1.8089
 8579SOL    HW237371   0.809   1.724   9.580  3.0626 -1.9149  0.4093
 8580SOL     OW37372   3.630   1.143   5.611  0.4041 -0.2206 -0.3508
 8580SOL    HW137373   3.712   1.096   5.624  0.6514  1.3384  3.8791
 8580SOL    HW237374   3.580   1.118   5.690  2.8438 -2.5767  0.4341
 8581SOL     OW37375   2.096   2.589   5.117  0.1351 -0.8522 -0.4380
 8581SOL    HW137376   2.137   2.609   5.032 -0.7007 -2.6326 -1.2628
 8581SOL    HW237377   2.099   2.493   5.116 -2.1062 -0.9177  0.8836
 8582SOL     OW37378   3.524   4.267   4.069 -0.4602 -0.5650 -0.3518
 8582SOL    HW137379   3.491   4.356   4.055  1.3676 -0.0953 -1.5862
 8582SOL    HW237380   3.454   4.227   4.120  0.7937 -0.4233  1.4767
 8583SOL     OW37381   1.024   1.709  16.860 -0.0700 -0.4573 -0.3045
 8583SOL    HW137382   0.993   1.738  16.774  0.5217 -1.0706 -0.7189
 8583SOL    HW237383   0.961   1.644  16.890 -0.9950  1.4550  1.9466
 8584SOL     OW37384   3.932   1.452   4.067  0.1147  0.1238  0.5368
 8584SOL    HW137385   3.895   1.540   4.066  0.1965  0.1351 -1.0841
 8584SOL    HW237386   3.860   1.393   4.088 -1.1243  0.7800 -1.8781
 8585SOL     OW37387   1.588   2.755  15.148  0.0121 -0.4352  0.1081
 8585SOL    HW137388   1.583   2.724  15.239 -1.6009 -1.7513 -0.4265
 8585SOL    HW237389   1.590   2.672  15.101 -0.9801 -0.0257 -0.6463
 8586SOL     OW37390   4.670   1.690   9.424 -0.1745 -0.1872  0.0422
 8586SOL    HW137391   4.606   1.644   9.370  2.1482 -0.4023 -2.5368
 8586SOL    HW237392   4.636   1.679   9.512 -0.3697 -0.5110 -0.0734
 8587SOL     OW37393   4.019   1.620  15.283  0.4316  0.0093 -0.0814
 8587SOL    HW137394   4.093   1.668  15.320  1.2123 -0.0469 -1.5649
 8587SOL    HW237395   3.949   1.683  15.298  0.1171 -0.6046  1.0135
 8588SOL     OW37396   3.458   0.356  16.276 -0.4764  0.0070 -0.2004
 8588SOL    HW137397   3.541   0.338  16.321 -0.5708  2.6299  1.0295
 8588SOL    HW237398   3.477   0.428  16.216  2.2788 -2.4519 -2.2739
 8589SOL     OW37399   1.640   2.428   7.454 -0.2355 -0.2126  0.2059
 8589SOL    HW137400   1.605   2.501   7.506 -3.7349 -0.3107 -1.9899
 8589SOL    HW237401   1.626   2.353   7.512  0.1323 -1.4821 -1.3514
 8590SOL     OW37402   3.630   0.747   1.308 -0.4888  0.0264  0.7565
 8590SOL    HW137403   3.561   0.810   1.331 -1.6838 -0.5583 -1.2172
 8590SOL    HW237404   3.602   0.718   1.221 -0.1564 -1.8207  1.2619
 8591SOL     OW37405   4.272   2.564   7.031 -0.4084 -0.2228  0.1351
 8591SOL    HW137406   4.200   2.509   7.063 -1.2628  0.2416 -0.9732
 8591SOL    HW237407   4.235   2.653   7.037  1.9549  0.5887  2.6230
 8592SOL     OW37408   0.910   0.071   6.845 -0.1514  0.2078 -0.2712
 8592SOL    HW137409   0.994   0.115   6.829 -0.6969  0.7060 -1.7416
 8592SOL    HW237410   0.858   0.128   6.789  0.9262  1.0302 -0.4432
 8593SOL     OW37411   1.262   0.357   2.848  0.5366  0.1956 -0.3784
 8593SOL    HW137412   1.318   0.363   2.771  0.9394 -1.7131 -0.2402
 8593SOL    HW237413   1.227   0.269   2.833  2.2316 -0.8183  1.5461
 8594SOL     OW37414   4.078   4.032  10.262  0.4496 -0.5230  0.0939
 8594SOL    HW137415   4.018   4.051  10.190 -2.5044  0.7157  2.8701
 8594SOL    HW237416   4.034   4.078  10.333 -0.3374 -0.5865 -0.3523
 8595SOL     OW37417   2.188   1.742  15.991 -0.1475 -0.0557  0.6147
 8595SOL    HW137418   2.259   1.735  15.927 -0.9305  2.1785 -0.4775
 8595SOL    HW237419   2.133   1.677  15.946 -0.8192  1.0619 -0.1768
 8596SOL     OW37420   0.320   2.153   3.312  0.1464 -0.6283  0.3022
 8596SOL    HW137421   0.266   2.193   3.244  0.3674  0.6328  0.8690
 8596SOL    HW237422   0.402   2.200   3.299 -0.6714  0.5458 -0.5411
 8597SOL     OW37423   1.049   4.384   2.979  0.0135 -0.1431 -0.4630
 8597SOL    HW137424   1.117   4.319   2.997  0.8238  0.7315 -0.3920
 8597SOL    HW237425   1.045   4.425   3.065 -1.0531  1.2870 -1.1964
 8598SOL     OW37426   1.332   1.160   3.434  0.0061  1.1976 -0.0738
 8598SOL    HW137427   1.365   1.194   3.351 -0.6731 -0.8511 -1.1764
 8598SOL    HW237428   1.415   1.143   3.479 -0.5990 -1.0469  0.2237
 8599SOL     OW37429   3.462   1.766   2.268  0.0296 -0.2493  0.2930
 8599SOL    HW137430   3.405   1.843   2.260  1.8883  0.9390 -1.3892
 8599SOL    HW237431   3.547   1.802   2.291 -1.1735  1.3883  2.2050
 8600SOL     OW37432   1.477   0.379  11.517  0.1012  0.4706  0.4143
 8600SOL    HW137433   1.561   0.353  11.478  0.7574  2.5142  0.4870
 8600SOL    HW237434   1.464   0.462  11.472 -0.1149 -0.8480 -1.9779
 8601SOL     OW37435   2.035   1.485   9.145 -0.1630  0.5437  0.2356
 8601SOL    HW137436   2.090   1.508   9.221 -0.4107  0.3211  0.4819
 8601SOL    HW237437   2.090   1.520   9.075  1.8549 -0.2277  1.4392
 8602SOL     OW37438   0.186   0.456  10.465  0.4040  0.7800  0.0515
 8602SOL    HW137439   0.190   0.446  10.370 -0.7493  1.7009 -0.0788
 8602SOL    HW237440   0.226   0.542  10.472  0.8044  0.6499 -0.5879
 8603SOL     OW37441   2.688   4.461  11.636 -0.3989 -0.0591  0.3361
 8603SOL    HW137442   2.691   4.515  11.715 -0.1763 -0.2094  0.4320
 8603SOL    HW237443   2.751   4.510  11.582 -0.6389 -0.5005 -0.3537
 8604SOL     OW37444   0.585   1.968  16.730 -0.3264 -0.4034  0.1464
 8604SOL    HW137445   0.651   1.937  16.668 -0.2401 -0.5069  0.2911
 8604SOL    HW237446   0.512   1.978  16.669 -1.2554 -0.7540  1.2111
 8605SOL     OW37447   3.993   2.566   4.219 -0.2499 -0.1073 -0.0340
 8605SOL    HW137448   3.976   2.581   4.126  3.2441 -0.4754 -0.7398
 8605SOL    HW237449   3.905   2.537   4.242 -0.6543 -0.2349 -1.7971
 8606SOL     OW37450   1.566   2.304   3.092  0.0860 -0.5921  0.1833
 8606SOL    HW137451   1.476   2.324   3.066  1.0271 -0.5700 -3.0775
 8606SOL    HW237452   1.580   2.381   3.147 -0.8991  0.4186 -1.0011
 8607SOL     OW37453   4.718   4.165   1.086  0.2234 -0.3514 -0.5323
 8607SOL    HW137454   4.721   4.149   1.180  0.8437  1.2171 -0.2790
 8607SOL    HW237455   4.731   4.260   1.088  1.8966 -0.6208  1.5282
 8608SOL     OW37456   3.197   3.140   7.885  0.1550  0.2411  0.1046
 8608SOL    HW137457   3.135   3.092   7.940  2.5466 -2.1174  0.8037
 8608SOL    HW237458   3.144   3.141   7.805  0.4522  1.6878 -0.0650
 8609SOL     OW37459   4.640   4.484   3.841  0.2161  0.6433  0.2155
 8609SOL    HW137460   4.688   4.560   3.875  1.1109 -0.9905  2.5611
 8609SOL    HW237461   4.712   4.440   3.798 -3.2605 -3.8404 -0.9905
 8610SOL     OW37462   2.311   3.232  14.396  0.2521 -0.4840  0.1912
 8610SOL    HW137463   2.364   3.152  14.399  0.1533 -0.6121 -1.2578
 8610SOL    HW237464   2.237   3.203  14.343 -1.1653  1.0343  1.3488
 8611SOL     OW37465   4.251   3.974   5.050 -0.4022 -0.0295  0.0948
 8611SOL    HW137466   4.164   4.008   5.030  0.6563  0.7616 -3.1080
 8611SOL    HW237467   4.275   3.934   4.967  0.4183 -1.9390  1.2390
 8612SOL     OW37468   3.577   0.426  14.172 -0.4303  0.0259 -0.1532
 8612SOL    HW137469   3.568   0.369  14.095  0.3586  1.2803 -1.1780
 8612SOL    HW237470   3.618   0.500  14.128 -1.3630  0.2032 -0.7040
 8613SOL     OW37471   3.035   2.742  11.101  0.3137 -0.1704 -0.1347
 8613SOL    HW137472   3.117   2.753  11.052  0.0651 -2.6835 -1.1126
 8613SOL    HW237473   2.988   2.670  11.060 -0.6923  0.6834 -0.4852
 8614SOL     OW37474   0.146   3.606   6.134 -0.1119  0.3489  0.0156
 8614SOL    HW137475   0.224   3.565   6.096 -0.5676 -0.8765  0.4035
 8614SOL    HW237476   0.158   3.599   6.228 -0.0652  1.9246  0.1380
 8615SOL     OW37477   3.479   4.494   5.029 -0.0181  0.4032 -0.1785
 8615SOL    HW137478   3.429   4.570   4.999  1.6231  0.7334 -2.1021
 8615SOL    HW237479   3.434   4.474   5.111  1.4522 -1.2494  0.2202
 8616SOL     OW37480   1.802   3.937  14.617 -0.1842 -0.1530 -0.3502
 8616SOL    HW137481   1.735   3.929  14.685  0.8607 -0.3111  0.6523
 8616SOL    HW237482   1.868   3.995  14.655  0.2729  0.0621 -1.4964
 8617SOL     OW37483   2.915   4.447   3.990 -0.2981  0.1872  0.2438
 8617SOL    HW137484   2.826   4.413   3.991  0.0428 -0.7913 -1.4072
 8617SOL    HW237485   2.936   4.434   3.897  3.1661  0.4334  0.9989
 8618SOL     OW37486   3.279   1.498   4.402 -0.5193  0.4114 -0.2945
 8618SOL    HW137487   3.246   1.462   4.484  2.2326  0.0834  0.6790
 8618SOL    HW237488   3.310   1.420   4.357 -3.7843 -0.6803 -0.6067
 8619SOL     OW37489   1.973   3.424   0.576 -0.0766 -0.2672 -0.0937
 8619SOL    HW137490   1.901   3.442   0.515  1.0818 -1.0215 -1.6925
 8619SOL    HW237491   1.950   3.504   0.623  2.4371 -2.7738  5.3447
 8620SOL     OW37492   1.218   1.731   6.739 -0.7571 -0.4677  0.2207
 8620SOL    HW137493   1.152   1.662   6.735 -0.2818 -0.9576  0.8329
 8620SOL    HW237494   1.265   1.730   6.655 -0.8333  2.7776  0.1714
 8621SOL     OW37495   1.796   3.628  17.533 -0.6904  0.4480  0.4881
 8621SOL    HW137496   1.802   3.576  17.453  0.4603 -1.5041  1.8492
 8621SOL    HW237497   1.837   3.561  17.587 -0.1216  0.7911  0.4792
 8622SOL     OW37498   1.974   4.622   7.948  0.2688 -0.1792 -0.6773
 8622SOL    HW137499   1.980   4.531   7.922  2.0022  0.0642 -1.1429
 8622SOL    HW237500   1.908   4.653   7.887 -1.2189 -0.0716  0.9820
 8623SOL     OW37501   0.604   2.908  16.015 -0.7440  0.2903  0.1047
 8623SOL    HW137502   0.675   2.883  15.957  0.1904  2.6916  0.1831
 8623SOL    HW237503   0.537   2.948  15.959 -0.7701  0.3776  0.1975
 8624SOL     OW37504   2.767   3.821  10.612 -0.2730  0.3774  0.4473
 8624SOL    HW137505   2.680   3.816  10.649  0.1879  0.1802  1.4875
 8624SOL    HW237506   2.822   3.822  10.690  1.7953  0.0468 -1.0061
 8625SOL     OW37507   3.209   4.126   2.577  0.2642  0.1305  0.0624
 8625SOL    HW137508   3.223   4.034   2.598  0.4045  0.3649  1.0242
 8625SOL    HW237509   3.138   4.138   2.640 -0.4879  0.1337 -0.7987
 8626SOL     OW37510   2.366   2.117   6.722 -0.1120  0.0915  0.1698
 8626SOL    HW137511   2.361   2.104   6.627  0.8777  0.1116  0.1113
 8626SOL    HW237512   2.460   2.122   6.740  0.1859  1.3272 -1.7525
 8627SOL     OW37513   0.747   4.691   1.962  0.3192  0.0429  0.6182
 8627SOL    HW137514   0.676   4.649   1.914 -0.5930  1.2611  0.8766
 8627SOL    HW237515   0.704   0.036   1.992 -1.0123 -0.4770  0.1365
 8628SOL     OW37516   0.941   2.440   2.762  0.8145 -0.2596  0.6295
 8628SOL    HW137517   1.013   2.451   2.700 -1.5295  2.6444 -1.5203
 8628SOL    HW237518   0.871   2.441   2.698  1.8462  0.3665 -0.4771
 8629SOL     OW37519   2.970   1.065   1.516  0.1846 -0.4267  0.0052
 8629SOL    HW137520   3.020   1.099   1.590  0.2711  2.1445 -1.2554
 8629SOL    HW237521   3.040   1.065   1.451  0.4978  1.6112  0.3437
 8630SOL     OW37522   3.948   2.994   7.414 -0.7333 -0.2898 -0.0089
 8630SOL    HW137523   3.992   2.977   7.330  0.3341 -0.4826  0.5811
 8630SOL    HW237524   3.896   2.915   7.412 -3.2415  1.3055  2.6492
 8631SOL     OW37525   1.597   2.265   7.662  0.0855 -0.3176  0.8354
 8631SOL    HW137526   1.564   2.317   7.736  0.5799  0.3895  0.5630
 8631SOL    HW237527   1.685   2.237   7.686 -0.4615 -2.0248  0.8050
 8632SOL     OW37528   2.628   3.623   2.116  0.2411  0.1879 -0.2056
 8632SOL    HW137529   2.595   3.712   2.107  1.5190  0.5789 -1.0776
 8632SOL    HW237530   2.552   3.566   2.106 -0.6883  1.7814 -2.1641
 8633SOL     OW37531   3.931   1.586   1.582 -0.6070 -0.5388 -0.1895
 8633SOL    HW137532   3.936   1.497   1.615 -0.7529 -0.1957  0.7666
 8633SOL    HW237533   4.015   1.618   1.613 -0.6349 -0.9490  0.3021
 8634SOL     OW37534   0.971   2.805   8.490  0.4658 -0.2204 -0.1841
 8634SOL    HW137535   0.974   2.890   8.532  0.4841  0.5624 -1.7673
 8634SOL    HW237536   1.062   2.775   8.492  0.9502  1.2402 -0.3381
 8635SOL     OW37537   0.353   2.776  14.848 -0.0000  0.3628  0.0174
 8635SOL    HW137538   0.267   2.799  14.815 -0.3131 -1.3755 -0.3891
 8635SOL    HW237539   0.337   2.749  14.939  1.0891 -0.9235 -0.1799
 8636SOL     OW37540   0.932   1.746   7.197  0.3927  0.3258  0.0701
 8636SOL    HW137541   0.883   1.665   7.207 -0.2837  0.8889  1.2915
 8636SOL    HW237542   0.973   1.753   7.282 -0.0924  1.7864  0.1829
 8637SOL     OW37543   1.766   2.762   9.387 -0.1005  0.1453 -0.5426
 8637SOL    HW137544   1.720   2.765   9.471  1.0196 -0.7367  0.0996
 8637SOL    HW237545   1.704   2.785   9.318  1.3189  2.6448 -0.9630
 8638SOL     OW37546   4.163   0.581   9.208 -0.5403 -0.4602  0.3146
 8638SOL    HW137547   4.121   0.666   9.193 -0.6202 -0.4674  0.5093
 8638SOL    HW237548   4.234   0.581   9.272 -1.1295 -1.1751  0.9555
 8639SOL     OW37549   2.167   0.155   2.918 -0.1971 -0.0497 -0.2138
 8639SOL    HW137550   2.077   0.185   2.931 -0.7559 -1.1579 -1.5080
 8639SOL    HW237551   2.143   0.095   2.847  0.5261  0.0726 -0.5684
 8640SOL     OW37552   1.217   3.970   7.119 -0.3507  0.1416 -0.2179
 8640SOL    HW137553   1.310   3.949   7.120  0.3078  2.9853 -1.3827
 8640SOL    HW237554   1.174   3.897   7.075 -0.2463 -0.5336  0.8022
 8641SOL     OW37555   0.569   3.038   5.069 -0.6370  0.2970  0.1927
 8641SOL    HW137556   0.565   3.132   5.052  3.4032  0.2710 -0.9050
 8641SOL    HW237557   0.637   3.032   5.137  0.8527 -2.7951 -1.5761
 8642SOL     OW37558   3.744   4.166   4.245 -0.7233  0.5372 -0.1127
 8642SOL    HW137559   3.706   4.153   4.332 -1.4343  0.4924 -0.4385
 8642SOL    HW237560   3.673   4.146   4.185 -1.5158  0.6489  0.7935
 8643SOL     OW37561   2.978   2.346   1.971 -0.3006 -0.5031 -0.1061
 8643SOL    HW137562   2.935   2.382   1.894  1.7616 -0.0454 -1.0282
 8643SOL    HW237563   3.057   2.400   1.975 -0.0142 -0.9077 -0.2605
 8644SOL     OW37564   4.047   3.454   9.409  0.0366 -0.5417  0.1853
 8644SOL    HW137565   4.097   3.535   9.403 -0.7476 -0.1044 -0.5591
 8644SOL    HW237566   3.973   3.456   9.349  0.5339  1.9248 -0.3421
 8645SOL     OW37567   0.779   3.299   0.678 -0.6113  0.4663  0.1003
 8645SOL    HW137568   0.749   3.379   0.722 -0.8481  0.0115  0.7696
 8645SOL    HW237569   0.701   3.276   0.629 -0.5100  1.8306 -0.7091
 8646SOL     OW37570   0.175   3.074   7.614  0.2238  0.4038 -0.2036
 8646SOL    HW137571   0.204   2.984   7.601 -0.0634  0.2600  0.1347
 8646SOL    HW237572   0.093   3.070   7.662  0.1622 -0.8156 -0.4256
 8647SOL     OW37573   1.546   1.801   9.066 -0.3639  0.5579  0.5395
 8647SOL    HW137574   1.572   1.715   9.034 -0.0210  0.8121  0.1354
 8647SOL    HW237575   1.619   1.858   9.043  0.6178 -1.3843 -1.1155
 8648SOL     OW37576   2.180   0.495  16.544  0.2211  0.2121  0.1161
 8648SOL    HW137577   2.201   0.425  16.606  2.7899  0.7379 -0.1437
 8648SOL    HW237578   2.190   0.436  16.469  1.2929 -2.1704  2.1000
 8649SOL     OW37579   4.051   1.171   3.442 -0.3628  0.1817 -1.0127
 8649SOL    HW137580   3.976   1.111   3.445 -0.9172  0.8462 -1.5988
 8649SOL    HW237581   4.036   1.235   3.511 -0.5586  1.2897 -2.0720
 8650SOL     OW37582   2.166   4.335  14.974  0.1651  0.5738 -0.2728
 8650SOL    HW137583   2.074   4.310  14.973  0.6758 -1.3605  0.1758
 8650SOL    HW237584   2.189   4.377  14.891  1.7049  1.3490  0.5420
 8651SOL     OW37585   1.862   2.058   4.259  0.4160 -0.1742 -0.1974
 8651SOL    HW137586   1.957   2.053   4.267  0.5129 -1.6553 -2.2887
 8651SOL    HW237587   1.838   1.965   4.258  1.2820 -0.3765 -1.6716
 8652SOL     OW37588   2.368   2.485   2.936  0.3612 -0.2405  0.4601
 8652SOL    HW137589   2.302   2.533   2.886  0.5441 -0.7097 -0.2293
 8652SOL    HW237590   2.322   2.401   2.934 -0.6103  0.3334 -1.6424
 8653SOL     OW37591   0.382   4.075  10.632  0.3605 -0.3193 -0.0761
 8653SOL    HW137592   0.292   4.106  10.636 -0.1358 -1.5392 -2.4216
 8653SOL    HW237593   0.409   4.098  10.721  0.0914  0.3449 -0.1641
 8654SOL     OW37594   2.702   1.029   8.600 -0.0363  0.0907  0.2416
 8654SOL    HW137595   2.715   0.986   8.515 -0.1436  0.4619  0.0334
 8654SOL    HW237596   2.612   1.002   8.619  0.4540 -2.2492 -0.7588
 8655SOL     OW37597   4.139   2.131   3.340 -0.6072 -0.1635  0.2764
 8655SOL    HW137598   4.166   2.128   3.432 -0.6113  0.3129  0.2904
 8655SOL    HW237599   4.210   2.182   3.300 -1.2486  0.4439 -0.0796
 8656SOL     OW37600   1.991   0.983   4.738 -0.2825  0.0849 -0.8214
 8656SOL    HW137601   1.916   0.943   4.694 -1.7057  0.7111  1.0207
 8656SOL    HW237602   1.937   1.023   4.807  1.9454  0.9123  0.4489
 8657SOL     OW37603   2.659   1.913   2.263 -0.2685  0.4024  0.0892
 8657SOL    HW137604   2.679   1.971   2.336 -1.0043 -0.2234  0.7781
 8657SOL    HW237605   2.670   1.826   2.299 -0.6027 -0.2937 -1.4869
 8658SOL     OW37606   2.105   2.170  15.458  0.1502  0.5312 -0.5207
 8658SOL    HW137607   2.124   2.263  15.447 -0.0512  0.5462 -0.7371
 8658SOL    HW237608   2.178   2.132  15.506  0.9652  1.5852 -0.9390
 8659SOL     OW37609   4.295   0.849  16.323  0.6048 -0.7335 -0.5724
 8659SOL    HW137610   4.378   0.864  16.367 -0.6525  1.2755  1.1040
 8659SOL    HW237611   4.254   0.934  16.341 -0.6270 -1.5596  0.5063
 8660SOL     OW37612   3.933   0.007   4.496 -0.0819  0.6807 -0.0907
 8660SOL    HW137613   3.892   4.658   4.476  0.8109  1.0977 -3.7489
 8660SOL    HW237614   3.896   0.056   4.423 -0.7641 -0.6041 -0.6185
 8661SOL     OW37615   3.549   1.298   3.422  0.2495  0.6273 -0.7767
 8661SOL    HW137616   3.605   1.290   3.499  0.4975 -0.7566 -1.1013
 8661SOL    HW237617   3.475   1.245   3.454 -0.7745  2.6179  0.1200
 8662SOL     OW37618   3.025   3.839   4.719  0.0825 -0.6523 -0.1026
 8662SOL    HW137619   3.021   3.914   4.660 -1.3443 -1.7787 -1.4141
 8662SOL    HW237620   3.019   3.759   4.668  1.1481  0.6952 -2.3617
 8663SOL     OW37621   2.454   1.290   5.345  0.0239 -0.4323 -0.6055
 8663SOL    HW137622   2.518   1.341   5.295 -0.8503  0.3624 -0.9029
 8663SOL    HW237623   2.479   1.318   5.433 -1.2008 -0.8313 -0.1333
 8664SOL     OW37624   4.215   3.217   3.783 -0.0380 -0.3614  0.9056
 8664SOL    HW137625   4.224   3.227   3.689 -1.8861 -2.9900  0.4579
 8664SOL    HW237626   4.147   3.150   3.783  0.5934 -1.0030  0.5906
 8665SOL     OW37627   4.362   2.682   5.502  0.2942 -0.1783 -0.1313
 8665SOL    HW137628   4.412   2.748   5.454 -1.3368  1.5567  0.5596
 8665SOL    HW237629   4.424   2.609   5.494  1.7902  1.0532  0.0623
 8666SOL     OW37630   1.884   3.999  13.207  0.4083  0.1951 -0.5788
 8666SOL    HW137631   1.891   4.056  13.130 -0.5476  1.0280 -0.0429
 8666SOL    HW237632   1.839   3.921  13.175 -0.3425  1.4545 -2.5289
 8667SOL     OW37633   0.854   1.583   3.780 -0.1077 -0.1016 -0.2208
 8667SOL    HW137634   0.940   1.612   3.811 -0.3824  0.1969  0.2570
 8667SOL    HW237635   0.884   1.550   3.695  3.5149 -0.3019  1.1487
 8668SOL     OW37636   0.534   3.658  15.305  0.4838 -0.4468  0.3063
 8668SOL    HW137637   0.486   3.576  15.320 -0.0898 -0.9167 -4.1497
 8668SOL    HW237638   0.619   3.616  15.300  0.2437 -0.5409 -2.8031
 8669SOL     OW37639   4.420   2.994   7.277 -0.2012 -0.1714  0.0347
 8669SOL    HW137640   4.358   2.988   7.203 -1.6270  0.2270  1.1991
 8669SOL    HW237641   4.360   3.025   7.345  0.7440 -0.0059  0.7802
 8670SOL     OW37642   0.152   2.671  12.677  0.0111 -0.5156  0.2363
 8670SOL    HW137643   0.240   2.689  12.643 -0.1284  0.4819  0.3915
 8670SOL    HW237644   0.171   2.599  12.738  1.3005 -0.7381 -0.4342
 8671SOL     OW37645   1.649   4.400  16.800 -0.0728  0.0779  0.1551
 8671SOL    HW137646   1.706   4.417  16.724 -0.2375  1.9386  0.4539
 8671SOL    HW237647   1.704   4.337  16.847 -1.0686  0.2631  1.5501
 8672SOL     OW37648   0.177   2.793   0.519 -0.1070 -0.3125 -0.3948
 8672SOL    HW137649   0.245   2.743   0.474 -0.0906  0.1675 -0.8943
 8672SOL    HW237650   0.107   2.784   0.454 -1.0967  1.9330  0.3744
 8673SOL     OW37651   0.982   4.256   6.383  0.8786  0.1870 -0.0049
 8673SOL    HW137652   0.975   4.173   6.337 -0.6174 -0.2358  0.9691
 8673SOL    HW237653   0.912   4.246   6.448  0.9142  1.2826  0.2065
 8674SOL     OW37654   3.157   3.200   2.790  1.0001 -0.5201 -0.3295
 8674SOL    HW137655   3.160   3.224   2.883  0.9516 -0.0878 -0.4367
 8674SOL    HW237656   3.063   3.210   2.775  0.7469  0.4864  1.8557
 8675SOL     OW37657   3.108   3.769   8.964 -0.3742  0.2954 -0.1288
 8675SOL    HW137658   3.015   3.748   8.955 -0.0422 -0.4763 -1.8488
 8675SOL    HW237659   3.151   3.743   8.882 -0.9001  0.6682 -0.5252
 8676SOL     OW37660   0.516   0.520  16.858 -0.2395 -0.0664  0.1289
 8676SOL    HW137661   0.550   0.445  16.907  1.0362  1.1394  1.1049
 8676SOL    HW237662   0.453   0.552  16.923  0.4241  0.6281  0.4353
 8677SOL     OW37663   1.101   1.610   3.899 -0.3993 -0.1994  0.8338
 8677SOL    HW137664   1.076   1.661   3.976  0.1615 -1.9500  2.1697
 8677SOL    HW237665   1.162   1.547   3.938 -0.7016 -2.2469 -2.0274
 8678SOL     OW37666   0.060   3.083  10.771  0.3263  0.0017 -0.3785
 8678SOL    HW137667   0.019   3.068  10.856 -2.1490  1.1269 -1.3712
 8678SOL    HW237668   0.144   3.040  10.789 -0.2463 -1.0675 -0.2644
 8679SOL     OW37669   1.936   2.063   1.331 -0.3357 -0.0876 -0.1571
 8679SOL    HW137670   2.031   2.062   1.340 -0.3067  0.1025 -0.4473
 8679SOL    HW237671   1.904   2.088   1.417 -0.6855  0.5701 -0.4831
 8680SOL     OW37672   4.370   0.251   6.429  0.1848  0.0724 -0.8218
 8680SOL    HW137673   4.321   0.318   6.476 -1.9890 -3.3340  1.7542
 8680SOL    HW237674   4.456   0.258   6.472  0.7865  0.9190 -2.1434
 8681SOL     OW37675   2.745   0.665   4.825 -0.3153 -0.3432 -0.3639
 8681SOL    HW137676   2.675   0.601   4.839 -0.8661  0.5441  0.9570
 8681SOL    HW237677   2.771   0.667   4.917 -0.7590 -0.7414 -0.2287
 8682SOL     OW37678   3.722   0.418   6.209  0.1982  0.1714 -0.4333
 8682SOL    HW137679   3.751   0.365   6.283  3.4190  1.6978 -0.5957
 8682SOL    HW237680   3.634   0.433   6.244 -1.3572 -1.8752 -3.4831
 8683SOL     OW37681   3.424   1.770   5.257  0.0728 -0.3680  0.5122
 8683SOL    HW137682   3.420   1.681   5.291 -2.6348 -0.7672 -0.8190
 8683SOL    HW237683   3.511   1.795   5.288  0.1245 -0.7298  0.6640
 8684SOL     OW37684   4.190   3.523  12.336 -0.2726 -0.1596 -0.1113
 8684SOL    HW137685   4.110   3.546  12.384  0.6169  2.7329  0.0003
 8684SOL    HW237686   4.189   3.594  12.272  0.2381  0.3340  0.4210
 8685SOL     OW37687   4.052   4.301   9.840  0.3001 -0.1823  0.2877
 8685SOL    HW137688   4.064   4.224   9.786 -2.2668  0.0004 -0.5391
 8685SOL    HW237689   4.127   4.355   9.813  0.7902 -0.3328  1.3498
 8686SOL     OW37690   4.654   3.576   7.930 -0.9025  0.3932  0.6279
 8686SOL    HW137691   4.661   3.672   7.928 -0.2898  0.3086 -2.3509
 8686SOL    HW237692   4.712   3.555   7.856 -0.6776  1.1881  0.5739
 8687SOL     OW37693   3.136   3.615   1.054 -0.5655 -0.0580 -0.4298
 8687SOL    HW137694   3.169   3.704   1.054 -1.6004  0.3346 -1.3382
 8687SOL    HW237695   3.130   3.599   0.959  1.7034 -1.9495 -0.2610
 8688SOL     OW37696   3.203   2.075   7.424  0.4439 -0.3115 -0.3168
 8688SOL    HW137697   3.157   2.104   7.502 -1.7880 -2.3907 -0.8702
 8688SOL    HW237698   3.215   1.985   7.455 -0.3889  0.0890  1.1718
 8689SOL     OW37699   4.394   3.937   4.172 -0.1426 -0.3099 -0.3247
 8689SOL    HW137700   4.407   3.909   4.081 -3.2156 -0.2881 -0.7562
 8689SOL    HW237701   4.307   3.899   4.183 -1.2666  2.5326  0.6597
 8690SOL     OW37702   1.025   3.808   8.136 -0.2082  0.1749 -0.0343
 8690SOL    HW137703   0.983   3.892   8.118  0.9880  0.6786 -0.4756
 8690SOL    HW237704   1.120   3.823   8.133 -0.0022 -1.2007 -0.6287
 8691SOL     OW37705   4.558   3.906  14.525  0.6665  0.3191 -0.3898
 8691SOL    HW137706   4.527   3.850  14.454  2.1343 -0.7136 -0.1954
 8691SOL    HW237707   4.647   3.872  14.526  0.5600  0.0176 -1.2150
 8692SOL     OW37708   0.364   2.413   4.231 -0.1492  0.2047  1.1784
 8692SOL    HW137709   0.303   2.468   4.281 -0.7491 -1.1957  1.9654
 8692SOL    HW237710   0.371   2.465   4.151  0.1527 -1.1638  0.3252
 8693SOL     OW37711   2.414   0.278   4.431  0.0261  0.2486  0.3358
 8693SOL    HW137712   2.336   0.324   4.461  0.2924  0.4173  0.7751
 8693SOL    HW237713   2.364   0.209   4.389  0.0630  0.0432  0.6325
 8694SOL     OW37714   1.476   4.446   3.223  0.0916 -0.1660  0.4494
 8694SOL    HW137715   1.443   4.518   3.276  2.2649  1.0666  0.1294
 8694SOL    HW237716   1.480   4.470   3.131  0.9013  2.6070  1.2278
 8695SOL     OW37717   0.967   1.250   5.880  0.3260 -0.2605  0.5651
 8695SOL    HW137718   1.020   1.242   5.960  0.9182 -3.4399 -0.1463
 8695SOL    HW237719   1.037   1.240   5.815 -2.9109  0.2562 -2.9396
 8696SOL     OW37720   2.538   1.822   4.416 -0.3297 -0.2685  0.1008
 8696SOL    HW137721   2.501   1.737   4.441  2.0411 -0.6481  2.3247
 8696SOL    HW237722   2.630   1.802   4.435 -0.1890  0.8804  0.6484
 8697SOL     OW37723   4.316   4.217  14.707  0.1387  0.0767 -0.1465
 8697SOL    HW137724   4.293   4.310  14.718 -0.1672  0.1478 -1.3786
 8697SOL    HW237725   4.248   4.173  14.758 -1.0030  0.6917 -1.1337
 8698SOL     OW37726   2.103   2.822   6.515  0.1789  0.0258  0.2935
 8698SOL    HW137727   2.096   2.918   6.517  0.9225  0.0739  0.5944
 8698SOL    HW237728   2.060   2.815   6.430  1.7023 -1.1192 -0.3588
 8699SOL     OW37729   3.885   1.314   1.689  0.9097  0.2429  1.0149
 8699SOL    HW137730   3.940   1.283   1.617  1.0213  2.9965 -0.0912
 8699SOL    HW237731   3.929   1.265   1.758 -1.7265 -1.6156  1.3819
 8700SOL     OW37732   3.283   1.512  17.730 -0.0604  0.3304  0.3931
 8700SOL    HW137733   3.266   1.569   0.063 -1.7674 -2.2711  1.9855
 8700SOL    HW237734   3.193   1.487  17.710  0.2931 -1.3190  0.9299
 8701SOL     OW37735   1.096   1.263   6.567 -0.2727 -0.7224  0.0583
 8701SOL    HW137736   1.144   1.283   6.487 -1.4163 -1.0366 -0.7014
 8701SOL    HW237737   1.019   1.315   6.546 -0.1756 -0.3808  0.5314
 8702SOL     OW37738   4.161   1.324  13.489  0.1922 -0.1667  0.1626
 8702SOL    HW137739   4.103   1.395  13.461 -0.1492 -1.0468 -1.3801
 8702SOL    HW237740   4.248   1.365  13.487 -0.5387  1.4132  0.9933
 8703SOL     OW37741   0.308   2.598   0.359  0.5989  0.1158  0.0591
 8703SOL    HW137742   0.400   2.624   0.364  0.2393  1.5366 -0.6409
 8703SOL    HW237743   0.327   2.505   0.350 -1.8014 -0.4587  0.9558
 8704SOL     OW37744   4.493   0.616  14.886 -0.1647  0.2263 -0.7399
 8704SOL    HW137745   4.553   0.662  14.944 -0.4596 -0.6371  0.2463
 8704SOL    HW237746   4.534   0.529  14.882  0.8620  0.7531 -1.5898
 8705SOL     OW37747   4.183   3.574   9.045 -0.1737 -0.2803 -0.1258
 8705SOL    HW137748   4.144   3.528   8.971 -0.0504 -1.1558  0.3553
 8705SOL    HW237749   4.118   3.573   9.115 -2.6646  0.4064 -2.4524
 8706SOL     OW37750   1.400   2.753   6.915  0.5812 -0.0673 -0.2345
 8706SOL    HW137751   1.342   2.779   6.986  0.7903 -1.1955  0.3421
 8706SOL    HW237752   1.482   2.719   6.951  0.0539 -1.5177 -0.4127
 8707SOL     OW37753   1.862   4.450   5.781 -0.1963  0.5373 -0.2690
 8707SOL    HW137754   1.912   4.441   5.700  1.0018 -1.1720  0.6675
 8707SOL    HW237755   1.923   4.485   5.846  0.8854 -2.0048  0.0794
 8708SOL     OW37756   2.709   4.010  17.355  0.4365  0.6442  0.0826
 8708SOL    HW137757   2.690   3.923  17.389  1.1563  0.6329  0.4530
 8708SOL    HW237758   2.804   4.007  17.368  0.6346  0.6415 -1.3739
 8709SOL     OW37759   4.565   3.774  11.698 -0.7260 -0.5425 -0.1988
 8709SOL    HW137760   4.595   3.720  11.625  2.2862  0.0942  0.5789
 8709SOL    HW237761   4.648   3.782  11.746 -0.4160 -0.3581 -0.7606
 8710SOL     OW37762   0.544   4.300   4.126  0.1000 -0.1640 -0.1823
 8710SOL    HW137763   0.604   4.232   4.156 -0.2953  0.3817  1.8433
 8710SOL    HW237764   0.459   4.258   4.138  0.7845 -1.6610 -0.4912
 8711SOL     OW37765   0.465   1.300   6.182  0.1561  0.3208 -0.3160
 8711SOL    HW137766   0.372   1.322   6.181  0.1747  0.3969 -0.3325
 8711SOL    HW237767   0.507   1.376   6.222 -2.0821  1.6229 -0.4484
 8712SOL     OW37768   1.326   0.224  12.035  0.0750 -0.5019 -0.0784
 8712SOL    HW137769   1.275   0.153  11.996  1.3312 -1.0973 -0.6329
 8712SOL    HW237770   1.339   0.275  11.955  2.1024 -0.0229  0.5476
 8713SOL     OW37771   4.050   4.303   6.114  0.3974  0.1266 -0.1675
 8713SOL    HW137772   4.136   4.326   6.078  0.7521  0.7123  1.0777
 8713SOL    HW237773   4.021   4.385   6.153 -0.8164 -0.1759 -0.4421
 8714SOL     OW37774   0.152   2.719  10.542 -0.1690  0.1751 -0.2199
 8714SOL    HW137775   0.177   2.639  10.588  1.2101  0.1122 -1.0686
 8714SOL    HW237776   0.105   2.772  10.606 -0.2592 -0.2859  0.1003
 8715SOL     OW37777   3.988   0.377   7.645  0.3433  0.5784  0.3150
 8715SOL    HW137778   4.068   0.326   7.628 -1.0270 -1.5499  0.1660
 8715SOL    HW237779   4.027   0.448   7.695 -0.8426  1.9149 -0.6641
 8716SOL     OW37780   2.503   4.039   5.132  0.3467 -0.4483 -0.3356
 8716SOL    HW137781   2.550   3.957   5.117 -0.6083 -0.7496 -1.6310
 8716SOL    HW237782   2.458   4.018   5.214  0.9744 -2.4633 -0.5068
 8717SOL     OW37783   2.967   2.601  17.389  0.5910  0.2855 -0.4323
 8717SOL    HW137784   3.006   2.527  17.341  0.7564  0.7714 -1.0548
 8717SOL    HW237785   3.048   2.637  17.423 -0.4574  0.3059  1.9957
 8718SOL     OW37786   1.561   0.429   9.815 -0.5656 -0.0179  0.9154
 8718SOL    HW137787   1.501   0.456   9.746 -2.2849 -0.5035  2.2159
 8718SOL    HW237788   1.512   0.457   9.892 -0.1867  0.2169  1.0761
 8719SOL     OW37789   0.439   2.329   4.673 -0.1896 -0.0822 -0.2141
 8719SOL    HW137790   0.434   2.310   4.767  1.8073  2.3671  0.3973
 8719SOL    HW237791   0.343   2.336   4.666  0.1953  1.8637 -3.5066
 8720SOL     OW37792   4.214   2.298   4.735 -0.0109  0.1113  0.0468
 8720SOL    HW137793   4.195   2.270   4.645  1.4161 -1.1549  0.1384
 8720SOL    HW237794   4.174   2.384   4.722 -3.0882 -1.2868  0.2260
 8721SOL     OW37795   1.220   2.548   0.126 -0.0295 -0.2438  0.1996
 8721SOL    HW137796   1.273   2.485   0.076  1.7403  0.9635  0.5690
 8721SOL    HW237797   1.142   2.557   0.072 -0.8701 -1.7298  1.1750
 8722SOL     OW37798   3.491   3.734   7.847 -0.1392 -0.1026 -0.4371
 8722SOL    HW137799   3.422   3.793   7.876 -0.2161 -1.2166  1.6651
 8722SOL    HW237800   3.513   3.699   7.933 -0.0565  0.4497 -0.2367
 8723SOL     OW37801   0.970   3.767   4.857 -0.3303 -0.1608  0.6252
 8723SOL    HW137802   1.021   3.708   4.912 -0.8676 -0.6268  0.6214
 8723SOL    HW237803   1.022   3.770   4.777  1.2534  1.4250  1.7225
 8724SOL     OW37804   4.173   4.207  10.556 -0.4409  0.0084 -0.3819
 8724SOL    HW137805   4.241   4.143  10.536 -0.8220 -0.6334  0.3631
 8724SOL    HW237806   4.110   4.163  10.614  1.1518 -0.6104  0.8854
 8725SOL     OW37807   0.576   0.907   0.212  0.6703  0.8218 -0.1335
 8725SOL    HW137808   0.539   0.993   0.190  0.0853  0.9325  1.3151
 8725SOL    HW237809   0.495   0.865   0.240  0.9947  0.2470 -0.0657
 8726SOL     OW37810   2.982   1.191   3.219  0.5942  0.3879  0.4143
 8726SOL    HW137811   2.961   1.278   3.255  0.0989  0.3317  0.2553
 8726SOL    HW237812   3.038   1.159   3.291  0.0075 -1.8315 -0.1258
 8727SOL     OW37813   2.042   2.173  15.039  0.3253  0.1544 -0.0896
 8727SOL    HW137814   1.953   2.159  15.072 -0.5358  0.9208 -2.0754
 8727SOL    HW237815   2.071   2.237  15.103 -0.9737  0.5419  0.1172
 8728SOL     OW37816   3.352   1.402  17.401 -0.1746 -0.6053  0.5158
 8728SOL    HW137817   3.261   1.419  17.377  0.3145 -0.3838 -1.1402
 8728SOL    HW237818   3.362   1.465  17.472  1.3085 -0.8913  0.5632
 8729SOL     OW37819   1.527   0.959   3.977 -0.1544  0.0244 -0.2864
 8729SOL    HW137820   1.605   0.918   4.014  0.8992  0.4643 -2.0209
 8729SOL    HW237821   1.501   0.896   3.910 -0.7904 -3.1799  2.9662
 8730SOL     OW37822   3.612   0.984   3.735 -0.7051 -0.1977  0.2768
 8730SOL    HW137823   3.563   0.992   3.653  0.6906  2.7619 -0.2641
 8730SOL    HW237824   3.549   1.014   3.800 -1.3908  1.0667 -0.9864
 8731SOL     OW37825   1.956   0.879  14.165  0.4116 -0.4789  0.4034
 8731SOL    HW137826   1.959   0.889  14.070 -1.0907  0.5995  0.4611
 8731SOL    HW237827   1.999   0.957  14.199 -1.2804 -0.5014  2.5796
 8732SOL     OW37828   2.384   4.264   4.964  1.4150 -0.2915 -0.0340
 8732SOL    HW137829   2.388   4.170   4.982 -1.4814 -0.6889 -1.4260
 8732SOL    HW237830   2.382   4.270   4.868  0.5378 -1.8032 -0.1080
 8733SOL     OW37831   2.943   2.467   5.707 -0.1432  0.3061  0.4774
 8733SOL    HW137832   2.869   2.489   5.650 -1.4046 -0.5009  1.8049
 8733SOL    HW237833   3.004   2.533   5.675 -0.5299  0.1415 -0.5955
 8734SOL     OW37834   2.713   2.387   4.134 -0.4707 -0.0650 -0.4959
 8734SOL    HW137835   2.733   2.478   4.159 -1.9974 -0.0460  0.6549
 8734SOL    HW237836   2.726   2.336   4.213 -0.8850  1.9495  0.8886
 8735SOL     OW37837   3.864   1.466  15.031 -0.4840 -0.2165  0.3492
 8735SOL    HW137838   3.863   1.559  15.054  0.4956 -0.4321  1.2770
 8735SOL    HW237839   3.955   1.454  15.004 -0.3707  0.1831  0.5489
 8736SOL     OW37840   3.095   0.861   8.170  0.1763 -0.1462 -0.5225
 8736SOL    HW137841   3.020   0.817   8.129  0.5584 -0.5961 -0.7357
 8736SOL    HW237842   3.156   0.789   8.183  0.8382 -0.2429 -4.0520
 8737SOL     OW37843   0.550   1.061   9.528 -0.4687  0.3133 -0.7594
 8737SOL    HW137844   0.568   0.980   9.479  1.0975 -0.1810  0.6506
 8737SOL    HW237845   0.634   1.083   9.567  0.3116  0.6269 -2.5979
 8738SOL     OW37846   1.075   2.529   2.967  0.2914  0.3153  0.1082
 8738SOL    HW137847   1.043   2.613   2.935 -0.9640 -0.4403 -0.5986
 8738SOL    HW237848   1.019   2.486   2.903  0.1567  1.3418 -0.4587
 8739SOL     OW37849   0.392   3.994   6.720 -0.2208  0.6573  0.0085
 8739SOL    HW137850   0.345   3.976   6.801  1.5048 -0.6592  0.7311
 8739SOL    HW237851   0.420   3.910   6.683 -1.8659  0.6648 -1.2304
 8740SOL     OW37852   0.518   0.451   1.230 -0.1876 -0.5008 -0.0165
 8740SOL    HW137853   0.437   0.462   1.179 -1.2670 -2.9038  1.1824
 8740SOL    HW237854   0.568   0.451   1.148  0.0974 -1.3572  0.1593
 8741SOL     OW37855   4.184   0.709  13.182  0.5980  0.3803  0.1838
 8741SOL    HW137856   4.105   0.684  13.231  0.6638  1.2808  0.7448
 8741SOL    HW237857   4.248   0.738  13.247  0.6039 -1.2897  0.9121
 8742SOL     OW37858   2.326   0.776  13.469  0.0393  0.0026  0.2625
 8742SOL    HW137859   2.381   0.787  13.391 -1.0959  2.6241 -0.1445
 8742SOL    HW237860   2.238   0.770  13.431  0.6389  2.4752 -1.4976
 8743SOL     OW37861   1.439   0.873   6.804  0.4213  0.4659 -0.5933
 8743SOL    HW137862   1.397   0.959   6.808 -0.7373 -0.1105 -0.0923
 8743SOL    HW237863   1.477   0.889   6.718  0.1210 -0.2523 -0.8618
 8744SOL     OW37864   1.826   1.553  16.699 -0.0086  0.1854  0.1864
 8744SOL    HW137865   1.771   1.476  16.712 -0.0397 -0.1226 -1.7438
 8744SOL    HW237866   1.864   1.544  16.611 -0.5118 -0.4925  0.0355
 8745SOL     OW37867   0.269   0.852   3.163  0.1532 -0.4562  0.5421
 8745SOL    HW137868   0.215   0.882   3.236 -1.4314  0.1790 -0.8685
 8745SOL    HW237869   0.349   0.903   3.157 -0.4535  0.2253 -1.6006
 8746SOL     OW37870   2.597   0.444   8.191  0.1552  0.5358  0.2531
 8746SOL    HW137871   2.519   0.426   8.138 -0.2878  0.2664  0.9957
 8746SOL    HW237872   2.669   0.400   8.145 -1.5157  1.2683 -3.1143
 8747SOL     OW37873   3.878   2.422  16.176  0.8998  0.5657  0.2224
 8747SOL    HW137874   3.900   2.344  16.126 -1.9867 -0.4688  0.5381
 8747SOL    HW237875   3.868   2.385  16.264  0.5521 -0.4342 -0.2405
 8748SOL     OW37876   1.742   4.295   5.309  0.3651 -0.5908  0.4534
 8748SOL    HW137877   1.646   4.298   5.303  0.4132 -0.0415 -0.1337
 8748SOL    HW237878   1.765   4.262   5.222  0.5167 -0.1938  0.3437
 8749SOL     OW37879   0.915   1.087   5.432  0.6608  0.2597  0.1770
 8749SOL    HW137880   0.955   1.103   5.347 -0.9971  0.5048 -0.5485
 8749SOL    HW237881   0.988   1.034   5.465  0.1054 -0.5640  0.0838
 8750SOL     OW37882   1.891   4.280   8.982 -0.3804  1.1028  0.2803
 8750SOL    HW137883   1.901   4.359   8.927 -0.3896 -1.2729 -3.1531
 8750SOL    HW237884   1.905   4.207   8.921  3.6932  3.2383 -1.4285
 8751SOL     OW37885   3.568   1.980   1.542  0.1799 -0.2581  0.3722
 8751SOL    HW137886   3.574   2.028   1.625  1.4553 -0.3143  0.3155
 8751SOL    HW237887   3.627   1.906   1.558  0.3368 -0.3401 -0.5446
 8752SOL     OW37888   2.780   0.494   8.833  0.3244 -0.4439  0.4077
 8752SOL    HW137889   2.750   0.433   8.900 -1.4025 -0.3126 -0.2509
 8752SOL    HW237890   2.811   0.435   8.764  0.5802 -3.2549  2.9209
 8753SOL     OW37891   4.160   3.491   7.028 -0.5841  0.0782  0.3383
 8753SOL    HW137892   4.131   3.449   6.948 -2.3877  1.2325  0.3960
 8753SOL    HW237893   4.150   3.428   7.099  0.9011 -1.0333 -0.4502
 8754SOL     OW37894   0.865   4.201   3.547 -0.5557 -0.3016 -0.1699
 8754SOL    HW137895   0.864   4.240   3.634 -0.9457 -2.0208  0.5921
 8754SOL    HW237896   0.787   4.146   3.548 -0.9246  0.2095 -0.3791
 8755SOL     OW37897   4.730   0.088   1.932  0.0642  0.3345  0.0137
 8755SOL    HW137898   0.053   0.160   1.954  1.6975 -0.4038 -1.9591
 8755SOL    HW237899   0.022   0.072   1.842 -0.9817 -2.9974  0.2929
 8756SOL     OW37900   4.171   3.093   9.135 -0.4177 -0.3924 -0.1229
 8756SOL    HW137901   4.204   3.023   9.079 -2.9655 -0.6052 -1.3228
 8756SOL    HW237902   4.252   3.132   9.169  1.1603 -3.5745 -0.2416
 8757SOL     OW37903   0.894   1.837   8.290 -0.0879 -0.1421 -0.4127
 8757SOL    HW137904   0.846   1.761   8.325  0.1632  0.0069  0.2661
 8757SOL    HW237905   0.824   1.900   8.302 -0.5648 -1.1804  2.4685
 8758SOL     OW37906   4.348   1.043  14.937 -0.0283  0.2711 -0.0027
 8758SOL    HW137907   4.277   1.067  14.997 -0.4249 -0.6587 -0.0880
 8758SOL    HW237908   4.422   1.010  14.987  1.1713 -0.4188 -2.2443
 8759SOL     OW37909   4.016   3.443   3.005  0.0292 -0.0039  0.1264
 8759SOL    HW137910   4.079   3.440   3.076 -0.0498 -0.7103  0.1669
 8759SOL    HW237911   4.075   3.418   2.934  1.1753  1.1848  0.6665
 8760SOL     OW37912   2.902   2.041   4.331 -0.4021  0.0229 -0.3681
 8760SOL    HW137913   2.973   2.041   4.267  1.3397 -0.7028  1.5544
 8760SOL    HW237914   2.831   1.996   4.286 -1.1342  1.2221 -0.4266
 8761SOL     OW37915   0.114   2.206   8.875 -0.6119 -0.1315  0.1508
 8761SOL    HW137916   0.193   2.164   8.909 -0.5800  0.7122  1.1020
 8761SOL    HW237917   0.057   2.131   8.860  0.7888 -0.9600 -1.1029
 8762SOL     OW37918   3.704   0.721  10.342  0.1513 -0.3935 -0.2939
 8762SOL    HW137919   3.722   0.628  10.332 -1.0861 -0.6122 -0.5229
 8762SOL    HW237920   3.792   0.755  10.323  0.3891 -0.3014  1.0026
 8763SOL     OW37921   3.902   4.072  17.306 -0.3506  0.1265  0.3395
 8763SOL    HW137922   3.977   4.079  17.247 -1.3711  2.5971 -0.6384
 8763SOL    HW237923   3.909   4.160  17.344 -0.1871  0.4693 -0.4767
 8764SOL     OW37924   1.107   0.033   8.148 -0.6209 -0.1163  0.1666
 8764SOL    HW137925   1.119   0.077   8.232  1.8444  1.4585 -1.0221
 8764SOL    HW237926   1.019   4.731   8.145 -1.0585  1.0918 -2.2194
 8765SOL     OW37927   1.837   1.476   7.971  0.2860 -0.3086  0.2523
 8765SOL    HW137928   1.917   1.452   7.924 -0.7079 -1.4982 -0.8221
 8765SOL    HW237929   1.774   1.423   7.923 -0.1443  0.4979 -0.0810
 8766SOL     OW37930   2.233   3.573   4.422 -0.2802  0.0765  0.0479
 8766SOL    HW137931   2.247   3.479   4.410 -2.4243 -0.1900 -0.3835
 8766SOL    HW237932   2.246   3.599   4.331 -0.1839 -0.0846  0.0159
 8767SOL     OW37933   3.078   1.326   4.835  0.0127 -0.3235  0.4355
 8767SOL    HW137934   3.134   1.263   4.880  1.2510 -0.5407 -1.4180
 8767SOL    HW237935   3.006   1.273   4.800  1.1363 -2.4205  1.2705
 8768SOL     OW37936   0.830   3.303   4.261  0.1037 -0.3281 -0.1518
 8768SOL    HW137937   0.767   3.373   4.244  1.7741  1.0875 -0.5477
 8768SOL    HW237938   0.769   3.231   4.276  1.7387 -1.4300  1.2335
 8769SOL     OW37939   4.270   2.507   1.921  0.0451  0.0863  0.1038
 8769SOL    HW137940   4.208   2.557   1.868 -0.0774  0.6170  0.7380
 8769SOL    HW237941   4.317   2.452   1.860 -0.3251 -0.0764 -0.0364
 8770SOL     OW37942   0.718   3.230   6.466  0.5727  0.0528  0.2571
 8770SOL    HW137943   0.812   3.223   6.449  0.7927  0.4408  1.2743
 8770SOL    HW237944   0.709   3.311   6.515  0.0888  0.2168 -0.1035
 8771SOL     OW37945   2.927   3.101  12.607 -0.1726 -0.1349  0.1161
 8771SOL    HW137946   2.941   3.179  12.660  4.2653  0.1723 -1.4721
 8771SOL    HW237947   3.003   3.047  12.630  0.9364  1.4586  0.1571
 8772SOL     OW37948   2.339   2.432   2.349  0.1534 -0.0720 -0.0590
 8772SOL    HW137949   2.275   2.444   2.419 -0.7134  0.3629 -0.9236
 8772SOL    HW237950   2.307   2.482   2.274  3.1972 -0.5175 -1.6850
 8773SOL     OW37951   3.432   0.306   0.855 -0.0932  0.0272 -0.2350
 8773SOL    HW137952   3.462   0.388   0.894  2.1248 -0.8607 -0.0929
 8773SOL    HW237953   3.396   0.330   0.770  0.3628  1.0858 -0.1286
 8774SOL     OW37954   1.136   1.863   2.414  0.0477  0.2879  0.1325
 8774SOL    HW137955   1.171   1.940   2.370 -0.4604 -0.5032 -1.6711
 8774SOL    HW237956   1.205   1.800   2.392  1.3870  1.6859  0.3691
 8775SOL     OW37957   1.096   2.531   9.239  0.1164 -0.4536 -0.0705
 8775SOL    HW137958   1.052   2.497   9.318 -3.3634 -0.2403 -1.9117
 8775SOL    HW237959   1.049   2.611   9.217 -1.0726 -0.3128  2.9279
 8776SOL     OW37960   1.784   3.777  13.043 -0.7843  0.3814 -0.3608
 8776SOL    HW137961   1.861   3.721  13.035 -0.1614  1.1805 -0.0548
 8776SOL    HW237962   1.746   3.749  13.126  1.3612  1.0704  0.8590
 8777SOL     OW37963   2.434   3.821   2.006 -0.4445 -0.1370  1.0944
 8777SOL    HW137964   2.408   3.819   1.914 -1.3960 -1.3596  1.3800
 8777SOL    HW237965   2.354   3.794   2.052 -0.0556 -1.6716  0.8531
 8778SOL     OW37966   3.254   4.125   7.314 -0.0702  0.3840  0.5562
 8778SOL    HW137967   3.245   4.046   7.368  0.9143 -0.5655 -0.6712
 8778SOL    HW237968   3.162   4.140   7.291  0.4410 -0.4922 -1.9955
 8779SOL     OW37969   2.173   4.252   7.051  0.3730 -0.2077  0.2585
 8779SOL    HW137970   2.190   4.285   7.139 -1.0418 -0.8159  0.7762
 8779SOL    HW237971   2.207   4.326   7.002 -1.8888  0.7454  0.1561
 8780SOL     OW37972   1.259   3.806  17.415 -0.6117  0.0553 -0.5261
 8780SOL    HW137973   1.197   3.750  17.370 -1.3582  0.5796 -0.1547
 8780SOL    HW237974   1.253   3.758  17.498  0.9229  1.0174  0.1350
 8781SOL     OW37975   1.425   4.382   8.661  0.2300  0.2089  0.0982
 8781SOL    HW137976   1.474   4.375   8.579 -0.1329  2.0970 -0.2700
 8781SOL    HW237977   1.458   4.457   8.711 -2.9125  1.9077 -0.3556
 8782SOL     OW37978   2.796   1.364   7.968  0.2596 -0.1327 -0.4293
 8782SOL    HW137979   2.750   1.285   7.995 -1.0758  1.3310  1.6529
 8782SOL    HW237980   2.829   1.396   8.052 -1.3167 -2.2789  0.9883
 8783SOL     OW37981   0.923   3.283   1.723  0.1876  0.3932 -0.0281
 8783SOL    HW137982   0.940   3.324   1.807  0.0747 -1.5635  0.9385
 8783SOL    HW237983   0.828   3.280   1.726  0.2239  1.4712  1.9125
 8784SOL     OW37984   3.309   4.383   7.444  0.3873  0.0432  0.1597
 8784SOL    HW137985   3.299   4.343   7.358 -0.1241 -1.9548  1.1396
 8784SOL    HW237986   3.225   4.365   7.487  1.0725  1.2658  2.0256
 8785SOL     OW37987   1.905   2.156   5.559 -0.6167 -0.2949 -0.2358
 8785SOL    HW137988   1.853   2.080   5.532 -1.8637  0.7772 -0.8630
 8785SOL    HW237989   1.951   2.110   5.628  1.4593  1.5668 -0.3705
 8786SOL     OW37990   3.427   0.906   7.308 -0.1304  0.1501  0.1477
 8786SOL    HW137991   3.431   1.000   7.327 -2.8046  0.0500  1.2585
 8786SOL    HW237992   3.506   0.903   7.254  1.6506  1.2900  2.6787
 8787SOL     OW37993   1.903   0.897   3.432 -0.6134  0.1826  0.4346
 8787SOL    HW137994   1.956   0.862   3.504  0.9046 -0.6294 -1.0697
 8787SOL    HW237995   1.927   0.834   3.364 -0.7142 -0.1213  0.6813
 8788SOL     OW37996   4.000   3.726  15.882 -0.3389 -0.6031  0.2124
 8788SOL    HW137997   3.907   3.741  15.861 -0.8142 -1.0856  2.0413
 8788SOL    HW237998   4.033   3.661  15.820 -4.6490 -0.9986 -1.6942
 8789SOL     OW37999   2.661   1.222   4.214 -0.3853 -0.2416  0.3866
 8789SOL    HW138000   2.592   1.199   4.153 -0.0574 -0.2715  0.0289
 8789SOL    HW238001   2.735   1.221   4.153 -1.7550 -1.0675 -1.2339
 8790SOL     OW38002   2.942   3.256   8.531 -0.2465 -0.1269  0.2462
 8790SOL    HW138003   2.855   3.295   8.540  0.3949  0.9906  1.6715
 8790SOL    HW238004   2.913   3.177   8.487 -3.7008  3.5027 -4.0331
 8791SOL     OW38005   4.476   0.365   7.678 -0.0161 -1.0707 -0.0072
 8791SOL    HW138006   4.462   0.281   7.634 -0.2972 -0.8866 -0.2751
 8791SOL    HW238007   4.435   0.344   7.761  0.1797 -0.4924  0.2362
 8792SOL     OW38008   1.128   3.742  12.981 -0.0729  0.0640  0.1567
 8792SOL    HW138009   1.113   3.832  13.009 -1.3182 -0.0231 -0.2049
 8792SOL    HW238010   1.172   3.759  12.898 -1.6483 -2.7743 -1.2745
 8793SOL     OW38011   3.609   2.100   9.697 -0.2647  0.4681  0.2508
 8793SOL    HW138012   3.598   2.186   9.656  0.2646 -0.2213 -1.3289
 8793SOL    HW238013   3.524   2.058   9.689 -0.3395  0.0089  3.3573
 8794SOL     OW38014   3.202   4.318  15.539  0.2976  0.0864 -0.9461
 8794SOL    HW138015   3.253   4.250  15.496  0.7830 -0.2891  0.2474
 8794SOL    HW238016   3.157   4.259  15.599 -1.9057  1.9737 -0.7331
 8795SOL     OW38017   0.112   2.310   1.727 -0.2021 -0.0106  0.1277
 8795SOL    HW138018   0.047   2.336   1.661 -0.2243 -1.5717 -0.4661
 8795SOL    HW238019   0.119   2.380   1.791  2.1488 -0.6905  0.6210
 8796SOL     OW38020   4.313   1.199   7.375  0.0588  0.2456 -0.5609
 8796SOL    HW138021   4.331   1.136   7.444  0.1780 -0.6741 -1.4257
 8796SOL    HW238022   4.404   1.220   7.352  0.0558  0.1665 -0.6461
 8797SOL     OW38023   2.435   3.837   2.634 -0.0322  0.1360  0.0031
 8797SOL    HW138024   2.454   3.833   2.728  1.7622 -0.1520 -0.3737
 8797SOL    HW238025   2.510   3.888   2.605  0.3051  0.2644  1.0843
 8798SOL     OW38026   0.733   4.548   9.809 -0.5225 -0.5288  0.2094
 8798SOL    HW138027   0.670   4.618   9.828  1.4634  1.1376  0.6983
 8798SOL    HW238028   0.693   4.470   9.847 -0.7985 -0.5682 -0.1660
 8799SOL     OW38029   2.840   0.274   8.690 -0.6663 -0.6959 -0.1026
 8799SOL    HW138030   2.870   0.218   8.761  0.4864  2.2638  1.7782
 8799SOL    HW238031   2.875   0.234   8.611  0.6340  0.7604 -0.2741
 8800SOL     OW38032   1.275   4.234   6.474 -0.0292 -0.0734  0.4276
 8800SOL    HW138033   1.297   4.141   6.478 -3.1882 -0.9074 -1.7938
 8800SOL    HW238034   1.189   4.217   6.435  1.1683  1.7263 -2.9790
 8801SOL     OW38035   1.321   2.435   3.248  0.1562 -0.1873 -0.0689
 8801SOL    HW138036   1.289   2.524   3.259  0.0640 -0.1520 -0.6419
 8801SOL    HW238037   1.374   2.422   3.326 -0.6408 -1.0347  0.3351
 8802SOL     OW38038   4.037   3.601   5.410  0.3621  0.4368  0.2641
 8802SOL    HW138039   4.130   3.580   5.411  0.4508  0.7085 -1.7074
 8802SOL    HW238040   4.007   3.521   5.454  2.2175 -0.3847  0.0038
 8803SOL     OW38041   3.199   2.151   1.616 -0.1830  0.2594  0.0451
 8803SOL    HW138042   3.240   2.218   1.670 -0.3237  0.7548 -0.4701
 8803SOL    HW238043   3.212   2.196   1.532 -0.4412 -1.8066 -1.1058
 8804SOL     OW38044   1.707   2.155  17.449  0.0404  0.5555 -0.0747
 8804SOL    HW138045   1.711   2.064  17.422 -0.3026  0.1396  1.2834
 8804SOL    HW238046   1.688   2.209  17.372 -0.2601 -0.8815 -0.9993
 8805SOL     OW38047   2.356   1.069   3.363 -0.1738  0.0704 -0.1100
 8805SOL    HW138048   2.317   1.156   3.361  1.2997  0.7063 -1.2130
 8805SOL    HW238049   2.441   1.085   3.321 -0.0827  1.4083  0.5794
 8806SOL     OW38050   3.289   1.255   7.071 -0.0464 -0.3185  0.2138
 8806SOL    HW138051   3.255   1.214   6.991  1.5860  1.2619 -1.2782
 8806SOL    HW238052   3.223   1.323   7.085 -0.1156 -0.4256  0.4162
 8807SOL     OW38053   2.520   2.688   2.725  0.0521  0.0064  0.0913
 8807SOL    HW138054   2.535   2.772   2.770  0.4899 -1.0469  1.9411
 8807SOL    HW238055   2.600   2.637   2.741 -0.3495 -0.0956  1.7511
 8808SOL     OW38056   3.745   0.054   3.274  0.4798  0.3409  0.1316
 8808SOL    HW138057   3.654   0.082   3.258 -0.1652 -2.3637 -0.8989
 8808SOL    HW238058   3.786   0.093   3.197  0.5556 -0.2826 -0.1420
 8809SOL     OW38059   4.030   3.009   7.153 -0.0380 -0.0543 -0.4669
 8809SOL    HW138060   3.965   2.957   7.105 -0.1031  0.9999 -1.5207
 8809SOL    HW238061   4.098   3.015   7.086  1.0447 -0.8233  0.5687
 8810SOL     OW38062   2.095   1.102   7.166  0.0835  0.1665  0.2889
 8810SOL    HW138063   2.013   1.080   7.211  1.1345 -1.8811  1.1648
 8810SOL    HW238064   2.149   1.026   7.188  0.5260  0.6643  0.9192
 8811SOL     OW38065   3.612   2.108   3.554 -0.2976  0.0315 -0.0035
 8811SOL    HW138066   3.595   2.025   3.600 -3.5001 -0.2857 -1.8034
 8811SOL    HW238067   3.534   2.153   3.586 -0.0878 -0.5350  1.3127
 8812SOL     OW38068   1.510   0.305   3.268 -0.5741  0.1900 -0.4610
 8812SOL    HW138069   1.574   0.372   3.244 -0.8442  0.7936  0.5117
 8812SOL    HW238070   1.430   0.343   3.231 -1.9414 -3.3034 -1.0159
 8813SOL     OW38071   0.048   3.320  10.615  0.1190 -0.0384  0.4993
 8813SOL    HW138072   4.714   3.381  10.640  1.1828  1.5207 -0.3605
 8813SOL    HW238073   0.058   3.278  10.700 -1.5081 -0.4398  0.4843
 8814SOL     OW38074   2.963   2.569  13.539  0.8580 -0.2223  0.3850
 8814SOL    HW138075   3.054   2.598  13.529  0.2876  0.9112 -1.6036
 8814SOL    HW238076   2.936   2.627  13.610 -0.0923  0.2837 -0.3844
 8815SOL     OW38077   3.279   2.788   4.615  0.1261 -0.0445 -0.6694
 8815SOL    HW138078   3.273   2.883   4.607  0.9190  0.1429  0.8708
 8815SOL    HW238079   3.188   2.764   4.598 -0.1179  2.2459 -2.5445
 8816SOL     OW38080   1.600   3.318  13.361  0.0973  0.3077  0.2468
 8816SOL    HW138081   1.679   3.353  13.403  1.7388  1.0305 -3.4803
 8816SOL    HW238082   1.546   3.321  13.440  0.3093  0.4736  0.3870
 8817SOL     OW38083   4.517   0.830  13.026  0.0674 -0.0511 -0.2328
 8817SOL    HW138084   4.502   0.737  13.007  0.7972 -0.1398 -0.3646
 8817SOL    HW238085   4.424   0.850  13.034 -0.2358 -0.9728 -1.4869
 8818SOL     OW38086   1.641   1.809   3.196 -0.1669  0.9671 -0.4780
 8818SOL    HW138087   1.641   1.876   3.127  0.1927  2.5431  1.0590
 8818SOL    HW238088   1.558   1.764   3.179  0.8385 -0.6491 -1.1424
 8819SOL     OW38089   1.432   4.290   4.436  0.2971 -0.0468  0.5412
 8819SOL    HW138090   1.485   4.230   4.384 -1.3118 -1.1528  0.1568
 8819SOL    HW238091   1.495   4.297   4.507  1.4969 -1.0367 -0.4344
 8820SOL     OW38092   0.396   4.044   4.141 -0.0510 -0.2332  0.1698
 8820SOL    HW138093   0.383   3.949   4.141 -0.8155 -0.1246  0.9378
 8820SOL    HW238094   0.464   4.055   4.207  1.5220  2.7324 -1.9063
 8821SOL     OW38095   3.324   0.580   8.508  0.2655 -0.6544 -0.6683
 8821SOL    HW138096   3.349   0.556   8.418  0.9673 -0.1771 -0.6018
 8821SOL    HW238097   3.362   0.504   8.550 -1.6980 -0.9186  0.6263
 8822SOL     OW38098   0.267   3.055   8.296 -0.5317  0.2497  0.1890
 8822SOL    HW138099   0.229   2.988   8.354 -1.0822  0.8991  0.5723
 8822SOL    HW238100   0.303   3.120   8.356  1.2444  0.8823 -1.5786
 8823SOL     OW38101   2.838   3.045  14.946  0.4226 -0.2716  0.1195
 8823SOL    HW138102   2.864   2.969  14.999  0.7575 -1.6589 -2.0125
 8823SOL    HW238103   2.744   3.029  14.937  0.3740 -0.1619  0.4522
 8824SOL     OW38104   3.703   3.976   9.421 -0.1733  0.2668 -0.7976
 8824SOL    HW138105   3.725   4.055   9.470  0.5242 -0.5580  0.2052
 8824SOL    HW238106   3.781   3.960   9.368  1.1988  1.5547  0.8604
 8825SOL     OW38107   1.553   4.549  16.997  0.5728 -0.4498 -0.3578
 8825SOL    HW138108   1.578   4.479  17.058 -1.0355 -0.2223  0.5653
 8825SOL    HW238109   1.618   4.528  16.930  2.3802  2.0558  0.5878
 8826SOL     OW38110   3.465   4.443   2.836 -0.6437  0.9593 -0.6028
 8826SOL    HW138111   3.480   4.415   2.746  1.1301  0.6868 -0.2363
 8826SOL    HW238112   3.425   4.530   2.832 -2.0055  0.3582 -0.1436
 8827SOL     OW38113   4.512   4.147  12.177  0.7681  0.4712  0.3890
 8827SOL    HW138114   4.418   4.126  12.175  1.2151 -1.3225 -1.0325
 8827SOL    HW238115   4.509   4.213  12.107 -2.1123  2.4656  2.3399
 8828SOL     OW38116   3.812   3.359   4.161  0.2019 -0.0643 -0.1524
 8828SOL    HW138117   3.718   3.363   4.179  0.6146  1.5408  1.5848
 8828SOL    HW238118   3.834   3.439   4.114 -0.0827  0.5583  0.7688
 8829SOL     OW38119   0.058   1.281  12.062  0.0452 -0.8746  0.0901
 8829SOL    HW138120   0.037   1.280  12.155  0.7349 -0.3081  0.2488
 8829SOL    HW238121   0.127   1.347  12.054 -1.5557  0.4089 -3.0011
 8830SOL     OW38122   3.147   4.045  10.572  0.3114  0.6569 -0.3579
 8830SOL    HW138123   3.201   4.007  10.641  0.7368  0.0445 -1.0157
 8830SOL    HW238124   3.112   4.124  10.613 -0.9259  0.5713 -1.2417
 8831SOL     OW38125   4.034   0.356   2.196  0.0572  0.6546  0.0329
 8831SOL    HW138126   3.940   0.340   2.189 -0.2061  1.7789  1.0740
 8831SOL    HW238127   4.050   0.310   2.279 -0.3931 -1.7790 -1.2361
 8832SOL     OW38128   4.622   0.420   4.962  0.0917 -0.3522  0.3761
 8832SOL    HW138129   4.584   0.424   5.050 -1.7818 -0.3204 -0.4439
 8832SOL    HW238130   4.678   0.344   4.981  1.2898  0.4162 -0.0730
 8833SOL     OW38131   1.633   3.355   8.650  0.4654 -0.2682 -0.3460
 8833SOL    HW138132   1.567   3.287   8.661  1.4413 -0.7672  2.5656
 8833SOL    HW238133   1.709   3.326   8.700  0.3706  1.4429  0.8244
 8834SOL     OW38134   1.434   0.071  14.055  0.2408 -0.3320 -0.1756
 8834SOL    HW138135   1.485   0.098  13.979  0.6398  2.3372  1.0234
 8834SOL    HW238136   1.392   0.154  14.077 -0.6690 -1.0485  0.8165
 8835SOL     OW38137   1.629   1.376   1.967 -0.2918  0.2305 -0.2682
 8835SOL    HW138138   1.680   1.300   1.991  1.2064  1.1147 -0.6625
 8835SOL    HW238139   1.537   1.348   1.970 -0.1499 -0.3218 -1.3225
 8836SOL     OW38140   4.010   4.429   3.819  0.3653 -0.3097 -0.2975
 8836SOL    HW138141   3.924   4.390   3.831  0.0069  0.5738 -0.0522
 8836SOL    HW238142   4.061   4.362   3.866  0.5161 -0.4345 -0.6414
 8837SOL     OW38143   2.882   0.856   7.820  0.2763  0.3221  0.2815
 8837SOL    HW138144   2.788   0.842   7.810  0.6019 -1.0330 -0.7982
 8837SOL    HW238145   2.882   0.935   7.875 -0.5679 -0.0496  0.8084
 8838SOL     OW38146   0.701   0.182   3.408  0.0670 -0.2345  0.2793
 8838SOL    HW138147   0.774   0.175   3.346  0.5828 -1.2118  0.9951
 8838SOL    HW238148   0.636   0.184   3.338 -0.6323  2.1411  0.9749
 8839SOL     OW38149   4.146   2.588   9.220 -0.2244  0.3094 -0.4461
 8839SOL    HW138150   4.129   2.547   9.306  1.8378  1.2124  0.3807
 8839SOL    HW238151   4.098   2.668   9.239 -2.0646 -0.3867 -2.1380
 8840SOL     OW38152   2.326   2.297   4.388 -0.3166  0.1331 -0.0010
 8840SOL    HW138153   2.403   2.245   4.414 -0.7068  1.1676  3.2248
 8840SOL    HW238154   2.328   2.356   4.463 -1.8523 -0.2771  0.3734
 8841SOL     OW38155   3.184   3.228   1.346  0.3881  0.4875 -0.1474
 8841SOL    HW138156   3.213   3.291   1.280  0.0320  1.4035  0.5652
 8841SOL    HW238157   3.221   3.155   1.298 -1.7358 -0.4364 -0.3422
 8842SOL     OW38158   4.698   2.220   5.818  0.3304 -0.4057  0.0406
 8842SOL    HW138159   0.022   2.281   5.861 -0.6483 -0.4313  1.4321
 8842SOL    HW238160   4.733   2.224   5.730  1.7117  0.3988  0.6369
 8843SOL     OW38161   0.033   1.631  12.203  0.0758 -0.0431 -0.0488
 8843SOL    HW138162   4.717   1.707  12.176  0.2842  1.5210  3.9251
 8843SOL    HW238163   0.118   1.662  12.172 -0.1296  0.0040 -0.5795
 8844SOL     OW38164   4.674   0.478   1.310 -0.0768 -0.3248 -0.4739
 8844SOL    HW138165   4.638   0.399   1.352 -1.0509  0.7537  0.7191
 8844SOL    HW238166   0.031   0.478   1.332 -0.2434 -1.0746  0.2329
 8845SOL     OW38167   1.675   0.482   4.793 -0.9718  0.5353  0.3975
 8845SOL    HW138168   1.610   0.490   4.724 -0.7180  2.4366  0.3680
 8845SOL    HW238169   1.643   0.400   4.831  1.4581  0.2310  1.7929
 8846SOL     OW38170   0.088   4.292   5.521 -0.4169  0.0959 -0.1925
 8846SOL    HW138171   0.073   4.374   5.474 -0.7848 -0.6409 -1.3641
 8846SOL    HW238172   0.183   4.283   5.522 -0.5419 -1.2743 -0.9961
 8847SOL     OW38173   3.980   4.083   6.598 -0.6266 -0.5216 -0.0835
 8847SOL    HW138174   4.019   4.148   6.540 -0.5306  0.5467  1.1749
 8847SOL    HW238175   3.967   4.013   6.534 -1.6369  0.2302 -0.7041
 8848SOL     OW38176   3.847   1.697   4.098  0.3532 -0.1690  0.0916
 8848SOL    HW138177   3.799   1.722   4.177  0.5361  0.6759 -0.0654
 8848SOL    HW238178   3.912   1.766   4.086 -0.0334  0.3332  0.8876
 8849SOL     OW38179   2.089   3.209   4.710  0.1330 -0.0279  0.3132
 8849SOL    HW138180   2.172   3.164   4.696 -0.1755 -0.4167 -0.2907
 8849SOL    HW238181   2.112   3.276   4.774  2.3024 -0.1176 -0.3725
 8850SOL     OW38182   0.321   2.245  13.140  0.1772  0.1208 -0.2965
 8850SOL    HW138183   0.299   2.330  13.177  2.8314 -0.2698  2.1421
 8850SOL    HW238184   0.408   2.261  13.103  0.9740 -1.2173  0.9923
 8851SOL     OW38185   1.725   2.340   1.492 -0.0273 -0.1489  0.1012
 8851SOL    HW138186   1.707   2.256   1.534  1.7692 -1.3228 -1.4544
 8851SOL    HW238187   1.818   2.362   1.502 -0.2614  2.1646 -2.6127
 8852SOL     OW38188   3.369   0.763  17.616  0.0772 -0.3491  0.6008
 8852SOL    HW138189   3.412   0.687  17.578 -0.7663 -0.6830  0.3055
 8852SOL    HW238190   3.436   0.831  17.615 -0.1348 -0.1442 -2.0067
 8853SOL     OW38191   3.369   4.347   2.456 -0.0171 -0.2051  0.0019
 8853SOL    HW138192   3.326   4.266   2.483 -0.8386 -0.4872 -2.1499
 8853SOL    HW238193   3.295   4.392   2.416  0.0331  1.6193  1.9481
 8854SOL     OW38194   1.309   4.443   9.033 -0.2638 -0.2877 -0.5823
 8854SOL    HW138195   1.304   4.358   9.078 -0.3233  0.0070 -0.0437
 8854SOL    HW238196   1.363   4.499   9.089 -0.2007  1.0384 -1.9639
 8855SOL     OW38197   0.661   2.731  11.097 -0.1678  0.6548 -0.0551
 8855SOL    HW138198   0.623   2.791  11.160  1.3463 -0.5104  1.9537
 8855SOL    HW238199   0.597   2.703  11.030 -0.1950  0.0247  0.2287
 8856SOL     OW38200   2.319   2.344   6.165  0.1898 -0.2543  0.0479
 8856SOL    HW138201   2.365   2.390   6.235  0.3357  0.2926 -0.4079
 8856SOL    HW238202   2.249   2.305   6.218 -0.1517  1.8727  1.1752
 8857SOL     OW38203   0.350   0.869  10.086 -0.1216 -0.6865  0.7223
 8857SOL    HW138204   0.338   0.939  10.150  1.2859 -0.3075  0.5553
 8857SOL    HW238205   0.323   0.913  10.005  1.7130 -0.5061  0.2118
 8858SOL     OW38206   2.400   1.602   4.518 -0.1429  0.3980  0.3210
 8858SOL    HW138207   2.379   1.616   4.610  2.3637 -1.2304  1.1486
 8858SOL    HW238208   2.436   1.513   4.517  0.9436  0.8601 -0.6114
 8859SOL     OW38209   0.688   2.977   6.675  0.1971  0.5061 -0.0579
 8859SOL    HW138210   0.636   3.001   6.598 -2.1117  1.6537  1.8387
 8859SOL    HW238211   0.671   2.884   6.684 -3.1352  0.9804 -1.2186
 8860SOL     OW38212   3.910   2.817   3.684  0.2653 -0.3453 -0.0955
 8860SOL    HW138213   3.877   2.782   3.767 -2.9583  0.4688 -1.0080
 8860SOL    HW238214   3.871   2.764   3.614  0.1221 -0.0441 -0.2442
 8861SOL     OW38215   1.954   2.928   2.678 -0.0972 -0.4926 -0.3874
 8861SOL    HW138216   2.004   2.936   2.597 -0.7034  2.1204 -0.5077
 8861SOL    HW238217   1.927   3.019   2.672 -1.6533 -0.9597 -0.5692
 8862SOL     OW38218   2.535   3.709  17.103  0.1361 -0.6417  0.2970
 8862SOL    HW138219   2.543   3.744  17.014  1.6242 -0.1858  0.6241
 8862SOL    HW238220   2.519   3.791  17.148 -2.8194  0.5729 -2.9146
 8863SOL     OW38221   1.081   2.795   6.170  0.3478  0.6091 -0.5417
 8863SOL    HW138222   1.069   2.888   6.154 -3.8265 -0.0256 -1.1239
 8863SOL    HW238223   1.099   2.758   6.083  0.6469  0.4520 -0.4151
 8864SOL     OW38224   4.194   2.976  13.396  0.9325 -0.3202 -0.6894
 8864SOL    HW138225   4.173   3.008  13.484  1.0425  0.0179 -0.7866
 8864SOL    HW238226   4.243   3.049  13.359  2.4172 -1.1046 -0.2640
 8865SOL     OW38227   1.005   1.050   6.688 -0.3014 -0.3040 -0.5114
 8865SOL    HW138228   0.920   1.082   6.719  0.5977  1.8537 -0.2958
 8865SOL    HW238229   1.037   1.124   6.637 -0.8598  0.9544  0.9775
 8866SOL     OW38230   1.759   3.060   8.089 -0.5374  0.1827 -0.2249
 8866SOL    HW138231   1.771   3.029   7.999 -1.7064  0.2772 -0.4156
 8866SOL    HW238232   1.677   3.015   8.108 -1.0513  1.3083  0.1608
 8867SOL     OW38233   0.408   3.292   9.035 -0.3388 -0.1772 -0.1039
 8867SOL    HW138234   0.440   3.367   8.986  1.3077 -0.5848  0.3506
 8867SOL    HW238235   0.440   3.222   8.978 -0.4375 -0.5373  0.2769
 8868SOL     OW38236   2.092   2.376   6.009  0.1101  0.0385  0.3666
 8868SOL    HW138237   2.156   2.398   5.941 -1.1899  1.0271 -0.5299
 8868SOL    HW238238   2.154   2.364   6.081  1.9187 -1.0545 -1.3821
 8869SOL     OW38239   0.532   3.324   3.704 -0.2366 -0.5891 -0.4909
 8869SOL    HW138240   0.481   3.362   3.776 -0.9953 -0.9637 -0.8326
 8869SOL    HW238241   0.479   3.356   3.631  0.6648 -0.3534 -1.0413
 8870SOL     OW38242   2.402   1.021  14.584  0.6410 -0.1913  0.3711
 8870SOL    HW138243   2.374   1.105  14.621 -2.5669 -0.9407 -0.3401
 8870SOL    HW238244   2.494   1.034  14.565  1.5361 -4.0082  1.9500
 8871SOL     OW38245   3.976   0.754   6.990 -0.4914 -0.1171 -0.5837
 8871SOL    HW138246   3.922   0.674   6.989 -0.8126  0.0947  0.0613
 8871SOL    HW238247   3.925   0.801   6.924  0.9336  3.4182  0.8721
 8872SOL     OW38248   0.125   3.860   8.163  0.2025 -0.0301 -0.4590
 8872SOL    HW138249   0.156   3.906   8.241  0.5968 -0.7358 -0.2039
 8872SOL    HW238250   0.206   3.814   8.142 -0.0657 -0.8019  0.1966
 8873SOL     OW38251   0.049   2.037   9.777  0.0293  0.0150 -0.5387
 8873SOL    HW138252   0.103   2.057   9.700  1.2005  0.3717  0.3751
 8873SOL    HW238253   0.082   2.110   9.828 -0.5470  0.4159 -0.7440
 8874SOL     OW38254   1.046   0.207   6.076 -0.5311  0.4454  0.2670
 8874SOL    HW138255   0.992   0.265   6.023 -1.0196  0.3383  0.6433
 8874SOL    HW238256   1.047   0.142   6.006  2.3781  1.9028 -1.0775
 8875SOL     OW38257   2.906   4.434   9.295  0.0436  0.4504 -0.0404
 8875SOL    HW138258   2.998   4.459   9.298  1.1654 -3.4600 -1.0393
 8875SOL    HW238259   2.864   4.464   9.214  0.5091 -0.9878 -0.8166
 8876SOL     OW38260   4.275   1.104   6.720  0.8958  0.5145  0.0293
 8876SOL    HW138261   4.325   1.159   6.661  1.8307 -0.1468  0.2139
 8876SOL    HW238262   4.261   1.168   6.790  0.7117  0.9197 -0.3764
 8877SOL     OW38263   3.034   2.357   7.860 -0.5350 -0.5861  0.3520
 8877SOL    HW138264   3.023   2.440   7.813  0.0030  0.1693  1.5548
 8877SOL    HW238265   3.042   2.308   7.779  1.6046 -0.1769  0.3093
 8878SOL     OW38266   4.055   2.219   8.630 -0.3199 -0.0969  0.2452
 8878SOL    HW138267   4.000   2.263   8.695 -2.3025 -1.4337 -0.5275
 8878SOL    HW238268   3.988   2.170   8.583 -0.0867 -0.3638  0.1893
 8879SOL     OW38269   4.342   4.094   9.005 -0.2251 -0.2187 -0.6547
 8879SOL    HW138270   4.413   4.092   8.940 -1.1331  0.1454 -1.6475
 8879SOL    HW238271   4.308   4.004   9.007 -1.6784  0.3025 -2.4167
 8880SOL     OW38272   0.082   0.645   3.791 -0.5952 -0.0716 -0.2210
 8880SOL    HW138273   0.037   0.695   3.860  2.4619  0.7290  1.1978
 8880SOL    HW238274   0.052   0.556   3.810 -0.9017  0.2965  1.0898
 8881SOL     OW38275   2.361   3.455   8.287  0.3664 -0.2339 -0.3280
 8881SOL    HW138276   2.273   3.432   8.257 -0.1143  2.4487 -1.0268
 8881SOL    HW238277   2.329   3.512   8.356  0.6167 -2.3590  1.5370
 8882SOL     OW38278   3.051   0.952   3.800  0.1860  0.3382 -0.3340
 8882SOL    HW138279   2.984   0.940   3.732 -1.8086 -1.0958  1.8715
 8882SOL    HW238280   3.040   0.868   3.845 -0.6862 -1.2860 -3.5525
 8883SOL     OW38281   3.078   3.695   5.440 -0.0057 -0.0368  0.0790
 8883SOL    HW138282   3.140   3.663   5.506 -0.7990  1.4074  1.4981
 8883SOL    HW238283   3.096   3.789   5.430  0.6409 -0.2594 -0.8889
 8884SOL     OW38284   2.925   0.828   5.302  0.4868 -0.0349  0.1964
 8884SOL    HW138285   2.978   0.875   5.238  0.2926 -0.0725  0.0074
 8884SOL    HW238286   2.890   0.889   5.368 -0.3262  0.2123 -0.4581
 8885SOL     OW38287   4.641   1.420   6.589  0.1370 -0.3045 -0.5781
 8885SOL    HW138288   4.671   1.384   6.673 -2.8671 -3.2312 -0.7374
 8885SOL    HW238289   4.579   1.349   6.571  1.1388 -1.6513  1.2622
 8886SOL     OW38290   4.189   4.363   7.024  0.2845  0.2149  0.1903
 8886SOL    HW138291   4.217   4.410   7.103 -1.4183  3.5099 -1.1852
 8886SOL    HW238292   4.097   4.342   7.035  0.0135  0.6402 -1.2795
 8887SOL     OW38293   4.698   2.384   8.210 -0.6004  0.0592 -0.5655
 8887SOL    HW138294   4.634   2.386   8.281  0.1647 -0.2348  0.1372
 8887SOL    HW238295   4.665   2.464   8.169 -0.6265 -0.0590 -0.7700
 8888SOL     OW38296   4.194   0.318   6.657  0.3819  0.0735 -0.1729
 8888SOL    HW138297   4.240   0.352   6.734 -0.3599 -1.2150  0.8343
 8888SOL    HW238298   4.108   0.357   6.668  0.5201  0.1494  0.6239
 8889SOL     OW38299   3.110   1.421   1.766  0.2468 -0.2821 -0.1136
 8889SOL    HW138300   3.098   1.431   1.672  2.4567 -1.1831 -0.4864
 8889SOL    HW238301   3.033   1.471   1.793  2.0367  2.9148 -0.9483
 8890SOL     OW38302   0.207   4.174   6.279  0.2275 -0.4911 -0.5519
 8890SOL    HW138303   0.291   4.152   6.240 -0.7231 -2.0606 -1.7524
 8890SOL    HW238304   0.149   4.163   6.204  0.0375 -1.0380 -0.3300
 8891SOL     OW38305   3.190   4.578  10.951 -0.2016 -0.3046  0.0909
 8891SOL    HW138306   3.172   4.502  10.896 -0.2604  1.1432 -1.8916
 8891SOL    HW238307   3.164   4.638  10.882  3.9029  2.4423  0.9277
 8892SOL     OW38308   1.144   0.890   6.121 -0.1962 -0.6053  0.0618
 8892SOL    HW138309   1.051   0.890   6.097 -0.1997 -0.0750  0.0612
 8892SOL    HW238310   1.181   0.810   6.084 -0.4623 -0.2018 -1.0981
 8893SOL     OW38311   4.655   4.156   0.596 -0.0053  0.2261 -0.5827
 8893SOL    HW138312   4.698   4.163   0.681 -0.3759 -0.0348 -0.3750
 8893SOL    HW238313   4.622   4.066   0.599 -2.1281  0.9461 -2.3442
 8894SOL     OW38314   1.916   1.694   8.932 -0.6358  0.2940 -0.0874
 8894SOL    HW138315   1.841   1.637   8.916 -0.0422 -0.4379 -0.2215
 8894SOL    HW238316   1.984   1.639   8.893  0.4393  0.0488  2.0909
 8895SOL     OW38317   4.063   3.929   3.914 -0.3672 -0.7840  0.5120
 8895SOL    HW138318   3.982   3.930   3.863 -0.4743 -0.4425  0.6931
 8895SOL    HW238319   4.077   3.837   3.937 -2.7715 -0.9374  1.3315
 8896SOL     OW38320   0.748   3.478   1.053  0.5483 -0.1281 -0.3765
 8896SOL    HW138321   0.678   3.519   1.103  1.4893 -0.2980  1.0767
 8896SOL    HW238322   0.723   3.494   0.962 -0.9207 -0.6724 -0.0715
 8897SOL     OW38323   3.214   1.754   7.110  0.1582  0.4743 -0.3679
 8897SOL    HW138324   3.266   1.822   7.068  1.1594 -0.1245 -0.1096
 8897SOL    HW238325   3.153   1.812   7.155  1.2450  0.6068  0.9298
 8898SOL     OW38326   2.739   2.467   8.106 -0.0512  0.3163 -0.7194
 8898SOL    HW138327   2.800   2.393   8.101  0.4516  0.6919 -0.1193
 8898SOL    HW238328   2.659   2.417   8.122  0.7183 -0.0366  2.0770
 8899SOL     OW38329   0.425   0.191  10.476  0.4338  0.0613  0.5417
 8899SOL    HW138330   0.489   0.225  10.538 -0.5849 -0.9403  2.1476
 8899SOL    HW238331   0.472   0.218  10.397 -0.9500 -1.3544 -0.7597
 8900SOL     OW38332   2.061   1.004   6.538  0.0919 -0.2367  0.3072
 8900SOL    HW138333   1.974   0.963   6.545 -1.7575  3.3649 -1.6791
 8900SOL    HW238334   2.104   0.954   6.607  0.4888 -1.4686 -0.8430
 8901SOL     OW38335   1.140   0.462  11.584 -0.0934 -0.0940  0.2069
 8901SOL    HW138336   1.223   0.494  11.548  0.4075 -1.5799  0.0736
 8901SOL    HW238337   1.113   0.403  11.513  1.4825  0.3351 -0.7621
 8902SOL     OW38338   1.510   3.517   6.105  0.0841  1.0532  0.2888
 8902SOL    HW138339   1.477   3.606   6.096  0.0807  0.8686 -1.5787
 8902SOL    HW238340   1.495   3.491   6.196  2.0806 -1.4800 -0.0957
 8903SOL     OW38341   1.771   2.222   2.693  0.2981  0.5095 -0.7384
 8903SOL    HW138342   1.734   2.172   2.765 -0.7298  2.9432  0.4197
 8903SOL    HW238343   1.708   2.294   2.694 -0.2222  0.0811 -1.9983
 8904SOL     OW38344   3.799   0.757   7.754  0.8615  0.1519 -0.3315
 8904SOL    HW138345   3.768   0.792   7.670 -3.0637  2.2992  2.0111
 8904SOL    HW238346   3.746   0.678   7.761  0.9607 -0.1080 -2.3002
 8905SOL     OW38347   0.701   1.605   7.938  0.4099 -0.1801  0.0981
 8905SOL    HW138348   0.707   1.513   7.962 -0.5462 -1.1378 -3.3905
 8905SOL    HW238349   0.787   1.626   7.975  1.3800  0.2624 -2.3866
 8906SOL     OW38350   1.442   4.270   0.293 -0.0815  0.6597 -0.0746
 8906SOL    HW138351   1.453   4.345   0.351  2.9166 -0.8514  1.3351
 8906SOL    HW238352   1.458   4.200   0.357 -1.7990 -0.1123 -0.4931
 8907SOL     OW38353   2.187   4.215  13.691  0.4568 -0.3739 -0.2168
 8907SOL    HW138354   2.193   4.124  13.718 -0.6378  0.1456  1.7469
 8907SOL    HW238355   2.278   4.232  13.667  0.8972 -1.6866  0.5449
 8908SOL     OW38356   0.821   1.439   2.885  0.1726 -0.4309 -0.5049
 8908SOL    HW138357   0.889   1.451   2.951 -0.5447 -1.1185  0.3628
 8908SOL    HW238358   0.861   1.382   2.820 -0.6966 -1.2116 -0.3585
 8909SOL     OW38359   2.947   1.123   6.383  0.3063 -0.2503 -0.1302
 8909SOL    HW138360   2.973   1.071   6.307  0.8144 -1.9720  1.2182
 8909SOL    HW238361   3.033   1.163   6.397  0.2154 -0.4923  1.1804
 8910SOL     OW38362   1.777   1.659  14.273 -0.2441 -0.4584  0.7385
 8910SOL    HW138363   1.726   1.733  14.241  1.7597  1.0716  1.0743
 8910SOL    HW238364   1.712   1.616  14.329 -0.8393 -1.2873 -0.5808
 8911SOL     OW38365   3.316   3.068   3.771 -0.5290  0.3585 -0.2115
 8911SOL    HW138366   3.224   3.057   3.743 -0.5121 -1.7419  0.5557
 8911SOL    HW238367   3.292   3.118   3.849  0.3992 -0.7681  0.7737
 8912SOL     OW38368   2.848   0.153   4.465  0.4322  0.1940  0.0528
 8912SOL    HW138369   2.841   0.130   4.373 -0.1708 -0.8338  0.3563
 8912SOL    HW238370   2.935   0.194   4.470 -0.0515  1.1953  0.2984
 8913SOL     OW38371   3.258   2.827   6.619  0.4817  0.1591 -0.7728
 8913SOL    HW138372   3.186   2.765   6.635  1.5943 -0.8080  0.4741
 8913SOL    HW238373   3.324   2.787   6.675 -1.7370  0.3664  2.0482
 8914SOL     OW38374   2.650   4.108   8.059 -0.1955 -0.2272  0.4204
 8914SOL    HW138375   2.571   4.135   8.105 -1.3135  1.0458 -2.2388
 8914SOL    HW238376   2.712   4.127   8.129 -0.2338 -0.0871  0.4164
 8915SOL     OW38377   2.527   2.179   7.877 -0.7473  0.4807 -0.3984
 8915SOL    HW138378   2.492   2.222   7.955  0.1545 -0.9190  0.7616
 8915SOL    HW238379   2.533   2.095   7.922  0.9897  0.4724 -0.6353
 8916SOL     OW38380   3.467   0.477   3.998  0.4009 -0.2533 -0.5190
 8916SOL    HW138381   3.378   0.482   4.033  0.6438  1.2505 -0.1198
 8916SOL    HW238382   3.465   0.399   3.943  1.9396 -2.3188  2.3666
 8917SOL     OW38383   2.543   1.140   2.750  0.3635  0.0910 -0.4872
 8917SOL    HW138384   2.620   1.197   2.754  1.7977 -2.1415  3.9063
 8917SOL    HW238385   2.589   1.057   2.742  0.0056 -0.1741  0.1894
 8918SOL     OW38386   1.464   1.674   2.860  0.1473 -0.3247 -0.2573
 8918SOL    HW138387   1.523   1.620   2.911 -0.3938 -0.9032 -0.2511
 8918SOL    HW238388   1.503   1.761   2.874  0.7066 -0.5335 -0.4871
 8919SOL     OW38389   1.462   2.604   6.269 -0.2172 -0.4545  0.2640
 8919SOL    HW138390   1.390   2.663   6.291  0.9736  1.0675  0.0907
 8919SOL    HW238391   1.535   2.631   6.325 -0.1518  0.7780 -0.4153
 8920SOL     OW38392   1.239   2.331  11.467  0.4818 -0.1613  0.0785
 8920SOL    HW138393   1.217   2.283  11.546  1.6533  1.0829  1.1612
 8920SOL    HW238394   1.229   2.263  11.400 -1.2467 -0.0984  0.2828
 8921SOL     OW38395   4.397   4.411   9.206 -0.0085  0.0025  0.8117
 8921SOL    HW138396   4.389   4.443   9.296 -0.1449  0.9440  0.4693
 8921SOL    HW238397   4.305   4.387   9.191  0.7879 -1.3815 -1.7926
 8922SOL     OW38398   1.335   2.709  12.428 -0.0712 -0.2572 -0.1653
 8922SOL    HW138399   1.344   2.722  12.334 -0.5897  1.1480 -0.0140
 8922SOL    HW238400   1.296   2.792  12.455  2.1505  1.3245 -1.9697
 8923SOL     OW38401   1.314   2.764   1.289  0.1570 -0.4472 -0.5201
 8923SOL    HW138402   1.285   2.833   1.349  0.0926 -2.2448  1.5054
 8923SOL    HW238403   1.228   2.725   1.271  0.5878 -1.7252  0.2475
 8924SOL     OW38404   3.672   0.878   5.103  0.1288 -0.8817  0.0151
 8924SOL    HW138405   3.732   0.946   5.135 -0.7777 -0.7165  1.3472
 8924SOL    HW238406   3.616   0.859   5.177 -1.4577  1.2093 -0.6555
 8925SOL     OW38407   3.780   4.490   2.639  0.0245  0.3435  0.0189
 8925SOL    HW138408   3.749   4.573   2.602 -1.3729 -0.2099 -0.0420
 8925SOL    HW238409   3.705   4.432   2.625  0.8535 -0.8604  0.5075
 8926SOL     OW38410   3.378   1.875   9.172 -0.0909  0.1192 -0.1480
 8926SOL    HW138411   3.285   1.867   9.150 -0.2913 -0.2442  0.8397
 8926SOL    HW238412   3.374   1.917   9.258  1.5609  0.6989 -0.3592
 8927SOL     OW38413   2.510   3.126   8.646 -0.8469  0.5318  0.2157
 8927SOL    HW138414   2.467   3.207   8.673 -0.8142  0.7487 -0.3743
 8927SOL    HW238415   2.436   3.087   8.600 -1.2935  0.0071  1.3994
 8928SOL     OW38416   3.827   4.625   8.916 -0.4024 -0.9047  0.6024
 8928SOL    HW138417   3.882   4.697   8.887  0.1219  0.1155  4.1464
 8928SOL    HW238418   3.737   4.647   8.889 -0.4828 -1.0306  0.7654
 8929SOL     OW38419   1.563   1.287   7.845  0.0343  1.0663 -0.3020
 8929SOL    HW138420   1.593   1.364   7.795 -2.5743  0.1432 -3.2693
 8929SOL    HW238421   1.527   1.330   7.923  0.6647 -0.2566  0.7066
 8930SOL     OW38422   1.282   0.359   4.534  0.3752 -0.6757 -0.0809
 8930SOL    HW138423   1.328   0.381   4.452  1.3185 -2.1325  0.0537
 8930SOL    HW238424   1.211   0.304   4.502 -0.3330  0.8746 -1.1685
 8931SOL     OW38425   0.971   3.734   1.754 -0.2989  0.2252  0.2185
 8931SOL    HW138426   0.911   3.684   1.699 -0.1645  0.2998  0.0058
 8931SOL    HW238427   0.909   3.761   1.822  0.4410  1.8110  0.2551
 8932SOL     OW38428   1.806   4.176  12.669  0.1660  0.2509  0.4940
 8932SOL    HW138429   1.794   4.164  12.763 -0.7497 -1.4401  0.1584
 8932SOL    HW238430   1.891   4.134  12.652 -0.6743 -0.0399 -3.1146
 8933SOL     OW38431   2.029   1.271   2.776 -0.3202  0.1282  0.3956
 8933SOL    HW138432   2.031   1.303   2.686 -1.1087 -0.4103  0.1891
 8933SOL    HW238433   2.061   1.352   2.816  2.0795 -0.5574 -0.2005
 8934SOL     OW38434   1.255   0.604   7.616 -0.3270  0.3857 -0.8352
 8934SOL    HW138435   1.284   0.554   7.540  2.3333 -0.0063  0.4636
 8934SOL    HW238436   1.171   0.560   7.628 -0.9012  1.1994 -1.8858
 8935SOL     OW38437   1.316   4.026   6.127  0.0032 -0.4213 -0.5857
 8935SOL    HW138438   1.355   4.059   6.046  0.1875 -0.9863 -0.7257
 8935SOL    HW238439   1.256   4.099   6.141  0.4698  0.1637 -1.5900
 8936SOL     OW38440   4.159   0.806   6.697  0.2511 -0.0471  0.3539
 8936SOL    HW138441   4.137   0.893   6.665  1.3564 -0.0752 -0.4935
 8936SOL    HW238442   4.252   0.803   6.676  0.4744 -0.1566  1.3385
 8937SOL     OW38443   2.819   1.285   7.486  0.0626 -0.3993  0.1794
 8937SOL    HW138444   2.817   1.331   7.570 -0.8846  0.4288 -0.2887
 8937SOL    HW238445   2.906   1.247   7.481  0.1063 -0.4254  1.2388
 8938SOL     OW38446   2.421   0.510   7.323 -0.0022 -0.7323  0.1787
 8938SOL    HW138447   2.388   0.421   7.331  2.5335 -1.6611  0.0072
 8938SOL    HW238448   2.511   0.486   7.345  0.5949  0.7240 -0.6853
 8939SOL     OW38449   4.733   1.902   6.403 -0.3529 -0.1008 -0.1830
 8939SOL    HW138450   4.720   1.811   6.379 -0.8233  0.3385 -1.5776
 8939SOL    HW238451   0.041   1.935   6.325  0.4755 -1.4661 -0.2938
 8940SOL     OW38452   0.345   3.394   3.513  0.0484 -0.0642 -0.4027
 8940SOL    HW138453   0.311   3.460   3.452 -0.2379 -0.7968 -1.0381
 8940SOL    HW238454   0.323   3.314   3.466 -1.2160  0.4710 -0.7232
 8941SOL     OW38455   4.155   0.888   2.587 -0.2458  0.3598 -0.3768
 8941SOL    HW138456   4.111   0.938   2.518 -2.0884  2.3071  2.1764
 8941SOL    HW238457   4.235   0.940   2.588  0.1133 -0.1855 -1.4245
 8942SOL     OW38458   1.675   4.585   8.563 -0.7257  0.3414  0.3433
 8942SOL    HW138459   1.627   4.538   8.495  0.8560 -1.2789  0.3471
 8942SOL    HW238460   1.761   4.603   8.525 -0.7968 -0.4433 -0.1908
 8943SOL     OW38461   4.295   3.696   2.249 -0.4458 -0.2720  0.1409
 8943SOL    HW138462   4.336   3.628   2.301  1.3187 -0.2393 -1.2050
 8943SOL    HW238463   4.248   3.749   2.314  0.3243 -0.7232  1.0656
 8944SOL     OW38464   0.260   3.646   5.792 -0.2702  0.7636 -0.3263
 8944SOL    HW138465   0.187   3.706   5.781 -1.5204 -0.5550  0.7802
 8944SOL    HW238466   0.272   3.613   5.703  2.1482  0.8111 -0.0365
 8945SOL     OW38467   4.654   0.816  12.192 -0.2575  0.4854 -0.3314
 8945SOL    HW138468   4.576   0.778  12.233 -0.8967  2.8728  0.6776
 8945SOL    HW238469   4.666   0.770  12.108  1.2484  2.9951 -1.4947
 8946SOL     OW38470   0.359   0.174   7.371 -0.1498 -0.0148  0.5682
 8946SOL    HW138471   0.440   0.146   7.329 -0.2885  1.2211 -0.5027
 8946SOL    HW238472   0.291   0.131   7.319 -1.5347  0.8390  1.6926
 8947SOL     OW38473   1.955   2.646   6.027  0.7487  0.3496  0.0152
 8947SOL    HW138474   1.954   2.550   6.035  0.6291  0.3906  0.5133
 8947SOL    HW238475   1.869   2.666   5.990 -0.4042 -1.5138  1.6609
 8948SOL     OW38476   3.196   2.795   2.028  0.2391  0.5840 -0.1051
 8948SOL    HW138477   3.257   2.826   2.094  0.5588 -0.7611  0.2397
 8948SOL    HW238478   3.167   2.878   1.990 -1.4091  0.6061  1.1901
 8949SOL     OW38479   3.535   4.364   8.789 -0.1475  0.7222 -0.1787
 8949SOL    HW138480   3.547   4.406   8.704  0.2337 -1.4606 -1.1909
 8949SOL    HW238481   3.564   4.435   8.846  0.7827  1.6147 -1.7842
 8950SOL     OW38482   1.664   4.538  13.256 -0.0253 -0.2938  0.3298
 8950SOL    HW138483   1.724   4.612  13.251 -0.6563  0.1227 -1.2002
 8950SOL    HW238484   1.577   4.578  13.263 -0.4131 -0.8656 -1.1302
 8951SOL     OW38485   1.518   2.395   7.897  0.2265 -0.9055 -0.3981
 8951SOL    HW138486   1.575   2.360   7.965 -2.1262 -0.6971  1.6741
 8951SOL    HW238487   1.441   2.339   7.907 -0.5094  0.2391  0.3211
 8952SOL     OW38488   4.439   0.525  13.110  0.6261 -0.2925 -0.2832
 8952SOL    HW138489   4.410   0.467  13.180  0.6829 -1.6554 -1.3653
 8952SOL    HW238490   4.371   0.515  13.043 -1.2965  0.3080  1.5788
 8953SOL     OW38491   0.523   1.069   1.426 -0.3884  0.8590 -0.9560
 8953SOL    HW138492   0.585   1.075   1.498 -0.2258  0.0392 -1.0246
 8953SOL    HW238493   0.443   1.088   1.475 -0.1677  0.0701 -0.3000
 8954SOL     OW38494   2.982   3.276  16.160  0.2591 -0.9200 -0.1521
 8954SOL    HW138495   2.950   3.363  16.184 -0.1573 -0.7705 -1.2499
 8954SOL    HW238496   2.957   3.259  16.070  0.1004 -0.8771 -0.1162
 8955SOL     OW38497   4.282   1.531  12.950 -0.1625 -0.3142 -0.0892
 8955SOL    HW138498   4.363   1.507  12.905 -1.0721 -0.2222 -1.7789
 8955SOL    HW238499   4.291   1.624  12.931 -0.3095 -0.1243  0.7805
 8956SOL     OW38500   4.595   0.388   2.235 -0.1992  0.4043 -0.1429
 8956SOL    HW138501   4.612   0.307   2.283  0.0512  0.5728  0.0559
 8956SOL    HW238502   4.502   0.373   2.222 -0.0500  1.5399 -2.4843
 8957SOL     OW38503   4.351   4.124   7.645  0.3506  0.1639 -0.7227
 8957SOL    HW138504   4.393   4.103   7.728 -0.8402 -0.2709 -0.2213
 8957SOL    HW238505   4.318   4.043   7.605  0.4284 -0.7165  1.0012
 8958SOL     OW38506   0.508   0.168   3.210 -0.3855 -0.1803  0.3332
 8958SOL    HW138507   0.447   0.241   3.199  0.8625  0.9504  1.0372
 8958SOL    HW238508   0.477   0.103   3.147 -1.3386  0.9567 -0.3757
 8959SOL     OW38509   2.670   0.046   5.051 -0.7051  0.0116 -0.1563
 8959SOL    HW138510   2.680   0.108   4.978  0.5347  0.7820  0.6758
 8959SOL    HW238511   2.646   0.106   5.121  0.3909  0.7974 -0.4493
 8960SOL     OW38512   0.465   1.268   4.430 -0.2294  0.3915  0.4869
 8960SOL    HW138513   0.398   1.199   4.433  2.5230 -2.2963  0.3644
 8960SOL    HW238514   0.501   1.230   4.350 -0.3926  0.8467  0.2009
 8961SOL     OW38515   1.526   3.955   7.858 -0.1241 -0.4813  0.6158
 8961SOL    HW138516   1.596   3.894   7.883  0.6878 -0.5044 -1.6740
 8961SOL    HW238517   1.528   3.944   7.763 -1.9318  0.4431  0.4846
 8962SOL     OW38518   1.986   3.502   6.671  0.3983 -0.5404 -0.0362
 8962SOL    HW138519   1.964   3.428   6.727 -2.2271  0.3791  0.1659
 8962SOL    HW238520   2.049   3.463   6.610 -0.7328  0.0952 -1.6008
 8963SOL     OW38521   2.138   0.551  13.167  0.6541 -0.2186 -0.4252
 8963SOL    HW138522   2.146   0.638  13.205 -0.4113 -1.0093  1.6246
 8963SOL    HW238523   2.104   0.497  13.238  1.1321 -0.1796 -0.1695
 8964SOL     OW38524   2.515   1.446  10.223  0.5442  0.2885 -0.1080
 8964SOL    HW138525   2.427   1.407  10.224 -0.2192  1.9857 -1.3704
 8964SOL    HW238526   2.536   1.470  10.133 -0.0678  0.2950 -0.2476
 8965SOL     OW38527   0.703   0.225   9.749 -0.0094  0.3657 -0.1010
 8965SOL    HW138528   0.771   0.290   9.735  1.2636 -0.9766 -0.1836
 8965SOL    HW238529   0.727   0.169   9.675 -1.7818  0.1845 -0.5390
 8966SOL     OW38530   4.086   2.327  14.409 -0.1033 -0.1445 -0.1425
 8966SOL    HW138531   4.175   2.297  14.426 -0.0449  0.5980  0.7942
 8966SOL    HW238532   4.039   2.290  14.484  0.2874 -0.2295  0.0597
 8967SOL     OW38533   2.852   2.646   4.225 -0.2215  0.4796  0.1308
 8967SOL    HW138534   2.831   2.731   4.265 -0.5524  1.2341 -1.6586
 8967SOL    HW238535   2.945   2.627   4.234 -0.4017  0.4811  2.1071
 8968SOL     OW38536   4.677   3.964   2.286 -0.3401  0.3914 -0.4675
 8968SOL    HW138537   4.625   3.995   2.361  2.9324  1.1952  1.4643
 8968SOL    HW238538   0.030   3.971   2.320  0.1142  1.0230 -1.7996
 8969SOL     OW38539   3.706   4.384   0.479 -0.2954  0.3200 -0.0618
 8969SOL    HW138540   3.613   4.370   0.500 -0.4858 -1.8711 -2.3632
 8969SOL    HW238541   3.754   4.354   0.556 -1.3133  0.9170  0.8159
 8970SOL     OW38542   1.011   3.597  17.380 -0.0774  0.1477 -0.0475
 8970SOL    HW138543   1.081   3.531  17.382  0.4176  0.7094  1.4159
 8970SOL    HW238544   0.931   3.558  17.346 -0.7637  1.8720 -0.4041
 8971SOL     OW38545   2.419   1.617   6.072 -0.1270 -0.0800 -0.5242
 8971SOL    HW138546   2.382   1.576   6.150 -0.1510  0.8403 -0.0580
 8971SOL    HW238547   2.506   1.650   6.097 -0.7349  3.0024 -2.4847
 8972SOL     OW38548   4.397   1.979   7.606  0.1027  0.4056  0.2673
 8972SOL    HW138549   4.430   2.011   7.522  1.4187 -1.3504  0.1239
 8972SOL    HW238550   4.477   1.970   7.658 -0.1089 -0.5221  0.4190
 8973SOL     OW38551   4.523   1.466   6.892 -0.1509  0.0936 -0.0373
 8973SOL    HW138552   4.537   1.517   6.971 -2.2575  2.9008 -1.5071
 8973SOL    HW238553   4.527   1.536   6.827  0.7794  1.5241  1.5393
 8974SOL     OW38554   3.659   3.136   3.908 -0.4812  0.0673  0.8394
 8974SOL    HW138555   3.658   3.212   3.851 -2.3173 -0.2290  0.4890
 8974SOL    HW238556   3.610   3.077   3.852 -0.3499  0.5150  0.2546
 8975SOL     OW38557   0.727   3.985  10.619 -0.2999 -0.5331  0.3538
 8975SOL    HW138558   0.671   3.980  10.697 -1.4035  0.9734 -0.3447
 8975SOL    HW238559   0.816   3.991  10.655  0.1170 -0.7072 -0.6552
 8976SOL     OW38560   1.869   2.101   0.123  0.1731 -0.4650 -0.1483
 8976SOL    HW138561   1.841   2.010   0.114 -1.4372 -0.2188  2.3715
 8976SOL    HW238562   1.788   2.152   0.125 -0.1381 -0.9320 -0.7230
 8977SOL     OW38563   0.033   0.016   9.593  0.7699  0.1930  0.0388
 8977SOL    HW138564   0.082   0.074   9.651  1.0596  1.4127 -1.4178
 8977SOL    HW238565   4.696   0.005   9.654  1.5725 -0.2315  0.9089
 8978SOL     OW38566   1.849   0.647  14.290 -0.6738  0.8395  0.2084
 8978SOL    HW138567   1.926   0.597  14.263 -0.9830  0.4987 -0.0378
 8978SOL    HW238568   1.884   0.728  14.253  0.9769 -0.3269 -0.8115
 8979SOL     OW38569   4.392   1.557   3.986 -0.1527 -0.7430 -0.1907
 8979SOL    HW138570   4.323   1.559   4.053 -0.6180  2.4064 -0.7338
 8979SOL    HW238571   4.359   1.487   3.929  0.9276 -0.7248 -0.8351
 8980SOL     OW38572   3.488   4.394   9.889  0.0408 -0.3010 -0.1640
 8980SOL    HW138573   3.460   4.468   9.835  2.3885  0.8763  0.2165
 8980SOL    HW238574   3.575   4.375   9.854 -0.4202 -1.8241 -0.4657
 8981SOL     OW38575   0.305   1.201   4.859 -0.0934 -0.4632 -0.0500
 8981SOL    HW138576   0.338   1.234   4.943 -0.4544 -1.3323  0.4338
 8981SOL    HW238577   0.365   1.247   4.801 -1.2951  1.3595  0.1543
 8982SOL     OW38578   2.324   1.349   2.020  0.6257 -0.5773  0.4022
 8982SOL    HW138579   2.252   1.398   1.980 -0.0947 -2.3330 -0.4900
 8982SOL    HW238580   2.325   1.398   2.102 -0.7194  0.0560  0.0474
 8983SOL     OW38581   4.469   3.369  16.816  0.0031  0.3667  0.2150
 8983SOL    HW138582   4.541   3.364  16.752  0.8546  0.1249  1.1896
 8983SOL    HW238583   4.430   3.283  16.798  1.3746 -0.6784  2.1883
 8984SOL     OW38584   4.408   1.453  11.477  0.2801  0.1042  0.2116
 8984SOL    HW138585   4.354   1.516  11.525 -1.5786  0.2223 -2.0068
 8984SOL    HW238586   4.451   1.503  11.408  1.3012 -0.8217  0.1883
 8985SOL     OW38587   4.273   0.979  11.403 -0.0610  0.1336  0.3883
 8985SOL    HW138588   4.335   0.931  11.459  1.6728  1.7357 -0.1333
 8985SOL    HW238589   4.204   1.010  11.462 -0.6146  1.1872 -0.8264
 8986SOL     OW38590   0.363   0.497   0.201 -0.1058  0.3701 -0.1921
 8986SOL    HW138591   0.351   0.592   0.202  2.7253  0.7059 -0.0405
 8986SOL    HW238592   0.433   0.481   0.138 -0.1017 -0.5777  0.0546
 8987SOL     OW38593   1.421   1.148   1.537 -0.3185 -0.4142  0.1874
 8987SOL    HW138594   1.491   1.157   1.602  0.7850  0.1837 -1.0962
 8987SOL    HW238595   1.484   1.147   1.466 -0.1202  0.4753  0.3456
 8988SOL     OW38596   3.962   4.322   4.198  0.5530 -0.7027  0.4033
 8988SOL    HW138597   3.878   4.289   4.232 -0.8216  0.6740 -1.6233
 8988SOL    HW238598   3.932   4.391   4.138 -1.9267  0.8005  3.3390
 8989SOL     OW38599   4.138   1.396  13.130 -0.0364  0.6687 -0.8142
 8989SOL    HW138600   4.155   1.467  13.068  3.0862  0.9169  0.3199
 8989SOL    HW238601   4.228   1.385  13.162 -1.3450  1.5031  3.1997
 8990SOL     OW38602   4.217   1.300   9.375  0.1378 -0.2276  0.2001
 8990SOL    HW138603   4.165   1.348   9.440 -0.6723  1.6887 -1.8560
 8990SOL    HW238604   4.158   1.231   9.345  0.4990 -0.2402 -0.4627
 8991SOL     OW38605   2.329   0.409   8.860  0.1395 -0.3113  0.4340
 8991SOL    HW138606   2.271   0.332   8.861 -0.1434 -0.1082 -1.6722
 8991SOL    HW238607   2.401   0.379   8.805  0.2896  0.1637  0.3795
 8992SOL     OW38608   1.100   0.173  13.875 -0.2143  0.1235  0.3707
 8992SOL    HW138609   1.118   0.115  13.948  1.5352 -0.6647 -0.6981
 8992SOL    HW238610   1.154   0.137  13.805 -0.7250  0.3393 -0.1457
 8993SOL     OW38611   3.659   3.912   9.007 -0.0494  0.2976 -0.3681
 8993SOL    HW138612   3.652   3.915   8.912  1.5206  0.3452 -0.4828
 8993SOL    HW238613   3.752   3.911   9.027 -0.2197  0.9481  0.5106
 8994SOL     OW38614   3.587   2.479  12.499  0.1543 -0.3843 -0.2681
 8994SOL    HW138615   3.578   2.568  12.464 -1.0563 -0.0369  0.9193
 8994SOL    HW238616   3.598   2.490  12.593  2.5001 -1.0688 -0.4760
 8995SOL     OW38617   3.882   1.307  14.538  0.5833 -0.1848  0.3020
 8995SOL    HW138618   3.918   1.222  14.564 -0.3051 -1.0467 -1.3475
 8995SOL    HW238619   3.827   1.287  14.463  0.0700  2.2957  0.0173
 8996SOL     OW38620   0.185   2.355   6.591  0.1719 -0.1681 -0.3954
 8996SOL    HW138621   0.176   2.331   6.683  0.9840  1.2519  0.0555
 8996SOL    HW238622   0.123   2.299   6.545  0.5140  0.1024 -1.1952
 8997SOL     OW38623   2.938   0.067   8.490 -0.1467 -0.2212 -0.2736
 8997SOL    HW138624   2.892   0.132   8.437 -0.1415 -1.0091 -1.2655
 8997SOL    HW238625   2.969   0.019   8.412 -1.1008 -1.2864 -0.0033
 8998SOL     OW38626   3.212   3.483   7.232  0.1459  0.4464 -0.8327
 8998SOL    HW138627   3.206   3.577   7.214  1.1667  0.5294 -0.7591
 8998SOL    HW238628   3.122   3.452   7.221 -0.3224  1.7502 -0.7372
 8999SOL     OW38629   0.494   3.369   7.891  0.6775 -0.3704 -0.7694
 8999SOL    HW138630   0.473   3.328   7.808 -2.5549  0.0509 -0.1558
 8999SOL    HW238631   0.587   3.393   7.887 -0.5567  4.4202 -1.0365
 9000SOL     OW38632   0.854   1.859  15.120  0.5490 -0.6827 -0.1364
 9000SOL    HW138633   0.782   1.809  15.082  1.0254 -1.7797  0.3839
 9000SOL    HW238634   0.889   1.903  15.043  0.2933 -0.9820 -0.4205
 9001SOL     OW38635   3.014   3.080   9.422  0.1429  0.0662 -0.6032
 9001SOL    HW138636   3.011   3.157   9.366 -1.8061  0.1848 -0.3501
 9001SOL    HW238637   2.923   3.051   9.411  0.4167 -0.9133 -0.2870
 9002SOL     OW38638   0.200   4.113   1.352 -0.2074  0.8026  0.6358
 9002SOL    HW138639   0.285   4.070   1.350  0.1971  1.6571 -0.6880
 9002SOL    HW238640   0.221   4.205   1.335 -2.0389  1.0205 -0.5136
 9003SOL     OW38641   1.334   2.367   7.657 -0.2962 -0.0163  0.0562
 9003SOL    HW138642   1.259   2.319   7.622  1.2252 -2.2264 -0.1882
 9003SOL    HW238643   1.405   2.301   7.658  0.5684  0.8875 -1.5988
 9004SOL     OW38644   2.451   3.304   3.361 -0.0642  0.1894 -0.1420
 9004SOL    HW138645   2.381   3.314   3.426 -0.0898  2.7629 -0.5652
 9004SOL    HW238646   2.401   3.330   3.285  1.5896  1.2301 -0.8704
 9005SOL     OW38647   3.988   1.170   9.304  0.3166 -0.2707 -0.0959
 9005SOL    HW138648   3.929   1.141   9.373  0.1751  2.7494  1.0425
 9005SOL    HW238649   3.943   1.250   9.278  0.1012 -0.7567 -1.2221
 9006SOL     OW38650   4.165   3.907   7.138  0.0669 -0.1588  0.3202
 9006SOL    HW138651   4.161   4.002   7.149 -0.8698 -0.1465 -0.1561
 9006SOL    HW238652   4.076   3.885   7.164 -0.1209 -0.2459 -0.3943
 9007SOL     OW38653   4.483   1.252  15.188 -0.2608 -0.0171 -0.1142
 9007SOL    HW138654   4.549   1.254  15.119  0.6888 -1.1429  0.7659
 9007SOL    HW238655   4.456   1.344  15.185  1.0074  0.3358 -0.4511
 9008SOL     OW38656   3.748   3.262   9.187 -0.7934  0.1039 -0.4305
 9008SOL    HW138657   3.660   3.227   9.173 -0.1079 -2.2852  1.0503
 9008SOL    HW238658   3.731   3.356   9.186  0.6841  0.3712 -0.0609
 9009SOL     OW38659   3.388   4.644   7.528 -0.1814  0.0114  0.0874
 9009SOL    HW138660   3.478   4.632   7.557  0.3232  2.4040 -0.5148
 9009SOL    HW238661   3.373   4.554   7.498 -0.1877 -0.9136  2.9076
 9010SOL     OW38662   2.662   0.007   7.967 -0.1905  0.0814  0.5289
 9010SOL    HW138663   2.608   4.675   8.006  0.8268 -1.1692 -0.2457
 9010SOL    HW238664   2.637   0.076   8.029  0.1418  2.1518 -1.6055
 9011SOL     OW38665   0.145   4.501  10.636  0.0529  0.4882 -0.4598
 9011SOL    HW138666   0.197   4.560  10.582 -0.1674 -0.4660 -1.7010
 9011SOL    HW238667   0.094   4.466  10.563 -1.2201  0.2944  0.5266
 9012SOL     OW38668   3.135   1.179   5.320  0.0984  0.2476  0.2272
 9012SOL    HW138669   3.193   1.239   5.272  0.9350 -1.1208 -0.4863
 9012SOL    HW238670   3.185   1.120   5.377  1.4812  1.2472  0.0570
 9013SOL     OW38671   3.217   3.576   2.777  0.5565 -0.5135 -0.7759
 9013SOL    HW138672   3.301   3.621   2.788  1.1391 -2.0450  0.8752
 9013SOL    HW238673   3.197   3.538   2.863  1.7112 -2.0729 -1.2059
 9014SOL     OW38674   3.237   2.599  13.478 -0.3723 -0.0789 -0.0330
 9014SOL    HW138675   3.309   2.538  13.466 -0.3335 -0.6174  2.7814
 9014SOL    HW238676   3.263   2.656  13.406  2.3829  0.2702  1.2405
 9015SOL     OW38677   2.528   3.791   4.980  0.1354  0.3551  0.6982
 9015SOL    HW138678   2.439   3.824   4.989 -0.3249 -1.2440  2.0125
 9015SOL    HW238679   2.553   3.805   4.889  1.0887 -1.0905  0.7416
 9016SOL     OW38680   0.504   4.311   3.471 -0.3322 -0.0956 -0.0049
 9016SOL    HW138681   0.467   4.360   3.397 -2.3342 -1.2441  0.2656
 9016SOL    HW238682   0.569   4.371   3.509 -0.3423  0.1423 -0.3629
 9017SOL     OW38683   1.553   0.870   8.154  0.6426  0.3477 -0.1867
 9017SOL    HW138684   1.491   0.942   8.147  0.2300 -0.1790 -1.8568
 9017SOL    HW238685   1.510   0.803   8.207  0.3895  0.7390  0.1020
 9018SOL     OW38686   0.203   2.889   7.186  0.5071  0.1053  0.0286
 9018SOL    HW138687   0.221   2.955   7.118 -1.5273  2.1320  1.4522
 9018SOL    HW238688   0.108   2.894   7.171  0.9387  3.4155 -1.6737
 9019SOL     OW38689   4.615   3.782   9.926  0.4273  0.0621 -0.2359
 9019SOL    HW138690   4.690   3.837   9.950  0.4784 -0.2338  0.2832
 9019SOL    HW238691   4.628   3.709   9.987  2.3576  0.3835 -0.2829
 9020SOL     OW38692   4.628   3.267   9.378  0.2247 -0.8031  0.4273
 9020SOL    HW138693   4.690   3.302   9.443 -2.2562 -2.0538  3.4493
 9020SOL    HW238694   4.616   3.344   9.322 -0.9347 -1.0276  0.3808
 9021SOL     OW38695   1.696   3.581   6.632  0.4926  0.2229 -0.1656
 9021SOL    HW138696   1.780   3.610   6.666  0.1399  2.8194 -1.4646
 9021SOL    HW238697   1.658   3.527   6.701 -0.1043  1.3311  0.3817
 9022SOL     OW38698   3.972   2.537   1.539 -0.1483 -0.4723  0.2602
 9022SOL    HW138699   4.017   2.588   1.607 -1.4939  1.7668 -0.5177
 9022SOL    HW238700   4.041   2.487   1.495  0.5587  0.8098 -0.1015
 9023SOL     OW38701   1.149   4.019   3.264 -0.6943  0.1525  0.2033
 9023SOL    HW138702   1.151   3.933   3.306  0.5455  0.7910  1.4785
 9023SOL    HW238703   1.138   4.086   3.332 -0.3906  0.5325 -0.1184
 9024SOL     OW38704   2.229   3.097   1.246  0.4791  0.0551  0.0748
 9024SOL    HW138705   2.218   3.014   1.200 -1.0580  1.0604 -1.4247
 9024SOL    HW238706   2.223   3.068   1.336  1.9981 -1.5173 -0.3431
 9025SOL     OW38707   2.484   0.604   4.941  0.1834 -0.3061  0.3215
 9025SOL    HW138708   2.450   0.668   4.879 -0.5401 -2.6058 -1.6413
 9025SOL    HW238709   2.435   0.524   4.920 -0.8546 -0.3868  3.0372
 9026SOL     OW38710   2.317   1.965   2.678  0.4277 -0.3448  0.8170
 9026SOL    HW138711   2.325   1.871   2.659 -2.6129 -0.3233 -0.5197
 9026SOL    HW238712   2.408   1.983   2.700  0.4018 -0.4062  0.9749
 9027SOL     OW38713   2.236   3.913   5.506 -0.3564  0.3564 -0.2281
 9027SOL    HW138714   2.210   3.884   5.593 -2.3426 -1.1459 -1.2882
 9027SOL    HW238715   2.311   3.967   5.529  0.7116 -0.8410 -0.9069
 9028SOL     OW38716   1.550   2.598   0.910 -0.0236 -0.0682  0.1755
 9028SOL    HW138717   1.477   2.635   0.860  1.7017  1.2078 -1.4021
 9028SOL    HW238718   1.566   2.669   0.972 -1.4315 -1.3351  1.9923
 9029SOL     OW38719   4.477   0.202  16.781  0.1676 -0.1606  0.2625
 9029SOL    HW138720   4.440   0.270  16.838  1.5817 -1.0632  2.2543
 9029SOL    HW238721   4.403   0.191  16.721 -0.4509  2.3220  0.5562
 9030SOL     OW38722   0.710   1.630   4.864  0.1123  0.4916  0.0048
 9030SOL    HW138723   0.696   1.656   4.773 -2.6900 -1.0024  0.0186
 9030SOL    HW238724   0.690   1.708   4.916 -1.1306  0.1155  0.0856
 9031SOL     OW38725   1.903   3.236   9.808  0.8628 -0.6061 -0.2559
 9031SOL    HW138726   1.816   3.266   9.834  1.1684  1.7373 -1.8827
 9031SOL    HW238727   1.947   3.320   9.798  0.6146 -0.5992 -1.3293
 9032SOL     OW38728   2.985   0.534   1.629  0.7239  0.1503  0.0996
 9032SOL    HW138729   3.009   0.612   1.580  0.3169  0.2952  0.1242
 9032SOL    HW238730   2.966   0.584   1.709  0.3563  0.4390 -0.1636
 9033SOL     OW38731   3.186   0.396   4.731  0.3688 -0.1206  0.1629
 9033SOL    HW138732   3.196   0.433   4.644 -0.2956 -0.4786 -0.0648
 9033SOL    HW238733   3.199   0.473   4.785  0.3490 -0.7326  1.0459
 9034SOL     OW38734   3.185   2.594  14.925 -0.2529 -0.2117  0.2819
 9034SOL    HW138735   3.136   2.676  14.928 -1.5571 -0.9494 -1.1621
 9034SOL    HW238736   3.132   2.527  14.968 -1.5847 -0.2276 -1.4154
 9035SOL     OW38737   0.449   0.708   5.606  0.5202 -0.0295  0.3610
 9035SOL    HW138738   0.478   0.641   5.544  1.2622 -0.2404  0.9399
 9035SOL    HW238739   0.435   0.781   5.545 -0.2059 -0.8495 -0.4650
 9036SOL     OW38740   3.344   4.127  15.828 -0.3572 -0.0730  0.5485
 9036SOL    HW138741   3.256   4.150  15.798 -0.8601 -0.6115  1.6150
 9036SOL    HW238742   3.323   4.069  15.901  1.1970 -0.4678  0.6737
 9037SOL     OW38743   2.088   0.662  14.522 -0.2298 -0.3207  0.0885
 9037SOL    HW138744   2.119   0.747  14.493 -1.3121 -0.2816 -0.9272
 9037SOL    HW238745   2.086   0.615  14.439 -1.8308 -0.2248  0.0725
 9038SOL     OW38746   3.708   2.059  15.298  0.2486  0.0461 -0.5507
 9038SOL    HW138747   3.791   2.051  15.345  0.0885  0.3787 -0.2181
 9038SOL    HW238748   3.742   2.132  15.246 -0.3472  0.9416  0.3153
 9039SOL     OW38749   1.022   1.849  15.333 -0.0520  0.3155  0.0686
 9039SOL    HW138750   1.023   1.758  15.303 -0.7195  0.2484  0.2421
 9039SOL    HW238751   0.950   1.889  15.284 -1.1199 -0.7809  0.7195
 9040SOL     OW38752   2.212   1.722   1.957 -0.2356 -0.6351  0.0292
 9040SOL    HW138753   2.233   1.672   1.879  1.6783  0.5923 -0.2415
 9040SOL    HW238754   2.292   1.759   1.996  0.3096 -0.5122 -1.2109
 9041SOL     OW38755   0.940   0.916  15.906 -0.3609  0.4528 -0.3772
 9041SOL    HW138756   0.863   0.898  15.852 -0.1006  1.3571 -1.0576
 9041SOL    HW238757   0.921   0.858  15.980  1.8459  0.3612  0.1152
 9042SOL     OW38758   1.265   3.478   2.616  0.1668  0.1990 -0.7439
 9042SOL    HW138759   1.227   3.519   2.538 -2.7830 -0.9798  0.0663
 9042SOL    HW238760   1.213   3.401   2.639  1.0823 -0.3912 -0.6373
 9043SOL     OW38761   3.056   0.639   6.678 -0.1279 -0.1675  0.0941
 9043SOL    HW138762   3.015   0.599   6.755  0.5798  1.3488  1.2789
 9043SOL    HW238763   3.105   0.564   6.645  0.1792  0.1133 -0.0872
 9044SOL     OW38764   4.368   3.214   5.431 -0.0802 -0.6124 -0.0806
 9044SOL    HW138765   4.454   3.206   5.473  0.8354 -2.2036 -2.2681
 9044SOL    HW238766   4.325   3.286   5.478  0.0772 -0.5456 -0.0410
 9045SOL     OW38767   1.719   0.105   1.805  0.5817 -0.2026 -0.5007
 9045SOL    HW138768   1.674   0.156   1.738 -1.0658 -1.6867 -0.5336
 9045SOL    HW238769   1.719   0.163   1.881  0.0011 -0.6007 -0.2005
 9046SOL     OW38770   1.263   1.553   5.568  0.2875 -0.3198 -0.7889
 9046SOL    HW138771   1.169   1.540   5.557  0.4709 -2.7851  0.3789
 9046SOL    HW238772   1.252   1.591   5.655 -0.2693 -4.0121  0.7769
 9047SOL     OW38773   4.594   4.207  14.204  0.4863 -0.3366 -0.0341
 9047SOL    HW138774   4.516   4.234  14.155  0.7204  0.3011 -0.0531
 9047SOL    HW238775   4.545   4.187  14.284 -0.1986 -0.8152 -0.5729
 9048SOL     OW38776   1.831   1.656   5.172 -0.6909 -0.1363  0.4401
 9048SOL    HW138777   1.885   1.729   5.202 -1.2794 -0.1932  1.6668
 9048SOL    HW238778   1.867   1.634   5.086  1.8767  2.3381  0.8810
 9049SOL     OW38779   3.948   3.218   5.842 -0.1539 -0.2684  0.1775
 9049SOL    HW138780   3.904   3.212   5.927  0.4313 -1.4941  0.3788
 9049SOL    HW238781   3.976   3.128   5.829  0.5823 -0.1386  0.8742
 9050SOL     OW38782   4.356   4.307   2.229  0.1904  0.3437  0.1749
 9050SOL    HW138783   4.443   4.292   2.266  1.0098  0.2985 -1.7802
 9050SOL    HW238784   4.299   4.321   2.305  2.5768  2.8519  1.4996
 9051SOL     OW38785   2.470   3.405   2.581  0.2158 -0.7790 -0.4582
 9051SOL    HW138786   2.402   3.349   2.543  0.5228 -0.2250 -1.8118
 9051SOL    HW238787   2.523   3.345   2.634 -1.5090 -0.0893  2.0407
 9052SOL     OW38788   0.769   0.260   4.133 -0.2657 -0.6222  0.2996
 9052SOL    HW138789   0.718   0.180   4.121 -1.1891 -0.4960  3.5552
 9052SOL    HW238790   0.699   0.317   4.164 -1.1178 -1.5984  0.1931
 9053SOL     OW38791   0.741   3.066   1.325 -0.2272 -0.4426  0.2807
 9053SOL    HW138792   0.698   3.089   1.243 -0.6119 -1.9230  0.0809
 9053SOL    HW238793   0.831   3.090   1.306 -0.1717 -2.5029 -2.0463
 9054SOL     OW38794   0.892   0.454  16.735 -0.2804 -0.1828  0.1774
 9054SOL    HW138795   0.906   0.394  16.808 -1.1477 -0.4887  0.0924
 9054SOL    HW238796   0.965   0.428  16.680  0.7861  0.4551  1.2798
 9055SOL     OW38797   3.092   4.678   6.697 -0.0913 -0.4949  0.1599
 9055SOL    HW138798   3.150   4.726   6.639 -1.1774  1.7030  0.9012
 9055SOL    HW238799   3.135   4.593   6.700  0.9258  0.0078 -0.6705
 9056SOL     OW38800   2.148   3.942  12.036  0.2116 -0.0362 -0.1413
 9056SOL    HW138801   2.079   3.896  12.085  0.2224 -2.5816 -2.5006
 9056SOL    HW238802   2.089   4.006  11.997 -0.9204 -0.7417  0.4081
 9057SOL     OW38803   4.581   0.529  11.497  0.0654 -0.8840 -0.1121
 9057SOL    HW138804   4.606   0.486  11.415 -0.7669 -2.0665  0.2364
 9057SOL    HW238805   4.649   0.515  11.563 -0.3347  2.2943  0.9703
 9058SOL     OW38806   2.521   3.731   3.093 -0.0821  0.1433  0.3151
 9058SOL    HW138807   2.557   3.816   3.120  2.1181 -0.3265 -1.1388
 9058SOL    HW238808   2.499   3.707   3.183  0.3659 -0.5670  0.2320
 9059SOL     OW38809   3.507   0.051  12.475  0.0230 -0.1604  0.7713
 9059SOL    HW138810   3.529   0.133  12.518 -2.8938  0.9662  0.0588
 9059SOL    HW238811   3.444   0.012  12.535 -0.2435 -1.4416 -0.3238
 9060SOL     OW38812   1.002   0.030   7.586  0.1168  0.1429  0.3112
 9060SOL    HW138813   1.029   0.015   7.676 -1.8484  1.7853  1.1784
 9060SOL    HW238814   0.909   0.007   7.596  0.1560 -0.5652 -0.9453
 9061SOL     OW38815   2.476   1.098   2.066  0.2748  0.3303 -0.3160
 9061SOL    HW138816   2.552   1.153   2.088  1.4191 -2.2540  2.2307
 9061SOL    HW238817   2.409   1.161   2.041  0.5403  1.1289  0.9531
 9062SOL     OW38818   4.506   2.342   8.394 -0.5273  0.6770 -0.3293
 9062SOL    HW138819   4.547   2.326   8.479 -1.2983  2.9774  0.4891
 9062SOL    HW238820   4.414   2.346   8.421 -0.1565  3.1519  0.6503
 9063SOL     OW38821   3.878   3.880   5.746  0.4398 -0.1387 -0.2580
 9063SOL    HW138822   3.823   3.950   5.712  0.9183 -0.0400 -0.8414
 9063SOL    HW238823   3.937   3.875   5.670  0.7536  0.4241 -0.0472
 9064SOL     OW38824   0.056   4.464  12.678 -0.1815  0.3356 -0.0959
 9064SOL    HW138825   0.100   4.522  12.616  0.4180  0.5247  0.5024
 9064SOL    HW238826   0.133   4.444  12.731  1.1374  0.9175 -1.8486
 9065SOL     OW38827   3.052   2.684   7.895 -0.3594 -0.6446 -0.0788
 9065SOL    HW138828   3.062   2.664   7.802 -0.4726 -0.7888 -0.0596
 9065SOL    HW238829   3.010   2.770   7.900 -0.8465 -0.8115 -1.5549
 9066SOL     OW38830   0.349   4.641   2.038 -0.5943  0.5043  0.0851
 9066SOL    HW138831   0.280   4.621   1.974 -0.2230  1.3820 -0.5861
 9066SOL    HW238832   0.426   4.640   1.980  0.3704 -3.3715  1.4211
 9067SOL     OW38833   0.548   2.721   7.840  0.5387  0.5369  0.2657
 9067SOL    HW138834   0.557   2.680   7.926  1.5698  0.0453 -0.0712
 9067SOL    HW238835   0.484   2.784   7.873 -0.5919 -1.3430  1.6004
 9068SOL     OW38836   0.601   1.034  10.749 -0.0483  0.7293  0.3842
 9068SOL    HW138837   0.595   0.983  10.830 -0.3679 -1.6102 -1.1183
 9068SOL    HW238838   0.693   1.059  10.745 -0.0284  0.7012  0.6587
 9069SOL     OW38839   0.749   0.221   5.249 -0.5499  0.0320  0.7596
 9069SOL    HW138840   0.695   0.260   5.181  0.6892 -0.0036 -0.2404
 9069SOL    HW238841   0.695   0.198   5.325 -1.2322  0.2411  0.3348
 9070SOL     OW38842   4.029   2.136   4.382 -0.1897 -0.2948 -0.5326
 9070SOL    HW138843   4.037   2.069   4.450  1.4836 -0.2416 -0.6905
 9070SOL    HW238844   4.076   2.094   4.309  0.1181 -1.3825  0.2866
 9071SOL     OW38845   4.109   1.937   6.711 -0.3807  0.4338 -0.3771
 9071SOL    HW138846   4.135   1.985   6.632 -0.0502  0.9883  0.0684
 9071SOL    HW238847   4.043   1.872   6.686  1.2259 -1.5891  0.5793
 9072SOL     OW38848   0.669   3.360   1.387 -0.3642 -0.3695  0.0941
 9072SOL    HW138849   0.650   3.359   1.480  2.0722 -1.5329  0.5774
 9072SOL    HW238850   0.729   3.286   1.384  1.3471  1.0808 -1.9480
 9073SOL     OW38851   3.826   3.862  14.382 -0.1225 -0.2062 -0.4016
 9073SOL    HW138852   3.797   3.860  14.473 -0.0865 -1.9960 -0.4380
 9073SOL    HW238853   3.899   3.924  14.391  1.1851 -2.1300  2.1598
 9074SOL     OW38854   4.687   2.716   6.925 -0.1624 -0.1479 -0.6957
 9074SOL    HW138855   4.725   2.753   6.846 -0.3027 -0.0243 -0.7048
 9074SOL    HW238856   4.605   2.676   6.896  0.6989 -1.9001 -0.7125
 9075SOL     OW38857   1.473   1.736  15.615 -0.0646  0.0203 -0.0333
 9075SOL    HW138858   1.408   1.691  15.668  1.2574 -0.2502  1.3554
 9075SOL    HW238859   1.415   1.770  15.547  2.1046  0.4415 -1.7128
 9076SOL     OW38860   0.388   4.185  12.041 -0.2635 -0.0461  0.3149
 9076SOL    HW138861   0.337   4.141  11.973 -0.3706  1.3322 -0.5004
 9076SOL    HW238862   0.324   4.158  12.107 -1.0972 -0.0527 -0.4938
 9077SOL     OW38863   4.455   3.396  14.429 -0.2995 -0.1442  0.2544
 9077SOL    HW138864   4.433   3.310  14.393 -0.9565 -0.5039  1.5060
 9077SOL    HW238865   4.543   3.411  14.393 -0.6075  1.2902  0.0908
 9078SOL     OW38866   0.209   2.861   8.473 -0.0484  0.1246 -0.3094
 9078SOL    HW138867   0.207   2.817   8.558  0.3626  1.7968  0.5659
 9078SOL    HW238868   0.195   2.782   8.421 -0.4336 -0.3221  0.4764
 9079SOL     OW38869   1.730   0.887   4.332  0.2602 -0.2050  0.6494
 9079SOL    HW138870   1.787   0.911   4.405  0.2316  0.7808  0.3471
 9079SOL    HW238871   1.646   0.909   4.373 -0.2758  0.5754 -0.8355
 9080SOL     OW38872   0.147   3.246   7.334 -0.0968 -0.1791  0.7372
 9080SOL    HW138873   0.085   3.236   7.262  0.9740 -0.6062 -0.1194
 9080SOL    HW238874   0.115   3.174   7.388 -1.9865  0.3605  0.3539
 9081SOL     OW38875   2.272   4.198   0.404  0.4672 -0.2147 -0.0074
 9081SOL    HW138876   2.366   4.186   0.396  0.5900 -1.0977  2.7254
 9081SOL    HW238877   2.260   4.288   0.374  0.6240 -0.4150 -0.6768
 9082SOL     OW38878   2.399   3.945   7.582 -0.6672 -0.2338 -0.2972
 9082SOL    HW138879   2.382   3.863   7.536 -1.2768  0.1955 -0.8308
 9082SOL    HW238880   2.333   3.958   7.651  0.1223 -2.5903  0.9197
 9083SOL     OW38881   1.227   4.714   8.489 -0.0827 -0.3610  0.0756
 9083SOL    HW138882   1.290   4.701   8.418  0.9941 -0.4825  1.0441
 9083SOL    HW238883   1.281   4.732   8.566 -0.2544  0.3669  0.0308
 9084SOL     OW38884   3.603   4.522   3.908 -0.0005  0.4595  0.0737
 9084SOL    HW138885   3.578   4.559   3.992  2.1189  1.2441  0.3472
 9084SOL    HW238886   3.606   4.601   3.855 -0.2113  0.6974  0.4136
 9085SOL     OW38887   2.487   0.682   3.471  0.1826 -0.9706  0.1219
 9085SOL    HW138888   2.564   0.739   3.470  0.8798 -1.9206 -0.3951
 9085SOL    HW238889   2.514   0.618   3.406 -0.6271 -1.6838  0.4821
 9086SOL     OW38890   0.525   4.124   3.242 -0.2648 -0.4065 -0.0570
 9086SOL    HW138891   0.523   4.163   3.329 -0.5229  0.4070 -0.4242
 9086SOL    HW238892   0.565   4.188   3.183 -0.6692  0.0402  0.1465
 9087SOL     OW38893   0.017   4.591   1.610 -0.1150  0.3592  0.0429
 9087SOL    HW138894   4.717   4.549   1.532  1.1008 -1.5051  0.4828
 9087SOL    HW238895   4.724   4.682   1.603 -0.0785  0.4523  1.0491
 9088SOL     OW38896   1.353   3.321   6.343  0.1052  0.1726 -0.0437
 9088SOL    HW138897   1.279   3.260   6.338  1.4031 -1.1544 -2.6397
 9088SOL    HW238898   1.409   3.280   6.278  1.4226  3.6302 -1.0998
 9089SOL     OW38899   3.310   3.699   9.266 -0.3948  0.2590 -0.3646
 9089SOL    HW138900   3.402   3.715   9.284 -1.0783  2.3312  1.3739
 9089SOL    HW238901   3.254   3.775   9.285  0.4036  0.6851  0.2850
 9090SOL     OW38902   1.632   3.883  17.061 -0.1492  0.4415 -0.1688
 9090SOL    HW138903   1.543   3.850  17.072  0.0542 -0.5146 -1.4302
 9090SOL    HW238904   1.662   3.852  17.147  1.5195  2.1694 -0.1172
 9091SOL     OW38905   4.236   0.884   6.981 -0.1280  0.3661 -0.3828
 9091SOL    HW138906   4.178   0.880   6.905  0.6858 -1.9123 -0.9034
 9091SOL    HW238907   4.177   0.856   7.051 -1.4397 -0.5743 -1.8697
 9092SOL     OW38908   1.479   0.058   3.856  0.1610 -0.5015 -0.0823
 9092SOL    HW138909   1.464   0.149   3.832 -1.7637 -0.9345 -0.5224
 9092SOL    HW238910   1.447   0.011   3.778 -1.4433  0.9672 -0.3111
 9093SOL     OW38911   2.333   4.301   3.107 -0.3254 -0.1860  0.3786
 9093SOL    HW138912   2.300   4.218   3.073 -1.3343  1.3252 -2.3021
 9093SOL    HW238913   2.323   4.361   3.033  2.3807 -0.5657 -0.2787
 9094SOL     OW38914   1.872   1.548   2.501 -0.0447 -0.0732  0.4635
 9094SOL    HW138915   1.871   1.590   2.587  0.4675 -0.3423  0.6012
 9094SOL    HW238916   1.783   1.520   2.484  0.2272 -1.1653  0.8337
 9095SOL     OW38917   2.028   4.666  16.381 -0.4344 -0.2115 -0.1110
 9095SOL    HW138918   1.959   4.604  16.402 -0.0587 -1.0937 -1.4588
 9095SOL    HW238919   2.013   4.734  16.446  0.9713  0.3875 -0.4100
 9096SOL     OW38920   1.417   0.494  10.023  0.4973  0.2350  0.3697
 9096SOL    HW138921   1.354   0.428  10.053 -0.5509  0.2613 -1.7427
 9096SOL    HW238922   1.376   0.577  10.045  0.8816  0.6676 -0.5556
 9097SOL     OW38923   2.196   1.487  11.570  0.8956 -0.3580 -0.6826
 9097SOL    HW138924   2.110   1.451  11.589  0.5575  0.8565  0.1249
 9097SOL    HW238925   2.238   1.404  11.593 -0.0971 -0.3362  1.2023
 9098SOL     OW38926   2.367   4.060  16.863 -0.3885  0.0695  0.1822
 9098SOL    HW138927   2.462   4.062  16.856 -0.4656  0.4204 -0.7027
 9098SOL    HW238928   2.345   4.046  16.956 -1.7158 -1.9498 -0.4235
 9099SOL     OW38929   3.482   2.272   7.756 -0.1553  0.2575  0.2266
 9099SOL    HW138930   3.541   2.320   7.814  0.5589 -1.4124  0.8938
 9099SOL    HW238931   3.543   2.216   7.707  0.6704  0.9349  0.4798
 9100SOL     OW38932   0.380   1.179  10.721  0.1877  0.0539 -0.4978
 9100SOL    HW138933   0.323   1.123  10.773 -0.4364 -0.6065 -1.8962
 9100SOL    HW238934   0.453   1.118  10.728  0.4776  0.5293  0.6300
 9101SOL     OW38935   3.308   4.018   1.407  0.1701 -0.3112 -0.0497
 9101SOL    HW138936   3.250   3.984   1.475 -1.1319  1.2524 -0.3721
 9101SOL    HW238937   3.353   3.936   1.388 -2.9402 -1.4474 -2.5309
 9102SOL     OW38938   3.622   4.725   0.062 -0.0325  0.3240 -0.1363
 9102SOL    HW138939   3.616   4.711   0.156  0.6708  1.0993  0.0243
 9102SOL    HW238940   3.545   0.047   0.057  0.5310  1.0861 -0.0859
 9103SOL     OW38941   2.851   4.428   6.909  0.7117  0.1100  0.3014
 9103SOL    HW138942   2.889   4.344   6.935 -2.2695 -2.2326 -3.0051
 9103SOL    HW238943   2.865   4.476   6.991  0.2000  3.5722 -1.6406
 9104SOL     OW38944   3.158   0.572   4.540 -0.4114  0.2105  1.0182
 9104SOL    HW138945   3.217   0.647   4.545  0.6479 -0.6484  1.4127
 9104SOL    HW238946   3.083   0.600   4.592 -0.7889 -2.0969  1.7083
 9105SOL     OW38947   4.124   0.342   4.472  0.3542 -0.0408 -0.4694
 9105SOL    HW138948   4.194   0.299   4.522  0.0739 -1.5042 -1.3507
 9105SOL    HW238949   4.109   0.292   4.392 -1.2917 -1.0077  0.4560
 9106SOL     OW38950   3.335   2.140   4.968 -0.4798 -0.6442  0.4462
 9106SOL    HW138951   3.395   2.189   5.023  0.1692  0.3509 -1.1533
 9106SOL    HW238952   3.285   2.090   5.033  0.0528 -0.7530  0.7681
 9107SOL     OW38953   2.364   3.721  16.863  0.6227  0.3644 -0.1256
 9107SOL    HW138954   2.449   3.751  16.831  1.2319 -1.8568 -0.6015
 9107SOL    HW238955   2.365   3.634  16.824 -1.2996  0.5184 -0.5027
 9108SOL     OW38956   2.101   0.991   5.425  0.3224  0.3261 -0.0484
 9108SOL    HW138957   2.133   1.060   5.367 -2.3219  1.3911 -0.2212
 9108SOL    HW238958   2.068   1.041   5.500 -2.6148 -0.8179 -0.5868
 9109SOL     OW38959   2.748   2.774   8.990  0.2746  0.3073  0.1026
 9109SOL    HW138960   2.761   2.681   8.971  0.9740  0.5213 -0.4538
 9109SOL    HW238961   2.696   2.802   8.915  1.6965  0.1984 -0.9211
 9110SOL     OW38962   3.383   1.142   8.808 -0.1204 -0.8432  0.4039
 9110SOL    HW138963   3.300   1.095   8.808 -2.2945  3.0938  1.2350
 9110SOL    HW238964   3.398   1.134   8.903  1.2241  0.5580  0.3043
 9111SOL     OW38965   3.873   0.532  15.375  0.2834 -0.1877 -0.4646
 9111SOL    HW138966   3.803   0.526  15.310  0.4238 -0.0535 -0.6270
 9111SOL    HW238967   3.892   0.438  15.377  0.4515 -0.1373  0.3718
 9112SOL     OW38968   3.004   4.207   7.250  0.2480  0.6960  0.1270
 9112SOL    HW138969   3.000   4.203   7.154 -0.3099 -3.0338  0.2929
 9112SOL    HW238970   2.916   4.238   7.269  0.1013  1.4588 -1.7712
 9113SOL     OW38971   4.658   0.650   8.272  0.1017  0.1043 -0.3724
 9113SOL    HW138972   4.626   0.712   8.207  0.6672  2.2112  1.3254
 9113SOL    HW238973   4.587   0.587   8.271 -0.8257  1.1183  1.3063
 9114SOL     OW38974   0.660   2.090   4.906 -0.3261 -0.0839 -0.0087
 9114SOL    HW138975   0.743   2.092   4.858 -0.1152  1.3635  0.4124
 9114SOL    HW238976   0.631   2.181   4.900  2.0777  0.5225 -2.3051
 9115SOL     OW38977   0.949   2.255   5.268  0.1820  0.2171 -0.4537
 9115SOL    HW138978   1.039   2.249   5.302 -1.1491 -1.4893  2.7216
 9115SOL    HW238979   0.965   2.281   5.177  1.8358 -1.5991 -0.6875
 9116SOL     OW38980   1.556   3.096   4.820  0.4296 -0.4935  0.4136
 9116SOL    HW138981   1.627   3.068   4.763 -0.0838  0.1862 -0.5569
 9116SOL    HW238982   1.588   3.049   4.898  0.8587 -0.2039  0.4188
 9117SOL     OW38983   0.419   3.826   7.602 -0.2882  1.0701  0.0398
 9117SOL    HW138984   0.446   3.735   7.608 -1.0014  1.0307  2.7583
 9117SOL    HW238985   0.405   3.830   7.507 -1.7691 -0.4063  0.1937
 9118SOL     OW38986   0.670   3.930   8.397  0.5737  0.6649  0.0883
 9118SOL    HW138987   0.617   4.007   8.418  1.7767  1.1703  1.2905
 9118SOL    HW238988   0.670   3.877   8.477 -0.2560  2.6202  1.3853
 9119SOL     OW38989   2.801   4.424  17.552 -0.0742  0.2742 -0.0112
 9119SOL    HW138990   2.797   4.394  17.642 -0.2140  0.5680  0.0815
 9119SOL    HW238991   2.835   4.352  17.498  0.7698 -1.1537  2.4608
 9120SOL     OW38992   1.608   0.572  14.374 -0.1493  0.0073  0.6885
 9120SOL    HW138993   1.544   0.560  14.304  1.4004  1.4873 -0.9932
 9120SOL    HW238994   1.688   0.601  14.329 -0.4054  0.2259  0.3767
 9121SOL     OW38995   2.101   0.061  16.716 -0.1839 -0.0659  0.0180
 9121SOL    HW138996   2.171   0.099  16.664 -0.7814  1.1471  0.1016
 9121SOL    HW238997   2.079   0.137  16.769 -0.4828 -1.0906  1.3542
 9122SOL     OW38998   4.462   2.177   3.514  0.2069  0.0564  0.4181
 9122SOL    HW138999   4.544   2.185   3.562 -0.4764 -1.3416  1.7850
 9122SOL    HW239000   4.491   2.182   3.422 -1.2451  1.0002 -0.0019
 9123SOL     OW39001   3.436   3.104   5.392  0.3621  0.9687 -0.5897
 9123SOL    HW139002   3.377   3.118   5.466  1.4861 -1.5143  0.7626
 9123SOL    HW239003   3.437   3.186   5.341  0.0053  0.8101 -0.8500
 9124SOL     OW39004   3.372   2.878   5.672  0.2127 -0.2083  0.1759
 9124SOL    HW139005   3.306   2.925   5.621  1.0509  1.3325  0.5206
 9124SOL    HW239006   3.376   2.936   5.747 -1.8124  0.1027  0.0425
 9125SOL     OW39007   3.510   2.733   1.946  0.0023 -0.4755 -0.0089
 9125SOL    HW139008   3.471   2.818   1.924  1.8819  0.4372  0.1788
 9125SOL    HW239009   3.511   2.690   1.860 -0.2754 -0.3327 -0.0842
 9126SOL     OW39010   1.573   0.896  10.187  0.1764  0.0865 -0.7941
 9126SOL    HW139011   1.485   0.888  10.150  0.3921 -0.7400 -1.1399
 9126SOL    HW239012   1.616   0.942  10.115  0.7762 -1.6524 -1.5381
 9127SOL     OW39013   2.025   2.929  13.306  0.0165  0.4451  0.6019
 9127SOL    HW139014   2.024   2.951  13.213  0.7228  0.9861  0.7248
 9127SOL    HW239015   2.099   2.868  13.309 -0.4191  0.0386  2.5406
 9128SOL     OW39016   3.567   3.876   5.548 -0.1380  0.5347 -0.0355
 9128SOL    HW139017   3.557   3.893   5.454 -0.9573 -0.6682 -0.1641
 9128SOL    HW239018   3.554   3.783   5.534  1.2002  0.3648 -0.1541
 9129SOL     OW39019   1.475   2.904  12.683  0.1567  0.0997 -0.3732
 9129SOL    HW139020   1.399   2.907  12.625  0.9413  0.0521 -1.4053
 9129SOL    HW239021   1.429   2.941  12.759  1.9696  0.5347  0.5250
 9130SOL     OW39022   2.699   2.024   5.335  0.1777  0.1659  0.4531
 9130SOL    HW139023   2.612   2.064   5.337 -0.2449 -0.7408  0.3660
 9130SOL    HW239024   2.698   1.978   5.419  0.4439  0.2959  0.5258
 9131SOL     OW39025   0.867   1.920   6.699 -0.1376 -0.2705  0.2814
 9131SOL    HW139026   0.814   1.842   6.716  2.1181 -2.1914 -1.4761
 9131SOL    HW239027   0.870   1.982   6.773  2.8557 -2.5378  2.0666
 9132SOL     OW39028   0.250   1.568   4.089  0.0207  0.1983  0.7631
 9132SOL    HW139029   0.319   1.549   4.152  0.6592  1.9864  0.5989
 9132SOL    HW239030   0.284   1.637   4.033  0.7306  0.1823  1.1836
 9133SOL     OW39031   3.519   2.833  13.383 -0.0297  0.2688  0.1410
 9133SOL    HW139032   3.444   2.785  13.349 -1.6943  1.4547  2.0932
 9133SOL    HW239033   3.553   2.766  13.443  0.8925 -1.0745 -1.9091
 9134SOL     OW39034   0.868   2.437   4.548 -0.3674  0.4417 -0.2275
 9134SOL    HW139035   0.957   2.453   4.578 -0.5059  3.0018 -1.1673
 9134SOL    HW239036   0.879   2.439   4.453 -1.5888 -0.6169 -0.4018
 9135SOL     OW39037   3.664   0.022   6.947  0.0008  0.6719  0.0716
 9135SOL    HW139038   3.593   4.694   6.946  0.1577  0.5058 -0.3961
 9135SOL    HW239039   3.638   0.059   6.863 -0.5609  1.2999  0.5284
 9136SOL     OW39040   0.316   2.861   6.693 -0.8270 -0.5490 -0.1784
 9136SOL    HW139041   0.269   2.786   6.655 -2.3263 -0.4296  1.4407
 9136SOL    HW239042   0.354   2.901   6.615 -1.0602 -2.3394 -1.2194
 9137SOL     OW39043   1.530   1.781   6.923 -0.2523 -0.0413  0.5690
 9137SOL    HW139044   1.534   1.707   6.862  0.0266 -0.0271  0.5659
 9137SOL    HW239045   1.597   1.839   6.888 -0.4290 -0.7978 -1.0307
 9138SOL     OW39046   0.958   3.313   3.911 -0.3543  0.1357  0.5090
 9138SOL    HW139047   0.910   3.302   3.993 -1.7129 -0.3034 -0.3465
 9138SOL    HW239048   1.002   3.228   3.903  1.2037  1.0657 -0.8367
 9139SOL     OW39049   2.712   3.200   1.911 -0.1196  0.6287 -0.1296
 9139SOL    HW139050   2.795   3.247   1.916 -0.0060  0.5139 -0.9080
 9139SOL    HW239051   2.725   3.156   1.827 -0.9634  0.7413 -0.3207
 9140SOL     OW39052   0.320   0.458   9.444  0.1495  0.1195 -0.0127
 9140SOL    HW139053   0.303   0.471   9.537  2.0576 -0.6043  0.4485
 9140SOL    HW239054   0.365   0.373   9.444 -1.6237 -0.8070 -0.9546
 9141SOL     OW39055   4.523   3.303  11.150 -0.4861 -0.1278 -0.8097
 9141SOL    HW139056   4.537   3.381  11.097 -1.6156  1.4125  1.1800
 9141SOL    HW239057   4.436   3.280  11.116  0.6385 -1.7383 -2.6363
 9142SOL     OW39058   1.729   4.449   6.835  0.2195 -0.4749 -0.2928
 9142SOL    HW139059   1.747   4.367   6.789  2.2507  0.3948 -1.0043
 9142SOL    HW239060   1.634   4.456   6.844  0.1085 -0.7458 -1.2141
 9143SOL     OW39061   2.981   3.659   4.504 -0.0954 -0.1573  0.3244
 9143SOL    HW139062   3.075   3.673   4.501 -0.1493 -0.4423 -2.8788
 9143SOL    HW239063   2.947   3.708   4.429  1.8830  2.2543  1.0096
 9144SOL     OW39064   0.638   1.699   4.107 -0.1888 -0.3327  0.2410
 9144SOL    HW139065   0.573   1.651   4.159  0.8993 -1.9990  0.0654
 9144SOL    HW239066   0.719   1.680   4.155 -0.0914 -0.8620 -0.1356
 9145SOL     OW39067   0.417   3.796   3.360 -0.0840 -0.0283 -0.1576
 9145SOL    HW139068   0.483   3.818   3.294  0.2889  0.3576  0.3388
 9145SOL    HW239069   0.377   3.881   3.378  0.3523  0.0047  0.6531
 9146SOL     OW39070   1.042   1.621   8.647 -0.0529 -0.0307 -0.7412
 9146SOL    HW139071   1.089   1.625   8.730  0.5832  3.8958 -1.3198
 9146SOL    HW239072   1.047   1.528   8.622  2.5426 -0.6742  2.1362
 9147SOL     OW39073   2.284   2.397   4.104 -0.6066  0.1632  0.5806
 9147SOL    HW139074   2.329   2.392   4.188  0.7690 -2.6140 -0.3058
 9147SOL    HW239075   2.197   2.422   4.134 -1.2037 -2.7536  1.2332
 9148SOL     OW39076   3.645   2.886   5.661  0.8340  0.3420 -0.1399
 9148SOL    HW139077   3.679   2.816   5.716  4.0054  1.1629 -1.0334
 9148SOL    HW239078   3.550   2.877   5.668  0.5298  2.3305 -1.6644
 9149SOL     OW39079   4.404   1.379   4.542 -0.1655 -0.0843  0.4566
 9149SOL    HW139080   4.407   1.378   4.446 -1.6844 -0.2549  0.4154
 9149SOL    HW239081   4.498   1.391   4.555  0.3758 -1.0836 -2.5238
 9150SOL     OW39082   1.273   4.592   5.560 -0.5897  0.2082  0.0167
 9150SOL    HW139083   1.239   4.681   5.560 -1.1225  0.0071  0.1131
 9150SOL    HW239084   1.201   4.560   5.506  0.1125  0.4959 -1.0883
 9151SOL     OW39085   4.250   2.873   0.539 -0.6857  0.3740 -0.3039
 9151SOL    HW139086   4.269   2.965   0.523  0.0938  0.3360  0.4019
 9151SOL    HW239087   4.297   2.827   0.470  0.1260 -0.2568  0.6558
 9152SOL     OW39088   1.771   0.310   4.413  0.3196  0.1746  0.8149
 9152SOL    HW139089   1.747   0.402   4.424 -2.1076 -0.7024  3.0530
 9152SOL    HW239090   1.697   0.269   4.457  2.3173 -1.4884  2.6521
 9153SOL     OW39091   0.179   0.722   5.437 -0.4993  0.4398  0.2332
 9153SOL    HW139092   0.181   0.633   5.474  3.4301  0.2971 -0.2831
 9153SOL    HW239093   0.157   0.784   5.507  0.2494 -0.0453  0.9103
 9154SOL     OW39094   0.998   0.061   5.318 -0.4472  0.0267  1.0157
 9154SOL    HW139095   1.091   0.044   5.333  0.0080 -0.5152 -2.5929
 9154SOL    HW239096   0.998   0.144   5.271  0.4874 -1.6384 -1.8658
 9155SOL     OW39097   3.456   0.641   8.910 -0.2456 -0.0744  0.0490
 9155SOL    HW139098   3.494   0.566   8.957  1.0859  0.0296 -0.8790
 9155SOL    HW239099   3.495   0.711   8.964  0.0109 -0.7064  0.6899
 9156SOL     OW39100   4.377   1.217   2.322  0.5298  0.4311 -0.2562
 9156SOL    HW139101   4.424   1.299   2.338 -1.5235  1.4673  0.4850
 9156SOL    HW239102   4.285   1.241   2.335  0.4978 -0.0372  0.3822
 9157SOL     OW39103   3.370   1.306   6.754 -0.2051  0.1720  0.5432
 9157SOL    HW139104   3.288   1.350   6.733 -0.2185  0.0484  0.3373
 9157SOL    HW239105   3.336   1.219   6.771 -0.2260  0.6209  2.7055
 9158SOL     OW39106   3.230   2.453  11.449  0.3640  0.6286  1.0490
 9158SOL    HW139107   3.233   2.497  11.534 -0.0069  1.3189  0.7022
 9158SOL    HW239108   3.135   2.446  11.456  0.1524  2.1269 -0.2198
 9159SOL     OW39109   3.485   3.066   1.901  0.1274  0.1764 -0.1130
 9159SOL    HW139110   3.427   3.138   1.925 -1.4112 -0.7005 -1.2719
 9159SOL    HW239111   3.559   3.083   1.960 -0.4171 -1.2444  0.9644
 9160SOL     OW39112   2.357   2.209   3.660 -0.0102  0.5353 -0.4978
 9160SOL    HW139113   2.441   2.212   3.615 -0.1624 -0.1668 -0.8291
 9160SOL    HW239114   2.394   2.177   3.743 -3.2732 -1.7240  0.0738
 9161SOL     OW39115   2.016   0.352   3.260 -0.0474  0.6012 -0.0643
 9161SOL    HW139116   2.103   0.324   3.231 -0.8215 -1.2911 -0.5736
 9161SOL    HW239117   1.994   0.403   3.181 -0.8555  0.2475 -0.0686
 9162SOL     OW39118   4.617   0.950  13.541 -0.2869  0.4728  0.2004
 9162SOL    HW139119   4.627   0.901  13.460 -0.7620  2.2170 -0.9131
 9162SOL    HW239120   4.673   0.898  13.599  0.3620  0.3830 -0.5021
 9163SOL     OW39121   2.965   4.054  15.503  0.6521 -0.1007 -0.0351
 9163SOL    HW139122   3.004   3.984  15.451 -0.0597 -1.6045  1.4585
 9163SOL    HW239123   2.936   4.114  15.434 -1.4694 -0.4093  0.6091
 9164SOL     OW39124   0.173   1.516  13.328 -0.0673  1.0135 -0.6466
 9164SOL    HW139125   0.165   1.611  13.313 -0.3184  1.1042  0.0969
 9164SOL    HW239126   0.252   1.508  13.382 -1.0257  0.2759  0.6129
 9165SOL     OW39127   1.033   0.984   3.682 -0.2715  0.3615 -0.2697
 9165SOL    HW139128   1.026   0.900   3.728 -2.2328  1.1412  0.8768
 9165SOL    HW239129   1.103   1.028   3.730  0.5239  0.1815 -1.2715
 9166SOL     OW39130   4.515   2.637   0.517  0.2722  0.6909  0.2802
 9166SOL    HW139131   4.492   2.558   0.468  0.1494 -0.1891  1.7859
 9166SOL    HW239132   4.538   2.606   0.604  0.0431 -1.9440 -0.5923
 9167SOL     OW39133   3.778   1.525   6.535  0.1537  0.0974  0.4966
 9167SOL    HW139134   3.765   1.497   6.625 -0.9172 -2.7096 -0.5549
 9167SOL    HW239135   3.831   1.605   6.533  0.2889 -0.0005  0.1723
 9168SOL     OW39136   1.562   4.336   8.422 -0.1805  0.1974  0.1110
 9168SOL    HW139137   1.637   4.300   8.375  0.6922  1.1333  0.7709
 9168SOL    HW239138   1.497   4.321   8.354  0.0259  0.2853 -0.1086
 9169SOL     OW39139   1.389   1.135   8.789  0.2343 -0.3125 -0.2624
 9169SOL    HW139140   1.334   1.202   8.748  0.9351 -0.5966 -1.6579
 9169SOL    HW239141   1.367   1.137   8.882  0.6216  0.2617 -0.1896
 9170SOL     OW39142   3.167   3.054   1.963  0.2872 -0.1712 -0.2712
 9170SOL    HW139143   3.121   3.075   2.044 -0.7681 -0.4145 -0.8145
 9170SOL    HW239144   3.246   3.108   1.975 -0.3999  0.6902  0.3144
 9171SOL     OW39145   4.311   4.073  12.418  0.5014  0.1515 -0.1430
 9171SOL    HW139146   4.400   4.041  12.434  0.1804 -0.9711 -0.6215
 9171SOL    HW239147   4.310   4.161  12.456 -2.5233 -0.3778  1.0240
 9172SOL     OW39148   4.035   0.913   5.066 -0.1927 -0.0457 -0.7904
 9172SOL    HW139149   3.981   0.987   5.039  0.7750  1.0778  0.3552
 9172SOL    HW239150   3.998   0.899   5.153 -0.3079  5.5623  0.0747
 9173SOL     OW39151   4.458   4.397  17.217 -0.2591  0.0119  0.1992
 9173SOL    HW139152   4.482   4.385  17.309  1.4952  1.0416 -0.1134
 9173SOL    HW239153   4.495   4.484  17.202 -0.1911 -0.1830 -0.7343
 9174SOL     OW39154   2.596   0.318   5.991 -0.1251  0.2570 -0.2496
 9174SOL    HW139155   2.648   0.396   5.974 -0.5358  0.3903 -0.8950
 9174SOL    HW239156   2.527   0.343   6.053  1.6689 -0.1764  1.9529
 9175SOL     OW39157   2.317   1.126   4.236 -0.5360 -0.0924  0.4873
 9175SOL    HW139158   2.235   1.132   4.187  0.3391 -0.5053 -1.0316
 9175SOL    HW239159   2.378   1.106   4.165  0.4822  3.3948  0.3656
 9176SOL     OW39160   0.659   0.660   6.927 -0.3860 -0.3687 -0.9799
 9176SOL    HW139161   0.577   0.691   6.889 -0.0695 -0.5592 -1.8234
 9176SOL    HW239162   0.685   0.724   6.993 -1.0399 -0.3906 -0.7088
 9177SOL     OW39163   0.924   1.664  14.496  0.5612  0.2217 -0.3114
 9177SOL    HW139164   0.975   1.705  14.565 -1.0078  2.2602 -0.3588
 9177SOL    HW239165   0.977   1.590  14.466 -1.0551 -1.1829  0.3161
 9178SOL     OW39166   0.054   0.534   4.261 -0.2773  0.4147  0.0790
 9178SOL    HW139167   0.120   0.603   4.267 -0.1556  0.0818  2.4731
 9178SOL    HW239168   4.718   0.594   4.240 -0.5712  0.3853  1.0220
 9179SOL     OW39169   4.724   3.996   2.792  0.0900  0.1579  0.3922
 9179SOL    HW139170   4.642   3.974   2.834 -0.3419  1.4281  0.2135
 9179SOL    HW239171   0.028   4.050   2.860  1.7625 -1.4661  0.7106
 9180SOL     OW39172   4.609   0.906   1.813 -0.0619  0.0920  0.0868
 9180SOL    HW139173   4.571   0.818   1.818  1.8949 -0.7548  0.3554
 9180SOL    HW239174   4.697   0.892   1.778  0.4645 -0.7412  1.7438
 9181SOL     OW39175   4.141   2.918   6.769 -0.3184 -0.4705  0.2465
 9181SOL    HW139176   4.184   3.003   6.781 -0.6738 -0.3712  0.8084
 9181SOL    HW239177   4.210   2.893   6.707 -1.8297 -0.2000 -1.5197
 9182SOL     OW39178   3.922   0.853   3.922 -0.2411  0.3752 -0.0243
 9182SOL    HW139179   3.894   0.921   3.983 -2.3615 -1.2095  0.7981
 9182SOL    HW239180   4.008   0.826   3.951 -0.0350 -0.9064 -1.8146
 9183SOL     OW39181   3.992   0.888   9.611  0.6550  0.5568  0.3259
 9183SOL    HW139182   3.993   0.935   9.695  1.8154  0.6601  0.2570
 9183SOL    HW239183   3.925   0.940   9.566  0.7864  0.8032  0.4172
 9184SOL     OW39184   0.264   0.906   4.779  0.1568  0.1453  1.0823
 9184SOL    HW139185   0.305   0.839   4.833 -0.2387 -0.6552  0.3887
 9184SOL    HW239186   0.297   0.988   4.815  2.0773 -0.7512  1.3499
 9185SOL     OW39187   4.278   2.794   4.234 -0.2049  0.1874 -0.0430
 9185SOL    HW139188   4.306   2.817   4.146 -0.1509 -1.6284 -0.5114
 9185SOL    HW239189   4.348   2.835   4.285  0.3244 -1.0912  0.2596
 9186SOL     OW39190   2.627   3.467   4.614 -0.0811  0.1652 -0.2997
 9186SOL    HW139191   2.627   3.520   4.534  0.8687  0.3078 -0.2046
 9186SOL    HW239192   2.719   3.460   4.639 -0.0277  0.4409 -0.4080
 9187SOL     OW39193   3.111   2.198   5.805 -0.4369 -0.2400 -0.2831
 9187SOL    HW139194   3.086   2.283   5.771 -2.3945 -0.2201  1.2125
 9187SOL    HW239195   3.184   2.178   5.746 -0.5998 -0.0987 -0.5293
 9188SOL     OW39196   2.044   0.643  11.924  0.2429 -0.2670 -0.2214
 9188SOL    HW139197   2.110   0.604  11.981  1.7414 -0.7410 -2.3002
 9188SOL    HW239198   2.034   0.724  11.975 -0.9405  0.3530 -1.4525
 9189SOL     OW39199   2.655   4.706  17.692 -0.4198 -0.1279 -0.0930
 9189SOL    HW139200   2.580   0.012  17.649 -0.6288  0.4725  0.8607
 9189SOL    HW239201   2.715   0.044  17.679 -3.5351  1.9335 -2.7001
 9190SOL     OW39202   3.072   3.864  15.344 -0.2884 -0.0771  0.1780
 9190SOL    HW139203   3.041   3.828  15.261 -1.5642  0.4636  0.4146
 9190SOL    HW239204   3.158   3.823  15.348  0.6680  2.1283  2.4363
 9191SOL     OW39205   4.547   0.672   6.333 -0.5193 -0.5521 -0.0752
 9191SOL    HW139206   4.524   0.582   6.358 -2.6910  0.2448  0.8408
 9191SOL    HW239207   4.569   0.700   6.422 -1.0396 -2.1776  0.5720
 9192SOL     OW39208   0.526   0.152   5.408  0.6378 -0.2500  0.6307
 9192SOL    HW139209   0.533   0.058   5.387 -0.0015 -0.2277  0.3178
 9192SOL    HW239210   0.538   0.148   5.503 -4.2045  0.6997  1.3047
 9193SOL     OW39211   4.606   0.221   9.922  0.1235 -0.0931  0.1975
 9193SOL    HW139212   4.615   0.138   9.875  1.1826 -0.6447  1.3410
 9193SOL    HW239213   4.600   0.189  10.012  2.1054 -0.1980  0.3107
 9194SOL     OW39214   0.562   1.663  10.288 -0.1391  0.2825 -0.5407
 9194SOL    HW139215   0.556   1.720  10.211 -2.1067  2.6386  1.3405
 9194SOL    HW239216   0.590   1.729  10.351 -4.5116  0.2541  1.4645
 9195SOL     OW39217   1.268   2.592  17.526  0.0271 -0.3522 -0.4469
 9195SOL    HW139218   1.300   2.510  17.564 -0.8228 -0.6891 -0.4678
 9195SOL    HW239219   1.188   2.616  17.572  0.7346  0.3860  0.4208
 9196SOL     OW39220   4.709   1.476   8.266  0.2123 -0.6187 -0.2742
 9196SOL    HW139221   0.004   1.560   8.232  0.4316 -0.3732  0.5538
 9196SOL    HW239222   4.723   1.413   8.195 -0.3607 -0.5789 -0.4250
 9197SOL     OW39223   2.104   0.330   5.553  0.1697 -0.4340 -0.5019
 9197SOL    HW139224   2.076   0.373   5.634 -1.9282  1.7537 -2.3967
 9197SOL    HW239225   2.073   0.242   5.578 -0.8683  0.8301  2.6612
 9198SOL     OW39226   0.355   2.010   7.024 -0.5144  0.1943  0.1996
 9198SOL    HW139227   0.368   2.077   6.957 -0.7464  1.2958  1.2507
 9198SOL    HW239228   0.440   1.966   7.026 -1.4360 -1.6217 -0.3479
 9199SOL     OW39229   1.718   3.590   5.133 -0.2732  0.3797 -0.1256
 9199SOL    HW139230   1.739   3.666   5.187  1.5233  1.2197 -2.0082
 9199SOL    HW239231   1.799   3.539   5.135 -0.8126 -0.5484 -2.5126
 9200SOL     OW39232   3.202   2.472   0.399  0.4682  0.3635 -0.1804
 9200SOL    HW139233   3.122   2.449   0.447 -0.6798  1.6496 -1.4790
 9200SOL    HW239234   3.200   2.566   0.418 -2.5444  0.3276 -0.2232
 9201SOL     OW39235   1.814   3.732   3.619 -0.1297 -0.5340  0.1741
 9201SOL    HW139236   1.726   3.703   3.593  0.4361 -1.1730 -0.9909
 9201SOL    HW239237   1.807   3.816   3.665  1.8591 -1.9563  3.0407
 9202SOL     OW39238   0.661   2.347   2.905 -0.0622 -0.8520 -0.0530
 9202SOL    HW139239   0.649   2.315   2.815  0.2372 -2.0680  0.3508
 9202SOL    HW239240   0.751   2.378   2.895  0.1132 -1.8233 -1.4942
 9203SOL     OW39241   0.959   0.112  16.517  0.1729 -0.2173  0.0557
 9203SOL    HW139242   0.927   0.113  16.607  0.0342 -0.8106  0.0079
 9203SOL    HW239243   0.997   0.024  16.517  1.1667  0.2130  0.2493
 9204SOL     OW39244   0.238   1.191   3.702  0.3877  0.4105  0.2510
 9204SOL    HW139245   0.264   1.267   3.754 -0.8610  1.6591 -0.9026
 9204SOL    HW239246   0.210   1.133   3.772 -1.5856 -1.1633 -1.8330
 9205SOL     OW39247   2.961   2.535   1.438  0.4167 -0.4654  0.0589
 9205SOL    HW139248   2.989   2.444   1.443  3.2391  0.4434  0.7167
 9205SOL    HW239249   2.993   2.569   1.521 -0.3716 -3.3997  1.5443
 9206SOL     OW39250   0.449   4.325   2.774 -0.0977  0.1364  0.2363
 9206SOL    HW139251   0.467   4.356   2.863  0.6604  0.2706  0.0352
 9206SOL    HW239252   0.381   4.386   2.745  2.0421  3.1752  1.7340
 9207SOL     OW39253   3.152   2.699   3.605 -0.0813  0.1874 -0.0649
 9207SOL    HW139254   3.099   2.661   3.675 -0.7489  0.4332 -0.4439
 9207SOL    HW239255   3.228   2.726   3.657 -1.7152  0.9973  1.9091
 9208SOL     OW39256   0.213   2.068  12.484  0.1134 -0.6921  0.5323
 9208SOL    HW139257   0.268   1.994  12.509  0.4964 -0.3247  0.7741
 9208SOL    HW239258   0.196   2.038  12.394 -0.9967  0.0469  0.4955
 9209SOL     OW39259   4.329   4.325   5.159  0.1366 -0.1724  0.1948
 9209SOL    HW139260   4.362   4.367   5.080 -1.3231  0.8303  0.1325
 9209SOL    HW239261   4.257   4.383   5.182  0.4735  0.2266  0.2344
 9210SOL     OW39262   1.846   4.543  14.008  0.7684 -0.0136  0.1680
 9210SOL    HW139263   1.857   4.632  13.976  0.4472 -0.0202  0.0393
 9210SOL    HW239264   1.906   4.499  13.949  1.0846  2.0702 -1.0436
 9211SOL     OW39265   4.661   0.630   2.866 -0.2462 -0.4629 -0.6128
 9211SOL    HW139266   4.626   0.606   2.952  0.5476  0.9076  0.0994
 9211SOL    HW239267   0.015   0.601   2.885  0.3232  1.4128 -0.4014
 9212SOL     OW39268   2.471   3.048  12.018  0.0270 -0.4304  0.2088
 9212SOL    HW139269   2.444   3.021  12.105 -3.0744  0.3610 -0.4853
 9212SOL    HW239270   2.514   3.132  12.032 -0.7281  0.2936 -1.7587
 9213SOL     OW39271   1.741   2.945   4.044 -0.9377  0.1390  0.2495
 9213SOL    HW139272   1.759   2.901   3.961  0.5925  0.8263  0.2216
 9213SOL    HW239273   1.761   3.035   4.020 -0.3962 -0.0555 -0.0425
 9214SOL     OW39274   0.126   4.573   4.382  0.2226  0.3705 -0.1863
 9214SOL    HW139275   0.048   4.599   4.430 -0.6330 -1.4958 -0.5833
 9214SOL    HW239276   0.109   4.598   4.291 -1.4415  1.6783  0.4881
 9215SOL     OW39277   3.812   0.640   8.097  0.4903  0.4918 -0.1709
 9215SOL    HW139278   3.741   0.585   8.064 -1.0544  1.7886  0.9420
 9215SOL    HW239279   3.805   0.635   8.193 -0.2173  0.6977 -0.2107
 9216SOL     OW39280   1.831   2.379   5.913 -0.3543  0.5337 -0.1633
 9216SOL    HW139281   1.850   2.384   5.819 -1.6671 -1.5404 -0.5282
 9216SOL    HW239282   1.919   2.368   5.949 -0.2770 -0.3941 -0.6192
 9217SOL     OW39283   4.641   3.733  12.076 -0.3812 -0.2965 -0.0907
 9217SOL    HW139284   4.662   3.804  12.137  2.4329  0.0421 -1.4334
 9217SOL    HW239285   4.571   3.678  12.109 -0.3810  0.8487  1.8160
 9218SOL     OW39286   0.078   1.635   6.319 -0.5083 -0.7524 -0.5958
 9218SOL    HW139287   0.173   1.650   6.311 -0.8452  0.1245 -3.2045
 9218SOL    HW239288   0.076   1.546   6.353  1.4139  0.0507  1.6621
 9219SOL     OW39289   4.699   3.222   1.137 -0.4084 -0.3699 -0.1045
 9219SOL    HW139290   4.708   3.212   1.042  0.7003  2.9535 -0.3310
 9219SOL    HW239291   4.607   3.250   1.135  0.4907  2.4770 -0.7850
 9220SOL     OW39292   0.074   4.594  13.441 -0.1062  0.1931 -0.2078
 9220SOL    HW139293   0.164   4.614  13.414 -0.3206  0.2255 -0.8914
 9220SOL    HW239294   0.044   4.681  13.466 -0.6644 -0.1655  0.3828
 9221SOL     OW39295   2.816   1.437   1.759  0.0293 -0.1793  0.2243
 9221SOL    HW139296   2.730   1.404   1.786 -0.6924  1.5367  0.0273
 9221SOL    HW239297   2.806   1.532   1.768  1.1336 -0.1270  0.8664
 9222SOL     OW39298   0.368   0.481   5.979 -0.0368  0.4204  0.4952
 9222SOL    HW139299   0.327   0.496   6.064 -3.1206 -0.5575 -0.8261
 9222SOL    HW239300   0.417   0.401   5.993  1.8027  1.6026  0.8791
 9223SOL     OW39301   0.631   1.583   9.197  0.5838  0.3361  0.2974
 9223SOL    HW139302   0.701   1.646   9.210  1.3687 -0.2960 -0.8941
 9223SOL    HW239303   0.625   1.568   9.103 -1.4101  0.6429  0.3708
 9224SOL     OW39304   1.942   3.841   0.448 -0.3297  0.2238  0.0410
 9224SOL    HW139305   2.030   3.805   0.458 -0.3623  0.1574  0.0858
 9224SOL    HW239306   1.906   3.802   0.527  0.2142  2.9127  1.6224
 9225SOL     OW39307   3.037   3.411   6.865 -0.1841  0.3577  0.2816
 9225SOL    HW139308   3.114   3.362   6.893  0.4862  1.2996  0.0704
 9225SOL    HW239309   3.083   3.480   6.818 -1.4833 -0.1259 -1.7356
 9226SOL     OW39310   2.210   0.945  15.256 -0.0356  0.1306 -0.5666
 9226SOL    HW139311   2.286   0.886  15.261 -0.2044  0.1140  1.4313
 9226SOL    HW239312   2.160   0.913  15.181 -0.0151 -0.0254 -0.5134
 9227SOL     OW39313   3.644   0.237   7.163 -0.5052  0.0373 -0.4207
 9227SOL    HW139314   3.718   0.218   7.220 -0.8952 -1.2949 -0.3496
 9227SOL    HW239315   3.638   0.157   7.110 -1.7562 -0.4829  0.4975
 9228SOL     OW39316   2.271   0.652   8.822 -0.3751  0.6279  0.2086
 9228SOL    HW139317   2.285   0.648   8.728 -1.6719 -3.0362  0.1883
 9228SOL    HW239318   2.298   0.563   8.843  0.5802  1.1376  1.1811
 9229SOL     OW39319   2.140   3.901  13.132  0.6861  0.1905  0.2133
 9229SOL    HW139320   2.209   3.906  13.199  0.2993  1.6792  0.4987
 9229SOL    HW239321   2.107   3.812  13.146 -0.0231  0.3113 -0.7466
 9230SOL     OW39322   3.437   2.688   8.663 -0.0287 -0.6464 -0.4317
 9230SOL    HW139323   3.356   2.685   8.613 -0.3333 -1.0408  0.0836
 9230SOL    HW239324   3.493   2.707   8.588  1.3773  1.3691  1.1261
 9231SOL     OW39325   3.548   3.335   3.394 -0.1929  0.2349  0.1586
 9231SOL    HW139326   3.493   3.399   3.349 -0.7420  0.0670  0.5999
 9231SOL    HW239327   3.482   3.275   3.428 -1.4436  0.0189 -2.6488
 9232SOL     OW39328   4.272   3.203   8.766  0.9147  0.0724  0.0043
 9232SOL    HW139329   4.325   3.176   8.691 -0.6667  0.3568 -1.2030
 9232SOL    HW239330   4.265   3.119   8.811  0.7135 -0.3745 -0.8528
 9233SOL     OW39331   0.202   0.680   7.122 -0.1412  0.3802 -0.1961
 9233SOL    HW139332   0.219   0.596   7.079 -4.8305 -0.0190 -1.2810
 9233SOL    HW239333   0.110   0.694   7.098 -0.8115 -3.0796  0.3985
 9234SOL     OW39334   3.745   1.683   7.713  0.2993 -0.7253  0.0255
 9234SOL    HW139335   3.651   1.663   7.710 -0.1424  1.4405 -1.2278
 9234SOL    HW239336   3.792   1.609   7.675  2.4338  0.9483 -0.6130
 9235SOL     OW39337   3.073   2.118  11.765  0.9719 -0.2255  0.0102
 9235SOL    HW139338   3.110   2.047  11.818 -0.1821  0.5504  1.8137
 9235SOL    HW239339   3.042   2.065  11.691  1.5786  1.3475 -1.3865
 9236SOL     OW39340   2.161   3.499  13.304 -0.0418 -0.0778 -0.2911
 9236SOL    HW139341   2.217   3.507  13.227  0.9938 -0.0733  0.4746
 9236SOL    HW239342   2.101   3.573  13.301  1.0212  0.7720 -0.1249
 9237SOL     OW39343   3.352   1.234   9.452 -0.6390  0.0792  0.3485
 9237SOL    HW139344   3.294   1.305   9.425 -0.5941  0.5997  1.6412
 9237SOL    HW239345   3.436   1.281   9.449  0.3084 -1.5950  0.7984
 9238SOL     OW39346   4.348   3.512   3.646 -0.1354 -0.5351 -0.3784
 9238SOL    HW139347   4.345   3.528   3.740  0.9512  1.2732 -0.6473
 9238SOL    HW239348   4.439   3.532   3.623 -0.7253  2.3045 -0.1507
 9239SOL     OW39349   1.823   1.010   8.804 -0.1537  0.1576  0.2648
 9239SOL    HW139350   1.859   1.098   8.814 -2.2707  0.9250  1.1628
 9239SOL    HW239351   1.867   0.972   8.729  2.1965  1.9287  0.7627
 9240SOL     OW39352   2.992   2.626   2.790 -0.0189  0.0554  0.0705
 9240SOL    HW139353   3.035   2.542   2.805  0.8555  0.6556  0.9464
 9240SOL    HW239354   2.910   2.585   2.764  1.3630 -2.4737 -0.3373
 9241SOL     OW39355   3.002   3.302   9.232 -0.0552 -0.0259 -0.2256
 9241SOL    HW139356   2.948   3.271   9.159  1.4214 -0.6787 -1.0562
 9241SOL    HW239357   3.022   3.389   9.199  0.0465 -0.3721 -1.0958
 9242SOL     OW39358   2.132   1.738   4.676  0.2836  0.7622  0.1418
 9242SOL    HW139359   2.092   1.699   4.598 -0.8438  1.3804  0.4063
 9242SOL    HW239360   2.086   1.822   4.676 -0.8440  0.1562 -0.4782
 9243SOL     OW39361   2.072   3.894  12.878  0.4527 -0.2688  0.3310
 9243SOL    HW139362   2.007   3.824  12.886  0.2925 -0.4072 -2.0796
 9243SOL    HW239363   2.083   3.923  12.969 -2.4778 -0.3365  0.7254
 9244SOL     OW39364   0.190   3.976   1.779  0.1026 -0.1897 -0.3858
 9244SOL    HW139365   0.268   3.954   1.727  1.0090 -0.2375  0.9817
 9244SOL    HW239366   0.219   3.977   1.870 -2.4156  1.7164  0.3869
 9245SOL     OW39367   0.693   0.003   6.282  0.2630 -0.5290 -0.0400
 9245SOL    HW139368   0.599   4.729   6.298 -0.3264 -0.0392 -3.0522
 9245SOL    HW239369   0.713   4.686   6.204 -0.7664  1.3986 -1.6054
 9246SOL     OW39370   1.447   2.247   2.037 -0.6868  0.1344  0.0644
 9246SOL    HW139371   1.363   2.214   2.003 -0.7670  1.2390 -0.8068
 9246SOL    HW239372   1.444   2.247   2.132 -2.6673  1.1472  0.0156
 9247SOL     OW39373   3.895   3.718   4.441 -0.8940 -0.0255  0.0589
 9247SOL    HW139374   3.820   3.659   4.433 -0.2812 -0.9760  1.3456
 9247SOL    HW239375   3.889   3.772   4.362 -1.0496  0.9797  0.7604
 9248SOL     OW39376   3.746   1.775   1.642 -0.2001  0.0895  0.0733
 9248SOL    HW139377   3.671   1.755   1.697  0.2416 -0.2255  0.5590
 9248SOL    HW239378   3.781   1.686   1.637 -2.7795 -1.0795  3.4927
 9249SOL     OW39379   0.340   4.436  13.661 -0.4339 -0.0236 -0.3396
 9249SOL    HW139380   0.250   4.446  13.631 -0.1653  2.0819 -0.5033
 9249SOL    HW239381   0.385   4.427  13.577 -0.5161  1.4226 -0.5369
 9250SOL     OW39382   0.643   3.217  10.218  0.3300 -0.6626 -0.0212
 9250SOL    HW139383   0.576   3.215  10.286 -1.0261  0.2749 -1.3265
 9250SOL    HW239384   0.724   3.231  10.267  1.0902  2.5122 -2.1129
 9251SOL     OW39385   3.606   0.824   0.697 -0.3087 -0.1245 -0.5684
 9251SOL    HW139386   3.608   0.730   0.716  1.8768 -0.3138 -1.7944
 9251SOL    HW239387   3.554   0.827   0.617 -0.9917  0.1484 -0.1211
 9252SOL     OW39388   0.470   0.659   9.350  0.3727 -0.3158 -0.5008
 9252SOL    HW139389   0.546   0.639   9.405  0.4549  1.0278 -0.1360
 9252SOL    HW239390   0.407   0.598   9.389  1.3784 -1.6780 -0.9838
 9253SOL     OW39391   0.877   1.431   2.003 -0.1669 -0.2997  0.0036
 9253SOL    HW139392   0.885   1.465   1.914 -3.8068 -1.0908 -0.6291
 9253SOL    HW239393   0.817   1.357   1.994 -0.2056 -0.4529  1.6329
 9254SOL     OW39394   3.608   3.561   8.171 -0.2631 -0.1003 -0.0447
 9254SOL    HW139395   3.651   3.493   8.120  1.6257 -0.4421  2.0112
 9254SOL    HW239396   3.517   3.536   8.187 -0.1724 -0.0372  0.5728
 9255SOL     OW39397   4.045   2.016   9.033  0.0059  0.7099 -0.2127
 9255SOL    HW139398   4.005   1.982   9.113  1.2214  2.7993  1.2927
 9255SOL    HW239399   4.049   1.947   8.967 -1.1074 -0.0165  0.4708
 9256SOL     OW39400   2.776   0.570   7.531 -0.8653 -0.6534  0.0514
 9256SOL    HW139401   2.815   0.620   7.460 -1.3086 -1.9663 -1.1240
 9256SOL    HW239402   2.762   0.638   7.598 -0.3581 -0.3829 -0.1200
 9257SOL     OW39403   3.095   0.480   3.864 -0.0669 -0.0556 -1.0160
 9257SOL    HW139404   3.047   0.409   3.823  1.5362 -1.1982 -0.9246
 9257SOL    HW239405   3.183   0.472   3.826  0.6191  1.9191  0.0927
 9258SOL     OW39406   0.324   2.724  15.110 -0.3332  0.0242 -0.0333
 9258SOL    HW139407   0.261   2.786  15.146  0.4357  1.1490 -0.5936
 9258SOL    HW239408   0.406   2.764  15.139 -1.1232  1.3525  0.3627
 9259SOL     OW39409   3.752   3.481   2.592 -0.5479 -0.1859 -0.0959
 9259SOL    HW139410   3.669   3.528   2.603 -0.8107  0.1827 -3.7570
 9259SOL    HW239411   3.722   3.403   2.546  0.0635 -1.0298  0.9447
 9260SOL     OW39412   4.702   2.863   2.108 -0.4126 -0.3895  0.0183
 9260SOL    HW139413   0.026   2.924   2.065  0.6449 -0.4689  1.3668
 9260SOL    HW239414   4.677   2.804   2.037 -0.1302 -0.0359 -0.3770
 9261SOL     OW39415   2.048   2.073  17.473 -0.3348  0.7001  0.0026
 9261SOL    HW139416   2.013   2.159  17.452 -0.2701  0.4481 -1.1602
 9261SOL    HW239417   2.122   2.101  17.527 -0.1690  0.6661 -0.2082
 9262SOL     OW39418   4.559   0.674   4.219  0.6142  0.9930  0.0154
 9262SOL    HW139419   4.511   0.614   4.275  1.7767  1.6032  1.6771
 9262SOL    HW239420   4.499   0.748   4.229 -0.3841 -0.0162  1.4405
 9263SOL     OW39421   1.238   0.147   5.020  0.9218  0.3875  0.1402
 9263SOL    HW139422   1.321   0.104   4.999  0.1850 -0.4985 -0.9724
 9263SOL    HW239423   1.258   0.226   4.970 -0.7809  0.1027 -0.9917
 9264SOL     OW39424   0.787   0.769   7.590 -0.3401 -0.0497 -0.1591
 9264SOL    HW139425   0.718   0.719   7.548  1.0814 -1.0447 -1.3149
 9264SOL    HW239426   0.821   0.705   7.652 -0.1320  1.0132  0.8257
 9265SOL     OW39427   2.305   2.888   4.324 -0.3977  0.3386  0.3265
 9265SOL    HW139428   2.254   2.955   4.280 -2.0221 -0.0190  1.6611
 9265SOL    HW239429   2.236   2.829   4.354 -0.4445  1.0468  1.6487
 9266SOL     OW39430   2.279   0.651   1.963  0.4438  0.3340  0.1003
 9266SOL    HW139431   2.306   0.715   1.897 -3.6533  1.4326 -0.5074
 9266SOL    HW239432   2.310   0.568   1.928  1.6080  0.1496  1.5459
 9267SOL     OW39433   3.326   2.774   3.777 -0.6722 -0.1789  0.3041
 9267SOL    HW139434   3.317   2.869   3.772  1.1013  0.0015  0.6045
 9267SOL    HW239435   3.314   2.761   3.871 -1.5316 -0.1913  0.1946
 9268SOL     OW39436   0.435   1.495  15.753 -0.1693 -0.1493 -1.0891
 9268SOL    HW139437   0.483   1.530  15.828  0.1653  0.6211 -1.6689
 9268SOL    HW239438   0.341   1.494  15.772 -0.2498  0.7168 -1.4556
 9269SOL     OW39439   2.428   3.665   4.650 -0.0261 -0.4270 -0.2099
 9269SOL    HW139440   2.494   3.612   4.694 -1.2678 -0.5472  1.4904
 9269SOL    HW239441   2.463   3.667   4.561  0.4360  0.7132  0.0051
 9270SOL     OW39442   0.497   3.911   3.061 -0.2014  0.7511  0.0608
 9270SOL    HW139443   0.520   3.961   3.140  1.6693 -1.1899  0.7429
 9270SOL    HW239444   0.409   3.944   3.040  0.1094 -0.0139 -2.4403
 9271SOL     OW39445   2.545   1.354   9.681  0.3092 -0.1476 -0.5405
 9271SOL    HW139446   2.499   1.430   9.714 -1.5734 -1.0247 -1.1570
 9271SOL    HW239447   2.614   1.389   9.624  0.9874 -1.2106 -0.3800
 9272SOL     OW39448   3.330   2.881   6.346 -0.7740  0.2174 -0.2890
 9272SOL    HW139449   3.284   2.862   6.428  1.4308 -0.5935  0.7473
 9272SOL    HW239450   3.284   2.961   6.321 -0.3644  0.8304  0.9465
 9273SOL     OW39451   0.565   4.713  16.361 -0.2118  0.1651  0.3411
 9273SOL    HW139452   0.630   4.645  16.374 -1.9035 -1.5503 -0.2542
 9273SOL    HW239453   0.550   4.722  16.267 -0.0725 -0.1028  0.2951
 9274SOL     OW39454   0.285   4.622   1.591  0.0554 -0.5683 -0.8903
 9274SOL    HW139455   0.298   4.628   1.497 -0.9834 -1.9163 -1.1130
 9274SOL    HW239456   0.190   4.615   1.603 -0.1863  0.5213 -2.1977
 9275SOL     OW39457   0.073   2.349  11.298  0.0974 -0.2365 -0.0876
 9275SOL    HW139458   0.097   2.287  11.229  1.8110  0.5698 -0.2417
 9275SOL    HW239459   0.131   2.423  11.280  0.5471 -0.4451  0.5098
 9276SOL     OW39460   1.548   1.249   5.933 -0.0031  0.0745  0.4944
 9276SOL    HW139461   1.487   1.240   5.860  1.3660 -4.0911 -0.1180
 9276SOL    HW239462   1.499   1.313   5.985 -2.7101 -1.0197 -0.7299
 9277SOL     OW39463   4.706   1.513  15.001  0.0745  0.4591  0.4219
 9277SOL    HW139464   4.615   1.516  14.970 -0.2626 -0.7092  1.2374
 9277SOL    HW239465   4.722   1.421  14.981 -0.1886  0.1938  1.3900
 9278SOL     OW39466   0.422   1.965   5.523 -0.5543 -0.1435  0.5787
 9278SOL    HW139467   0.486   1.896   5.538  1.4278  1.9854  1.9928
 9278SOL    HW239468   0.453   2.041   5.572  2.2642 -1.1073  0.2794
 9279SOL     OW39469   0.861   0.652  11.927 -0.2100  0.6921  0.2862
 9279SOL    HW139470   0.865   0.591  12.000  0.4342  2.6857  1.9369
 9279SOL    HW239471   0.767   0.664  11.916 -0.0174  0.9146 -1.1533
 9280SOL     OW39472   1.174   1.799  13.710  0.0824  0.0969  0.4843
 9280SOL    HW139473   1.097   1.791  13.654  0.5328  0.7146 -0.2270
 9280SOL    HW239474   1.236   1.740  13.666  0.0984  0.9366 -0.6204
 9281SOL     OW39475   1.178   4.034   2.201 -0.1100  0.4305  0.2592
 9281SOL    HW139476   1.262   4.068   2.172  0.0672  0.6623  1.0459
 9281SOL    HW239477   1.207   3.998   2.284  0.2722 -0.7360 -0.3745
 9282SOL     OW39478   1.235   3.525  10.364  0.5205  0.3340  0.1812
 9282SOL    HW139479   1.283   3.542  10.283  0.7280  0.5453  0.3482
 9282SOL    HW239480   1.172   3.463  10.328  1.8272 -0.9138  0.0397
 9283SOL     OW39481   3.044   1.425   3.974 -0.6794  0.3392 -0.5033
 9283SOL    HW139482   2.954   1.412   4.005 -0.3004  0.2448  0.5860
 9283SOL    HW239483   3.028   1.492   3.909  3.0582 -1.4182 -3.2169
 9284SOL     OW39484   0.789   1.322  14.195 -0.3702  0.0352  0.0564
 9284SOL    HW139485   0.765   1.231  14.215 -0.2753  0.4100  1.8870
 9284SOL    HW239486   0.722   1.378  14.233 -1.2556  0.3768 -2.0154
 9285SOL     OW39487   2.005   2.987   3.643 -0.8028 -0.0991 -0.0667
 9285SOL    HW139488   2.030   3.029   3.725 -1.5347 -0.0193  0.1182
 9285SOL    HW239489   2.096   2.960   3.632 -1.0759 -1.3914  0.7225
 9286SOL     OW39490   0.509   1.845   4.911 -0.7106 -0.2651 -0.2320
 9286SOL    HW139491   0.520   1.941   4.911 -0.6295 -0.2750  0.5321
 9286SOL    HW239492   0.442   1.836   4.843  0.1940  4.3472 -1.7457
 9287SOL     OW39493   2.518   2.876   2.385 -0.5324 -0.1217 -0.1699
 9287SOL    HW139494   2.587   2.886   2.451 -0.8154 -1.0095  0.2587
 9287SOL    HW239495   2.547   2.794   2.344  0.2698  0.3531 -0.5456
 9288SOL     OW39496   3.262   0.394   5.043 -0.6034  0.3700  0.3305
 9288SOL    HW139497   3.344   0.362   5.080 -0.6569  0.9147  0.9258
 9288SOL    HW239498   3.290   0.449   4.970 -2.5099  0.5545 -0.2760
 9289SOL     OW39499   2.763   4.070   8.538  0.3280 -0.5283  0.1011
 9289SOL    HW139500   2.684   4.021   8.561  0.2633 -1.4273 -2.0548
 9289SOL    HW239501   2.809   4.076   8.622 -2.0282 -0.7823  1.4238
 9290SOL     OW39502   4.276   3.861   6.347 -0.0357 -0.1222 -0.6423
 9290SOL    HW139503   4.226   3.821   6.419  0.1470 -2.7968 -2.0060
 9290SOL    HW239504   4.255   3.954   6.352 -0.9062 -0.5385  3.4424
 9291SOL     OW39505   0.030   2.475   3.887  0.4901 -0.5545  0.5018
 9291SOL    HW139506   0.027   2.437   3.975 -0.1838  1.4640  1.3445
 9291SOL    HW239507   0.092   2.417   3.843  1.2982  1.1599 -0.6418
 9292SOL     OW39508   0.285   0.763   9.694 -0.0405 -0.1157 -0.1021
 9292SOL    HW139509   0.267   0.777   9.787  1.1323 -0.5200  0.1915
 9292SOL    HW239510   0.313   0.672   9.683 -1.1606 -0.6341  1.4124
 9293SOL     OW39511   3.578   0.898  10.558 -0.2653  0.4410  0.0632
 9293SOL    HW139512   3.645   0.966  10.548  0.2374 -0.1139 -0.2595
 9293SOL    HW239513   3.617   0.833  10.500 -0.2959 -0.2900  0.8645
 9294SOL     OW39514   4.107   1.361   6.349  0.0371  0.2283 -0.2562
 9294SOL    HW139515   4.186   1.309   6.339 -1.0944 -0.9190 -3.1835
 9294SOL    HW239516   4.068   1.363   6.262 -1.0790 -0.3146  0.2310
 9295SOL     OW39517   3.632   2.588  11.859 -0.8145 -0.0535 -0.1862
 9295SOL    HW139518   3.711   2.562  11.905  0.2663  0.3305 -1.8069
 9295SOL    HW239519   3.668   2.664  11.812 -1.2077 -1.3233 -2.5325
 9296SOL     OW39520   4.644   0.896   0.478 -0.0879 -0.1527 -0.1891
 9296SOL    HW139521   4.670   0.964   0.416 -2.4948  0.3048 -0.6742
 9296SOL    HW239522   4.552   0.885   0.457 -0.2070 -1.8358  1.2343
 9297SOL     OW39523   0.072   4.725   7.787 -0.4107 -0.3159  0.2082
 9297SOL    HW139524   0.007   4.705   7.854 -1.3359  0.0444 -0.5728
 9297SOL    HW239525   0.095   4.643   7.743 -1.9006 -0.6116 -0.0227
 9298SOL     OW39526   2.797   0.678   8.410  0.0569  0.1138  0.4402
 9298SOL    HW139527   2.811   0.607   8.347 -2.8066  1.9237 -2.2575
 9298SOL    HW239528   2.869   0.660   8.470  1.4745 -0.7940 -1.5189
 9299SOL     OW39529   0.517   3.421  10.760 -0.4044  0.3351  0.3776
 9299SOL    HW139530   0.587   3.431  10.695  0.7348  2.7086  1.9377
 9299SOL    HW239531   0.437   3.437  10.710 -0.3084  1.6203  0.6244
 9300SOL     OW39532   1.651   0.173  13.558 -0.4989  0.4208  0.6795
 9300SOL    HW139533   1.655   0.267  13.539  2.4455  0.0704 -0.3685
 9300SOL    HW239534   1.661   0.147  13.466 -0.5990  3.2992 -0.1352
 9301SOL     OW39535   1.918   0.332   3.917  0.5194  0.1607 -0.1115
 9301SOL    HW139536   2.000   0.292   3.947 -1.0633 -2.5778  0.6053
 9301SOL    HW239537   1.866   0.252   3.904  2.0008 -0.7134 -0.7072
 9302SOL     OW39538   0.169   2.180   9.318 -0.4955  0.5554 -0.8752
 9302SOL    HW139539   0.222   2.170   9.239  1.6750 -1.8835  0.8943
 9302SOL    HW239540   0.129   2.266   9.328  0.6174  0.8257  1.2912
 9303SOL     OW39541   3.804   1.289  15.975 -0.9188 -0.2793 -0.4783
 9303SOL    HW139542   3.724   1.237  15.967 -0.5802 -0.6804 -1.2966
 9303SOL    HW239543   3.809   1.313  15.883 -0.6811 -2.0540 -0.9267
 9304SOL     OW39544   1.701   4.191  15.811  0.1668  0.4472 -0.0960
 9304SOL    HW139545   1.794   4.197  15.786  0.1246  0.0407 -0.3496
 9304SOL    HW239546   1.660   4.154  15.733  0.7304 -0.2730 -0.0533
 9305SOL     OW39547   3.136   1.752  12.831  0.6118  0.1146  0.2541
 9305SOL    HW139548   3.174   1.797  12.906 -1.6566  0.6646  1.0550
 9305SOL    HW239549   3.207   1.699  12.794  0.7030  0.4210 -0.0138
 9306SOL     OW39550   0.045   0.627   1.622 -0.2791 -0.3191 -0.1497
 9306SOL    HW139551   0.030   0.606   1.714 -1.2962 -0.1701 -0.2788
 9306SOL    HW239552   0.065   0.720   1.620  0.6854 -0.4870  1.4098
 9307SOL     OW39553   1.436   2.523   3.783  0.4029  0.4018 -0.1659
 9307SOL    HW139554   1.435   2.546   3.690  0.4773 -1.0712 -0.5348
 9307SOL    HW239555   1.453   2.611   3.815 -0.6892  0.7717 -0.5880
 9308SOL     OW39556   3.728   4.010   6.735  0.3832  0.0379 -0.3840
 9308SOL    HW139557   3.804   4.065   6.716  1.4019 -0.3885  2.4153
 9308SOL    HW239558   3.757   3.960   6.811 -0.9232 -1.1490 -0.6640
 9309SOL     OW39559   3.813   2.471   2.175  0.5032 -0.1821 -0.2586
 9309SOL    HW139560   3.755   2.426   2.237 -1.3384  1.3658 -0.8617
 9309SOL    HW239561   3.840   2.539   2.237  3.5304 -0.9060 -0.7535
 9310SOL     OW39562   0.050   4.118   8.857 -0.2399 -0.2804 -0.5699
 9310SOL    HW139563   0.095   4.161   8.930 -1.1620 -1.8496  0.9327
 9310SOL    HW239564   0.067   4.184   8.790 -0.9185  1.5766  1.0946
 9311SOL     OW39565   0.142   1.268  17.148  0.3979 -0.3139  0.5432
 9311SOL    HW139566   0.120   1.285  17.057  1.7083 -0.0144  0.2798
 9311SOL    HW239567   0.199   1.345  17.158  0.8500 -0.5485 -0.2509
 9312SOL     OW39568   2.224   2.454  13.317 -0.1121  0.3212  0.7877
 9312SOL    HW139569   2.318   2.468  13.332  0.3048 -1.4085 -0.1720
 9312SOL    HW239570   2.228   2.401  13.237 -2.2638  0.5242  0.5349
 9313SOL     OW39571   1.406   1.495   7.538 -0.0201 -0.0535 -0.6013
 9313SOL    HW139572   1.390   1.402   7.524  1.7337 -0.4659  0.1816
 9313SOL    HW239573   1.402   1.529   7.449  1.5759 -0.7629 -0.9366
 9314SOL     OW39574   3.353   2.154   5.572  0.4053  0.2853  0.1591
 9314SOL    HW139575   3.415   2.221   5.601  0.2878  0.1026  0.8394
 9314SOL    HW239576   3.393   2.136   5.487 -0.2304  0.7720 -0.2446
 9315SOL     OW39577   4.004   3.172   8.100 -0.5365 -0.0455 -0.0041
 9315SOL    HW139578   4.060   3.116   8.155  1.7865  0.6303 -1.6925
 9315SOL    HW239579   4.064   3.238   8.066 -3.2189  3.7381  2.6465
 9316SOL     OW39580   1.754   1.906   8.945  0.3144  0.8260  0.5745
 9316SOL    HW139581   1.822   1.840   8.932 -2.7978 -2.2407  0.0319
 9316SOL    HW239582   1.757   1.948   8.859  2.7718 -0.9076 -0.1720
 9317SOL     OW39583   0.419   3.764   0.001 -0.2671  0.7359  0.1228
 9317SOL    HW139584   0.377   3.763  17.657  1.8264  0.5514 -0.8898
 9317SOL    HW239585   0.403   3.847   0.046 -0.5172 -0.5745  2.4370
 9318SOL     OW39586   0.203   2.064   9.568 -0.3510 -0.1406  0.6176
 9318SOL    HW139587   0.231   1.987   9.519  0.1849 -1.3752  2.8851
 9318SOL    HW239588   0.203   2.131   9.499 -1.7652 -0.2129  0.5319
 9319SOL     OW39589   2.333   4.693   5.995 -0.1939  0.1758 -0.1996
 9319SOL    HW139590   2.350   4.607   6.033 -2.1305 -1.1805 -2.4065
 9319SOL    HW239591   2.326   0.016   6.070 -0.7312 -1.5966  1.1247
 9320SOL     OW39592   2.658   1.385   6.302 -0.2776  0.0405  0.1194
 9320SOL    HW139593   2.602   1.307   6.306 -2.2812  1.5812  2.2050
 9320SOL    HW239594   2.661   1.404   6.208  0.9470 -0.5144  0.0516
 9321SOL     OW39595   2.878   2.024   3.996  0.2411 -0.3591 -0.1465
 9321SOL    HW139596   2.919   1.942   3.968  3.3695  0.8636  0.8077
 9321SOL    HW239597   2.812   1.984   4.052  2.3318  0.5106  2.9559
 9322SOL     OW39598   2.404   3.479   2.094  0.2158  0.0056 -0.1485
 9322SOL    HW139599   2.406   3.387   2.120  1.0031  0.1269  0.2140
 9322SOL    HW239600   2.402   3.473   1.998 -3.2560  0.4825 -0.0985
 9323SOL     OW39601   2.436   4.495  11.483  0.1137  0.4306 -0.3448
 9323SOL    HW139602   2.373   4.441  11.435  1.2077 -0.1549 -1.1305
 9323SOL    HW239603   2.512   4.438  11.475 -2.4234 -3.1387  1.3169
 9324SOL     OW39604   0.623   0.653   5.829 -0.2075  0.0401 -0.5295
 9324SOL    HW139605   0.603   0.719   5.895 -0.4983 -0.2566 -0.3161
 9324SOL    HW239606   0.557   0.678   5.765 -0.5538  2.4743  0.7910
 9325SOL     OW39607   0.615   4.338   4.944 -0.2567  0.3901 -0.9690
 9325SOL    HW139608   0.627   4.313   4.852  1.1647  0.4122 -0.7979
 9325SOL    HW239609   0.693   4.393   4.941  0.3505 -0.3370  1.5123
 9326SOL     OW39610   0.353   1.901  17.458  0.2443 -0.2293  0.0819
 9326SOL    HW139611   0.418   1.915  17.390  1.1509 -0.5475  0.8938
 9326SOL    HW239612   0.342   1.807  17.449  1.1528 -0.1972 -1.2686
 9327SOL     OW39613   1.153   3.525  13.977  0.3446  0.5197 -0.0398
 9327SOL    HW139614   1.072   3.576  13.971  0.2332  0.5737  2.2097
 9327SOL    HW239615   1.186   3.543  14.064  0.5347 -0.8140  0.1612
 9328SOL     OW39616   0.620   3.571  10.975  0.0300 -0.3958 -0.2458
 9328SOL    HW139617   0.606   3.541  10.885  0.3533 -0.1926 -0.3623
 9328SOL    HW239618   0.681   3.508  11.013 -0.7221 -0.9157  0.1040
 9329SOL     OW39619   4.645   3.489  10.767 -0.5988 -0.0824  0.1711
 9329SOL    HW139620   4.688   3.575  10.768 -0.0184 -0.3448 -2.8324
 9329SOL    HW239621   4.593   3.494  10.847  1.6143  2.4589  1.4815
 9330SOL     OW39622   4.187   4.180  14.982  0.0277 -0.1172  0.1220
 9330SOL    HW139623   4.154   4.253  15.034  1.3738  0.9961 -0.5982
 9330SOL    HW239624   4.248   4.131  15.037 -0.7853 -0.1277  1.0241
 9331SOL     OW39625   2.259   2.892  16.597 -0.1248 -0.2718 -0.0790
 9331SOL    HW139626   2.322   2.941  16.543 -0.8772  0.3406 -0.4036
 9331SOL    HW239627   2.174   2.936  16.595 -0.8633 -1.8215 -4.0242
 9332SOL     OW39628   2.354   4.705   4.922 -0.4700  0.5503 -0.0874
 9332SOL    HW139629   2.280   4.718   4.862  1.0022  0.6419 -1.8943
 9332SOL    HW239630   2.348   0.046   4.980  2.3129 -1.4694  2.8271
 9333SOL     OW39631   3.852   1.389   9.206  0.0030  0.3245 -0.3056
 9333SOL    HW139632   3.913   1.453   9.245 -1.4417  0.2889  2.0289
 9333SOL    HW239633   3.891   1.365   9.122  0.7473  0.7484 -0.0813
 9334SOL     OW39634   0.026   2.816   0.811 -0.3001  0.2313 -0.1579
 9334SOL    HW139635   4.681   2.852   0.847  0.0676  0.7370  0.1789
 9334SOL    HW239636   0.025   2.875   0.736 -1.4841  1.8026  1.0988
 9335SOL     OW39637   0.609   4.620  16.740 -0.3593  0.2042  0.8925
 9335SOL    HW139638   0.592   4.702  16.695  0.9379 -0.5108 -0.9235
 9335SOL    HW239639   0.549   4.549  16.715 -0.1107  0.2545  0.1531
 9336SOL     OW39640   1.144   2.733   5.901 -0.0445 -0.0509  0.3868
 9336SOL    HW139641   1.069   2.713   5.845 -0.4667  0.8851  0.6259
 9336SOL    HW239642   1.187   2.647   5.905 -0.4424 -0.2490  0.4481
 9337SOL     OW39643   1.285   1.440   3.984 -0.3663 -0.3028  0.0212
 9337SOL    HW139644   1.367   1.474   4.021 -0.1816  1.3058 -1.9411
 9337SOL    HW239645   1.286   1.350   4.018 -1.8253 -0.6329 -0.8568
 9338SOL     OW39646   3.712   0.745   9.824  0.4855 -0.1117 -0.4349
 9338SOL    HW139647   3.739   0.836   9.812 -2.3699  0.4424 -2.6035
 9338SOL    HW239648   3.640   0.732   9.763  2.3994 -1.0704 -2.4999
 9339SOL     OW39649   0.712   0.765   8.929 -0.1954 -0.0499  0.5008
 9339SOL    HW139650   0.659   0.722   8.997 -0.1192 -2.0790 -0.7318
 9339SOL    HW239651   0.763   0.687   8.908 -0.2271  1.2374 -4.1940
 9340SOL     OW39652   3.211   3.437  17.170 -0.3241 -0.4003  0.6548
 9340SOL    HW139653   3.292   3.398  17.138 -1.9950 -1.6587 -2.0175
 9340SOL    HW239654   3.193   3.498  17.099  0.3838  1.8342  2.3719
 9341SOL     OW39655   2.356   0.767   1.737  0.4788 -0.1537  0.0071
 9341SOL    HW139656   2.445   0.734   1.723 -0.8048 -3.4026 -0.3979
 9341SOL    HW239657   2.382   0.852   1.774  0.3071 -1.0811  2.2926
 9342SOL     OW39658   1.227   1.099  15.467 -0.2337 -0.0070 -0.3593
 9342SOL    HW139659   1.316   1.099  15.503  0.3794  0.1302 -1.8757
 9342SOL    HW239660   1.178   1.060  15.540  0.7170 -1.4174 -0.4717
 9343SOL     OW39661   4.480   1.420   4.978 -0.5432  0.2998  0.2018
 9343SOL    HW139662   4.426   1.363   5.033  2.1508 -1.2588  1.2329
 9343SOL    HW239663   4.568   1.392   5.005 -0.3737  1.5043  0.8926
 9344SOL     OW39664   3.070   1.398   7.071 -0.3877 -0.7154 -0.0360
 9344SOL    HW139665   3.075   1.465   7.139  1.0680  0.6398 -1.4754
 9344SOL    HW239666   3.027   1.431   6.992 -0.0274  0.7682  0.4008
 9345SOL     OW39667   1.979   2.717   1.360 -1.2171 -0.3759  0.1290
 9345SOL    HW139668   1.976   2.622   1.372 -1.3754 -0.1979  1.5357
 9345SOL    HW239669   1.905   2.727   1.300  0.2042  1.6530 -1.2937
 9346SOL     OW39670   2.551   3.537   5.102  0.0533 -0.4048 -0.1831
 9346SOL    HW139671   2.547   3.632   5.094  1.2442 -0.4869 -1.6036
 9346SOL    HW239672   2.635   3.513   5.063 -0.9459 -1.3987 -1.6865
 9347SOL     OW39673   1.294   4.721   2.372  0.3858  0.5051  0.1329
 9347SOL    HW139674   1.225   4.673   2.418 -0.2324 -0.0593 -1.3759
 9347SOL    HW239675   1.249   0.030   2.300  0.1806 -0.1610 -0.1554
 9348SOL     OW39676   0.375   0.192  16.471  0.0695 -0.2247  0.1245
 9348SOL    HW139677   0.313   0.136  16.518 -0.4718 -0.6838 -1.1462
 9348SOL    HW239678   0.439   0.131  16.434 -1.9043 -0.3031 -3.1703
 9349SOL     OW39679   3.861   0.904   0.679 -0.8959  0.2941  0.3220
 9349SOL    HW139680   3.829   0.986   0.644 -1.2454  0.6225  1.4105
 9349SOL    HW239681   3.786   0.848   0.700 -1.7081  1.3494  0.2064
 9350SOL     OW39682   1.722   0.580   2.130 -0.4226 -0.7872  0.0689
 9350SOL    HW139683   1.782   0.505   2.125  0.2440 -0.4364  2.9331
 9350SOL    HW239684   1.696   0.588   2.222 -1.3817 -0.5201 -0.2203
 9351SOL     OW39685   4.388   1.265  16.084  0.6402 -0.5869  0.5097
 9351SOL    HW139686   4.418   1.178  16.055  0.6947 -0.7119  0.9384
 9351SOL    HW239687   4.300   1.278  16.049  1.1311  2.4052  0.4659
 9352SOL     OW39688   3.744   0.596   3.095  0.0924 -0.0368  0.2340
 9352SOL    HW139689   3.794   0.595   3.176 -0.5143 -0.7206  0.6053
 9352SOL    HW239690   3.667   0.544   3.118  0.7060 -0.7303  0.7166
 9353SOL     OW39691   2.809   0.616   6.493  0.0058  0.5570 -0.0803
 9353SOL    HW139692   2.824   0.554   6.565 -0.0088 -1.3705 -1.7541
 9353SOL    HW239693   2.898   0.608   6.459  0.7299  3.0329  1.1861
 9354SOL     OW39694   2.860   4.440   7.724 -0.6216  0.0366  0.0594
 9354SOL    HW139695   2.820   4.354   7.732  1.0681 -0.7372  0.2082
 9354SOL    HW239696   2.935   4.418   7.668  0.5487  0.6318  1.3736
 9355SOL     OW39697   2.259   3.935   3.751 -0.3991 -0.1527 -0.5034
 9355SOL    HW139698   2.174   3.920   3.793  0.8847 -1.0994  1.7258
 9355SOL    HW239699   2.299   3.848   3.755  0.7144  0.3619 -0.4677
 9356SOL     OW39700   0.582   1.715   1.870 -0.2102 -0.1857  1.1383
 9356SOL    HW139701   0.557   1.802   1.840  0.2286 -0.4785 -0.0574
 9356SOL    HW239702   0.496   1.681   1.843  0.8558 -2.1188  0.2104
 9357SOL     OW39703   1.700   4.652   5.641  0.2925  0.1347 -0.0155
 9357SOL    HW139704   1.620   4.605   5.616  0.4219 -0.5928  0.9155
 9357SOL    HW239705   1.666   4.722   5.696  0.0535  0.3905 -0.4847
 9358SOL     OW39706   0.269   3.206   4.840 -0.0930 -0.1262 -0.3268
 9358SOL    HW139707   0.353   3.237   4.873 -1.5830  3.2033  0.2526
 9358SOL    HW239708   0.249   3.140   4.907  0.2800  1.1151  0.9902
 9359SOL     OW39709   4.051   1.996   2.585  0.0594 -0.2309  0.1470
 9359SOL    HW139710   4.093   2.069   2.629 -0.4129  2.2332 -3.4536
 9359SOL    HW239711   3.974   1.994   2.642 -1.6023 -1.7515 -2.0776
 9360SOL     OW39712   2.507   3.101  15.527 -0.0823 -0.0052 -0.5904
 9360SOL    HW139713   2.591   3.064  15.502 -0.0139 -0.7460  0.7933
 9360SOL    HW239714   2.463   3.022  15.497  1.4328 -0.9863 -0.1997
 9361SOL     OW39715   2.611   4.323   0.909 -0.0964 -0.3703  0.5154
 9361SOL    HW139716   2.599   4.314   0.814 -0.2023 -1.0454  0.5913
 9361SOL    HW239717   2.567   4.407   0.914 -0.4901 -0.5919  0.7900
 9362SOL     OW39718   3.262   3.554  17.401  0.0465 -0.7287 -0.3889
 9362SOL    HW139719   3.238   3.512  17.318 -1.4321 -0.6643  0.0158
 9362SOL    HW239720   3.309   3.481  17.441  0.1850  0.7716  2.1101
 9363SOL     OW39721   1.219   0.077   2.829 -0.2463  0.2965  0.3577
 9363SOL    HW139722   1.252   0.046   2.914 -2.1894 -1.0597  0.6271
 9363SOL    HW239723   1.156   0.010   2.802  1.3153  0.7909 -4.4414
 9364SOL     OW39724   0.333   4.569  16.982 -0.3494  0.0401  0.0646
 9364SOL    HW139725   0.352   4.500  16.918 -1.9443  0.2778 -0.6617
 9364SOL    HW239726   0.340   4.521  17.064 -0.0923 -0.6951 -0.3926
 9365SOL     OW39727   2.771   0.407   2.753 -0.5550 -0.4875 -0.2272
 9365SOL    HW139728   2.831   0.424   2.825 -1.1166 -0.1387  0.1534
 9365SOL    HW239729   2.694   0.371   2.798 -0.5975  0.3674  0.3785
 9366SOL     OW39730   3.668   1.854   5.300  0.1420 -0.1455  0.3218
 9366SOL    HW139731   3.763   1.859   5.297 -0.0220  2.2870 -0.4218
 9366SOL    HW239732   3.647   1.946   5.312  1.0718 -0.3302  3.4374
 9367SOL     OW39733   4.688   2.445   4.171 -0.8896 -0.5922 -0.4310
 9367SOL    HW139734   4.690   2.524   4.225 -0.3517 -0.4930 -0.5925
 9367SOL    HW239735   0.011   2.387   4.219 -0.2407 -1.8956 -2.7898
 9368SOL     OW39736   4.005   4.489   3.453 -0.2554 -0.4349 -1.0305
 9368SOL    HW139737   4.005   4.504   3.359  0.6073 -0.8113 -1.0899
 9368SOL    HW239738   3.987   4.572   3.496 -0.5470  0.3274 -2.6282
 9369SOL     OW39739   1.108   3.235   2.799  0.3470  0.3942 -0.3861
 9369SOL    HW139740   1.109   3.170   2.869 -0.6499 -0.5897 -1.2935
 9369SOL    HW239741   1.035   3.292   2.819  0.5101  0.8871 -1.1903
 9370SOL     OW39742   1.407   4.083   3.759 -0.7337 -0.3651 -0.6119
 9370SOL    HW139743   1.442   4.039   3.836 -1.2615  0.0774 -0.1139
 9370SOL    HW239744   1.385   4.171   3.792  0.3283  0.0696 -1.0710
 9371SOL     OW39745   3.442   0.072  13.382  0.0927  0.0915  0.8011
 9371SOL    HW139746   3.378   0.003  13.401  0.8666 -0.8467  0.0124
 9371SOL    HW239747   3.385   0.135  13.339  0.5165 -1.2523 -1.7327
 9372SOL     OW39748   0.327   2.392   5.436  0.4439 -0.1572  0.5331
 9372SOL    HW139749   0.311   2.486   5.445  0.0112 -0.1682 -0.0858
 9372SOL    HW239750   0.420   2.396   5.417  0.7717 -1.1270  2.0134
 9373SOL     OW39751   3.523   0.964  11.816  0.3454 -0.5617 -0.1624
 9373SOL    HW139752   3.552   0.956  11.907 -0.5320 -1.3687  0.0518
 9373SOL    HW239753   3.470   0.889  11.790 -0.0389  0.2753 -1.7710
 9374SOL     OW39754   3.155   1.029  14.539 -0.2591  0.0447 -0.4763
 9374SOL    HW139755   3.096   1.064  14.605 -0.8300 -0.7804 -0.5393
 9374SOL    HW239756   3.111   0.945  14.524  0.5180 -0.6941  1.4359
 9375SOL     OW39757   0.715   3.155   9.117 -0.1262  0.1333  0.8392
 9375SOL    HW139758   0.677   3.086   9.170  0.1662 -1.5854 -1.1742
 9375SOL    HW239759   0.704   3.124   9.027  2.1889  2.2004 -0.1497
 9376SOL     OW39760   4.036   0.367   9.138 -0.0577 -0.4333 -0.1849
 9376SOL    HW139761   4.086   0.442   9.169 -0.8817  0.1682 -0.2939
 9376SOL    HW239762   4.105   0.307   9.109  0.7939  0.8182 -0.7333
 9377SOL     OW39763   1.061   1.010   7.877  0.0471 -0.5563 -0.0009
 9377SOL    HW139764   1.018   1.014   7.791 -0.8095 -0.5945  0.4300
 9377SOL    HW239765   1.131   1.074   7.875 -0.9610  0.4273 -4.0812
 9378SOL     OW39766   0.947   1.077  14.070  0.0638 -0.4549 -0.8797
 9378SOL    HW139767   0.854   1.097  14.076  0.4173  0.3499  1.6898
 9378SOL    HW239768   0.964   0.999  14.123  0.4304 -0.1681 -0.5751
 9379SOL     OW39769   3.795   4.508   2.968  0.3861  0.5106 -0.2169
 9379SOL    HW139770   3.730   4.471   3.027 -0.2183 -0.7817 -1.6833
 9379SOL    HW239771   3.857   4.549   3.028  1.0394  0.9344 -1.1813
 9380SOL     OW39772   0.332   1.550   1.829 -0.3497  0.3337  0.6787
 9380SOL    HW139773   0.260   1.613   1.826 -2.1483 -1.7324 -0.9023
 9380SOL    HW239774   0.305   1.503   1.908  0.2571 -0.5149  0.3868
 9381SOL     OW39775   4.237   4.422   1.951 -0.6750 -0.7528 -0.3913
 9381SOL    HW139776   4.295   4.365   1.899 -0.7523 -0.8495 -0.3716
 9381SOL    HW239777   4.279   4.418   2.037 -0.2421  2.7593 -0.4282
 9382SOL     OW39778   1.087   3.305  15.099  0.3123  0.1049  0.5306
 9382SOL    HW139779   1.049   3.393  15.097 -2.4537 -1.1144 -1.5976
 9382SOL    HW239780   1.008   3.252  15.087  0.3086  0.0941  0.6028
 9383SOL     OW39781   4.281   2.971   2.073 -0.0448  1.0339  0.1371
 9383SOL    HW139782   4.302   2.878   2.081  0.9535  1.2719  0.3590
 9383SOL    HW239783   4.365   3.007   2.102  0.2154 -0.3296  1.0941
 9384SOL     OW39784   3.612   4.416   2.316 -0.9215  0.4400 -0.0305
 9384SOL    HW139785   3.601   4.511   2.322  1.8115  0.6864  1.4102
 9384SOL    HW239786   3.537   4.375   2.360 -1.1091 -0.6664 -1.3790
 9385SOL     OW39787   0.934   1.660   6.340  0.1533  0.0637  0.2884
 9385SOL    HW139788   1.027   1.681   6.347 -0.7518  3.0161  3.1621
 9385SOL    HW239789   0.909   1.750   6.323 -0.4834  0.2239  2.1194
 9386SOL     OW39790   4.059   2.559  13.962 -0.4583 -0.3775 -0.1920
 9386SOL    HW139791   4.045   2.521  14.049  0.9116  0.9746  0.6191
 9386SOL    HW239792   4.032   2.649  13.983 -0.1847  0.5171 -3.6809
 9387SOL     OW39793   0.326   1.785   4.701  0.4505 -0.6049  0.2521
 9387SOL    HW139794   0.352   1.699   4.670 -1.0647 -0.9901  0.0610
 9387SOL    HW239795   0.256   1.789   4.635  2.9164  0.7832 -2.2654
 9388SOL     OW39796   1.508   4.157  17.000 -0.6514  0.3727  0.1578
 9388SOL    HW139797   1.539   4.085  17.054 -2.0793  0.7741  1.5043
 9388SOL    HW239798   1.574   4.223  17.015 -0.0710 -0.6514  2.0618
 9389SOL     OW39799   3.036   2.362   6.662  0.4707  0.1703  0.0208
 9389SOL    HW139800   3.018   2.352   6.569 -0.0037  2.3004 -0.1327
 9389SOL    HW239801   3.071   2.451   6.667  0.5149  0.0651  1.6740
 9390SOL     OW39802   3.635   2.820   5.140  0.1312 -0.0545  0.1197
 9390SOL    HW139803   3.615   2.827   5.233 -0.8276 -1.0315 -0.0191
 9390SOL    HW239804   3.570   2.876   5.099  0.3555  0.7369  0.8639
 9391SOL     OW39805   3.743   3.003   4.509 -0.2501 -0.4096  0.6939
 9391SOL    HW139806   3.788   2.920   4.492  0.5512  0.3615 -0.9451
 9391SOL    HW239807   3.810   3.069   4.493 -2.5349  1.5550 -0.5914
 9392SOL     OW39808   4.074   2.514   9.472  0.4683  0.4213  0.2036
 9392SOL    HW139809   4.090   2.443   9.535 -1.2306  1.2948  1.6274
 9392SOL    HW239810   3.990   2.548   9.503  1.3496  1.0215  1.9824
 9393SOL     OW39811   2.174   1.083   8.856  0.2586 -0.2944  0.5628
 9393SOL    HW139812   2.185   1.110   8.947  1.4456  1.5229 -0.1257
 9393SOL    HW239813   2.265   1.093   8.831 -0.1125  0.6788 -0.3695
 9394SOL     OW39814   0.853   4.056   8.235 -0.4874 -0.5211 -0.0105
 9394SOL    HW139815   0.807   4.000   8.298  2.0498 -2.9132 -0.3052
 9394SOL    HW239816   0.850   4.139   8.282 -0.2953  0.1948 -1.2562
 9395SOL     OW39817   3.631   0.734  17.708 -0.0823 -0.3348 -0.1145
 9395SOL    HW139818   3.665   0.766  17.624 -3.5871  1.7163 -0.7667
 9395SOL    HW239819   3.629   0.639  17.709 -1.5141 -0.3212 -1.8786
 9396SOL     OW39820   1.770   2.447   1.243  0.4772  0.1377  0.4741
 9396SOL    HW139821   1.761   2.422   1.335  0.5976  2.2907  1.0831
 9396SOL    HW239822   1.727   2.533   1.246  0.1306 -0.0206 -0.0170
 9397SOL     OW39823   0.462   2.142   6.429  0.0300  0.3632  0.0486
 9397SOL    HW139824   0.538   2.171   6.379 -0.6011  0.0189 -1.1056
 9397SOL    HW239825   0.492   2.133   6.520 -1.0625  0.5091  0.4297
 9398SOL     OW39826   1.189   4.282   2.629 -0.0416  0.0607 -0.0387
 9398SOL    HW139827   1.211   4.193   2.654  0.3558 -0.0588 -0.8035
 9398SOL    HW239828   1.093   4.281   2.633 -0.0244  0.3060  0.4397
 9399SOL     OW39829   1.082   2.206   4.274 -0.1240 -0.0214 -0.2697
 9399SOL    HW139830   1.101   2.272   4.340  1.2050 -0.9558  0.2766
 9399SOL    HW239831   1.131   2.245   4.202  0.7125  0.5248  0.5987
 9400SOL     OW39832   3.286   2.970   8.631 -0.0775 -0.1507 -0.7606
 9400SOL    HW139833   3.270   2.923   8.549  0.0450 -1.0273 -0.2794
 9400SOL    HW239834   3.316   2.901   8.690 -1.8300 -0.1450  0.1402
 9401SOL     OW39835   0.249   1.070   2.242  0.0775  0.3674 -0.3546
 9401SOL    HW139836   0.158   1.061   2.212  0.2431  1.6493 -1.2352
 9401SOL    HW239837   0.264   0.987   2.287 -3.1388  0.1912  0.4071
 9402SOL     OW39838   2.401   2.129   4.847  0.3528  0.5153 -0.3023
 9402SOL    HW139839   2.365   2.041   4.836  1.5196 -0.1203  0.8035
 9402SOL    HW239840   2.410   2.125   4.942 -0.1151 -0.5516 -0.3035
 9403SOL     OW39841   1.463   0.621  13.962  0.6205  0.4844  0.0506
 9403SOL    HW139842   1.392   0.612  13.899  2.0125  0.3898 -1.5203
 9403SOL    HW239843   1.533   0.574  13.916 -0.0590 -1.1461  0.6788
 9404SOL     OW39844   4.139   2.305   8.903 -0.0368  0.4080 -0.1162
 9404SOL    HW139845   4.053   2.279   8.936 -0.4291  0.2077 -1.2755
 9404SOL    HW239846   4.199   2.232   8.922 -0.0245 -0.2314 -2.6014
 9405SOL     OW39847   4.446   2.211   5.451  0.4191 -0.4710 -0.6999
 9405SOL    HW139848   4.541   2.210   5.459  0.3833  1.2103 -0.2038
 9405SOL    HW239849   4.433   2.179   5.362 -0.8037  0.5944 -0.9029
 9406SOL     OW39850   3.831   2.250  15.165 -0.1781  0.1070  0.2281
 9406SOL    HW139851   3.903   2.294  15.210  0.0328 -0.5957  0.5759
 9406SOL    HW239852   3.858   2.270  15.076  1.3987  0.4819  0.7922
 9407SOL     OW39853   0.448   4.159   1.615 -0.0151 -0.2526  0.1877
 9407SOL    HW139854   0.442   4.126   1.525  1.5819 -0.4786  0.1545
 9407SOL    HW239855   0.490   4.082   1.654  0.8677  0.6062  0.9620
 9408SOL     OW39856   3.822   4.300   7.839 -0.2088  0.4140 -0.2474
 9408SOL    HW139857   3.792   4.223   7.887  0.4229  0.4314  0.1868
 9408SOL    HW239858   3.900   4.264   7.797  0.1643  0.8215  0.0838
 9409SOL     OW39859   2.579   0.212   3.535  0.0320 -0.3613  0.1204
 9409SOL    HW139860   2.523   0.256   3.471  1.6603  0.3631 -0.8101
 9409SOL    HW239861   2.628   0.285   3.572  1.1778 -1.8666  1.5947
 9410SOL     OW39862   3.863   2.740   2.346  0.2996  0.4174  0.1799
 9410SOL    HW139863   3.813   2.771   2.421 -0.1809  1.5341 -0.5982
 9410SOL    HW239864   3.860   2.820   2.293  0.1039  0.7695  0.7246
 9411SOL     OW39865   1.019   1.764  11.871  0.3087  0.1343  0.2603
 9411SOL    HW139866   1.097   1.811  11.899 -0.3023  3.0030 -2.8909
 9411SOL    HW239867   0.978   1.838  11.827 -1.0399  0.1490  1.5346
 9412SOL     OW39868   0.587   4.046   5.328  0.1274  0.0047 -0.0550
 9412SOL    HW139869   0.584   3.983   5.399 -1.2396  1.1248  0.8868
 9412SOL    HW239870   0.676   4.081   5.326 -1.3277  3.7855 -0.1532
 9413SOL     OW39871   0.021   2.748   5.557  0.8093 -0.1019  0.1232
 9413SOL    HW139872   0.105   2.762   5.601 -0.2870  1.2790  1.7479
 9413SOL    HW239873   0.042   2.805   5.483  0.5375  0.6888  0.6496
 9414SOL     OW39874   2.927   1.821   0.848  0.2997  0.3058 -0.8615
 9414SOL    HW139875   2.930   1.786   0.936 -1.5280 -1.3142 -1.4365
 9414SOL    HW239876   2.839   1.858   0.856  0.3732 -0.2483  2.4750
 9415SOL     OW39877   1.560   1.601   8.434  0.3797  0.8252 -0.2043
 9415SOL    HW139878   1.594   1.524   8.478 -1.7609 -0.9601 -1.6713
 9415SOL    HW239879   1.544   1.579   8.342 -0.4091  2.7921 -0.5522
 9416SOL     OW39880   2.882   3.928  10.394  0.1697  0.0362 -0.4225
 9416SOL    HW139881   2.837   3.875  10.460  1.0761 -1.6572 -1.1595
 9416SOL    HW239882   2.815   3.977  10.346 -0.4321  1.0098  1.4287
 9417SOL     OW39883   0.494   2.605  17.180  0.8501  0.4395 -0.1139
 9417SOL    HW139884   0.511   2.594  17.274 -1.0332  1.2744  0.3256
 9417SOL    HW239885   0.578   2.596  17.136 -0.9842 -0.2908 -3.4607
 9418SOL     OW39886   1.471   0.925   5.736 -0.4942 -0.3155 -0.6573
 9418SOL    HW139887   1.392   0.895   5.781  0.3596 -2.0707 -0.3087
 9418SOL    HW239888   1.435   1.010   5.710 -0.2042  0.6367  2.0720
 9419SOL     OW39889   0.447   0.386   4.528 -0.2833  0.1151  0.3520
 9419SOL    HW139890   0.462   0.474   4.563 -1.2917 -1.4431  4.7315
 9419SOL    HW239891   0.352   0.377   4.537 -0.4730 -0.2414 -2.1178
 9420SOL     OW39892   3.665   2.803   3.278  0.5292  0.1101  0.6573
 9420SOL    HW139893   3.624   2.867   3.220  1.8635 -1.6958 -2.3198
 9420SOL    HW239894   3.657   2.723   3.226  1.4924 -0.1151  0.8375
 9421SOL     OW39895   0.822   2.901   7.245  0.2809 -0.8103  0.5809
 9421SOL    HW139896   0.842   2.987   7.211 -1.3847 -0.8083 -0.3835
 9421SOL    HW239897   0.894   2.848   7.211 -0.9969 -2.0875 -0.1546
 9422SOL     OW39898   1.080   2.891  17.447  0.3975  0.2252 -0.0406
 9422SOL    HW139899   1.117   2.900  17.359 -0.0993  1.1499 -0.1467
 9422SOL    HW239900   1.004   2.834  17.435 -0.2262  0.4531  2.9930
 9423SOL     OW39901   1.016   4.325   5.918 -0.5795 -0.3529 -0.0035
 9423SOL    HW139902   1.066   4.278   5.852 -0.6009 -1.2749  0.6448
 9423SOL    HW239903   1.067   4.305   5.996  1.8851  2.4164 -0.9060
 9424SOL     OW39904   1.323   4.065   9.679 -0.4483  0.1643 -0.1269
 9424SOL    HW139905   1.287   4.024   9.757 -1.0642 -0.4061 -0.7177
 9424SOL    HW239906   1.255   4.129   9.657  1.0542  1.1859 -1.7294
 9425SOL     OW39907   4.665   2.336   8.645 -0.1409 -0.4133 -0.2765
 9425SOL    HW139908   4.658   2.243   8.669 -0.1520 -0.5927 -0.9837
 9425SOL    HW239909   0.010   2.363   8.689 -0.2125 -0.6322 -0.0069
 9426SOL     OW39910   2.967   1.297   2.254  0.5114 -0.0763  0.3393
 9426SOL    HW139911   2.900   1.345   2.205 -1.5913 -3.2410  0.1543
 9426SOL    HW239912   2.983   1.233   2.185 -1.3315  2.2511 -2.2493
 9427SOL     OW39913   0.163   1.275   9.972 -0.3363  0.4568  0.1306
 9427SOL    HW139914   0.164   1.236  10.060 -0.2357 -0.3362 -0.2254
 9427SOL    HW239915   0.191   1.362  10.000  0.3706  0.2201  0.1523
 9428SOL     OW39916   3.342   0.266  16.537 -0.2260 -0.0076 -1.0306
 9428SOL    HW139917   3.409   0.203  16.511 -0.2056 -0.3563 -0.1553
 9428SOL    HW239918   3.297   0.219  16.608  0.1688  1.8867  0.4642
 9429SOL     OW39919   3.272   1.084   4.941 -0.0256 -0.1400 -0.2554
 9429SOL    HW139920   3.365   1.096   4.921 -0.1941 -0.1786 -1.0807
 9429SOL    HW239921   3.249   1.053   4.853 -0.4974 -1.1173  0.2115
 9430SOL     OW39922   0.568   4.165   8.440 -0.1394  0.4101  0.2590
 9430SOL    HW139923   0.587   4.232   8.374  3.7782 -1.3194 -0.3727
 9430SOL    HW239924   0.474   4.175   8.452 -0.1183  1.3076 -0.3719
 9431SOL     OW39925   2.352   2.571  15.362  0.1712  0.0626 -0.1132
 9431SOL    HW139926   2.342   2.660  15.327 -0.6416 -0.8480 -2.1866
 9431SOL    HW239927   2.438   2.543  15.331 -1.7770 -1.2783 -4.1369
 9432SOL     OW39928   1.177   3.158   3.254  0.6530  0.3344  0.3490
 9432SOL    HW139929   1.266   3.192   3.255  1.1655 -0.9316 -0.7981
 9432SOL    HW239930   1.164   3.126   3.343 -1.2179  1.9389  0.6472
 9433SOL     OW39931   2.555   3.649   4.383  0.1173 -0.1215 -0.1877
 9433SOL    HW139932   2.628   3.700   4.349 -1.2625  1.6316 -0.5028
 9433SOL    HW239933   2.537   3.585   4.313 -0.7377 -0.7952  0.6504
 9434SOL     OW39934   1.085   0.449   6.610  0.2866 -0.5022  0.3609
 9434SOL    HW139935   1.064   0.541   6.632  1.4257  0.4258 -2.5455
 9434SOL    HW239936   1.154   0.448   6.545 -0.5029 -1.7081 -0.4453
 9435SOL     OW39937   3.743   0.513  11.191  0.1261  0.2457 -0.0127
 9435SOL    HW139938   3.681   0.582  11.165 -1.1521 -1.1695 -0.7131
 9435SOL    HW239939   3.790   0.549  11.266  0.0875 -0.9366  0.5705
 9436SOL     OW39940   1.541   3.670   3.547  0.0630 -0.0258  0.1831
 9436SOL    HW139941   1.504   3.758   3.543 -0.8545 -0.4985 -1.8228
 9436SOL    HW239942   1.533   3.648   3.454  0.6499 -0.4503  0.2324
 9437SOL     OW39943   0.464   3.783  15.551  0.5187 -0.1666  0.1004
 9437SOL    HW139944   0.391   3.720  15.552  1.4649 -1.1995  4.4038
 9437SOL    HW239945   0.498   3.781  15.462 -0.8431  1.7225 -0.4562
 9438SOL     OW39946   1.672   1.774   1.672 -0.5208 -0.6361  0.6939
 9438SOL    HW139947   1.696   1.684   1.697 -0.4678 -0.8591 -0.1746
 9438SOL    HW239948   1.632   1.767   1.586 -1.4546 -0.7520  1.1338
 9439SOL     OW39949   1.844   1.104   4.022  0.7429 -0.5151  0.2385
 9439SOL    HW139950   1.791   1.036   4.064 -1.7672  1.2418 -0.1689
 9439SOL    HW239951   1.891   1.047   3.960 -0.6320  0.5651 -1.7646
 9440SOL     OW39952   0.852   2.405   1.918 -0.1128 -0.5325  0.3106
 9440SOL    HW139953   0.928   2.461   1.932 -1.2516  1.2473 -0.6145
 9440SOL    HW239954   0.783   2.466   1.946  0.3303 -0.7721  1.9213
 9441SOL     OW39955   3.861   2.212   7.159  0.2154 -0.3553 -0.2690
 9441SOL    HW139956   3.883   2.143   7.097 -0.9543  0.1584 -1.2592
 9441SOL    HW239957   3.767   2.195   7.167  0.3385 -0.2093  1.5433
 9442SOL     OW39958   3.501   3.981   7.689 -0.6288 -0.3370 -0.2577
 9442SOL    HW139959   3.514   3.974   7.595 -0.4373  0.0844 -0.2620
 9442SOL    HW239960   3.554   3.911   7.726  1.0428  0.7735 -0.5482
 9443SOL     OW39961   3.574   2.872   0.763  0.4707  0.1336 -0.1049
 9443SOL    HW139962   3.552   2.865   0.855 -0.4677  0.7995 -0.2764
 9443SOL    HW239963   3.670   2.869   0.772  0.2502  0.0396  2.0379
 9444SOL     OW39964   1.615   2.056   4.436 -0.2380  0.4175 -0.2797
 9444SOL    HW139965   1.696   2.050   4.385  0.8966  1.4820  1.4252
 9444SOL    HW239966   1.556   2.015   4.372  0.6753 -2.8696  0.9995
 9445SOL     OW39967   2.199   2.170   2.493 -0.1314 -0.2332 -0.0238
 9445SOL    HW139968   2.192   2.257   2.533 -0.2347  0.1257 -0.8212
 9445SOL    HW239969   2.241   2.131   2.569  0.2941  1.6039  0.6741
 9446SOL     OW39970   0.548   2.310  14.420  0.2268  0.2051  0.2204
 9446SOL    HW139971   0.597   2.278  14.496 -0.3452 -0.4901  0.2959
 9446SOL    HW239972   0.558   2.404  14.436  0.2699 -1.0218  7.3976
 9447SOL     OW39973   0.348   3.670   5.378  0.1672 -0.6787  0.5047
 9447SOL    HW139974   0.431   3.623   5.383  0.6379  0.1885  0.7613
 9447SOL    HW239975   0.380   3.744   5.326 -1.8097 -0.1964 -0.0357
 9448SOL     OW39976   3.791   3.862   5.051  0.0838  0.5668  0.3523
 9448SOL    HW139977   3.732   3.790   5.074  0.3356  0.6431  1.2437
 9448SOL    HW239978   3.865   3.810   5.020  0.8008  1.3860  0.6830
 9449SOL     OW39979   4.389   3.956   4.770 -0.8978 -0.5395  0.0414
 9449SOL    HW139980   4.424   3.877   4.809 -0.3683  0.2113  1.0816
 9449SOL    HW239981   4.469   4.005   4.749  0.4073 -3.0308 -0.6923
 9450SOL     OW39982   4.359   3.486   7.716  0.1234 -0.3884 -0.3341
 9450SOL    HW139983   4.427   3.435   7.671  0.6628  0.8953 -0.9785
 9450SOL    HW239984   4.324   3.416   7.771  0.7350 -1.2222 -1.0091
 9451SOL     OW39985   3.514   3.394   8.702 -0.3633  0.1608  0.2200
 9451SOL    HW139986   3.451   3.416   8.771  1.5230 -0.9605  2.2724
 9451SOL    HW239987   3.455   3.340   8.649  0.4927  0.4021 -0.9835
 9452SOL     OW39988   1.585   3.887   5.742  0.4245  0.4663  0.0174
 9452SOL    HW139989   1.604   3.809   5.794  1.3434 -0.2165 -1.3560
 9452SOL    HW239990   1.584   3.859   5.651  0.8283 -1.3265  0.5584
 9453SOL     OW39991   0.378   4.519  10.268 -0.4410 -0.0194  0.4152
 9453SOL    HW139992   0.366   4.427  10.291 -1.2644  0.1311  0.5864
 9453SOL    HW239993   0.341   4.556  10.348  0.4246  0.6387  0.5161
 9454SOL     OW39994   0.804   2.645   3.381 -0.0897  0.2057 -0.3756
 9454SOL    HW139995   0.736   2.712   3.373 -1.0374 -0.6476  0.6116
 9454SOL    HW239996   0.876   2.675   3.325  0.0234  2.2621  0.8366
 9455SOL     OW39997   0.371   0.664   3.726  0.5449  0.3300  0.3703
 9455SOL    HW139998   0.434   0.700   3.789 -0.5312 -2.7901  3.2432
 9455SOL    HW239999   0.283   0.685   3.758  0.0841  0.0755 -0.7567
 9456SOL     OW40000   0.530   4.677   4.870 -0.3078 -0.3949  0.1449
 9456SOL    HW140001   0.485   0.024   4.887  0.0249 -0.3656  0.8599
 9456SOL    HW240002   0.616   4.705   4.901  0.2441 -0.1992 -1.5334
 9457SOL     OW40003   0.840   4.132   5.318 -0.4572 -0.1618  0.2143
 9457SOL    HW140004   0.899   4.076   5.368 -0.8523  0.3159  1.2043
 9457SOL    HW240005   0.901   4.186   5.267  0.0815  0.3137  1.3765
 9458SOL     OW40006   3.580   2.359  11.618  0.0635 -0.2022 -0.4962
 9458SOL    HW140007   3.615   2.407  11.693  0.5491 -0.2294 -0.7042
 9458SOL    HW240008   3.516   2.301  11.659  1.8583 -0.7403  1.5315
 9459SOL     OW40009   2.530   2.278   8.992 -0.0500 -0.1402 -0.2201
 9459SOL    HW140010   2.449   2.298   9.039 -0.2308  0.3531 -0.7352
 9459SOL    HW240011   2.593   2.298   9.061 -0.2202 -1.6455  0.3534
 9460SOL     OW40012   0.190   1.328   6.184  0.2080  0.1506  0.2864
 9460SOL    HW140013   0.147   1.243   6.194  0.4688 -0.0957 -0.6019
 9460SOL    HW240014   0.167   1.367   6.268  0.7288  2.6164 -0.7110
 9461SOL     OW40015   1.805   2.183  15.181 -0.7470  0.7209  0.2669
 9461SOL    HW140016   1.775   2.265  15.219  0.4940  1.2623  0.0902
 9461SOL    HW240017   1.727   2.128  15.177 -0.0452 -0.2841  0.1207
 9462SOL     OW40018   3.340   3.240   8.548 -0.7400 -0.6611  0.0549
 9462SOL    HW140019   3.330   3.146   8.562 -2.4582 -0.7185 -1.5724
 9462SOL    HW240020   3.363   3.239   8.455  0.1015  0.3743  0.2468
 9463SOL     OW40021   4.171   0.495   1.127 -0.0461 -0.2694 -0.3421
 9463SOL    HW140022   4.241   0.514   1.188 -1.8173  1.1228  1.2516
 9463SOL    HW240023   4.223   0.490   1.047  1.0831 -1.8838  0.4870
 9464SOL     OW40024   0.698   0.988   5.315  0.0018  0.3631 -0.4734
 9464SOL    HW140025   0.633   0.956   5.378  1.5365 -1.8612 -0.0301
 9464SOL    HW240026   0.767   1.026   5.369  1.3040  0.3418 -2.1090
 9465SOL     OW40027   1.989   2.886  16.393 -0.3269  0.0063 -0.1281
 9465SOL    HW140028   1.896   2.873  16.374 -0.3524 -1.0250  0.7091
 9465SOL    HW240029   1.988   2.873  16.488 -1.1246  0.8642 -0.0033
 9466SOL     OW40030   3.513   0.461  16.591  0.2447  0.3631 -0.1551
 9466SOL    HW140031   3.427   0.429  16.565  0.8772 -1.6327  0.2114
 9466SOL    HW240032   3.565   0.401  16.537 -0.9256 -2.9758  2.3944
 9467SOL     OW40033   1.999   0.403   8.975  0.2634  0.3397 -0.1706
 9467SOL    HW140034   1.931   0.466   8.953 -0.1630 -0.4056 -0.9931
 9467SOL    HW240035   2.069   0.464   8.997  1.1150  0.2358 -2.5182
 9468SOL     OW40036   2.390   2.223  13.470 -0.1547 -0.4332  0.2855
 9468SOL    HW140037   2.324   2.165  13.510 -1.6976  0.2683 -1.2640
 9468SOL    HW240038   2.348   2.219  13.385  0.6555 -1.8783 -0.0481
 9469SOL     OW40039   3.295   2.613   5.903 -0.0331 -0.4206 -0.0925
 9469SOL    HW140040   3.310   2.539   5.843  2.0284 -0.5922  0.6406
 9469SOL    HW240041   3.379   2.624   5.948 -0.2016  0.9135 -0.1094
 9470SOL     OW40042   4.055   0.228   5.056  0.4123  0.3925 -0.1005
 9470SOL    HW140043   4.131   0.276   5.021 -0.3746  1.1418 -0.7780
 9470SOL    HW240044   4.098   0.143   5.065  0.9203  0.5190 -1.2279
 9471SOL     OW40045   1.528   4.236   7.318  0.3067  0.5184  0.3791
 9471SOL    HW140046   1.602   4.201   7.269 -0.3596  1.2119 -1.1228
 9471SOL    HW240047   1.478   4.276   7.246  0.5788  0.8665  0.3809
 9472SOL     OW40048   2.011   0.325  14.965  0.4151 -0.1175  0.5019
 9472SOL    HW140049   1.934   0.375  14.936  1.8857  1.2861 -0.9690
 9472SOL    HW240050   1.977   0.297  15.050  0.3842 -2.1217 -0.1623
 9473SOL     OW40051   0.843   1.238   6.169 -0.0422 -0.2075  0.8633
 9473SOL    HW140052   0.834   1.333   6.161 -1.4758 -0.2585  1.8887
 9473SOL    HW240053   0.936   1.223   6.154 -0.3012  1.9249 -2.7780
 9474SOL     OW40054   2.487   3.213   2.040 -0.8606 -0.5603 -0.0808
 9474SOL    HW140055   2.459   3.123   2.057 -0.8259 -0.9175 -1.8671
 9474SOL    HW240056   2.564   3.202   1.984 -0.5950  0.9058 -0.0050
 9475SOL     OW40057   4.668   4.210   5.200  0.6230  0.0492  0.2058
 9475SOL    HW140058   4.619   4.128   5.210  0.7074  0.1878  1.8857
 9475SOL    HW240059   4.631   4.254   5.277  1.1424 -0.2121  0.5996
 9476SOL     OW40060   4.282   0.591  12.523 -0.1392  0.6647 -0.5824
 9476SOL    HW140061   4.297   0.499  12.545 -0.1724  0.9399  0.5668
 9476SOL    HW240062   4.192   0.588  12.489 -1.0949 -1.2922  2.1058
 9477SOL     OW40063   1.013   2.867  10.238 -0.3669  0.4572  0.2613
 9477SOL    HW140064   1.086   2.844  10.295  0.5283 -0.6292 -1.3301
 9477SOL    HW240065   0.985   2.948  10.281  0.0298 -0.9912  3.2263
 9478SOL     OW40066   4.379   1.501  15.183 -0.3219  0.2925 -0.5762
 9478SOL    HW140067   4.431   1.556  15.124 -0.6776  0.4698 -0.7263
 9478SOL    HW240068   4.373   1.546  15.268  1.7874 -0.5197 -0.0019
 9479SOL     OW40069   1.161   2.414   6.597 -0.3093 -0.3634 -0.2962
 9479SOL    HW140070   1.228   2.481   6.586 -0.0478 -0.6002 -0.1488
 9479SOL    HW240071   1.184   2.347   6.533  0.8193  0.5712 -0.8716
 9480SOL     OW40072   2.131   2.924   1.453 -0.4804  0.0279 -0.4115
 9480SOL    HW140073   2.049   2.974   1.449 -0.8577 -0.6794 -1.4290
 9480SOL    HW240074   2.099   2.843   1.416  0.4279  0.0757 -1.2984
 9481SOL     OW40075   3.422   3.950   4.390 -0.0816 -0.1287 -0.4858
 9481SOL    HW140076   3.394   4.029   4.437  1.5352 -1.2741  2.4209
 9481SOL    HW240077   3.393   3.967   4.300 -4.1469  0.1880  0.9018
 9482SOL     OW40078   1.805   1.154   7.956  0.5569 -0.2442  0.2737
 9482SOL    HW140079   1.734   1.203   7.914 -0.8829 -1.2073  1.6008
 9482SOL    HW240080   1.795   1.190   8.044 -1.0479  2.0573 -0.8322
 9483SOL     OW40081   0.447   3.927   5.603 -0.4195  0.2774 -0.2128
 9483SOL    HW140082   0.363   3.903   5.565 -0.7410  1.2075 -0.0842
 9483SOL    HW240083   0.417   3.964   5.686  0.0852  1.1531 -0.4152
 9484SOL     OW40084   3.905   3.707   7.690  0.1710  0.0271  0.3275
 9484SOL    HW140085   3.939   3.789   7.725  1.4943  0.2008 -1.3433
 9484SOL    HW240086   3.872   3.731   7.603  0.1557 -0.7971  0.0981
 9485SOL     OW40087   0.944   3.693   2.969  0.0381 -0.1404  0.1623
 9485SOL    HW140088   0.997   3.678   3.047 -0.4429  0.2091  0.5595
 9485SOL    HW240089   0.899   3.776   2.985 -0.1304 -0.5676  1.9080
 9486SOL     OW40090   0.625   1.877   3.429 -0.0246  0.2325  0.2905
 9486SOL    HW140091   0.701   1.891   3.485 -0.6018  1.0679  0.8613
 9486SOL    HW240092   0.630   1.951   3.369 -0.4061 -1.3130 -1.6368
 9487SOL     OW40093   2.080   0.807   4.156  0.2416  0.4005  0.0448
 9487SOL    HW140094   2.150   0.836   4.097 -0.1583  1.2979  0.0046
 9487SOL    HW240095   2.080   0.715   4.131  2.8213  0.2379  0.6958
 9488SOL     OW40096   2.740   4.199  12.136 -0.8045  0.6463  0.2776
 9488SOL    HW140097   2.723   4.198  12.230  0.2472  1.2039  0.4729
 9488SOL    HW240098   2.655   4.235  12.108  0.3284  2.9019 -0.2094
 9489SOL     OW40099   2.513   1.423   8.865 -0.3005  0.2280 -0.2693
 9489SOL    HW140100   2.482   1.395   8.778 -0.6533  0.3619 -0.1872
 9489SOL    HW240101   2.473   1.360   8.925  2.0268 -0.3404  0.6953
 9490SOL     OW40102   2.106   0.536  14.234 -0.5652  1.3221  0.3200
 9490SOL    HW140103   2.136   0.463  14.181  0.0283  1.0351  1.0648
 9490SOL    HW240104   2.189   0.580  14.250 -0.2095  0.8670 -0.2984
 9491SOL     OW40105   3.181   0.535   2.815  0.2135 -0.0199  0.3453
 9491SOL    HW140106   3.124   0.465   2.847 -0.6069 -0.2954 -1.7663
 9491SOL    HW240107   3.207   0.498   2.731 -0.9541 -0.7963  0.3217
 9492SOL     OW40108   3.011   2.779  16.738 -0.7741  0.2359 -0.2793
 9492SOL    HW140109   2.962   2.732  16.672  2.2311 -2.6577 -0.4357
 9492SOL    HW240110   3.025   2.862  16.691 -1.5119  1.0581  0.9342
 9493SOL     OW40111   3.451   4.242   1.399  0.1691  0.5921  0.2885
 9493SOL    HW140112   3.506   4.203   1.331  1.8978  2.1624  0.7985
 9493SOL    HW240113   3.406   4.162   1.426  2.0510 -0.5521  0.0212
 9494SOL     OW40114   0.686   0.561  16.209  0.4077 -0.3350 -0.1528
 9494SOL    HW140115   0.638   0.623  16.155  0.2718 -0.9518 -0.7452
 9494SOL    HW240116   0.707   0.622  16.280 -0.1397  0.3478 -0.5789
 9495SOL     OW40117   1.010   3.969   3.030  0.1573 -0.3069 -0.4581
 9495SOL    HW140118   1.062   3.999   3.104  0.7039 -0.3289 -0.8324
 9495SOL    HW240119   0.928   4.015   3.052  0.9587  0.0895  1.6962
 9496SOL     OW40120   1.221   1.003   4.094 -0.5161 -0.0186  0.1382
 9496SOL    HW140121   1.247   0.911   4.093  0.4500  0.2131  4.3377
 9496SOL    HW240122   1.212   1.017   4.188 -0.6507  1.3288 -0.0736
 9497SOL     OW40123   0.672   1.507   8.631 -0.8082  0.0361 -0.0970
 9497SOL    HW140124   0.619   1.436   8.594  0.2648 -0.7168 -0.1620
 9497SOL    HW240125   0.641   1.501   8.721 -0.5093  4.7137  0.2993
 9498SOL     OW40126   1.541   1.355   6.863 -0.0658 -0.0173 -0.3154
 9498SOL    HW140127   1.611   1.407   6.901 -1.8913  0.0172  3.0265
 9498SOL    HW240128   1.472   1.381   6.925  0.1564  1.6208 -0.7584
 9499SOL     OW40129   1.884   4.482   4.512 -0.3278  0.5865 -0.0135
 9499SOL    HW140130   1.871   4.573   4.485  0.3855  0.4301 -0.9119
 9499SOL    HW240131   1.889   4.430   4.432 -1.3697  0.2179  0.1691
 9500SOL     OW40132   0.681   4.463  17.387 -0.0621 -0.7898 -0.4794
 9500SOL    HW140133   0.757   4.520  17.372  1.0015 -2.1559 -0.2918
 9500SOL    HW240134   0.612   4.507  17.336 -0.3758  0.2289  0.8369
 9501SOL     OW40135   1.665   4.070   6.270 -0.4347  0.0074 -0.5961
 9501SOL    HW140136   1.749   4.048   6.229 -1.0551 -2.8480 -0.3074
 9501SOL    HW240137   1.642   4.152   6.226  0.2169 -0.2089 -1.3592
 9502SOL     OW40138   1.619   3.527   9.957  0.2573 -0.4083 -0.3397
 9502SOL    HW140139   1.617   3.454   9.896  0.9635  0.8355 -1.8709
 9502SOL    HW240140   1.628   3.597   9.892  0.5032  0.3762  0.5400
 9503SOL     OW40141   0.074   2.015   5.934  0.4563 -0.3272  0.2578
 9503SOL    HW140142   0.118   1.959   5.870  0.4180  2.1013 -1.9182
 9503SOL    HW240143   0.031   2.078   5.876 -1.3605 -1.9055 -0.1041
 9504SOL     OW40144   2.541   2.999   3.085  0.0028 -0.0621  0.4386
 9504SOL    HW140145   2.478   2.935   3.052 -0.6228  0.0558  1.4102
 9504SOL    HW240146   2.582   2.943   3.151  1.3235  1.1158  0.6295
 9505SOL     OW40147   3.734   4.593   7.299  0.2891 -0.5068  0.0905
 9505SOL    HW140148   3.716   4.578   7.392 -1.0354  2.9478  0.3885
 9505SOL    HW240149   3.650   4.581   7.254  0.8061 -1.5755 -0.5841
 9506SOL     OW40150   1.079   1.557   7.419  0.5312 -0.0529 -0.4609
 9506SOL    HW140151   1.122   1.494   7.361  0.4924 -3.2443  2.9965
 9506SOL    HW240152   0.984   1.545   7.411  0.4067 -0.1083  1.2069
 9507SOL     OW40153   3.297   1.647   9.435  0.4259 -0.6034  0.1875
 9507SOL    HW140154   3.384   1.683   9.450  0.1389 -1.1410  3.1447
 9507SOL    HW240155   3.238   1.721   9.453  3.3637  1.8815 -0.4414
 9508SOL     OW40156   3.994   2.086   3.891 -0.0264 -0.5166  0.2178
 9508SOL    HW140157   4.028   2.029   3.960 -0.9583  1.9482  2.7327
 9508SOL    HW240158   4.064   2.152   3.893  0.4939 -1.1019  1.3937
 9509SOL     OW40159   0.828   3.904   7.121  0.3586  0.3773  0.5135
 9509SOL    HW140160   0.809   3.988   7.079  0.6518 -0.5334 -1.4159
 9509SOL    HW240161   0.856   3.853   7.046  1.3350  0.8158  0.5841
 9510SOL     OW40162   4.650   4.400   7.815  0.1734 -0.5350  0.3018
 9510SOL    HW140163   4.646   4.315   7.858 -0.7044  0.1344  1.5201
 9510SOL    HW240164   4.668   4.459   7.888 -1.8092 -2.1580  2.0902
 9511SOL     OW40165   4.477   1.312   9.026 -0.0666 -0.0925 -0.0240
 9511SOL    HW140166   4.406   1.342   8.969 -0.6047 -0.4627  0.4476
 9511SOL    HW240167   4.435   1.318   9.113  0.2373 -0.1113  0.1223
 9512SOL     OW40168   1.444   1.079  10.650  0.7821 -0.0654  0.5537
 9512SOL    HW140169   1.392   1.000  10.664  1.8220 -0.6904  0.8750
 9512SOL    HW240170   1.396   1.122  10.579  0.1133 -0.2363  0.9017
 9513SOL     OW40171   4.516   1.283   9.858  0.2981  0.0292 -0.1100
 9513SOL    HW140172   4.570   1.344   9.807  0.8563  0.7508  1.3366
 9513SOL    HW240173   4.516   1.203   9.805  1.7497  1.2840 -2.0240
 9514SOL     OW40174   2.750   1.018   9.641  0.7766  0.3182 -0.1173
 9514SOL    HW140175   2.746   1.051   9.551  1.3374 -0.4461 -0.4269
 9514SOL    HW240176   2.720   0.928   9.627  2.1427  0.2543 -2.6962
 9515SOL     OW40177   0.909   4.332  16.749  0.3769 -0.0495  0.1139
 9515SOL    HW140178   0.838   4.366  16.804  1.6771  1.3543  0.9575
 9515SOL    HW240179   0.977   4.398  16.766 -0.3515 -0.2947  3.9855
 9516SOL     OW40180   0.457   2.930   4.151 -0.0068  0.0720  0.1127
 9516SOL    HW140181   0.421   3.015   4.177 -0.7647 -0.1208 -0.3383
 9516SOL    HW240182   0.445   2.950   4.059 -0.6710  0.8582  0.3692
 9517SOL     OW40183   1.175   4.332   2.288 -0.0485  0.0597  0.2303
 9517SOL    HW140184   1.162   4.252   2.338 -0.7211  0.1770  0.2384
 9517SOL    HW240185   1.169   4.304   2.197 -0.2960 -1.8493  0.8437
 9518SOL     OW40186   3.342   3.501   5.002 -0.8359  0.0210  0.3050
 9518SOL    HW140187   3.261   3.545   5.024 -0.8476 -0.4849  1.2455
 9518SOL    HW240188   3.367   3.530   4.913  1.6661  0.4045  1.1137
 9519SOL     OW40189   3.236   3.296  12.609 -0.7676 -0.0443 -0.5708
 9519SOL    HW140190   3.202   3.216  12.650 -2.1735  1.4066  1.0915
 9519SOL    HW240191   3.244   3.261  12.520  2.5113  0.0789 -0.3358
 9520SOL     OW40192   0.239   4.310   9.373 -0.4535  0.3455  0.3514
 9520SOL    HW140193   0.220   4.321   9.466 -0.2308 -0.0011  0.4384
 9520SOL    HW240194   0.246   4.215   9.370 -0.0873  0.3975 -0.4011
 9521SOL     OW40195   1.175   1.099   4.726 -1.1163  0.2304 -0.2253
 9521SOL    HW140196   1.241   1.091   4.795  0.0204 -0.1382 -1.3456
 9521SOL    HW240197   1.166   1.192   4.709 -0.4333  0.0485 -1.6424
 9522SOL     OW40198   1.567   1.477   4.380 -0.2744  0.1450  0.2618
 9522SOL    HW140199   1.586   1.400   4.327  1.3378  1.6754 -1.4086
 9522SOL    HW240200   1.524   1.440   4.457  0.6877 -2.2666 -0.3700
 9523SOL     OW40201   3.159   0.443   9.001 -0.2196  0.2313  0.4043
 9523SOL    HW140202   3.177   0.486   8.918 -1.5472 -0.2595 -0.1286
 9523SOL    HW240203   3.147   0.514   9.064  1.6157  0.0375  0.9826
 9524SOL     OW40204   0.953   3.173   2.240  0.3313  0.1102 -0.1102
 9524SOL    HW140205   0.960   3.113   2.314  0.0677 -0.4303 -0.5198
 9524SOL    HW240206   0.858   3.183   2.228  0.4879 -0.6025 -2.0474
 9525SOL     OW40207   0.755   0.820   3.092 -0.3032 -0.6119 -0.4111
 9525SOL    HW140208   0.754   0.872   3.012  0.6606 -0.8814 -0.5898
 9525SOL    HW240209   0.847   0.826   3.116 -0.5185 -0.0637  0.2857
 9526SOL     OW40210   4.050   1.018  11.580 -0.7616  0.7459  0.0143
 9526SOL    HW140211   3.988   1.069  11.528 -1.4908 -1.6935 -1.5381
 9526SOL    HW240212   4.024   1.045  11.668  0.0172  0.0215  0.4751
 9527SOL     OW40213   3.688   2.761   3.907 -0.1643 -0.1222 -0.7557
 9527SOL    HW140214   3.675   2.831   3.843  1.2515  1.4902  0.7080
 9527SOL    HW240215   3.621   2.696   3.887 -0.0938 -1.1920  2.5395
 9528SOL     OW40216   3.831   0.204   8.064  0.6007 -0.1801  0.1378
 9528SOL    HW140217   3.775   0.127   8.070 -0.3307  0.4122 -0.7282
 9528SOL    HW240218   3.872   0.189   7.979 -0.3610  2.3729 -0.7760
 9529SOL     OW40219   1.745   3.812   7.526 -0.2322 -0.4510 -0.2719
 9529SOL    HW140220   1.779   3.868   7.456  1.7540 -0.1785  0.9176
 9529SOL    HW240221   1.668   3.866   7.548  0.7172 -0.2387  2.6282
 9530SOL     OW40222   0.943   3.398   2.557 -0.1439  0.5445  0.5650
 9530SOL    HW140223   0.913   3.442   2.477  2.0868  1.9893  0.5390
 9530SOL    HW240224   0.939   3.477   2.610  0.8219  0.1738  1.1767
 9531SOL     OW40225   4.444   1.887   3.305  0.4876  0.0049  0.3151
 9531SOL    HW140226   4.516   1.950   3.301  0.9021 -0.6693 -2.7131
 9531SOL    HW240227   4.385   1.913   3.235  0.3499 -3.4290 -0.8229
 9532SOL     OW40228   4.155   2.510  12.066  0.4419  0.0982  0.0240
 9532SOL    HW140229   4.177   2.546  12.152 -1.3516  1.3570 -0.0443
 9532SOL    HW240230   4.097   2.579  12.034  0.8496  0.2688 -0.3332
 9533SOL     OW40231   0.109   4.304   4.381  0.2716  0.0325  0.1940
 9533SOL    HW140232   0.139   4.395   4.384  0.3959  0.0210 -0.5505
 9533SOL    HW240233   0.118   4.290   4.286 -0.5832  1.2123 -0.0568
 9534SOL     OW40234   0.812   3.607   4.621  0.0929  0.5850 -0.5825
 9534SOL    HW140235   0.760   3.663   4.680  0.2187 -0.6398  0.6770
 9534SOL    HW240236   0.897   3.649   4.634 -0.1444  1.3604 -1.5489
 9535SOL     OW40237   3.684   2.718   6.262 -0.6362  0.0621 -0.3018
 9535SOL    HW140238   3.611   2.677   6.217 -1.1998  0.1654  0.5185
 9535SOL    HW240239   3.727   2.640   6.295 -0.4530  0.5309  0.5699
 9536SOL     OW40240   4.311   1.772   1.594  0.2127  0.4390  0.0444
 9536SOL    HW140241   4.385   1.729   1.551 -0.0398 -1.9060  1.9354
 9536SOL    HW240242   4.273   1.696   1.638  0.4332  2.4544  3.7898
 9537SOL     OW40243   4.273   0.588  13.804  0.7751 -0.1056  0.1863
 9537SOL    HW140244   4.191   0.637  13.811  0.6480  0.0820 -2.5339
 9537SOL    HW240245   4.295   0.619  13.717  1.4282 -0.7212  0.1322
 9538SOL     OW40246   3.426   0.810   9.271 -0.7773 -0.3949 -0.2293
 9538SOL    HW140247   3.364   0.760   9.325 -2.9644 -0.3227 -2.6713
 9538SOL    HW240248   3.380   0.808   9.188 -1.4950  2.0512  0.1226
 9539SOL     OW40249   1.248   1.883  15.529 -0.0794  0.6358  0.2475
 9539SOL    HW140250   1.244   1.978  15.535 -0.7879  0.7184 -1.6482
 9539SOL    HW240251   1.176   1.868  15.468 -0.3025 -1.8565  1.0993
 9540SOL     OW40252   2.288   2.542   7.899 -0.1042  0.6862 -0.3447
 9540SOL    HW140253   2.342   2.525   7.977 -2.3411 -0.9612  0.8423
 9540SOL    HW240254   2.295   2.637   7.892 -2.7432  0.8222 -0.7803
 9541SOL     OW40255   2.452   1.833   7.747  0.1950  0.5682  0.3285
 9541SOL    HW140256   2.457   1.902   7.681  0.0498  0.6294  0.3818
 9541SOL    HW240257   2.536   1.789   7.736 -0.7223 -0.7280 -1.4673
 9542SOL     OW40258   2.473   1.186   4.002 -0.3273 -0.0063  0.3148
 9542SOL    HW140259   2.521   1.172   3.921 -2.2004 -1.0084 -0.6136
 9542SOL    HW240260   2.408   1.252   3.980 -2.5030 -0.8743  4.1552
 9543SOL     OW40261   2.145   2.686   0.466 -0.0669 -0.0411 -0.5439
 9543SOL    HW140262   2.066   2.736   0.486  0.6838 -0.1155  2.6069
 9543SOL    HW240263   2.113   2.611   0.416 -1.3063  0.1690 -0.0606
 9544SOL     OW40264   4.686   0.419  12.131  0.6458  0.2726 -0.3170
 9544SOL    HW140265   4.598   0.405  12.167  0.2548 -0.0781 -1.4216
 9544SOL    HW240266   4.684   0.355  12.061 -0.8622  1.1205 -1.0404
 9545SOL     OW40267   0.669   2.115   7.078 -0.1214  0.1478 -0.1508
 9545SOL    HW140268   0.745   2.118   7.136  0.3602  1.2430 -0.8452
 9545SOL    HW240269   0.603   2.148   7.139 -1.1581 -0.1632 -1.1115
 9546SOL     OW40270   3.345   1.612  10.901 -0.1275 -0.0436 -0.6140
 9546SOL    HW140271   3.271   1.570  10.946  1.7863 -2.0687  0.6566
 9546SOL    HW240272   3.321   1.601  10.809 -0.4945 -2.3061 -0.2658
 9547SOL     OW40273   2.643   1.575  14.578 -0.2687 -0.4622  0.3466
 9547SOL    HW140274   2.593   1.494  14.574  0.1332 -0.6368 -0.9956
 9547SOL    HW240275   2.694   1.565  14.498 -0.6361 -0.3214  0.0978
 9548SOL     OW40276   0.530   0.689   6.351  0.6550 -0.3595  0.2031
 9548SOL    HW140277   0.438   0.714   6.366  1.0165  0.9426  0.2863
 9548SOL    HW240278   0.580   0.757   6.396  2.4226 -0.1734 -2.0601
 9549SOL     OW40279   3.745   2.420   0.296 -0.3307 -0.6029  0.6496
 9549SOL    HW140280   3.649   2.426   0.302 -0.3011  0.5676 -0.0807
 9549SOL    HW240281   3.774   2.468   0.372 -0.4796  0.0654  0.2820
 9550SOL     OW40282   4.325   2.480  14.217 -0.1851 -0.4195  0.0359
 9550SOL    HW140283   4.254   2.543  14.205  0.0150 -0.2202 -0.1164
 9550SOL    HW240284   4.295   2.426  14.290 -0.7515  1.0737  0.9132
 9551SOL     OW40285   3.830   1.069   8.979  0.0283 -0.3883  0.0288
 9551SOL    HW140286   3.759   1.007   8.992 -1.4515  0.9689 -1.5091
 9551SOL    HW240287   3.787   1.154   8.976 -1.4687 -1.1820 -0.6789
 9552SOL     OW40288   0.372   4.455  13.377 -0.2422 -0.4268  0.5869
 9552SOL    HW140289   0.363   4.430  13.285  2.3068 -0.9818  0.4998
 9552SOL    HW240290   0.366   4.550  13.373 -0.2766 -0.4789 -0.4476
 9553SOL     OW40291   3.045   2.250  16.371 -0.0314 -0.0145  0.2850
 9553SOL    HW140292   2.989   2.175  16.392 -1.7059  1.2950  0.4490
 9553SOL    HW240293   3.105   2.251  16.446  0.8511  2.4996 -0.4589
 9554SOL     OW40294   0.209   1.348  13.095  0.2246 -0.1378 -0.8734
 9554SOL    HW140295   0.128   1.399  13.094  0.7298  0.6965  1.2722
 9554SOL    HW240296   0.241   1.343  13.185 -1.1367  3.8873 -0.1505
 9555SOL     OW40297   0.383   4.428  13.094  0.3883 -0.0652  0.3449
 9555SOL    HW140298   0.378   4.332  13.094 -0.7084 -0.0151 -3.3593
 9555SOL    HW240299   0.313   4.455  13.035  2.5274  2.1039 -1.1631
 9556SOL     OW40300   3.107   2.576   4.305  0.0074  0.0750 -0.1199
 9556SOL    HW140301   3.201   2.569   4.322  0.0944  0.5779 -0.3962
 9556SOL    HW240302   3.107   2.671   4.320 -1.5171 -0.0097  0.4067
 9557SOL     OW40303   2.535   0.704   5.428  0.1407 -0.1738 -0.4821
 9557SOL    HW140304   2.453   0.754   5.423 -0.1427 -0.6387 -0.5263
 9557SOL    HW240305   2.568   0.693   5.339 -1.0608 -3.0550 -0.5588
 9558SOL     OW40306   3.956   2.777   3.384 -0.5310 -0.0388 -0.1099
 9558SOL    HW140307   4.033   2.802   3.334 -1.0658  1.7982 -0.0096
 9558SOL    HW240308   3.892   2.846   3.366  2.0911  2.0770 -1.2723
 9559SOL     OW40309   2.776   2.142   9.802  0.9381  0.1141 -0.2330
 9559SOL    HW140310   2.711   2.134   9.872  1.0180  0.4791 -0.1134
 9559SOL    HW240311   2.851   2.142   9.861  0.4232  1.3146  0.4253
 9560SOL     OW40312   3.428   1.821   6.184 -0.4500 -0.5558  0.1746
 9560SOL    HW140313   3.513   1.778   6.193  0.1759  1.0322  1.8888
 9560SOL    HW240314   3.372   1.755   6.143  0.1297 -0.2708 -1.0752
 9561SOL     OW40315   3.835   3.989   3.518 -0.0614  0.8858 -0.8690
 9561SOL    HW140316   3.842   3.982   3.423 -1.4800  3.4616 -1.1543
 9561SOL    HW240317   3.864   4.076   3.544  0.0629  0.8836 -0.9966
 9562SOL     OW40318   1.649   2.640   7.915 -0.1912 -0.3582  0.3335
 9562SOL    HW140319   1.559   2.649   7.947 -0.6912 -2.8912 -0.3821
 9562SOL    HW240320   1.641   2.547   7.895 -2.7252  0.3432 -1.8851
 9563SOL     OW40321   0.533   1.308   8.234 -0.0938 -0.2154  0.7218
 9563SOL    HW140322   0.457   1.295   8.290 -0.7317 -0.2652 -0.1560
 9563SOL    HW240323   0.584   1.229   8.248  0.8932  0.6795  2.0804
 9564SOL     OW40324   3.501   3.094   7.523  0.3414  0.4828  0.2398
 9564SOL    HW140325   3.433   3.140   7.474 -0.8250 -1.3630  0.1075
 9564SOL    HW240326   3.444   3.074   7.597 -1.7915 -0.3668 -1.6019
 9565SOL     OW40327   3.912   1.788  13.059 -0.3007 -0.2165  0.1647
 9565SOL    HW140328   3.994   1.838  13.055 -0.2364 -0.2905  0.5689
 9565SOL    HW240329   3.919   1.741  12.976 -0.2568  0.4409 -0.2053
 9566SOL     OW40330   1.545   1.453   9.178 -0.3768 -0.4127 -0.5069
 9566SOL    HW140331   1.567   1.438   9.086  0.0315  3.2800 -1.0014
 9566SOL    HW240332   1.626   1.486   9.217  0.0213  0.4182 -2.0477
 9567SOL     OW40333   3.596   0.207   0.529  0.3330  0.9598  0.5382
 9567SOL    HW140334   3.631   0.273   0.589 -0.1252  1.5309  0.1693
 9567SOL    HW240335   3.581   0.262   0.452 -0.3425 -2.3399 -1.6686
 9568SOL     OW40336   0.395   1.838   8.544 -0.2331  0.2642  0.2399
 9568SOL    HW140337   0.430   1.749   8.530  0.9826  0.3826  2.5889
 9568SOL    HW240338   0.302   1.820   8.555  0.0816  0.0653  2.4284
 9569SOL     OW40339   4.543   4.455   9.636  0.4997  0.3845 -0.0292
 9569SOL    HW140340   4.469   4.475   9.579  1.4018  0.6241 -1.1151
 9569SOL    HW240341   4.612   4.459   9.570 -0.6597  0.8112 -1.2268
 9570SOL     OW40342   4.387   2.848   8.538 -0.5732  0.1996 -0.8920
 9570SOL    HW140343   4.326   2.791   8.587  0.0099  0.2862 -0.0707
 9570SOL    HW240344   4.468   2.844   8.588  1.5874 -1.9633 -4.5653
 9571SOL     OW40345   0.748   4.197   8.850  0.5878 -0.8833  0.5544
 9571SOL    HW140346   0.691   4.221   8.777  0.4462 -2.8342  0.0257
 9571SOL    HW240347   0.776   4.110   8.822 -1.9242 -1.3683 -0.3751
   4.73575   4.73575  17.74170
