Membrane in water
40347
    1TMC1    C1    1   4.224   3.957  11.719  0.0246  0.0812 -0.3774
    1TMC1    C2    2   4.105   3.984  11.652 -0.2612  0.9573  0.2613
    1TMC1    C3    3   4.129   4.041  11.527  0.5024  0.0469 -0.4578
    1TMC1    C4    4   4.349   3.994  11.673 -0.5130 -0.4751  0.0791
    1TMC1    C5    5   4.359   4.055  11.553  0.5837  0.6649 -0.0759
    1TMC1    C6    6   4.248   4.091  11.483  0.0744  0.4074 -0.5145
    1TMC1     C    7   4.218   3.877  11.840 -0.0981  0.3749  0.3563
    1TMC1     O    8   4.102   3.841  11.864 -0.6029 -0.3275 -0.1149
    1TMC1     H    9   4.006   3.948  11.676  1.1347 -3.4373 -0.5939
    1TMC1    H1   10   4.432   3.946  11.722 -0.4004  0.3190  0.6748
    1TMC1    H2   11   4.244   4.143  11.388 -2.5536  0.4799 -0.3649
    1TMC1    C7   12   4.490   4.116  11.523 -0.2032  1.1273 -0.1319
    1TMC1    C8   13   4.032   4.028  11.421 -0.4096  0.7563 -0.4476
    1TMC1    O1   14   4.585   4.043  11.501 -0.1837  0.1217 -0.7533
    1TMC1    O2   15   4.060   4.037  11.303 -0.3628  0.0672 -0.2236
    1TMC1    O3   16   4.461   4.218  11.450 -0.7465 -0.3169 -0.2150
    1TMC1    H3   17   4.377   4.259  11.479 -0.4894  0.3518 -0.4142
    1TMC1    O5   18   3.903   4.020  11.458 -0.0520 -0.4702 -0.4013
    1TMC1    H5   19   3.897   4.051  11.551  1.9176  1.3144 -0.8535
    2MPD2     C   20   4.418   3.545  12.161 -0.0827 -0.5634 -0.0624
    2MPD2    C1   21   4.288   3.582  12.147  0.4255  0.3292 -0.4398
    2MPD2    C2   22   4.257   3.687  12.061 -0.2384 -0.5631 -0.1765
    2MPD2    C3   23   4.357   3.762  12.006 -0.8103  0.8151  0.1781
    2MPD2    C4   24   4.486   3.741  12.044 -0.2248  0.3233 -0.0714
    2MPD2    C5   25   4.517   3.633  12.127  0.5857 -0.3627  0.5039
    2MPD2     H   26   4.156   3.674  12.022 -0.2185 -0.4461 -0.2654
    2MPD2    H1   27   4.567   3.802  12.006 -0.9386  1.3796  0.1084
    2MPD2    H2   28   4.456   3.460  12.216  1.3130 -0.5112 -0.9430
    2MPD2    H3   29   4.616   3.612  12.167  0.8668  0.5583  0.2811
    2MPD2     N   30   4.332   3.864  11.912  0.2829  0.3935  0.0923
    2MPD2    H5   31   4.415   3.918  11.890  0.3795  1.1917  2.3315
    2MPD2    N1   32   4.186   3.505  12.208  0.9049  0.0138  0.4496
    2MPD2    H7   33   4.094   3.543  12.187  2.1277  2.6930 -0.0180
    3TMC1    C1   34   3.406   1.176  10.706 -0.1417  0.7559  0.0014
    3TMC1    C2   35   3.457   1.258  10.805 -0.2535  0.0728 -0.1360
    3TMC1    C3   36   3.577   1.327  10.778 -0.5886  0.3992  1.0379
    3TMC1    C4   37   3.469   1.157  10.592 -0.3129 -0.5559 -0.4688
    3TMC1    C5   38   3.583   1.230  10.572  0.5956  0.5967  0.2624
    3TMC1    C6   39   3.644   1.320  10.657 -0.5788  0.2689 -0.9114
    3TMC1     C   40   3.300   1.083  10.738  0.1807  0.2668  0.9817
    3TMC1     O   41   3.282   0.981  10.670 -0.0706 -0.1206  0.5189
    3TMC1     H   42   3.405   1.283  10.897  0.0993  2.3332 -0.5685
    3TMC1    H1   43   3.438   1.078  10.525 -1.9230  1.7887 -2.4975
    3TMC1    H2   44   3.724   1.389  10.630 -0.8064  0.4659 -1.0959
    3TMC1    C7   45   3.632   1.240  10.444  0.3988 -0.9975  0.3393
    3TMC1    C8   46   3.612   1.434  10.873  0.5050 -0.3548 -0.9183
    3TMC1    O1   47   3.626   1.154  10.355  0.1007  0.1718  0.6761
    3TMC1    O2   48   3.524   1.489  10.942  0.1724  0.9403  0.4521
    3TMC1    O3   49   3.640   1.371  10.417  0.1503  0.1512 -0.5612
    3TMC1    H3   50   3.618   1.428  10.494 -0.7765 -1.7868  0.6033
    3TMC1    O5   51   3.741   1.470  10.868  0.0088 -0.4650  0.4291
    3TMC1    H5   52   3.800   1.401  10.830 -0.0194 -0.1561 -0.1746
    4MPD2     C   53   2.852   0.965  10.974 -0.2512 -0.1636 -0.4067
    4MPD2    C1   54   2.890   1.096  11.008  0.0923  0.2936 -0.6282
    4MPD2    C2   55   3.010   1.146  10.962  0.1303  0.6705  0.0504
    4MPD2    C3   56   3.092   1.067  10.879  0.5330 -0.0445  0.9286
    4MPD2    C4   57   3.058   0.942  10.841  0.3458  0.0458 -0.1790
    4MPD2    C5   58   2.937   0.891  10.895 -0.2781  0.0490 -0.5411
    4MPD2     H   59   3.046   1.247  10.975 -4.5487  2.2683  0.6019
    4MPD2    H1   60   3.115   0.875  10.777 -1.3708 -0.5568 -1.0728
    4MPD2    H2   61   2.762   0.912  11.002 -0.7217  2.5579  3.2805
    4MPD2    H3   62   2.907   0.789  10.873 -0.1981 -0.5730  2.2859
    4MPD2     N   63   3.212   1.129  10.834  0.0440 -0.4768  0.0506
    4MPD2    H5   64   3.214   1.227  10.863 -0.2554 -0.6534  0.6706
    4MPD2    N1   65   2.806   1.184  11.099 -0.0717  0.4094  0.1410
    4MPD2    H7   66   2.718   1.144  11.129  1.2735 -1.0484  2.1736
    5TCq1    O1   67   2.984   1.897  12.279 -0.1477 -0.4120  0.2650
    5TCq1    C1   68   2.869   1.835  12.284 -0.2664 -1.0669  0.2232
    5TCq1    O2   69   2.777   1.866  12.364  0.0444  0.4332 -0.2127
    5TCq1    C2   70   2.873   1.711  12.215  0.8010 -0.2381 -0.1166
    5TCq1    C3   71   2.808   1.611  12.274 -0.5584  0.2721  0.3318
    5TCq1    C4   72   2.801   1.491  12.204  0.6893  0.6640  0.3169
    5TCq1    C5   73   2.868   1.484  12.087 -0.9357 -0.3500 -0.2760
    5TCq1    C6   74   2.926   1.596  12.034 -0.4427  0.0395  0.1299
    5TCq1    C7   75   2.932   1.713  12.092 -0.0433  0.2679  0.0379
    5TCq1    C8   76   2.968   1.592  11.893  0.0843  0.0103  0.9095
    5TCq1    O4   77   3.039   1.498  11.852 -0.0536  0.0122  0.1688
    5TCq1    C9   78   2.753   1.380  12.271 -0.3959 -0.7748 -0.4667
    5TCq1    O5   79   2.748   1.269  12.208  0.2585  0.2680 -0.8371
    5TCq1    O6   80   2.750   1.390  12.395 -1.1871 -0.4526 -0.1625
    5TCq1    H1   81   3.044   1.843  12.223 -1.4186 -0.9806 -0.5606
    5TCq1    H2   82   2.770   1.614  12.375 -1.4990 -2.1032  0.0512
    5TCq1    H3   83   2.852   1.392  12.032  0.1795 -0.6234 -0.1431
    5TCq1    H4   84   2.974   1.803  12.047  1.0296 -0.2064  0.1142
    6MPD2     C   85   2.885   1.824  11.626 -0.7972 -1.5320  0.2307
    6MPD2    C1   86   2.950   1.715  11.685  0.6414  0.3779  0.4191
    6MPD2    C2   87   3.044   1.644  11.610  0.5149 -0.4919 -0.5445
    6MPD2    C3   88   3.063   1.673  11.470 -0.4089 -0.2672  1.5822
    6MPD2    C4   89   2.995   1.775  11.412  0.3035  0.8632 -0.1801
    6MPD2    C5   90   2.904   1.846  11.491 -0.4666 -0.0164  0.1125
    6MPD2     H   91   3.101   1.563  11.653 -0.1594 -0.2774  0.7533
    6MPD2    H1   92   2.996   1.801  11.307 -2.5753  1.0642 -0.1617
    6MPD2    H2   93   2.793   1.863  11.669 -0.1666  2.1213 -1.6796
    6MPD2    H3   94   2.838   1.911  11.435 -0.0015  0.7729  0.4739
    6MPD2     N   95   3.148   1.595  11.396 -0.5102 -0.3889 -0.1967
    6MPD2    H5   96   3.168   1.504  11.435  2.1085 -0.0041 -0.6431
    6MPD2    N1   97   2.917   1.697  11.822  0.2694 -0.8052 -0.0431
    6MPD2    H7   98   2.852   1.764  11.861  0.6333 -2.1466  2.8385
    7TCq1    O1   99   4.527   4.706  12.810  0.6296  0.3694  0.0005
    7TCq1    C1  100   4.556   0.010  12.933  0.5147 -0.0936  0.3994
    7TCq1    O2  101   4.561   4.672  13.027  0.5004  0.4547 -0.5858
    7TCq1    C2  102   4.633   0.135  12.922  0.5959  0.1252  0.9848
    7TCq1    C3  103   4.636   0.206  12.801 -0.4194  0.3524  0.4106
    7TCq1    C4  104   4.727   0.312  12.790 -0.2583  0.6993 -0.3794
    7TCq1    C5  105   0.096   0.323  12.883  0.5163  0.1552 -0.2060
    7TCq1    C6  106   0.089   0.242  12.994 -1.1309  0.5184 -0.7761
    7TCq1    C7  107   4.732   0.147  13.012  0.4294  0.0805 -0.5550
    7TCq1    C8  108   0.203   0.226  13.082  0.1364 -0.6468  0.2094
    7TCq1    O4  109   0.211   0.123  13.149 -1.0271  0.2055 -0.5353
    7TCq1    C9  110   4.723   0.397  12.674 -0.0892  0.0329 -0.1664
    7TCq1    O5  111   0.067   0.492  12.683 -0.4307 -0.4072 -0.0605
    7TCq1    O6  112   4.681   0.349  12.564  0.1273  0.9181  0.5188
    7TCq1    H1  113   4.552   0.036  12.743  0.2633  0.3726 -0.1342
    7TCq1    H2  114   4.572   0.187  12.715  2.7289 -1.8385 -1.4513
    7TCq1    H3  115   0.175   0.398  12.875 -0.1310  0.8006 -0.5457
    7TCq1    H4  116   4.736   0.100  13.110 -0.0543 -0.3382 -0.7372
    8MPD2     C  117   0.660   0.335  13.255  0.2201  0.5098 -0.3757
    8MPD2    C1  118   0.610   0.210  13.230 -0.2291  0.2866 -0.5879
    8MPD2    C2  119   0.488   0.197  13.160 -0.1108 -0.4629 -0.2632
    8MPD2    C3  120   0.426   0.314  13.121 -0.0571  0.0014  0.3785
    8MPD2    C4  121   0.494   0.435  13.130 -0.4320  0.1716 -0.2329
    8MPD2    C5  122   0.605   0.449  13.200 -0.2737 -0.5009 -0.2336
    8MPD2     H  123   0.444   0.102  13.131  0.3326 -0.0605 -2.2641
    8MPD2    H1  124   0.444   0.525  13.095 -1.5515 -1.5700 -3.1379
    8MPD2    H2  125   0.755   0.350  13.305  0.6107 -0.8350 -0.7091
    8MPD2    H3  126   0.651   0.544  13.224  2.5224 -1.7498 -0.5939
    8MPD2     N  127   0.295   0.325  13.069  1.1353  0.6754 -0.1941
    8MPD2    H5  128   0.258   0.407  13.023  1.5036 -0.5976 -2.7776
    8MPD2    N1  129   0.671   0.099  13.284 -0.1186 -0.4509 -0.0596
    8MPD2    H7  130   0.747   0.126  13.345  0.1820 -0.4374 -0.4423
    9TMC1    C1  131   2.871   4.629  11.561  0.2344  0.2018  0.1019
    9TMC1    C2  132   2.885   0.027  11.539  0.2575 -0.2862 -0.1307
    9TMC1    C3  133   2.966   0.064  11.439 -0.0323  0.2028  0.1588
    9TMC1    C4  134   2.920   4.532  11.478  0.3840  0.1222 -0.0209
    9TMC1    C5  135   3.002   4.575  11.373 -0.0751 -0.3443 -0.5232
    9TMC1    C6  136   3.031   4.708  11.363  0.6030  0.1283 -0.0406
    9TMC1     C  137   2.807   4.589  11.683  0.4141 -0.6478  0.5903
    9TMC1     O  138   2.731   4.662  11.739 -0.3752 -0.7240  0.0233
    9TMC1     H  139   2.848   0.093  11.616  0.3668 -0.9740  0.5114
    9TMC1    H1  140   2.906   4.428  11.508 -0.6906  0.0403 -0.7778
    9TMC1    H2  141   3.100   4.735  11.283 -1.2742 -2.5382 -2.5387
    9TMC1    C7  142   3.088   4.479  11.306  0.2952  0.0259  0.0301
    9TMC1    C8  143   3.016   0.199  11.446  0.4139  0.9691 -0.3067
    9TMC1    O1  144   3.201   4.515  11.274  0.4724  0.6385 -0.2140
    9TMC1    O2  145   2.980   0.275  11.538  0.0333 -0.3408  0.2400
    9TMC1    O3  146   3.049   4.353  11.322  0.0203  0.0816  0.0029
    9TMC1    H3  147   2.952   4.343  11.334  0.0981 -0.7976 -0.0983
    9TMC1    O5  148   3.123   0.231  11.361 -0.4390 -0.0031 -0.2366
    9TMC1    H5  149   3.132   0.169  11.285  1.7977  0.0228  0.0319
   10MPD2     C  150   2.711   4.420  11.904 -0.0779 -0.0042 -0.0303
   10MPD2    C1  151   2.833   4.407  11.846 -0.1469 -0.1695 -0.1295
   10MPD2    C2  152   2.930   4.316  11.905 -0.4111  0.3854 -0.1981
   10MPD2    C3  153   2.903   4.248  12.019 -0.0888 -0.0708  0.1199
   10MPD2    C4  154   2.774   4.263  12.068  0.1398  0.2950 -0.2827
   10MPD2    C5  155   2.681   4.354  12.015 -0.9959  0.4416 -0.4132
   10MPD2     H  156   3.024   4.304  11.852 -0.2553 -2.3649  0.7046
   10MPD2    H1  157   2.745   4.210  12.158  1.6391 -1.7764 -1.0076
   10MPD2    H2  158   2.633   4.487  11.871  0.9158  0.4645 -1.4009
   10MPD2    H3  159   2.585   4.354  12.066 -0.4029 -2.6263  0.6950
   10MPD2     N  160   2.994   4.168  12.095  0.1484 -0.2633  0.0331
   10MPD2    H5  161   2.964   4.146  12.189 -0.8422  0.2594 -0.1631
   10MPD2    N1  162   2.870   4.473  11.727 -0.5601  0.2654 -0.0087
   10MPD2    H7  163   2.957   4.439  11.688 -2.4666 -2.6527 -1.7505
   11TCq1    O1  164   4.017   4.355  14.984  0.6047  0.5968  0.0347
   11TCq1    C1  165   3.907   4.361  14.910 -0.0217 -0.1526  0.4196
   11TCq1    O2  166   3.805   4.419  14.946  0.0277  0.1767 -0.0329
   11TCq1    C2  167   3.906   4.268  14.796  0.4538  0.0586  0.5038
   11TCq1    C3  168   4.017   4.239  14.723 -0.8755 -0.1020  0.4365
   11TCq1    C4  169   4.002   4.166  14.609  0.7032 -0.7218 -0.6576
   11TCq1    C5  170   3.884   4.128  14.560 -0.0478 -0.2748 -0.2243
   11TCq1    C6  171   3.770   4.176  14.615  0.0064  0.4827  0.4171
   11TCq1    C7  172   3.784   4.244  14.739  0.0264 -0.2262 -0.2467
   11TCq1    C8  173   3.648   4.098  14.600 -0.3166  0.0775 -0.2445
   11TCq1    O4  174   3.540   4.153  14.615 -0.5883 -0.4206 -0.1946
   11TCq1    C9  175   4.121   4.121  14.540  0.0218  0.4647 -0.0554
   11TCq1    O5  176   4.228   4.163  14.585  0.1693  0.2753  0.1907
   11TCq1    O6  177   4.105   4.050  14.439  0.0988  0.3013 -0.7536
   11TCq1    H1  178   4.078   4.279  14.973 -0.8171 -0.8040  1.9072
   11TCq1    H2  179   4.114   4.274  14.756  0.8521 -3.0912 -1.4698
   11TCq1    H3  180   3.879   4.064  14.473  2.4414 -1.3117  0.3889
   11TCq1    H4  181   3.699   4.295  14.784 -0.0461 -2.0827  1.7095
   12MPD2     C  182   3.448   3.892  14.522 -0.2247 -0.5833 -0.5706
   12MPD2    C1  183   3.583   3.869  14.539 -0.2127  0.5287  0.5636
   12MPD2    C2  184   3.618   3.742  14.510 -0.2435  0.2015  0.0113
   12MPD2    C3  185   3.529   3.638  14.475  0.3434  0.3186 -0.2054
   12MPD2    C4  186   3.395   3.658  14.496 -0.1722  0.3147  0.0351
   12MPD2    C5  187   3.358   3.786  14.509  0.2896  0.1601  0.2468
   12MPD2     H  188   3.724   3.720  14.513  0.2578  2.2232 -2.7282
   12MPD2    H1  189   3.324   3.580  14.469  1.0097 -0.6431 -0.3102
   12MPD2    H2  190   3.408   3.993  14.527 -0.3975 -0.7174  0.5596
   12MPD2    H3  191   3.252   3.809  14.503  0.4850  0.4560 -2.0298
   12MPD2     N  192   3.574   3.516  14.424  0.3698  0.1376  0.1949
   12MPD2    H5  193   3.507   3.454  14.379 -0.6533  1.5096 -0.1976
   12MPD2    N1  194   3.673   3.968  14.569  0.1710 -0.0610 -0.6568
   12MPD2    H7  195   3.770   3.946  14.547 -0.5920 -3.8039 -0.3025
   13TCq1    O1  196   3.674   4.007  10.288  0.7553 -0.1349 -0.5129
   13TCq1    C1  197   3.582   4.018  10.388  1.0063  0.0241 -0.3783
   13TCq1    O2  198   3.523   3.920  10.436  0.5650 -0.1131 -0.0648
   13TCq1    C2  199   3.607   4.139  10.466  0.3203 -0.4341 -0.1909
   13TCq1    C3  200   3.632   4.260  10.408  0.4031 -0.8853 -0.0769
   13TCq1    C4  201   3.631   4.373  10.490  0.6678 -0.0063  0.2129
   13TCq1    C5  202   3.616   4.367  10.624 -0.1677 -0.6705 -0.1362
   13TCq1    C6  203   3.585   4.244  10.680 -0.4146 -0.7683  0.4717
   13TCq1    C7  204   3.573   4.133  10.598 -0.5275 -0.5835  0.5047
   13TCq1    C8  205   3.596   4.214  10.825  0.4918 -0.1390  0.6940
   13TCq1    O4  206   3.580   4.312  10.902  0.5148 -0.2691  0.2206
   13TCq1    C9  207   3.654   4.501  10.430  0.5239  0.2735 -0.0073
   13TCq1    O5  208   3.664   4.508  10.302  0.3794 -0.5104  0.1239
   13TCq1    O6  209   3.651   4.602  10.500 -0.2445 -0.6108 -0.5514
   13TCq1    H1  210   3.736   4.083  10.279  2.8402 -1.4914  2.4543
   13TCq1    H2  211   3.638   4.266  10.300  1.2343  2.7551  0.2006
   13TCq1    H3  212   3.618   4.457  10.684  3.3075  0.4622 -1.9613
   13TCq1    H4  213   3.556   4.034  10.639  0.5432 -0.4413  1.3170
   14MPD2     C  214   3.736   3.929  11.006 -0.4869  0.2811  0.1316
   14MPD2    C1  215   3.663   4.036  10.979 -0.8848  0.0842  0.0649
   14MPD2    C2  216   3.601   4.089  11.093  0.2711  0.0710 -0.7505
   14MPD2    C3  217   3.614   4.039  11.220  0.2340 -0.2682  0.1696
   14MPD2    C4  218   3.707   3.938  11.242  0.0837  1.5077 -0.6721
   14MPD2    C5  219   3.762   3.879  11.130 -0.1586  0.1471  0.7456
   14MPD2     H  220   3.528   4.168  11.079 -0.7461 -0.9555 -1.1723
   14MPD2    H1  221   3.734   3.900  11.340 -0.5894 -0.3989 -1.2300
   14MPD2    H2  222   3.786   3.876  10.926 -0.0791 -0.6115  0.9708
   14MPD2    H3  223   3.829   3.794  11.139  0.1306  0.4252  1.2761
   14MPD2     N  224   3.522   4.079  11.320 -0.2755  0.2080  0.2849
   14MPD2    H5  225   3.459   4.151  11.285 -1.5981 -1.3699 -0.5836
   14MPD2    N1  226   3.654   4.097  10.850  0.2162 -0.3577  0.0884
   14MPD2    H7  227   3.693   4.043  10.773 -0.2693 -1.4957  0.6286
   15TCq1    O1  228   0.501   3.142   1.906 -0.5203  0.5871  0.1381
   15TCq1    C1  229   0.453   3.019   1.874 -0.1115  0.2695  0.3300
   15TCq1    O2  230   0.500   2.910   1.909 -0.4746  0.3473 -0.1711
   15TCq1    C2  231   0.373   3.047   1.752 -0.5088  0.0525 -0.5728
   15TCq1    C3  232   0.299   3.164   1.744  0.1824 -0.0653  0.1490
   15TCq1    C4  233   0.265   3.209   1.621  0.0878  0.0239 -0.2770
   15TCq1    C5  234   0.301   3.145   1.508 -0.5765 -0.1937  0.2391
   15TCq1    C6  235   0.371   3.034   1.522 -0.3756 -0.7147 -0.9563
   15TCq1    C7  236   0.418   2.989   1.644 -0.0915  0.4999 -0.2726
   15TCq1    C8  237   0.416   2.965   1.403 -0.1934  0.2682  0.0374
   15TCq1    O4  238   0.511   2.887   1.416  0.4926  0.4119 -0.7859
   15TCq1    C9  239   0.181   3.326   1.611 -0.6121 -0.4706 -0.8413
   15TCq1    O5  240   0.126   3.368   1.717  0.0105 -0.1572  0.3766
   15TCq1    O6  241   0.172   3.377   1.491 -0.7563 -0.2661  0.3021
   15TCq1    H1  242   0.465   3.204   1.839 -0.6522 -0.2231 -0.5398
   15TCq1    H2  243   0.266   3.210   1.837  1.3939  1.7132 -0.3118
   15TCq1    H3  244   0.265   3.184   1.413  0.5824 -0.0158 -0.1209
   15TCq1    H4  245   0.492   2.910   1.645 -0.3996  0.2129 -0.0777
   16MPD2     C  246   0.286   2.959   1.058 -0.2950  0.4621 -0.4055
   16MPD2    C1  247   0.363   2.924   1.164  0.6319 -0.7299  0.4953
   16MPD2    C2  248   0.454   2.822   1.148  0.2144  0.1798 -0.3534
   16MPD2    C3  249   0.471   2.768   1.028 -0.4489 -0.3847 -0.0061
   16MPD2    C4  250   0.375   2.784   0.924 -0.3763 -0.2786 -0.7085
   16MPD2    C5  251   0.287   2.885   0.946 -0.6632  0.4014 -0.1286
   16MPD2     H  252   0.497   2.779   1.238 -0.2243 -2.0954 -1.2291
   16MPD2    H1  253   0.378   2.746   0.823  0.1192 -0.7181 -0.5256
   16MPD2    H2  254   0.219   3.044   1.070 -0.0582  1.0656 -3.5165
   16MPD2    H3  255   0.228   2.913   0.860 -0.6061 -1.0916 -0.6532
   16MPD2     N  256   0.581   2.675   1.009 -0.1390 -0.1352  0.3057
   16MPD2    H5  257   0.653   2.661   1.080 -0.4004  1.2499  0.8496
   16MPD2    N1  258   0.343   2.986   1.287  0.3160  0.1941  0.6082
   16MPD2    H7  259   0.244   3.008   1.300 -0.0781  0.1711 -2.4305
   17TMC1    C1  260   3.185   3.325  10.935 -0.1181 -0.4689 -1.1851
   17TMC1    C2  261   3.242   3.290  11.058 -0.1430  0.6625  0.0830
   17TMC1    C3  262   3.154   3.245  11.153 -0.4020 -0.2603 -0.4635
   17TMC1    C4  263   3.054   3.301  10.907 -0.7236  0.1355 -0.3794
   17TMC1    C5  264   2.979   3.260  11.012 -1.1590  0.0083  0.6725
   17TMC1    C6  265   3.019   3.228  11.137  0.7201  0.1641  0.2528
   17TMC1     C  266   3.272   3.356  10.826  0.3100 -0.0344  0.2789
   17TMC1     O  267   3.233   3.316  10.715 -0.1240  0.0727 -0.2905
   17TMC1     H  268   3.349   3.282  11.075 -0.2144 -2.7960 -1.0697
   17TMC1    H1  269   3.000   3.308  10.813 -1.3441 -2.6815 -0.2320
   17TMC1    H2  270   2.959   3.205  11.225  1.0135 -0.4593  0.2855
   17TMC1    C7  271   2.837   3.252  10.982 -0.1667 -0.2234  0.2958
   17TMC1    C8  272   3.202   3.223  11.285 -0.2587  0.5514 -0.9936
   17TMC1    O1  273   2.784   3.315  10.894 -0.0231  0.1552  0.3503
   17TMC1    O2  274   3.147   3.165  11.378  0.2879  0.2565  0.4369
   17TMC1    O3  275   2.808   3.127  11.015  0.6357  0.5591  0.2743
   17TMC1    H3  276   2.865   3.086  11.083 -0.7666  1.5277  2.0196
   17TMC1    O5  277   3.282   3.330  11.312 -0.1796  0.6192  0.2406
   17TMC1    H5  278   3.314   3.383  11.236 -1.0192  1.1512  0.2571
   18MPD2     C  279   3.500   3.404  10.644  0.1974  0.2553 -0.0454
   18MPD2    C1  280   3.501   3.430  10.783 -0.4603 -0.7237 -0.2153
   18MPD2    C2  281   3.617   3.462  10.851  0.0100  0.6453  0.7767
   18MPD2    C3  282   3.735   3.482  10.780  0.0776 -0.3915  0.0443
   18MPD2    C4  283   3.739   3.459  10.643  0.4343 -0.3409  0.2446
   18MPD2    C5  284   3.624   3.410  10.582  0.0521 -0.7795 -0.6793
   18MPD2     H  285   3.612   3.484  10.957  0.8506  3.4133  0.2537
   18MPD2    H1  286   3.831   3.469  10.586 -0.1028 -1.5012 -0.8130
   18MPD2    H2  287   3.412   3.383  10.584  1.5442 -3.6688 -0.6294
   18MPD2    H3  288   3.629   3.398  10.475 -1.2530 -0.0019 -0.8261
   18MPD2     N  289   3.845   3.538  10.842  0.2173  0.1982  0.3551
   18MPD2    H5  290   3.910   3.591  10.784 -0.7941  1.1781  0.1092
   18MPD2    N1  291   3.388   3.407  10.864  0.5145 -0.1291  0.2799
   18MPD2    H7  292   3.393   3.427  10.964 -0.0788 -1.1466  0.5030
   19TMC2    C1  293   4.706   4.228  14.315 -0.6671  0.7516 -0.4025
   19TMC2    C2  294   4.605   4.324  14.316 -0.1711  0.4367  0.1235
   19TMC2    C3  295   4.476   4.276  14.323  0.2060 -0.0721 -0.2558
   19TMC2    C4  296   4.672   4.099  14.322 -0.1297 -0.4707 -1.0824
   19TMC2    C5  297   4.541   4.058  14.341 -0.5247 -0.0725 -0.2439
   19TMC2    C6  298   4.438   4.145  14.357  0.1471  0.0011  0.3300
   19TMC2     C  299   0.110   4.272  14.294  0.5455 -0.2625 -0.2237
   19TMC2     O  300   0.124   4.388  14.257 -0.4900  0.0897 -0.1899
   19TMC2     H  301   4.627   4.430  14.304  1.6986 -0.1237 -1.1932
   19TMC2    H1  302   0.014   4.031  14.295  0.2308 -0.4767  0.0175
   19TMC2    H2  303   4.332   4.123  14.354 -0.5017  3.2729 -0.9626
   19TMC2    C7  304   4.521   3.922  14.363 -0.1028 -0.0050 -0.2233
   19TMC2    C8  305   4.362   4.365  14.305  0.3857 -0.1901  0.0601
   19TMC2    O1  306   4.604   3.841  14.321  0.0605  0.5793  0.3513
   19TMC2    O2  307   4.371   4.460  14.231  0.5300 -0.1318  0.0059
   19TMC2    O5  308   4.300   4.366  14.431 -0.1757  0.2471 -0.3593
   19TMC2    H5  309   4.297   4.286  14.488 -1.7832  1.9018  1.8753
   20MPD2     C  310   0.402   4.305  14.238  0.0909 -0.0698  0.8409
   20MPD2    C1  311   0.343   4.197  14.303  0.2542  0.1085 -0.0979
   20MPD2    C2  312   0.422   4.091  14.340 -0.5880 -0.2316 -0.7898
   20MPD2    C3  313   0.555   4.085  14.302 -0.0895  0.2824 -0.8351
   20MPD2    C4  314   0.607   4.192  14.224 -0.1495  0.5912 -0.0549
   20MPD2    C5  315   0.534   4.304  14.207  0.2349  0.4875 -0.4659
   20MPD2     H  316   0.368   4.005  14.378 -2.2148  2.1027  2.1736
   20MPD2    H1  317   0.711   4.187  14.192 -0.4857 -1.5358 -0.8055
   20MPD2    H2  318   0.345   4.392  14.208 -0.5635 -0.5418  0.7112
   20MPD2    H3  319   0.569   4.391  14.153  0.6094 -0.1818 -1.2924
   20MPD2     N  320   0.647   3.981  14.338  0.5529  0.2229  0.1852
   20MPD2    H5  321   0.737   3.982  14.290  0.8414  2.2872  0.7707
   20MPD2    N1  322   0.202   4.182  14.331 -0.0598 -0.0297  0.3336
   20MPD2    H7  323   0.167   4.101  14.381  0.5637 -0.2057  0.4825
   21TMC2    C1  324   2.495   4.066  14.337 -0.2505 -0.0678  0.2904
   21TMC2    C2  325   2.557   3.949  14.348 -0.6764 -0.1359 -0.1628
   21TMC2    C3  326   2.575   3.905  14.477 -0.7797 -0.3794 -1.0974
   21TMC2    C4  327   2.420   4.118  14.439 -0.0085  0.0522 -0.2541
   21TMC2    C5  328   2.453   4.073  14.568  0.5703  0.0191  0.6059
   21TMC2    C6  329   2.540   3.968  14.583 -0.7850 -0.1227  0.4354
   21TMC2     C  330   2.493   4.135  14.202  0.6344  0.0573 -0.0747
   21TMC2     O  331   2.481   4.066  14.106  0.1398 -0.1132 -0.4876
   21TMC2     H  332   2.606   3.908  14.260 -2.3541  0.7693 -1.5033
   21TMC2    H1  333   2.354   4.201  14.419  0.0483  0.4998  1.4002
   21TMC2    H2  334   2.563   3.926  14.680 -1.9321 -1.3161  0.1919
   21TMC2    C7  335   2.442   4.159  14.685 -0.3106 -0.1587 -0.0506
   21TMC2    C8  336   2.652   3.778  14.478 -0.3585  0.1331  0.8464
   21TMC2    O1  337   2.485   4.119  14.791 -0.6381 -0.2200 -0.4062
   21TMC2    O2  338   2.668   3.716  14.377  0.2208 -0.2589 -0.4261
   21TMC2    O5  339   2.743   3.788  14.575  0.2284 -0.0179 -0.5803
   21TMC2    H5  340   2.734   3.853  14.648  1.1939 -0.2840 -0.2279
   22MPD2     C  341   2.595   4.535  14.503  0.5438  0.9503  0.3275
   22MPD2    C1  342   2.661   4.412  14.487 -0.3882  0.1851 -0.2842
   22MPD2    C2  343   2.629   4.330  14.379 -0.1740  0.1219  0.1444
   22MPD2    C3  344   2.526   4.364  14.297  0.4580 -0.3003 -0.3374
   22MPD2    C4  345   2.449   4.479  14.317 -0.5494  0.2683  0.2878
   22MPD2    C5  346   2.484   4.560  14.423  0.1080 -0.5796 -0.5675
   22MPD2     H  347   2.687   4.239  14.372 -1.5695 -0.6311 -1.3929
   22MPD2    H1  348   2.354   4.499  14.269 -1.5064 -0.3520  1.9033
   22MPD2    H2  349   2.620   4.607  14.581  1.5722  2.6864 -1.6118
   22MPD2    H3  350   2.423   4.647  14.441  0.1269 -0.2533 -2.0238
   22MPD2     N  351   2.469   4.275  14.203  0.0191  0.0718  0.0437
   22MPD2    H5  352   2.414   4.314  14.127 -0.5158 -0.0353  0.3754
   22MPD2    N1  353   2.750   4.361  14.584  0.6856 -0.1757 -0.2835
   22MPD2    H7  354   2.776   4.264  14.571  0.5777 -0.0696 -1.2955
   23TMC2    C1  355   4.018   0.946  14.648  0.4425  0.3920  0.0919
   23TMC2    C2  356   3.969   1.058  14.715  0.1762 -0.3388  0.2405
   23TMC2    C3  357   3.843   1.105  14.686  0.6683 -0.6243  0.2905
   23TMC2    C4  358   3.936   0.878  14.569 -0.9463 -0.1022 -0.1864
   23TMC2    C5  359   3.811   0.932  14.541 -0.0688  0.3329  0.3671
   23TMC2    C6  360   3.765   1.052  14.586 -0.0316  0.1692  0.0007
   23TMC2     C  361   4.092   0.847  14.718  0.4644 -0.2882  0.9305
   23TMC2     O  362   4.035   0.776  14.797  0.4250  0.0667  0.2815
   23TMC2     H  363   4.027   1.087  14.802  0.8622 -1.3418  0.1196
   23TMC2    H1  364   3.966   0.780  14.533  0.1973 -0.3644  1.5097
   23TMC2    H2  365   3.666   1.094  14.572 -0.9294 -2.0986 -0.3842
   23TMC2    C7  366   3.720   0.844  14.469  0.3698  0.4399 -0.1597
   23TMC2    C8  367   3.808   1.223  14.754  0.3844 -0.1863 -0.5450
   23TMC2    O1  368   3.759   0.757  14.393 -0.3241  0.6980  0.0796
   23TMC2    O2  369   3.890   1.296  14.806 -0.2310  0.0196 -0.1436
   23TMC2    O5  370   3.672   1.233  14.754 -0.5510  0.5374  0.4105
   23TMC2    H5  371   3.625   1.149  14.735  0.6051 -0.0349  0.1073
   24MPD2     C  372   4.507   0.538  14.747 -0.0354  0.2349  0.6987
   24MPD2    C1  373   4.404   0.560  14.840  0.3691 -0.0256 -0.6736
   24MPD2    C2  374   4.303   0.654  14.816 -0.3265  0.1506 -0.4609
   24MPD2    C3  375   4.304   0.712  14.690 -0.2763  0.1810  0.3090
   24MPD2    C4  376   4.399   0.686  14.594  0.0823  0.4716  0.1883
   24MPD2    C5  377   4.499   0.598  14.625  1.2402 -0.0210  0.7349
   24MPD2     H  378   4.230   0.685  14.891 -0.7542 -0.2210 -0.7252
   24MPD2    H1  379   4.387   0.719  14.491 -0.9258  0.0220  0.1649
   24MPD2    H2  380   4.579   0.458  14.761  0.5287  0.4659 -0.9338
   24MPD2    H3  381   4.581   0.587  14.555  0.0549 -1.5455 -0.4158
   24MPD2     N  382   4.211   0.811  14.651 -0.0027  0.0229  0.3045
   24MPD2    H5  383   4.240   0.857  14.565 -0.3139  1.7122  1.1024
   24MPD2    N1  384   4.394   0.492  14.964  0.1161 -0.2563 -0.2004
   24MPD2    H7  385   4.326   0.503  15.038 -1.0058  0.3642 -1.3032
   25TMC2    C1  386   3.471   2.840  12.134  0.8801 -0.4687 -0.1707
   25TMC2    C2  387   3.583   2.915  12.097  0.5011 -0.1819  1.3970
   25TMC2    C3  388   3.588   3.046  12.130 -0.6456 -0.4132  0.4922
   25TMC2    C4  389   3.375   2.899  12.215 -0.6682 -0.2870 -0.1161
   25TMC2    C5  390   3.393   3.032  12.258  0.5579 -0.1682  0.3219
   25TMC2    C6  391   3.494   3.112  12.213  0.3723 -0.8409 -0.8192
   25TMC2     C  392   3.430   2.724  12.059  0.1594  0.3739 -0.5183
   25TMC2     O  393   3.312   2.694  12.061  0.5033 -0.4617 -0.8984
   25TMC2     H  394   3.655   2.881  12.024 -0.9415  2.0285 -1.0768
   25TMC2    H1  395   3.284   2.845  12.240  0.9137 -2.8732  0.0471
   25TMC2    H2  396   3.519   3.205  12.263 -2.5687 -0.4135 -0.1357
   25TMC2    C7  397   3.278   3.097  12.316  0.0824 -0.3373  0.6112
   25TMC2    C8  398   3.683   3.130  12.052 -0.1258  0.4620  0.2955
   25TMC2    O1  399   3.207   3.023  12.382  0.0339  0.6545  0.2864
   25TMC2    O2  400   3.799   3.115  12.063  0.3212  0.1255  0.3692
   25TMC2    O5  401   3.626   3.248  12.056 -0.1283  0.7009 -0.5642
   25TMC2    H5  402   3.528   3.240  12.052 -0.0674 -0.7391  1.0302
   26MPD2     C  403   3.437   2.429  11.633 -0.0783 -0.1677  0.2038
   26MPD2    C1  404   3.333   2.492  11.696  0.3860 -0.4402 -0.5543
   26MPD2    C2  405   3.358   2.562  11.814 -0.4693  0.5781 -0.0796
   26MPD2    C3  406   3.489   2.575  11.868 -0.0166  0.3896 -0.3376
   26MPD2    C4  407   3.589   2.501  11.809 -0.7150 -0.4626 -0.3006
   26MPD2    C5  408   3.561   2.425  11.696  0.2613  0.2189 -0.1712
   26MPD2     H  409   3.278   2.617  11.864  0.7307  0.1853  2.2543
   26MPD2    H1  410   3.690   2.491  11.850 -0.4014 -0.4554 -1.0784
   26MPD2    H2  411   3.420   2.381  11.537 -0.7124 -1.1582  0.8197
   26MPD2    H3  412   3.634   2.355  11.657  0.4047  1.1727 -1.6377
   26MPD2     N  413   3.524   2.662  11.981 -0.5783 -0.4294  0.0684
   26MPD2    H5  414   3.622   2.679  11.997 -1.2843  1.6930  1.9648
   26MPD2    N1  415   3.215   2.489  11.628  0.7095  0.8659  0.4470
   26MPD2    H7  416   3.205   2.454  11.533 -0.5318  0.9727  0.5375
   27TMC2    C1  417   1.802   4.628  12.639  1.1294 -0.2622  0.8212
   27TMC2    C2  418   1.719   4.628  12.532 -0.1872 -0.3325  0.3678
   27TMC2    C3  419   1.777   4.633  12.403 -0.4570 -0.1238 -0.2505
   27TMC2    C4  420   1.935   4.622  12.619 -0.5237  0.4524  0.4151
   27TMC2    C5  421   1.984   4.613  12.493  0.9473  0.2333 -0.2075
   27TMC2    C6  422   1.912   4.634  12.385  0.0590  0.4971 -0.3796
   27TMC2     C  423   1.757   4.655  12.770 -0.0999 -0.1306 -0.9057
   27TMC2     O  424   1.840   4.647  12.864  0.7106 -0.2303 -0.3155
   27TMC2     H  425   1.610   4.627  12.536 -0.1508  1.2938  1.4120
   27TMC2    H1  426   1.998   4.627  12.708 -1.0131 -0.3292  0.8075
   27TMC2    H2  427   1.957   4.636  12.286  0.0283  2.7228 -0.3544
   27TMC2    C7  428   2.126   4.591  12.474  0.4028  0.4262 -0.1169
   27TMC2    C8  429   1.683   4.686  12.306 -0.7167  0.1830  0.2615
   27TMC2    O1  430   2.173   4.610  12.363 -0.1516 -0.2324  0.4859
   27TMC2    O2  431   1.568   4.716  12.335 -0.4165 -0.2258 -0.3547
   27TMC2    O5  432   1.756   0.003  12.211 -0.3286 -0.3524  0.2928
   27TMC2    H5  433   1.826   4.684  12.170 -0.8347  0.0978 -1.1595
   28MPD2     C  434   1.407   0.098  13.111 -0.0624  0.4886 -0.0457
   28MPD2    C1  435   1.344   0.081  12.986 -0.1952 -0.0534 -0.2655
   28MPD2    C2  436   1.409   0.030  12.872 -0.3089 -0.4592 -0.0563
   28MPD2    C3  437   1.543   4.730  12.885  0.5954  0.8567 -0.3488
   28MPD2    C4  438   1.604   0.008  13.013  0.1560 -0.2310  0.1483
   28MPD2    C5  439   1.535   0.057  13.122  0.0884  0.2343 -0.1595
   28MPD2     H  440   1.369   0.044  12.772 -0.3699  0.1760  0.0633
   28MPD2    H1  441   1.709   4.727  13.032  0.2297  1.7808  1.6158
   28MPD2    H2  442   1.351   0.133  13.197 -0.9265  0.2137 -0.5028
   28MPD2    H3  443   1.579   0.065  13.221 -0.6693  1.5533  0.0576
   28MPD2     N  444   1.625   4.697  12.766  0.0131  0.5401  0.5951
   28MPD2    H5  445   1.575   4.709  12.678 -1.0981  0.1912  1.1836
   28MPD2    N1  446   1.216   0.136  12.974  0.1805 -0.6039  0.1122
   28MPD2    H7  447   1.170   0.192  13.045 -0.1529 -1.6343  0.7168
   29TMC2    C1  448   1.603   2.664  14.508  0.0383 -0.3918 -0.4186
   29TMC2    C2  449   1.737   2.684  14.511 -0.1270 -0.0772  0.0677
   29TMC2    C3  450   1.792   2.786  14.587 -0.4478 -0.6257  0.4107
   29TMC2    C4  451   1.521   2.750  14.574 -0.1245 -0.7267 -1.1509
   29TMC2    C5  452   1.578   2.867  14.636 -0.3284  1.6476  0.2072
   29TMC2    C6  453   1.712   2.882  14.643  0.6451 -0.3399 -0.5506
   29TMC2     C  454   1.560   2.539  14.450 -0.6346 -0.8648 -0.1663
   29TMC2     O  455   1.647   2.463  14.409 -0.3085  0.4453  0.3596
   29TMC2     H  456   1.805   2.607  14.476 -1.6894 -0.4471 -2.1597
   29TMC2    H1  457   1.413   2.743  14.574 -0.1604 -0.1382 -2.5332
   29TMC2    H2  458   1.763   2.954  14.706 -1.0150 -1.8396  2.5021
   29TMC2    C7  459   1.490   2.966  14.693  0.5575 -0.1308  0.0080
   29TMC2    C8  460   1.930   2.771  14.627 -0.9588 -0.4348  0.5118
   29TMC2    O1  461   1.377   2.929  14.706 -0.2941  0.3749 -0.1957
   29TMC2    O2  462   1.993   2.869  14.668 -0.5646 -0.1761  0.4303
   29TMC2    O5  463   1.939   2.655  14.688  0.4688 -0.1174 -0.1024
   29TMC2    H5  464   1.862   2.595  14.677  0.8578 -0.9632  1.7709
   30MPD2     C  465   1.206   2.190  14.306  0.2391  0.6170  0.1079
   30MPD2    C1  466   1.344   2.181  14.319 -0.7330 -0.5500  0.0144
   30MPD2    C2  467   1.418   2.286  14.367  0.8482 -0.1160 -0.0814
   30MPD2    C3  468   1.352   2.404  14.406 -0.2302 -0.1347  0.3271
   30MPD2    C4  469   1.220   2.413  14.390  0.0463  0.2987 -0.0951
   30MPD2    C5  470   1.144   2.310  14.351  0.1870 -0.7686  0.1836
   30MPD2     H  471   1.525   2.280  14.354  0.9657  2.2726 -0.2450
   30MPD2    H1  472   1.165   2.505  14.410 -1.5625 -0.5086 -0.7677
   30MPD2    H2  473   1.144   2.108  14.274  0.4576 -0.3631  2.2110
   30MPD2    H3  474   1.036   2.319  14.352  0.1582 -0.7901 -2.3516
   30MPD2     N  475   1.422   2.522  14.455  0.0845  0.0127  0.0681
   30MPD2    H5  476   1.368   2.601  14.489  1.3137 -0.4683  3.1214
   30MPD2    N1  477   1.421   2.062  14.289  0.2495 -0.1891 -0.1043
   30MPD2    H7  478   1.522   2.066  14.292  0.3044 -1.2992 -0.4438
   31TMC2    C1  479   3.517   1.625  15.282 -0.3016 -0.0588  0.2520
   31TMC2    C2  480   3.378   1.657  15.269 -0.3230  0.6080 -0.4212
   31TMC2    C3  481   3.283   1.585  15.345 -0.2587 -0.0889 -0.3067
   31TMC2    C4  482   3.560   1.504  15.345  0.8909 -0.4581 -0.2935
   31TMC2    C5  483   3.460   1.429  15.406  0.1814 -0.3409  0.4372
   31TMC2    C6  484   3.328   1.462  15.400  0.2234 -0.0044  0.2382
   31TMC2     C  485   3.612   1.721  15.235 -0.6346 -0.3267 -0.7704
   31TMC2     O  486   3.565   1.833  15.205  0.1831 -0.0206  0.1143
   31TMC2     H  487   3.341   1.756  15.244 -0.2710  1.0017  1.0153
   31TMC2    H1  488   3.661   1.468  15.360  0.8940  0.0045  0.8132
   31TMC2    H2  489   3.252   1.393  15.432  0.0316 -0.0696 -0.3455
   31TMC2    C7  490   3.505   1.339  15.502 -0.0759 -0.7445  1.3552
   31TMC2    C8  491   3.146   1.600  15.312  0.5025  0.2440 -0.1070
   31TMC2    O1  492   3.591   1.252  15.477  0.0952  0.1469  0.3616
   31TMC2    O2  493   3.075   1.501  15.326 -0.0123 -0.5237 -0.1417
   31TMC2    O5  494   3.137   1.688  15.210  0.1654 -0.1141  0.2740
   31TMC2    H5  495   3.185   1.773  15.216 -2.5286  1.3025  1.7479
   32MPD2     C  496   4.071   1.886  15.076 -0.3243  0.2833  0.1063
   32MPD2    C1  497   3.944   1.931  15.041 -0.3073  0.3107  0.6842
   32MPD2    C2  498   3.845   1.872  15.114  0.9912 -0.6716 -0.2324
   32MPD2    C3  499   3.857   1.763  15.192 -0.7250  0.3378 -0.0697
   32MPD2    C4  500   3.977   1.713  15.223 -0.2631  0.7100  0.0873
   32MPD2    C5  501   4.087   1.775  15.158 -1.1808 -0.1002 -0.1081
   32MPD2     H  502   3.743   1.901  15.091  1.8149  0.0351 -3.0487
   32MPD2    H1  503   3.999   1.621  15.277  1.1728 -0.1226 -1.8968
   32MPD2    H2  504   4.162   1.924  15.030 -0.0695 -0.3041  0.1238
   32MPD2    H3  505   4.186   1.733  15.171 -1.3820 -0.7068 -0.5182
   32MPD2     N  506   3.742   1.690  15.251 -0.0561  0.3453 -0.5652
   32MPD2    H5  507   3.760   1.598  15.291  1.3004  1.0734  0.4609
   32MPD2    N1  508   3.928   2.026  14.939  0.2199 -0.6064  0.4252
   32MPD2    H7  509   4.013   2.050  14.889 -0.8101 -0.1467 -1.1220
   33TMC2    C1  510   4.027   4.427  10.468  0.4298 -0.0330  0.1814
   33TMC2    C2  511   3.975   4.343  10.377  0.7811 -0.4036 -0.3055
   33TMC2    C3  512   3.948   4.390  10.245  0.1141  0.2206  0.4907
   33TMC2    C4  513   4.051   4.560  10.441 -0.2146 -0.0440  0.5035
   33TMC2    C5  514   4.016   4.603  10.316  0.0597 -0.0924  0.0543
   33TMC2    C6  515   3.972   4.519  10.218 -1.1744  0.4999 -0.0378
   33TMC2     C  516   4.096   4.367  10.580  0.0573 -0.1006  0.2599
   33TMC2     O  517   4.127   4.249  10.574  0.7204  0.4518  0.3980
   33TMC2     H  518   3.963   4.237  10.395  0.9231 -0.4842 -0.6824
   33TMC2    H1  519   4.095   4.626  10.516  1.4992 -0.7377  0.0966
   33TMC2    H2  520   3.956   4.552  10.116  1.3019  0.9785 -0.2511
   33TMC2    C7  521   4.071   4.736  10.275  0.0323  0.1790 -0.2395
   33TMC2    C8  522   3.888   4.307  10.149  0.1324  0.1811 -0.3132
   33TMC2    O1  523   4.182   0.028  10.311  0.0747 -0.1399  0.2037
   33TMC2    O2  524   3.871   4.192  10.193  0.1302  0.0660  0.2075
   33TMC2    O5  525   3.783   4.378  10.100  0.3209  0.9415 -0.1577
   33TMC2    H5  526   3.753   4.443  10.167 -1.3628  0.6222 -0.6071
   34MPD2     C  527   4.146   4.299  11.082 -0.4517  0.4683  0.0276
   34MPD2    C1  528   4.119   4.212  10.981 -0.2691  0.6982  0.0575
   34MPD2    C2  529   4.106   4.258  10.851  0.5041  0.2641  0.5072
   34MPD2    C3  530   4.111   4.393  10.826 -0.0401  0.0450 -0.1845
   34MPD2    C4  531   4.126   4.489  10.930  0.1494  0.6695  0.0435
   34MPD2    C5  532   4.151   4.433  11.055  0.4050 -0.3548 -0.6866
   34MPD2     H  533   4.060   4.198  10.773  1.6480  1.0741 -0.7906
   34MPD2    H1  534   4.122   4.596  10.914  1.9314  0.9265  1.3469
   34MPD2    H2  535   4.176   4.256  11.177 -1.9516  0.0063  0.2859
   34MPD2    H3  536   4.169   4.506  11.134  0.3929 -0.0216 -0.9881
   34MPD2     N  537   4.106   4.445  10.694  0.4022  0.3856  0.2024
   34MPD2    H5  538   4.089   4.544  10.682 -1.1870  0.1983  0.8020
   34MPD2    N1  539   4.121   4.076  11.021  0.1243  0.1970  0.1726
   34MPD2    H7  540   4.139   4.057  11.119  0.8712  0.7750  0.1434
   35TMC2    C1  541   4.060   0.284  11.782  0.5542  0.2614  0.2074
   35TMC2    C2  542   3.956   0.273  11.700  0.4947 -0.1829  0.0025
   35TMC2    C3  543   3.870   0.163  11.709  0.0223  0.0121 -0.1020
   35TMC2    C4  544   4.065   0.195  11.886  0.3783 -0.2019  0.2187
   35TMC2    C5  545   3.984   0.086  11.892 -0.1113  0.4720  0.4814
   35TMC2    C6  546   3.883   0.067  11.806 -0.1036 -0.2512  0.0905
   35TMC2     C  547   4.153   0.396  11.767 -0.0365  0.2191  0.0234
   35TMC2     O  548   4.128   0.476  11.676  0.2892  0.4890  0.1043
   35TMC2     H  549   3.945   0.340  11.615 -1.3004  1.2615  1.3650
   35TMC2    H1  550   4.138   0.210  11.964  1.2591 -0.5896 -0.5264
   35TMC2    H2  551   3.818   4.717  11.805 -2.4859  1.5281 -0.5938
   35TMC2    C7  552   4.028   4.710  11.982 -0.1491  0.2765 -0.2507
   35TMC2    C8  553   3.793   0.136  11.597 -0.2529 -0.5367  0.3966
   35TMC2    O1  554   4.134   4.721  12.049 -0.6566  0.6284 -0.0693
   35TMC2    O2  555   3.824   0.172  11.482 -0.0104 -0.4210  0.0269
   35TMC2    O5  556   3.694   0.047  11.631 -0.0135  0.3748  0.4929
   35TMC2    H5  557   3.667   0.048  11.725 -1.8220 -0.8219 -0.0053
   36MPD2     C  558   4.597   0.646  11.808  0.0599 -0.5329  0.0874
   36MPD2    C1  559   4.609   0.531  11.878  0.5123 -0.8077  0.7771
   36MPD2    C2  560   4.507   0.438  11.884 -0.0132 -0.4415  0.3546
   36MPD2    C3  561   4.391   0.462  11.813 -0.0944 -0.0252  0.5056
   36MPD2    C4  562   4.393   0.569  11.724  0.0267  0.4864  1.0450
   36MPD2    C5  563   4.498   0.662  11.719  0.3097  0.3088 -0.0148
   36MPD2     H  564   4.514   0.349  11.945  0.5957  1.1430  2.6210
   36MPD2    H1  565   4.318   0.587  11.647  0.7929  0.9128  0.3902
   36MPD2    H2  566   4.682   0.713  11.803 -0.6856  0.1912 -2.9272
   36MPD2    H3  567   4.496   0.740  11.644  0.1587 -1.1672 -1.5356
   36MPD2     N  568   4.280   0.377  11.830  0.0123  0.3388  0.6800
   36MPD2    H5  569   4.289   0.301  11.896  1.4618  0.3851  0.5345
   36MPD2    N1  570   4.731   0.517  11.945 -0.0421  0.0502  0.4444
   36MPD2    H7  571   0.062   0.591  11.932  0.4135 -0.4596 -0.0828
   37TMC2    C1  572   2.708   0.400  12.056 -0.2096 -0.1151 -0.0249
   37TMC2    C2  573   2.623   0.411  11.942 -0.1400 -0.5793  0.0925
   37TMC2    C3  574   2.673   0.392  11.818  0.1843  0.3813 -0.1688
   37TMC2    C4  575   2.840   0.374  12.037 -0.0113 -0.4183  0.7723
   37TMC2    C5  576   2.893   0.370  11.906 -0.2753  0.2891 -0.4700
   37TMC2    C6  577   2.810   0.378  11.797  0.7968  0.1071 -0.4204
   37TMC2     C  578   2.654   0.416  12.185  0.1688  0.4705  0.3266
   37TMC2     O  579   2.528   0.417  12.187  0.2963  0.6879 -0.4173
   37TMC2     H  580   2.520   0.438  11.961  0.4947  0.5004  2.1261
   37TMC2    H1  581   2.907   0.379  12.122  1.7920 -2.5646 -0.5224
   37TMC2    H2  582   2.848   0.361  11.697 -0.1457 -1.2190 -0.5587
   37TMC2    C7  583   3.040   0.400  11.890  1.4831  0.1144 -0.4162
   37TMC2    C8  584   2.600   0.440  11.705  0.4601  0.7089 -0.2050
   37TMC2    O1  585   3.106   0.409  11.993 -0.2836  0.8004 -0.0326
   37TMC2    O2  586   2.655   0.482  11.601 -0.1824  0.4689 -0.2863
   37TMC2    O5  587   2.474   0.398  11.715  0.6239 -0.4058  0.1013
   37TMC2    H5  588   2.457   0.352  11.801 -0.4990 -0.7981 -0.3350
   38MPD2     C  589   2.651   0.474  12.692  0.1009  0.2701 -0.8633
   38MPD2    C1  590   2.782   0.471  12.650 -0.2381  0.2061 -0.4033
   38MPD2    C2  591   2.806   0.470  12.512 -0.2214 -0.4382  0.2829
   38MPD2    C3  592   2.708   0.451  12.418  0.3537  0.0870 -0.9069
   38MPD2    C4  593   2.575   0.461  12.467 -0.2157 -0.4936  0.1285
   38MPD2    C5  594   2.546   0.474  12.597 -0.6859  0.3110 -0.5908
   38MPD2     H  595   2.906   0.469  12.472 -0.7457  0.1841 -1.0487
   38MPD2    H1  596   2.493   0.463  12.396  0.3131  1.6041 -0.3948
   38MPD2    H2  597   2.623   0.478  12.796 -0.5015 -0.2540 -0.9986
   38MPD2    H3  598   2.444   0.490  12.631 -0.2942  0.6778  0.4209
   38MPD2     N  599   2.741   0.426  12.287 -0.3515  0.3187  0.1041
   38MPD2    H5  600   2.839   0.434  12.263 -0.0340  1.9780  1.9759
   38MPD2    N1  601   2.891   0.471  12.737  0.0485  0.3874  0.3707
   38MPD2    H7  602   2.983   0.469  12.696 -0.0161  0.6822  0.2087
   39TMC2    C1  603   1.193   2.425   1.613  0.8119 -0.2506 -0.6756
   39TMC2    C2  604   1.328   2.391   1.613  0.6390  0.5505 -0.3755
   39TMC2    C3  605   1.425   2.480   1.659 -0.0074 -0.1064 -0.1106
   39TMC2    C4  606   1.157   2.540   1.678 -0.5673 -0.6059  0.0946
   39TMC2    C5  607   1.259   2.613   1.738  0.0436  0.2023 -0.3520
   39TMC2    C6  608   1.394   2.596   1.723 -0.5175  0.7889  0.4428
   39TMC2     C  609   1.089   2.346   1.547 -0.7316 -0.0595  0.1245
   39TMC2     O  610   0.977   2.387   1.571 -0.2251  0.3305 -0.1769
   39TMC2     H  611   1.356   2.292   1.581 -0.3110  0.3900 -0.6994
   39TMC2    H1  612   1.053   2.570   1.672  0.0643  1.0740 -2.3598
   39TMC2    H2  613   1.465   2.666   1.765  1.1270 -0.5369 -0.1482
   39TMC2    C7  614   1.212   2.741   1.791 -0.3432 -0.6644 -0.2535
   39TMC2    C8  615   1.551   2.419   1.676 -0.7723 -0.0250  0.2670
   39TMC2    O1  616   1.096   2.757   1.813 -0.3568 -0.1122  0.3361
   39TMC2    O2  617   1.602   2.354   1.584  0.8258  0.3218  0.2136
   39TMC2    O5  618   1.577   2.412   1.805  0.5223  0.7683  0.3382
   39TMC2    H5  619   1.509   2.459   1.858 -0.7802  1.5285 -2.0196
   40MPD2     C  620   1.133   2.113   1.269  0.9702 -0.9588 -0.0763
   40MPD2    C1  621   1.074   2.205   1.339  0.4419  0.2287  0.1832
   40MPD2    C2  622   0.943   2.239   1.313 -0.9392  0.0232 -0.1727
   40MPD2    C3  623   0.869   2.170   1.221 -0.6497 -0.3313  0.2755
   40MPD2    C4  624   0.933   2.073   1.139  0.6709 -0.8455  0.3206
   40MPD2    C5  625   1.063   2.043   1.174 -0.3674  0.5272  0.1805
   40MPD2     H  626   0.895   2.309   1.380 -0.7096  1.1157 -1.1456
   40MPD2    H1  627   0.878   2.006   1.074  0.6710 -0.1925 -0.3446
   40MPD2    H2  628   1.235   2.092   1.300  1.3624  1.6779  0.4738
   40MPD2    H3  629   1.104   1.961   1.117 -0.0282  1.7192 -1.2864
   40MPD2     N  630   0.738   2.194   1.197 -0.1008  0.2496 -0.4325
   40MPD2    H5  631   0.707   2.160   1.107  0.1885 -0.2144 -0.3564
   40MPD2    N1  632   1.143   2.263   1.451  0.0301  0.2891  0.0675
   40MPD2    H7  633   1.242   2.240   1.449 -0.1243 -0.2229 -1.3755
   41TMC2    C1  634   0.380   0.854  13.529  0.0286 -0.3239 -0.5239
   41TMC2    C2  635   0.464   0.755  13.579  0.4185 -0.0400 -0.2608
   41TMC2    C3  636   0.408   0.652  13.645  0.3504  0.7246  0.4150
   41TMC2    C4  637   0.243   0.848  13.539 -0.0319  0.2181  0.5330
   41TMC2    C5  638   0.198   0.733  13.594 -0.4711 -0.3255 -0.1528
   41TMC2    C6  639   0.273   0.636  13.652 -0.3369  0.5562  0.6442
   41TMC2     C  640   0.445   0.966  13.468 -0.2619  0.8211 -0.6330
   41TMC2     O  641   0.557   0.935  13.441  0.4274  0.3641 -0.1599
   41TMC2     H  642   0.571   0.768  13.577  0.3841  0.4327  1.0855
   41TMC2    H1  643   0.183   0.919  13.485 -0.4644 -1.8132 -1.6735
   41TMC2    H2  644   0.230   0.549  13.700 -0.7776 -0.3157 -1.3026
   41TMC2    C7  645   0.055   0.696  13.589  0.4094 -0.0757 -0.6960
   41TMC2    C8  646   0.490   0.567  13.716 -0.3964 -0.4468 -0.2314
   41TMC2    O1  647   4.730   0.664  13.691 -0.1141 -0.7612 -0.5445
   41TMC2    O2  648   0.610   0.563  13.691 -0.2570  0.1976 -0.1615
   41TMC2    O5  649   0.438   0.537  13.834  0.4735  0.1004  0.0287
   41TMC2    H5  650   0.343   0.562  13.842 -0.4353 -2.8333 -1.6450
   42MPD2     C  651   0.554   1.217  13.354  0.0339 -0.7453 -0.1951
   42MPD2    C1  652   0.439   1.214  13.433 -0.4731  0.0521 -0.0081
   42MPD2    C2  653   0.369   1.330  13.464  0.1471  0.2305  0.5958
   42MPD2    C3  654   0.419   1.453  13.431 -0.4120  0.1505 -0.0463
   42MPD2    C4  655   0.531   1.461  13.361  0.0959  0.0982  0.1595
   42MPD2    C5  656   0.596   1.344  13.321 -0.2284 -0.7258  0.1114
   42MPD2     H  657   0.270   1.321  13.509 -0.8923  0.2316 -1.6883
   42MPD2    H1  658   0.569   1.557  13.329 -0.9930  0.4888  0.0570
   42MPD2    H2  659   0.613   1.129  13.327 -0.3084 -0.7579 -0.8839
   42MPD2    H3  660   0.684   1.358  13.260 -0.1644 -0.8220  0.1818
   42MPD2     N  661   0.349   1.571  13.448  0.1600 -0.0703  0.3890
   42MPD2    H5  662   0.381   1.657  13.406  1.0318 -0.4680  0.2374
   42MPD2    N1  663   0.378   1.088  13.471 -0.0220  0.2075  0.2029
   42MPD2    H7  664   0.289   1.104  13.518 -1.0874 -1.7841 -1.1474
   43TMC2    C1  665   1.317   3.945   0.567 -0.1288 -0.2398  0.2184
   43TMC2    C2  666   1.201   3.964   0.513 -0.7690 -0.6076 -0.0541
   43TMC2    C3  667   1.155   4.084   0.475  0.1080  0.1569  0.0705
   43TMC2    C4  668   1.398   4.047   0.591 -0.4621 -0.1985 -0.4911
   43TMC2    C5  669   1.347   4.171   0.573 -0.7720  0.0944  0.4671
   43TMC2    C6  670   1.227   4.193   0.512  0.0321  0.2334 -0.7473
   43TMC2     C  671   1.386   3.822   0.546  0.8818  0.1357  0.1106
   43TMC2     O  672   1.494   3.813   0.600  0.1264 -0.0792  0.0569
   43TMC2     H  673   1.133   3.881   0.499 -1.9060  0.1398  1.0099
   43TMC2    H1  674   1.498   4.043   0.631 -0.9839 -4.4935  0.4214
   43TMC2    H2  675   1.208   4.292   0.473  1.3926  0.7960  0.0423
   43TMC2    C7  676   1.436   4.282   0.608 -0.5500 -0.0461  0.1345
   43TMC2    C8  677   1.007   4.082   0.472  0.7550  0.1189  0.1149
   43TMC2    O1  678   1.562   4.269   0.603 -0.3214 -0.5418  0.4005
   43TMC2    O2  679   0.948   3.983   0.436 -0.0730  0.7718 -0.2723
   43TMC2    O5  680   0.972   4.155   0.582  0.2091 -0.2206  0.1331
   43TMC2    H5  681   1.032   4.233   0.586  0.7547 -0.7132  1.3554
   44MPD2     C  682   1.512   3.417   0.268  0.5035 -0.2520  0.6022
   44MPD2    C1  683   1.588   3.493   0.355 -0.6464  0.4228  0.2348
   44MPD2    C2  684   1.533   3.612   0.406  0.0164 -0.0359 -0.6942
   44MPD2    C3  685   1.395   3.638   0.392  1.0709 -0.4521 -0.0578
   44MPD2    C4  686   1.328   3.563   0.303 -0.0602 -0.8489 -0.3324
   44MPD2    C5  687   1.384   3.455   0.249  0.6230  0.0364  0.2783
   44MPD2     H  688   1.594   3.670   0.473 -0.7497  0.3761 -0.3530
   44MPD2    H1  689   1.230   3.593   0.266  0.1319  1.7417  1.2773
   44MPD2    H2  690   1.544   3.327   0.217 -0.5294  0.4051 -1.2551
   44MPD2    H3  691   1.328   3.394   0.180 -1.1108  0.7721  1.0423
   44MPD2     N  692   1.326   3.743   0.453  0.2136 -0.4830 -0.2474
   44MPD2    H5  693   1.232   3.766   0.422  1.8529  6.0092 -0.3948
   44MPD2    N1  694   1.713   3.455   0.396  0.1638  0.0257 -0.5408
   44MPD2    H7  695   1.753   3.502   0.477  2.1035 -1.0949 -0.8522
   45TMC2    C1  696   2.208   1.470   9.866  0.6386 -0.2551 -0.5174
   45TMC2    C2  697   2.099   1.548   9.863  0.0747 -0.1862 -0.1676
   45TMC2    C3  698   2.104   1.682   9.878 -0.2824  0.3200  0.2504
   45TMC2    C4  699   2.328   1.537   9.874  0.3267  0.1281  0.4465
   45TMC2    C5  700   2.331   1.671   9.901 -0.1814  0.2276 -0.3220
   45TMC2    C6  701   2.220   1.753   9.897  0.2877  0.3477  0.2874
   45TMC2     C  702   2.216   1.329   9.888  0.2290  0.2764  0.7235
   45TMC2     O  703   2.329   1.293   9.919  0.4994  0.4048  0.1930
   45TMC2     H  704   1.997   1.512   9.863  0.0943 -0.1878 -4.2582
   45TMC2    H1  705   2.415   1.478   9.898  1.4268  1.3979 -0.4130
   45TMC2    H2  706   2.219   1.861   9.910 -1.9321  0.2984  0.6134
   45TMC2    C7  707   2.454   1.730   9.948 -0.2925 -0.0560  0.1715
   45TMC2    C8  708   1.994   1.762   9.836 -0.1648 -0.5081 -0.0126
   45TMC2    O1  709   2.447   1.819  10.029 -0.4597  0.2620  0.0690
   45TMC2    O2  710   1.877   1.730   9.835  0.2421 -0.0830 -0.6199
   45TMC2    O5  711   2.039   1.818   9.726 -0.1613  0.0997  0.2860
   45TMC2    H5  712   2.131   1.852   9.730  0.6863 -2.1347 -0.5855
   46MPD2     C  713   2.201   1.037   9.900  0.3582 -0.7383  0.0115
   46MPD2    C1  714   2.102   1.121   9.863 -0.5316 -0.3736  0.0108
   46MPD2    C2  715   1.977   1.061   9.841 -0.1948 -0.1539  0.1705
   46MPD2    C3  716   1.950   0.930   9.852 -0.1153 -0.7186  0.2645
   46MPD2    C4  717   2.053   0.845   9.891 -0.1323  0.3291 -0.3187
   46MPD2    C5  718   2.175   0.904   9.918  0.1952 -0.2240 -0.8649
   46MPD2     H  719   1.896   1.124   9.806 -1.3504 -0.3078  2.5778
   46MPD2    H1  720   2.056   0.738   9.910 -1.3280  0.5140  0.9359
   46MPD2    H2  721   2.303   1.062   9.927  0.9278 -0.8413 -2.0766
   46MPD2    H3  722   2.260   0.846   9.951  0.3149  0.8032  0.6625
   46MPD2     N  723   1.819   0.881   9.836 -1.0479  0.2684 -0.3993
   46MPD2    H5  724   1.759   0.951   9.793  1.3878  1.7354 -1.4021
   46MPD2    N1  725   2.104   1.257   9.855  0.6139 -0.8659 -0.0830
   46MPD2    H7  726   2.018   1.296   9.817  1.5867  0.8148 -0.5482
   47TMC2    C1  727   4.244   2.006   8.922  0.4650  0.3909  0.2424
   47TMC2    C2  728   4.180   2.079   8.824  0.7391  0.1925  0.1045
   47TMC2    C3  729   4.050   2.041   8.804 -0.0475 -0.1497 -0.3768
   47TMC2    C4  730   4.174   1.937   9.018  0.4634 -0.2682 -0.1430
   47TMC2    C5  731   4.046   1.907   8.995  0.3510  0.1923  0.5796
   47TMC2    C6  732   3.988   1.949   8.882  0.3561  0.5443 -0.3167
   47TMC2     C  733   4.385   2.024   8.922  0.2091 -0.4404 -0.0036
   47TMC2     O  734   4.425   2.093   8.830 -0.2680  0.0851 -0.1851
   47TMC2     H  735   4.226   2.160   8.769  0.1068  1.4148  1.3780
   47TMC2    H1  736   4.226   1.895   9.104  1.5422  1.5392  0.0799
   47TMC2    H2  737   3.887   1.923   8.854 -0.0779  0.2429  1.4899
   47TMC2    C7  738   3.950   1.840   9.086  0.5261 -0.0445 -1.2919
   47TMC2    C8  739   3.960   2.113   8.723  0.1082 -0.2951  0.0566
   47TMC2    O1  740   3.833   1.825   9.049  0.6770  0.4319  0.5227
   47TMC2    O2  741   3.843   2.128   8.755 -0.0472  0.3210 -0.4141
   47TMC2    O5  742   4.015   2.126   8.600  0.1162  0.1340  0.1166
   47TMC2    H5  743   4.112   2.111   8.600  0.2232  0.8378 -0.7293
   48MPD2     C  744   4.676   2.027   8.961  0.1740 -0.0639  0.4536
   48MPD2    C1  745   4.591   1.946   9.029 -0.5093 -0.5073  0.0373
   48MPD2    C2  746   4.641   1.848   9.112  0.3364 -0.7191 -0.6496
   48MPD2    C3  747   0.037   1.848   9.135  0.0937 -0.3815  0.7488
   48MPD2    C4  748   0.123   1.940   9.072 -0.0364 -0.2540 -0.3709
   48MPD2    C5  749   0.073   2.027   8.979  0.4685  0.1727  0.4881
   48MPD2     H  750   4.586   1.770   9.163 -1.2047  1.2852  0.7735
   48MPD2    H1  751   0.230   1.937   9.086 -0.3158  0.0142  1.8202
   48MPD2    H2  752   4.648   2.112   8.900 -1.7829 -1.6659 -0.8945
   48MPD2    H3  753   0.142   2.089   8.922  0.1805  1.5693  1.6825
   48MPD2     N  754   0.084   1.754   9.233 -0.2239 -0.0625  0.1875
   48MPD2    H5  755   0.020   1.693   9.283 -0.1135 -0.5499 -0.2563
   48MPD2    N1  756   4.450   1.949   9.018 -0.1691  0.3398  0.3293
   48MPD2    H7  757   4.401   1.893   9.088 -1.2122  0.3940 -0.3534
   49TMC2    C1  758   3.870   3.747  10.314  1.0496  0.1372 -0.0601
   49TMC2    C2  759   3.840   3.783  10.444  0.1565  0.2691  0.1202
   49TMC2    C3  760   3.917   3.881  10.498 -0.2037 -0.0520  0.5225
   49TMC2    C4  761   3.980   3.788  10.247 -0.2112  0.1291  0.7261
   49TMC2    C5  762   4.056   3.881  10.309  0.1092  0.3912 -0.9889
   49TMC2    C6  763   4.024   3.932  10.429 -0.4086  0.6798  0.8826
   49TMC2     C  764   3.788   3.655  10.243 -0.4886 -0.1368 -0.5392
   49TMC2     O  765   3.837   3.585  10.155  0.0827  0.2378  0.5900
   49TMC2     H  766   3.759   3.736  10.498  1.2759 -1.8876 -0.0959
   49TMC2    H1  767   3.999   3.754  10.146 -1.8243  0.6601  0.2507
   49TMC2    H2  768   4.096   4.005  10.462  0.8733 -0.1723 -0.0256
   49TMC2    C7  769   4.160   3.946  10.232 -0.1043  0.7479 -0.0675
   49TMC2    C8  770   3.873   3.948  10.622  0.0068  0.2318 -0.5245
   49TMC2    O1  771   4.191   4.061  10.257 -0.5248  0.4856 -0.5052
   49TMC2    O2  772   3.772   3.904  10.667 -0.3110  0.0812 -0.3074
   49TMC2    O5  773   3.893   4.078  10.601  0.7291  0.2887  0.2307
   49TMC2    H5  774   3.984   4.111  10.585  0.6365  0.9729  1.1711
   50MPD2     C  775   3.576   3.454  10.187 -0.4856 -0.5797 -0.1175
   50MPD2    C1  776   3.553   3.569  10.271 -0.2871  0.2184  0.0915
   50MPD2    C2  777   3.434   3.583  10.339  0.3293 -0.1372 -0.3205
   50MPD2    C3  778   3.345   3.481  10.350 -0.6696  0.1119  0.2463
   50MPD2    C4  779   3.369   3.369  10.272 -0.6683  0.1561  0.1501
   50MPD2    C5  780   3.483   3.354  10.196  0.2801  0.4643 -0.8970
   50MPD2     H  781   3.425   3.672  10.400  2.2398 -0.1920  0.0541
   50MPD2    H1  782   3.297   3.288  10.266 -0.1142 -0.3367  0.1549
   50MPD2    H2  783   3.664   3.441  10.125  1.9054  3.4768  2.4002
   50MPD2    H3  784   3.509   3.270  10.133  0.9787  1.1833 -1.5656
   50MPD2     N  785   3.230   3.478  10.442  0.0229  0.4184  0.4984
   50MPD2    H5  786   3.178   3.392  10.451 -1.3840  1.4411  2.2183
   50MPD2    N1  787   3.659   3.661  10.301  0.2573  0.0454 -0.2350
   50MPD2    H7  788   3.637   3.741  10.360  0.8712 -0.0348  0.0925
   51TMC2    C1  789   2.806   3.818   1.435 -0.1502  0.3191 -0.2562
   51TMC2    C2  790   2.870   3.915   1.508  0.4074  0.9424  0.1912
   51TMC2    C3  791   3.006   3.914   1.492  0.1965 -0.0443  0.0379
   51TMC2    C4  792   2.871   3.748   1.329  0.8543  0.1619 -0.3612
   51TMC2    C5  793   3.002   3.751   1.328 -0.5916  0.3564  0.1450
   51TMC2    C6  794   3.070   3.830   1.410 -0.2276 -0.0088 -0.0734
   51TMC2     C  795   2.661   3.797   1.451 -0.0425  0.2940  0.7002
   51TMC2     O  796   2.607   3.745   1.354  0.0586  0.3483  0.0251
   51TMC2     H  797   2.810   3.985   1.565 -1.1999 -0.4985  0.2766
   51TMC2    H1  798   2.809   3.689   1.263  0.5609 -1.0711  1.0172
   51TMC2    H2  799   3.178   3.833   1.405 -0.2413  2.5128  0.8056
   51TMC2    C7  800   3.082   3.653   1.252 -0.1781  0.2072  0.1764
   51TMC2    C8  801   3.093   3.981   1.584  0.4855  0.5959  0.9379
   51TMC2    O1  802   3.192   3.627   1.299 -0.4512 -0.2728 -0.2597
   51TMC2    O2  803   3.211   4.005   1.569 -0.2174  0.3560  0.2249
   51TMC2    O5  804   3.026   3.989   1.706 -1.0497  0.5367 -0.4514
   51TMC2    H5  805   2.934   3.959   1.696 -1.4024  0.9809  1.5294
   52MPD2     C  806   2.347   3.572   1.796 -0.1335 -0.1118 -0.0530
   52MPD2    C1  807   2.398   3.536   1.673  0.4895  0.1473 -0.9152
   52MPD2    C2  808   2.479   3.618   1.594  0.5847  0.0832  0.9551
   52MPD2    C3  809   2.514   3.744   1.642  0.0864 -0.4292  0.1551
   52MPD2    C4  810   2.467   3.775   1.765  0.2104  0.2208  0.5129
   52MPD2    C5  811   2.390   3.694   1.846  0.2572 -0.2862  0.3647
   52MPD2     H  812   2.523   3.581   1.502  1.0595 -3.6974  2.6968
   52MPD2    H1  813   2.487   3.874   1.806  0.2769 -0.5642  2.3901
   52MPD2    H2  814   2.295   3.502   1.861 -0.7632  0.7827  0.4108
   52MPD2    H3  815   2.348   3.736   1.937  2.2921 -1.4043  1.8272
   52MPD2     N  816   2.617   3.827   1.580  0.8467 -1.1755  0.3827
   52MPD2    H5  817   2.667   3.890   1.642 -0.6678 -0.1588  0.5815
   52MPD2    N1  818   2.359   3.412   1.622  0.5396 -0.1028  0.7082
   52MPD2    H7  819   2.398   3.384   1.532  0.3684  3.1071 -0.3836
   53TMC2    C1  820   3.503   0.971  11.894  0.3111 -0.1187 -0.6112
   53TMC2    C2  821   3.614   1.043  11.888 -0.1051 -0.4104  0.6035
   53TMC2    C3  822   3.649   1.127  11.988 -0.4709  0.4145  0.7064
   53TMC2    C4  823   3.426   0.974  11.998  0.2739  0.7815  0.6245
   53TMC2    C5  824   3.465   1.032  12.109 -0.4669 -0.3021  0.0756
   53TMC2    C6  825   3.577   1.110  12.105 -0.9765  1.1635 -0.7368
   53TMC2     C  826   3.488   0.867  11.788  0.3006  0.4504  0.0787
   53TMC2     O  827   3.558   0.872  11.688  0.0318 -0.6875  0.0437
   53TMC2     H  828   3.678   1.042  11.800 -0.7067  0.2269  0.1621
   53TMC2    H1  829   3.328   0.929  12.009  0.6983  0.0420  1.3567
   53TMC2    H2  830   3.615   1.164  12.191 -1.1866  0.3378 -0.1241
   53TMC2    C7  831   3.390   0.999  12.229  0.3870  0.0183 -0.5689
   53TMC2    C8  832   3.788   1.163  12.006 -0.0181 -0.0675 -0.2486
   53TMC2    O1  833   3.276   0.963  12.223 -0.3391  0.5539  0.0316
   53TMC2    O2  834   3.858   1.138  12.103  0.3521 -0.1871  0.2230
   53TMC2    O5  835   3.831   1.223  11.894 -0.3641  0.5013  0.7072
   53TMC2    H5  836   3.757   1.239  11.832 -0.2840  0.5340  0.6197
   54MPD2     C  837   3.389   0.648  11.612  0.7539  0.8218  0.0580
   54MPD2    C1  838   3.349   0.668  11.742  0.7562 -0.2100 -0.3519
   54MPD2    C2  839   3.250   0.588  11.794  0.1510  0.1193  0.4351
   54MPD2    C3  840   3.185   0.496  11.710 -0.1136  0.2981 -0.1807
   54MPD2    C4  841   3.218   0.487  11.582 -0.0056 -0.1069  0.2474
   54MPD2    C5  842   3.323   0.558  11.533  0.5990  0.1818 -0.7971
   54MPD2     H  843   3.228   0.601  11.899  1.4504  1.8762  0.5038
   54MPD2    H1  844   3.169   0.428  11.505 -2.8279 -0.2141  2.1278
   54MPD2    H2  845   3.473   0.704  11.571  1.1203 -0.5292 -1.0668
   54MPD2    H3  846   3.348   0.550  11.428  2.4087 -1.7505 -0.2258
   54MPD2     N  847   3.069   0.425  11.756  0.1981 -0.2311  0.2062
   54MPD2    H5  848   3.002   0.389  11.689 -0.9584  2.1809  0.0707
   54MPD2    N1  849   3.408   0.763  11.829 -0.0446  0.2558  0.2062
   54MPD2    H7  850   3.368   0.759  11.922 -0.8894 -0.5000 -0.1894
   55TMC2    C1  851   4.457   3.443  17.665  0.1954 -0.3186  0.4852
   55TMC2    C2  852   4.437   3.423  17.532  0.2721  0.3415  0.5650
   55TMC2    C3  853   4.433   3.289  17.492 -0.0846  0.2654  0.5465
   55TMC2    C4  854   4.462   3.341   0.011 -0.1039  0.7585  0.0559
   55TMC2    C5  855   4.446   3.211  17.712 -0.6638 -0.2646  0.0517
   55TMC2    C6  856   4.427   3.179  17.579 -0.3041 -0.6285  0.0306
   55TMC2     C  857   4.412   3.571  17.719 -0.3536 -0.6771  0.3859
   55TMC2     O  858   4.355   3.558   0.081  0.1083 -0.1685 -0.1967
   55TMC2     H  859   4.423   3.497  17.453 -0.8712  1.9361  2.2748
   55TMC2    H1  860   4.489   3.364   0.113 -1.5913 -0.5264  0.7371
   55TMC2    H2  861   4.425   3.082  17.532  0.5697 -1.3523  1.4903
   55TMC2    C7  862   4.463   3.100   0.055 -0.2602  0.0479  1.3360
   55TMC2    C8  863   4.373   3.285  17.365 -0.6119  0.2832 -0.2457
   55TMC2    O1  864   4.433   2.993   0.007  0.0141 -0.0143  0.4532
   55TMC2    O2  865   4.403   3.366  17.281 -0.1040  0.1729  0.0045
   55TMC2    O5  866   4.306   3.168  17.351  0.5814 -0.0315 -0.2387
   55TMC2    H5  867   4.262   3.140  17.434 -1.4746 -0.4137 -1.4801
   56MPD2     C  868   4.454   3.909  17.569  0.1498  0.1853  0.0303
   56MPD2    C1  869   4.422   3.814  17.662  0.1642 -0.2154  0.5499
   56MPD2    C2  870   4.343   3.854   0.024 -0.7715 -0.5598 -0.3169
   56MPD2    C3  871   4.313   3.986   0.048  0.2129 -0.3870  0.7384
   56MPD2    C4  872   4.344   4.080  17.695 -0.0821  0.4232 -0.5321
   56MPD2    C5  873   4.418   4.040  17.583  0.5521 -0.5702  0.1893
   56MPD2     H  874   4.304   3.790   0.103 -1.3200  2.4400  1.8319
   56MPD2    H1  875   4.318   4.185  17.694  0.1794  0.4682 -2.1991
   56MPD2    H2  876   4.490   3.869  17.476 -0.0251 -0.6485  0.3225
   56MPD2    H3  877   4.441   4.108  17.502 -1.9113 -1.5246 -1.3216
   56MPD2     N  878   4.233   4.014   0.159  0.0151 -0.1450 -0.1996
   56MPD2    H5  879   4.216   3.936   0.222  0.1965 -0.0492 -0.0324
   56MPD2    N1  880   4.452   3.678  17.647 -0.2686 -0.2512  1.2888
   56MPD2    H7  881   4.517   3.653  17.573 -2.0431  0.0563 -0.3724
   57TMC2    C1  882   3.239   4.012  14.095  0.2539 -0.4851 -0.3086
   57TMC2    C2  883   3.203   3.894  14.161  0.0412  0.6593 -0.1359
   57TMC2    C3  884   3.240   3.774  14.107  0.1497  0.4254  0.0189
   57TMC2    C4  885   3.308   3.996  13.980  0.3220  0.0671  0.0166
   57TMC2    C5  886   3.347   3.877  13.935 -0.4241  0.1630 -0.1072
   57TMC2    C6  887   3.313   3.762  13.994  0.3714 -0.3210  0.1448
   57TMC2     C  888   3.171   4.143  14.131 -0.0826 -0.7027 -0.5394
   57TMC2     O  889   3.137   4.214  14.041  0.1977 -0.2076  0.0508
   57TMC2     H  890   3.148   3.907  14.253  2.7313  1.4567  1.3524
   57TMC2    H1  891   3.333   4.084  13.921  1.1258 -0.1085  0.0880
   57TMC2    H2  892   3.344   3.670  13.946  0.9508  0.1088 -0.2973
   57TMC2    C7  893   3.434   3.879  13.819 -0.5290 -0.3934  0.3989
   57TMC2    C8  894   3.192   3.653  14.165 -0.2612 -0.0161 -0.2946
   57TMC2    O1  895   3.417   3.957  13.724 -0.6024  0.1314 -0.0242
   57TMC2    O2  896   3.162   3.646  14.282  0.2524  0.6664 -0.5549
   57TMC2    O5  897   3.213   3.542  14.087  0.0564  0.3853  0.3552
   57TMC2    H5  898   3.202   3.563  13.992  0.0413  1.9460  0.7060
   58MPD2     C  899   3.044   4.528  14.427 -0.4120 -0.2751 -0.5304
   58MPD2    C1  900   3.002   4.494  14.300  0.1010 -0.4115 -0.5644
   58MPD2    C2  901   3.039   4.373  14.251 -0.0373 -0.4962 -0.2487
   58MPD2    C3  902   3.119   4.290  14.313 -0.0654  0.5993 -0.9912
   58MPD2    C4  903   3.172   4.324  14.435 -0.1902  0.1405  0.0255
   58MPD2    C5  904   3.129   4.445  14.497  0.4156 -0.5536  0.8783
   58MPD2     H  905   2.991   4.337  14.162  0.3207  0.2361 -0.7397
   58MPD2    H1  906   3.233   4.254  14.491  1.3928  1.9403  0.5665
   58MPD2    H2  907   2.995   4.605  14.484 -0.4907 -1.0373  0.4394
   58MPD2    H3  908   3.157   4.453  14.602 -0.9059  0.9703  1.1096
   58MPD2     N  909   3.155   4.158  14.261  0.1868  0.2264 -0.3881
   58MPD2    H5  910   3.188   4.088  14.326 -1.8073  1.3633  1.8627
   58MPD2    N1  911   2.913   4.572  14.225  0.5377 -0.6308 -0.5802
   58MPD2    H7  912   2.873   4.543  14.137  2.3221  1.2492 -2.0145
   59TMC2    C1  913   0.864   4.552  12.897  0.3883 -0.2851  0.4515
   59TMC2    C2  914   0.977   4.474  12.880 -0.3363  0.2954  0.7742
   59TMC2    C3  915   0.986   4.388  12.771 -0.1354  0.1459  0.0840
   59TMC2    C4  916   0.770   4.562  12.797  0.1560 -0.5862 -0.7669
   59TMC2    C5  917   0.772   4.463  12.700 -0.8488 -0.5584 -0.4703
   59TMC2    C6  918   0.875   4.377  12.683  0.0292  0.0041  0.4493
   59TMC2     C  919   0.868   4.651  13.004  0.0509 -0.3763 -0.5836
   59TMC2     O  920   0.813   0.021  12.985  0.4357 -0.2635 -0.5226
   59TMC2     H  921   1.053   4.472  12.958 -1.1934 -0.5933  1.6032
   59TMC2    H1  922   0.678   4.620  12.807 -0.1131 -0.9167 -1.3206
   59TMC2    H2  923   0.849   4.284  12.633  1.2879 -1.5913  2.8272
   59TMC2    C7  924   0.640   4.434  12.646  0.0189 -0.1949  0.0738
   59TMC2    C8  925   1.069   4.275  12.789 -0.4940  0.2465 -0.4107
   59TMC2    O1  926   0.591   4.323  12.646 -0.1025  0.2700 -0.4154
   59TMC2    O2  927   1.133   4.253  12.891  0.4230 -0.2389  0.6246
   59TMC2    O5  928   1.109   4.243  12.669 -0.0086 -0.1426  0.7714
   59TMC2    H5  929   1.062   4.284  12.593  0.8536 -0.2836  0.1623
   60MPD2     C  930   0.979   0.113  13.212 -0.2223 -0.6003  0.4805
   60MPD2    C1  931   1.007   4.719  13.201 -0.3367 -0.5085  0.3898
   60MPD2    C2  932   1.105   4.668  13.290 -0.0012 -0.3434  0.6761
   60MPD2    C3  933   1.168   0.017  13.385  1.0619  0.5024 -0.4453
   60MPD2    C4  934   1.134   0.145  13.391 -0.7464  1.0763  0.5348
   60MPD2    C5  935   1.035   0.193  13.305  0.0304  0.5806  0.2579
   60MPD2     H  936   1.145   4.568  13.280  0.1700 -0.0651 -1.4092
   60MPD2    H1  937   1.177   0.215  13.462  1.9303  0.0803 -0.1069
   60MPD2    H2  938   0.916   0.164  13.141 -0.5187 -1.6753 -0.0288
   60MPD2    H3  939   1.013   0.299  13.306  0.2699  0.6178  0.9586
   60MPD2     N  940   1.259   4.719  13.486 -0.2696 -0.1959 -0.2321
   60MPD2    H5  941   1.300   0.047  13.552  0.4966 -0.2141 -0.6851
   60MPD2    N1  942   0.954   4.628  13.106  0.2974  0.3723 -0.1606
   60MPD2    H7  943   0.990   4.533  13.119  1.9020  1.1097  0.7807
   61TMC2    C1  944   0.030   0.719  15.129  0.6026  0.2541 -1.2651
   61TMC2    C2  945   0.072   0.594  15.157 -0.5697 -0.6307  0.3547
   61TMC2    C3  946   0.115   0.566  15.286 -0.0683  0.4335  0.8845
   61TMC2    C4  947   0.033   0.819  15.222  0.4855  0.7448  0.5957
   61TMC2    C5  948   0.067   0.789  15.353 -0.0709 -0.7248  0.1457
   61TMC2    C6  949   0.121   0.662  15.389 -0.1176 -0.5935  0.8370
   61TMC2     C  950   0.035   0.747  14.986 -0.0646  0.2060  0.3282
   61TMC2     O  951   0.057   0.655  14.907  0.3467  0.1670  0.0061
   61TMC2     H  952   0.077   0.513  15.085  0.5860 -0.6624  0.4824
   61TMC2    H1  953   0.002   0.919  15.193  1.6036  0.8397 -0.2620
   61TMC2    H2  954   0.139   0.638  15.493  0.7780 -2.5896  0.2137
   61TMC2    C7  955   0.118   0.906  15.422 -0.0134  0.1355 -0.8624
   61TMC2    C8  956   0.115   0.422  15.314 -0.9039 -0.3815  0.1673
   61TMC2    O1  957   0.073   1.018  15.398 -0.0944  0.4944 -0.6547
   61TMC2    O2  958   0.075   0.333  15.238 -0.2278  0.4844  0.4257
   61TMC2    O5  959   0.164   0.411  15.440 -0.6741 -0.0527  0.0473
   61TMC2    H5  960   0.218   0.486  15.473 -1.1519 -0.6633  2.2028
   62MPD2     C  961   4.730   0.851  14.695  0.5753  0.4312 -0.4992
   62MPD2    C1  962   0.011   0.926  14.813  0.6013  0.1149 -1.1151
   62MPD2    C2  963   0.022   1.062  14.798  0.0815  0.3360 -0.2928
   62MPD2    C3  964   0.029   1.124  14.675 -0.6727 -0.3694  0.1022
   62MPD2    C4  965   0.016   1.057  14.558  0.2409 -0.4675 -0.2005
   62MPD2    C5  966   0.002   0.919  14.570  0.0005 -0.6867  0.4187
   62MPD2     H  967   0.043   1.118  14.888  1.4438 -1.4465  0.5104
   62MPD2    H1  968   0.017   1.108  14.463  0.6332 -1.7793 -0.8987
   62MPD2    H2  969   4.730   0.742  14.696 -3.4306  0.4742  2.2694
   62MPD2    H3  970   4.731   0.858  14.480  1.9313 -1.8503  1.0466
   62MPD2     N  971   0.052   1.263  14.678  0.1177  0.0753 -0.9552
   62MPD2    H5  972   0.068   1.303  14.770 -0.5728 -0.2715 -0.6803
   62MPD2    N1  973   0.014   0.880  14.951  0.8758  0.3282 -0.5895
   62MPD2    H7  974   0.006   0.956  15.017  1.3836 -0.2851  0.1699
   63TMC2    C1  975   0.322   1.609  10.246 -0.5227  1.3343 -0.3024
   63TMC2    C2  976   0.405   1.528  10.318 -0.3569  0.2196  0.6087
   63TMC2    C3  977   0.543   1.553  10.327 -0.0577 -0.4000 -0.3961
   63TMC2    C4  978   0.373   1.715  10.180  0.2055 -0.3176  0.2290
   63TMC2    C5  979   0.510   1.742  10.195  0.2877  0.3575 -0.0574
   63TMC2    C6  980   0.597   1.663  10.273  0.1026 -0.0869  0.1856
   63TMC2     C  981   0.178   1.580  10.230  0.2839 -0.2622  0.3279
   63TMC2     O  982   0.112   1.676  10.199 -0.1431 -0.7089  0.4668
   63TMC2     H  983   0.359   1.445  10.371 -2.6771  0.7550 -0.5549
   63TMC2    H1  984   0.315   1.784  10.120 -0.9042 -0.1924  1.4368
   63TMC2    H2  985   0.704   1.681  10.260  0.1051 -2.1633 -2.8235
   63TMC2    C7  986   0.552   1.873  10.142 -0.2877 -0.6101 -0.0755
   63TMC2    C8  987   0.618   1.438  10.381  0.6389 -0.3826 -0.1402
   63TMC2    O1  988   0.505   1.908  10.034 -0.0171 -0.3587  0.0779
   63TMC2    O2  989   0.560   1.330  10.389  0.0991  0.0315  0.0297
   63TMC2    O5  990   0.700   1.498  10.474  0.0677 -0.6467 -0.2298
   63TMC2    H5  991   0.727   1.588  10.444 -1.1988 -0.4298 -0.7226
   64MPD2     C  992   4.500   1.267  10.262 -0.1060  0.0658  0.6015
   64MPD2    C1  993   4.614   1.206  10.322  0.5594 -0.6067  0.2056
   64MPD2    C2  994   4.734   1.284  10.325 -0.4307 -0.2644 -0.1062
   64MPD2    C3  995   0.004   1.407  10.275  0.4859 -0.4022  0.0560
   64MPD2    C4  996   4.631   1.465  10.218  0.1558  0.4535  0.2341
   64MPD2    C5  997   4.515   1.391  10.208  0.2128 -0.2110 -0.1092
   64MPD2     H  998   0.094   1.248  10.356  0.0695  0.0849 -1.2733
   64MPD2    H1  999   4.629   1.563  10.171  0.8558  0.6017  0.5031
   64MPD2    H2 1000   4.419   1.203  10.230  0.9201 -0.1074 -1.6524
   64MPD2    H3 1001   4.427   1.424  10.155  0.7373  0.9289 -0.2732
   64MPD2     N 1002   0.132   1.461  10.282  0.5343 -0.1873  0.1291
   64MPD2    H5 1003   0.195   1.389  10.317  0.5889 -0.0371  0.3386
   64MPD2    N1 1004   4.618   1.077  10.379 -0.2768 -0.1043 -0.9493
   64MPD2    H7 1005   4.708   1.046  10.414 -0.5590 -0.1773 -0.3010
   65TMC2    C1 1006   1.094   0.766  16.004  0.0220  0.5326 -0.8372
   65TMC2    C2 1007   1.049   0.819  15.892  1.2515 -0.1797  0.1615
   65TMC2    C3 1008   1.053   0.952  15.879  0.2514 -1.0548  0.0841
   65TMC2    C4 1009   1.141   0.838  16.109  0.0503 -0.7612 -0.6960
   65TMC2    C5 1010   1.139   0.977  16.088  0.3987 -0.3542  0.0100
   65TMC2    C6 1011   1.097   1.037  15.972 -0.2638 -0.1355  0.3667
   65TMC2     C 1012   1.098   0.618  16.018 -0.1525  0.6427 -0.3853
   65TMC2     O 1013   1.080   0.573  16.131 -0.0286 -0.2359  0.4670
   65TMC2     H 1014   1.021   0.744  15.819 -2.4249  1.0176  0.3197
   65TMC2    H1 1015   1.175   0.785  16.197  0.6926 -0.8202 -0.9732
   65TMC2    H2 1016   1.096   1.144  15.954  1.7336 -0.5028 -1.9865
   65TMC2    C7 1017   1.106   1.069  16.198 -0.5211 -0.9708 -0.0764
   65TMC2    C8 1018   1.000   1.005  15.757  0.0994  0.1105  0.9004
   65TMC2    O1 1019   1.136   1.187  16.185 -0.1253  0.0193 -0.0622
   65TMC2    O2 1020   1.000   0.923  15.670  0.0783 -0.1208 -0.1705
   65TMC2    O5 1021   0.883   1.062  15.800 -0.2258 -0.4008 -0.2927
   65TMC2    H5 1022   0.887   1.116  15.882  2.0014 -1.1441  0.0813
   66MPD2     C 1023   1.115   0.320  15.987 -0.4300  0.5489  0.2915
   66MPD2    C1 1024   1.149   0.415  15.886 -0.3694 -0.7190 -0.2045
   66MPD2    C2 1025   1.184   0.368  15.761  0.4637  0.3756  0.4294
   66MPD2    C3 1026   1.178   0.232  15.735 -0.2122  0.3069 -0.1809
   66MPD2    C4 1027   1.134   0.142  15.829 -0.1822  0.4349  0.5889
   66MPD2    C5 1028   1.116   0.181  15.957 -0.1080 -0.7080  0.1117
   66MPD2     H 1029   1.215   0.431  15.679  2.8582 -2.6128 -0.9609
   66MPD2    H1 1030   1.129   0.034  15.815  0.0671  0.5673 -0.5130
   66MPD2    H2 1031   1.090   0.342  16.090  4.1408  2.0493  1.0512
   66MPD2    H3 1032   1.096   0.109  16.036 -0.0573 -0.7177  0.1162
   66MPD2     N 1033   1.203   0.172  15.611  0.2856 -0.4069  0.4279
   66MPD2    H5 1034   1.191   0.072  15.618 -0.4257 -0.4807 -1.7219
   66MPD2    N1 1035   1.142   0.552  15.902 -0.0169  0.3357 -0.6329
   66MPD2    H7 1036   1.164   0.606  15.819 -0.8895 -0.5313 -1.4247
   67TMC2    C1 1037   1.564   4.669  14.403  0.6683 -0.1396 -0.3908
   67TMC2    C2 1038   1.519   0.061  14.379 -0.5803 -0.3230  0.1385
   67TMC2    C3 1039   1.549   0.158  14.469  0.2655  0.2915  0.4708
   67TMC2    C4 1040   1.629   4.637  14.521 -0.4348 -0.3317  0.2231
   67TMC2    C5 1041   1.669   0.003  14.600 -0.3472 -0.2448  0.0443
   67TMC2    C6 1042   1.626   0.132  14.578  0.1087  0.2557 -0.0820
   67TMC2     C 1043   1.476   4.558  14.362  0.8753  0.2348  0.8315
   67TMC2     O 1044   1.526   4.448  14.369  0.3211  1.0267 -0.6480
   67TMC2     H 1045   1.469   0.087  14.287  0.8940 -1.3668 -0.9504
   67TMC2    H1 1046   1.674   4.539  14.532 -3.1698 -1.7259 -1.0288
   67TMC2    H2 1047   1.659   0.208  14.647 -0.5035  1.4285 -1.0980
   67TMC2    C7 1048   1.772   4.712  14.687  0.2375 -0.7353 -0.6418
   67TMC2    C8 1049   1.472   0.277  14.461 -0.2010  0.7332  0.0484
   67TMC2    O1 1050   1.860   4.628  14.661 -0.3890 -0.1340  0.1494
   67TMC2    O2 1051   1.368   0.276  14.395  0.4412  0.3653 -0.2923
   67TMC2    O5 1052   1.507   0.356  14.568  0.1317  0.8912  0.7808
   67TMC2    H5 1053   1.600   0.354  14.598 -0.0005 -0.3898  1.1169
   68MPD2     C 1054   1.298   4.385  14.216 -0.2016 -0.3881  0.3337
   68MPD2    C1 1055   1.255   4.506  14.266 -0.2895  0.0939 -0.0644
   68MPD2    C2 1056   1.128   4.546  14.240 -0.1882 -0.4883 -0.1149
   68MPD2    C3 1057   1.044   4.471  14.165  0.0784  0.1630  0.2263
   68MPD2    C4 1058   1.080   4.356  14.113 -0.6389  0.0962 -0.4841
   68MPD2    C5 1059   1.208   4.318  14.139  0.5185  0.3734  0.4523
   68MPD2     H 1060   1.099   4.645  14.273  0.6878  0.2059 -1.4222
   68MPD2    H1 1061   1.016   4.287  14.060 -0.0154 -0.8788  0.0374
   68MPD2    H2 1062   1.398   4.344  14.220  0.5911  1.3213 -2.3155
   68MPD2    H3 1063   1.248   4.224  14.103 -0.0159 -0.2338  1.4338
   68MPD2     N 1064   0.917   4.534  14.132 -0.1058  0.3660 -0.0580
   68MPD2    H5 1065   0.901   4.623  14.178  2.1340  1.3383 -1.1863
   68MPD2    N1 1066   1.347   4.591  14.329  1.0229 -0.6181 -0.1238
   68MPD2    H7 1067   1.326   4.690  14.339 -0.6372 -0.7380 -2.2382
   69TMC2    C1 1068   3.099   1.268  12.347  0.2272 -0.5348  0.3202
   69TMC2    C2 1069   3.029   1.181  12.267  0.0017 -0.6140 -0.3616
   69TMC2    C3 1070   3.042   1.186  12.129  0.0074  0.0976 -0.5209
   69TMC2    C4 1071   3.197   1.351  12.289  1.3727  0.2725  0.3291
   69TMC2    C5 1072   3.209   1.344  12.153 -0.2929 -0.1421  0.3346
   69TMC2    C6 1073   3.135   1.265  12.072  0.1042 -0.3945  0.2691
   69TMC2     C 1074   3.094   1.249  12.489 -0.2516  0.4219 -0.8034
   69TMC2     O 1075   3.019   1.157  12.531 -0.3694  0.0001 -0.0167
   69TMC2     H 1076   2.952   1.113  12.301  1.5897 -2.1807  0.1315
   69TMC2    H1 1077   3.248   1.430  12.343  1.3095  0.4580  0.1184
   69TMC2    H2 1078   3.134   1.265  11.964 -0.4272 -1.3632  0.2643
   69TMC2    C7 1079   3.330   1.416  12.106 -0.3793 -0.0763  1.1480
   69TMC2    C8 1080   2.983   1.091  12.046 -0.4234  1.1767  0.3078
   69TMC2    O1 1081   3.436   1.421  12.166 -0.3286 -0.3545 -0.2659
   69TMC2    O2 1082   3.043   1.034  11.955  0.6156  0.5303  0.6720
   69TMC2    O5 1083   2.851   1.116  12.043 -0.4035 -0.6845 -0.0007
   69TMC2    H5 1084   2.819   1.169  12.119 -1.1116  1.6181 -1.8994
   70MPD2     C 1085   3.296   1.405  12.747  0.5619 -0.2990  0.7565
   70MPD2    C1 1086   3.203   1.317  12.699 -0.0767 -0.4127 -0.2862
   70MPD2    C2 1087   3.151   1.217  12.779 -0.0858 -0.9974 -0.0294
   70MPD2    C3 1088   3.195   1.201  12.906 -0.0942  0.6658 -0.6715
   70MPD2    C4 1089   3.300   1.279  12.949 -0.1146 -0.5525  0.5490
   70MPD2    C5 1090   3.352   1.377  12.870 -0.0444  0.4119 -1.1965
   70MPD2     H 1091   3.081   1.141  12.746  0.1221 -1.5322  0.7921
   70MPD2    H1 1092   3.353   1.266  13.043 -0.5912  0.7386  0.9959
   70MPD2    H2 1093   3.341   1.487  12.693 -2.9886  0.8085 -0.5166
   70MPD2    H3 1094   3.440   1.430  12.906  1.8598 -3.7542  0.2691
   70MPD2     N 1095   3.153   1.101  12.996 -0.1023 -0.0615  0.1226
   70MPD2    H5 1096   3.217   1.069  13.068 -0.1197 -1.4126 -0.4487
   70MPD2    N1 1097   3.166   1.333  12.560  0.0650  0.5339  0.7545
   70MPD2    H7 1098   3.199   1.422  12.523 -0.0063  0.1353 -0.2464
   71TMC2    C1 1099   0.035   1.819   1.746  0.6345 -0.2482 -0.3015
   71TMC2    C2 1100   0.112   1.772   1.850 -0.1937  1.0386  0.6809
   71TMC2    C3 1101   0.072   1.817   1.976  0.1880  0.0246  0.3287
   71TMC2    C4 1102   4.662   1.897   1.763 -0.2322 -0.1102 -0.1812
   71TMC2    C5 1103   4.637   1.945   1.888 -0.4693  0.6296  0.1467
   71TMC2    C6 1104   4.705   1.908   1.996 -0.2271  0.2280  0.3688
   71TMC2     C 1105   0.055   1.744   1.621 -0.5203 -0.1290 -0.1233
   71TMC2     O 1106   0.161   1.692   1.590 -0.0029  0.3736 -0.7256
   71TMC2     H 1107   0.184   1.693   1.834 -1.3612  0.2319 -0.6164
   71TMC2    H1 1108   4.606   1.925   1.674 -2.3649 -0.0888  1.1536
   71TMC2    H2 1109   4.686   1.940   2.097 -0.3377 -0.4985  0.5775
   71TMC2    C7 1110   4.516   2.023   1.919  0.4403  0.0245  0.2122
   71TMC2    C8 1111   0.156   1.786   2.088  0.2199 -0.3437 -0.0548
   71TMC2    O1 1112   4.499   2.069   2.029 -0.6118  0.3344  0.6790
   71TMC2    O2 1113   0.118   1.750   2.199 -0.1143 -0.1547 -0.0242
   71TMC2    O5 1114   0.286   1.776   2.045  0.1275 -0.1724  0.2286
   71TMC2    H5 1115   0.302   1.817   1.957  0.0657 -2.7493 -0.9935
   72MPD2     C 1116   4.606   1.726   1.149 -0.4455  0.1011  0.7102
   72MPD2    C1 1117   4.733   1.692   1.197 -0.1908 -0.4860 -0.1252
   72MPD2    C2 1118   0.023   1.706   1.329  0.0126  0.6264  0.4494
   72MPD2    C3 1119   4.662   1.738   1.415 -0.0624  0.1818 -0.5253
   72MPD2    C4 1120   4.534   1.766   1.364  0.0014  0.1299  0.2392
   72MPD2    C5 1121   4.502   1.762   1.233  0.4259 -0.8123  0.1455
   72MPD2     H 1122   0.116   1.681   1.377  0.6320  0.8749 -0.6196
   72MPD2    H1 1123   4.453   1.793   1.430 -1.0548 -2.3451 -0.0400
   72MPD2    H2 1124   4.582   1.707   1.045 -2.1462  0.2570  1.0641
   72MPD2    H3 1125   4.401   1.782   1.201 -0.2430 -1.2510  1.9632
   72MPD2     N 1126   4.679   1.742   1.552 -0.3366  0.3639 -0.1972
   72MPD2    H5 1127   4.593   1.767   1.602 -0.9031  0.3235 -1.1554
   72MPD2    N1 1128   0.096   1.640   1.109 -0.2073 -0.2012 -0.2885
   72MPD2    H7 1129   0.184   1.614   1.152  0.6331  1.1393 -1.1770
   73TMC2    C1 1130   0.326   3.713  14.167  0.1629 -0.8004  0.1299
   73TMC2    C2 1131   0.247   3.790  14.261 -1.1074  0.2251 -0.2171
   73TMC2    C3 1132   0.237   3.737  14.393  0.7861  0.2855 -0.6527
   73TMC2    C4 1133   0.374   3.596  14.206  0.0360 -1.1094  0.0330
   73TMC2    C5 1134   0.363   3.556  14.332 -0.2947 -0.2814  0.5261
   73TMC2    C6 1135   0.289   3.617  14.429 -0.0169  0.5045  0.9609
   73TMC2     C 1136   0.435   3.790  14.108  0.5109  0.4448 -0.4857
   73TMC2     O 1137   0.547   3.736  14.109  0.1921 -0.4541 -0.6635
   73TMC2     H 1138   0.220   3.894  14.246 -0.2132  0.5705  0.6058
   73TMC2    H1 1139   0.426   3.540  14.128 -0.2427  1.8661 -2.2847
   73TMC2    H2 1140   0.290   3.579  14.531 -1.1278  2.5440  1.7201
   73TMC2    C7 1141   0.489   3.510  14.388 -0.3627 -0.5631  0.7949
   73TMC2    C8 1142   0.184   3.825  14.496  0.2705  0.0255  0.1160
   73TMC2    O1 1143   0.488   3.466  14.504 -0.0424 -0.1205  0.0392
   73TMC2    O2 1144   0.183   3.946  14.494  0.2525  0.3478 -0.0914
   73TMC2    O5 1145   0.108   3.742  14.579  0.3157 -0.5432 -0.6992
   73TMC2    H5 1146   0.096   3.651  14.543 -2.6909  1.1075 -3.8346
   74MPD2     C 1147   0.644   4.193  13.867 -0.0377  0.0822 -0.0527
   74MPD2    C1 1148   0.703   4.086  13.930 -0.7164 -0.8367  0.3585
   74MPD2    C2 1149   0.617   3.986  13.983  0.2960 -0.4230  0.1594
   74MPD2    C3 1150   0.478   3.996  13.981 -0.3893 -0.1251 -0.1457
   74MPD2    C4 1151   0.431   4.107  13.911 -0.8738 -0.4246  0.9248
   74MPD2    C5 1152   0.511   4.199  13.847 -0.6311 -0.5323  0.0466
   74MPD2     H 1153   0.668   3.908  14.037  0.4767  0.4794  1.3081
   74MPD2    H1 1154   0.325   4.127  13.902 -0.7456 -0.9947 -1.8048
   74MPD2    H2 1155   0.710   4.264  13.819 -1.3225 -0.5454 -2.7694
   74MPD2    H3 1156   0.463   4.281  13.797 -0.4215 -1.1645 -1.1794
   74MPD2     N 1157   0.392   3.909  14.051  0.2710  0.5089 -0.0609
   74MPD2    H5 1158   0.292   3.926  14.048  0.4743  1.4995 -1.0535
   74MPD2    N1 1159   0.846   4.084  13.948 -0.0628 -0.1987 -0.4549
   74MPD2    H7 1160   0.905   4.152  13.903  0.6657 -0.2313  0.4522
   75TMC2    C1 1161   0.705   4.557  14.038  0.0289  0.9044  0.1185
   75TMC2    C2 1162   0.663   4.617  14.154  0.3373  0.2289 -0.5595
   75TMC2    C3 1163   0.548   4.688  14.146  0.0295  0.0341 -0.1049
   75TMC2    C4 1164   0.633   4.553  13.923  0.8115 -0.0730 -0.5186
   75TMC2    C5 1165   0.512   4.626  13.924  0.9913 -1.1101 -0.0485
   75TMC2    C6 1166   0.465   4.699  14.032  0.3578 -0.6468 -0.3247
   75TMC2     C 1167   0.835   4.495  14.037 -0.0475  0.2386  0.0401
   75TMC2     O 1168   0.840   4.403  13.958 -0.7174 -0.0854 -0.4649
   75TMC2     H 1169   0.714   4.614  14.250  0.5220  0.7579 -0.6378
   75TMC2    H1 1170   0.666   4.508  13.830  2.9986  0.7763 -0.1364
   75TMC2    H2 1171   0.371   0.012  14.015  0.4665 -0.5009 -0.4875
   75TMC2    C7 1172   0.416   4.600  13.814 -0.1617 -0.1677  0.7567
   75TMC2    C8 1173   0.511   0.010  14.271 -0.0926  0.3186 -0.2021
   75TMC2    O1 1174   0.470   4.565  13.710 -0.0419 -0.1892 -0.0396
   75TMC2    O2 1175   0.573   0.010  14.377 -0.1841 -0.5202  0.2145
   75TMC2    O5 1176   0.378   4.737  14.272  0.5510  0.1252 -0.3015
   75TMC2    H5 1177   0.329   4.712  14.191  0.3070 -0.6692  0.0851
   76TMC2    C1 1178   3.851   0.633  11.848  0.0171  0.3033  0.0994
   76TMC2    C2 1179   3.758   0.585  11.753  0.4153  0.0614  0.6044
   76TMC2    C3 1180   3.692   0.468  11.789 -0.3124  0.6306 -0.0891
   76TMC2    C4 1181   3.868   0.573  11.970  0.0124 -0.2721 -0.0558
   76TMC2    C5 1182   3.793   0.459  11.995  0.6365  0.0541 -0.1308
   76TMC2    C6 1183   3.708   0.401  11.907 -0.3720  0.3321  0.0325
   76TMC2     C 1184   3.898   0.771  11.831  0.6059 -0.6465  0.1582
   76TMC2     O 1185   3.913   0.834  11.933 -0.2325  0.2753  0.2236
   76TMC2     H 1186   3.722   0.635  11.664  0.9846  1.1033  0.9540
   76TMC2    H1 1187   3.927   0.625  12.044  0.2646 -2.1804  1.0790
   76TMC2    H2 1188   3.667   0.304  11.931 -1.8960  0.9829  0.1077
   76TMC2    C7 1189   3.820   0.375  12.105  0.0306 -0.5978 -0.4860
   76TMC2    C8 1190   3.611   0.403  11.687 -0.6793  0.1023 -0.3535
   76TMC2    O1 1191   3.732   0.302  12.144 -0.2579 -0.0586 -0.2053
   76TMC2    O2 1192   3.615   0.445  11.568  0.3746  0.0515  0.1101
   76TMC2    O5 1193   3.544   0.293  11.728 -0.4737 -0.1846 -0.0760
   76TMC2    H5 1194   3.522   0.292  11.823  1.0260 -1.1276  0.2706
   77MPD2     C 1195   4.174   1.128  11.582  0.0806 -0.4194 -0.3880
   77MPD2    C1 1196   4.109   1.142  11.709  0.3813  0.8320  0.7426
   77MPD2    C2 1197   4.040   1.031  11.754  0.8833 -0.0286  0.2344
   77MPD2    C3 1198   4.010   0.921  11.674  0.0177 -0.4933 -0.4626
   77MPD2    C4 1199   4.068   0.916  11.548 -0.6243 -0.0265  0.8857
   77MPD2    C5 1200   4.149   1.016  11.502 -1.2891 -0.0522  0.2087
   77MPD2     H 1201   4.004   1.036  11.856 -1.5332  0.5468 -0.6541
   77MPD2    H1 1202   4.053   0.827  11.488  1.1530 -0.6405  1.3580
   77MPD2    H2 1203   4.236   1.204  11.535 -0.2734  1.7210  2.5610
   77MPD2    H3 1204   4.193   1.003  11.404  2.5845  0.7198  1.8375
   77MPD2     N 1205   3.938   0.802  11.703  0.3110 -0.2000 -0.6799
   77MPD2    H5 1206   3.937   0.733  11.629 -0.6702 -0.9231  0.0122
   77MPD2    N1 1207   4.122   1.252  11.790  0.1595 -0.0590 -0.4128
   77MPD2    H7 1208   4.049   1.263  11.860 -0.5409  0.0490 -1.1486
   78TMC2    C1 1209   4.699   2.442   1.734 -0.6594  0.3626 -0.6551
   78TMC2    C2 1210   4.722   2.429   1.873  0.4047  0.0688  0.9206
   78TMC2    C3 1211   0.085   2.346   1.916  0.6841 -0.6818  0.2667
   78TMC2    C4 1212   0.033   2.363   1.641 -0.1201  0.3912 -0.0058
   78TMC2    C5 1213   0.127   2.272   1.687 -0.5327 -0.4961 -0.5488
   78TMC2    C6 1214   0.151   2.265   1.822  0.5763 -0.4016  0.6924
   78TMC2     C 1215   4.581   2.527   1.699  0.2009  0.1175  0.1506
   78TMC2     O 1216   4.497   2.552   1.784  0.1291  0.1531 -0.2544
   78TMC2     H 1217   4.648   2.460   1.945 -2.1614 -1.0528 -1.2151
   78TMC2    H1 1218   0.026   2.381   1.534  0.8777  0.0150 -0.1351
   78TMC2    H2 1219   0.226   2.194   1.855 -1.3170 -2.2509  1.0525
   78TMC2    C7 1220   0.185   2.169   1.598 -0.7238  0.1243 -0.3215
   78TMC2    C8 1221   0.090   2.304   2.053 -0.5404  0.2257 -0.7041
   78TMC2    O1 1222   0.233   2.066   1.651 -0.2296  1.2380 -0.2685
   78TMC2    O2 1223   0.142   2.196   2.085  0.0418  0.4276  0.4848
   78TMC2    O5 1224   0.044   2.403   2.126 -0.5416 -0.3181  0.1679
   78TMC2    H5 1225   0.037   2.491   2.083 -1.3308 -0.2940  0.3545
   79MPD1     C 1226   4.330   2.864   1.400 -0.2728 -0.3411 -0.1354
   79MPD1    C1 1227   4.347   2.860   1.534 -0.7417  0.4408  0.0983
   79MPD1    C2 1228   4.426   2.766   1.589 -0.4524  0.5530  0.4200
   79MPD1    C3 1229   4.512   2.682   1.510 -0.2682 -0.2729  0.2376
   79MPD1    C4 1230   4.512   2.707   1.372  0.2296 -0.1677  0.7959
   79MPD1    C5 1231   4.421   2.795   1.321  0.2268 -1.0618  0.5292
   79MPD1     H 1232   4.431   2.759   1.697 -0.4807  2.9925  0.5821
   79MPD1    H1 1233   4.572   2.656   1.298  1.7531  1.4171  0.9236
   79MPD1    H2 1234   4.257   2.934   1.360 -0.1176  0.7809  1.5833
   79MPD1    H3 1235   4.416   2.808   1.214  1.6647 -1.4405  0.4224
   79MPD1     N 1236   4.592   2.580   1.569  0.6131  0.7261 -0.2063
   79MPD1    H5 1237   4.667   2.538   1.514  2.8666  0.3822  3.0899
   79MPD1    N1 1238   4.268   2.948   1.616 -0.5506 -0.3589 -0.2439
   79MPD1    H6 1239   4.305   2.965   1.710 -0.7076 -2.2232  0.1631
   79MPD1    H7 1240   4.261   3.035   1.565  0.4061  0.9670  1.8713
   80TMC2    C1 1241   3.541   4.609  12.286 -0.1968  0.1384  0.1025
   80TMC2    C2 1242   3.567   4.670  12.164 -0.7065  0.1293  0.3203
   80TMC2    C3 1243   3.488   4.642  12.058 -0.1824  0.7762 -0.2198
   80TMC2    C4 1244   3.432   4.524  12.293  0.3518  0.4037 -0.2532
   80TMC2    C5 1245   3.366   4.489  12.180 -1.0462 -0.0387 -0.6290
   80TMC2    C6 1246   3.391   4.552  12.058 -0.1445 -0.7024 -0.4487
   80TMC2     C 1247   3.617   4.653  12.400 -0.0575  0.5833  0.5829
   80TMC2     O 1248   3.739   4.641  12.399  0.2524 -0.3877 -0.2939
   80TMC2     H 1249   3.639   0.014  12.166 -1.6026  0.8779  1.8961
   80TMC2    H1 1250   3.415   4.483  12.392 -0.6210  0.4634 -0.3942
   80TMC2    H2 1251   3.328   4.545  11.970 -0.8344  0.8395 -0.0749
   80TMC2    C7 1252   3.226   4.467  12.215 -0.3270 -0.4660  0.3754
   80TMC2    C8 1253   3.536   4.680  11.929 -0.4804  0.3686  0.0052
   80TMC2    O1 1254   3.153   4.520  12.133  0.1983  0.3982 -0.2794
   80TMC2    O2 1255   3.622   0.031  11.910 -0.8825  0.2579  0.4563
   80TMC2    O5 1256   3.564   4.557  11.870 -0.3201  0.1912 -0.2941
   80TMC2    H5 1257   3.504   4.483  11.894 -0.8320  0.9866  0.8695
   81MPD2     C 1258   3.690   4.709  12.679  0.4927 -0.0454 -0.1783
   81MPD2    C1 1259   3.577   0.019  12.616 -0.7040  0.1196 -0.0132
   81MPD2    C2 1260   3.486   0.095  12.682 -0.1661 -0.2147  0.5744
   81MPD2    C3 1261   3.503   0.137  12.812 -0.5422  0.0787  0.2311
   81MPD2    C4 1262   3.605   0.076  12.878  0.4342  0.3203  0.1079
   81MPD2    C5 1263   3.698   0.006  12.811 -0.6728 -0.4078 -0.4591
   81MPD2     H 1264   3.407   0.123  12.613 -0.1089 -1.2651  0.0721
   81MPD2    H1 1265   3.627   0.093  12.983  0.9557 -1.0791  0.2236
   81MPD2    H2 1266   3.761   4.634  12.645  0.3144  0.4781 -1.7120
   81MPD2    H3 1267   3.791   4.706  12.852 -1.4651 -1.1177  0.7043
   81MPD2     N 1268   3.410   0.214  12.886  0.3410 -0.1478  0.5406
   81MPD2    H5 1269   3.424   0.212  12.986  0.7047 -0.7273  0.4794
   81MPD2    N1 1270   3.539   4.715  12.490  0.0498 -0.2235 -0.0482
   81MPD2    H7 1271   3.451   0.015  12.456  0.5012  0.1978 -0.7569
   82TMC2    C1 1272   1.593   4.448  11.511 -0.3717 -0.2290 -0.0505
   82TMC2    C2 1273   1.717   4.453  11.571  0.3185 -0.5908  0.2306
   82TMC2    C3 1274   1.749   4.349  11.652  0.1279  0.3231  0.3197
   82TMC2    C4 1275   1.504   4.345  11.524  0.3186 -0.5187 -0.3550
   82TMC2    C5 1276   1.540   4.243  11.610  0.5377 -0.4191  0.6058
   82TMC2    C6 1277   1.656   4.250  11.679 -0.1673 -0.2855 -0.1180
   82TMC2     C 1278   1.543   4.573  11.453 -0.1051  0.2165 -0.4563
   82TMC2     O 1279   1.424   4.579  11.435  0.2226 -0.1221  0.0407
   82TMC2     H 1280   1.787   4.534  11.558  1.5233 -1.3970  1.7594
   82TMC2    H1 1281   1.411   4.338  11.467 -0.4927  0.4314  0.8546
   82TMC2    H2 1282   1.697   4.169  11.738  0.1741 -0.8219 -1.0912
   82TMC2    C7 1283   1.468   4.116  11.629  0.3367  0.9837 -0.0839
   82TMC2    C8 1284   1.868   4.371  11.733  0.1551 -0.2818 -0.4615
   82TMC2    O1 1285   1.513   4.033  11.702 -0.3156 -0.3721 -0.8418
   82TMC2    O2 1286   1.954   4.450  11.701  0.2248  0.4298 -0.2358
   82TMC2    O5 1287   1.853   4.322  11.858 -0.0606 -0.6215 -0.3533
   82TMC2    H5 1288   1.776   4.263  11.875  0.5902 -0.9719  1.3499
   83MPD2     C 1289   1.573   0.309  11.249 -0.4467 -0.1278  0.1009
   83MPD2    C1 1290   1.468   0.244  11.300 -0.8369  0.0264 -1.0967
   83MPD2    C2 1291   1.485   0.123  11.360 -0.1564 -0.0874  0.6573
   83MPD2    C3 1292   1.609   0.060  11.356  1.7599  0.4207  1.1881
   83MPD2    C4 1293   1.719   0.128  11.302  0.5785  0.2320  0.1569
   83MPD2    C5 1294   1.701   0.251  11.248 -0.4737 -0.0181 -0.0503
   83MPD2     H 1295   1.398   0.075  11.403 -1.8497  1.6690 -0.8444
   83MPD2    H1 1296   1.814   0.078  11.291  1.2393  1.9216 -1.8739
   83MPD2    H2 1297   1.568   0.402  11.192  0.7553 -0.8321 -1.1662
   83MPD2    H3 1298   1.783   0.298  11.195  0.0606  0.8763  1.5583
   83MPD2     N 1299   1.634   4.669  11.412 -0.6561  0.1727  0.1132
   83MPD2    H5 1300   1.732   4.644  11.420 -0.9777 -1.2768 -0.5029
   83MPD2    N1 1301   1.346   0.307  11.284  0.8644  0.2728 -0.5731
   83MPD2    H7 1302   1.340   0.402  11.250 -1.2681  1.1929  2.3639
   84TMC2    C1 1303   2.899   3.618  10.746 -1.0183 -0.2910 -0.2850
   84TMC2    C2 1304   2.809   3.531  10.687  0.0394 -0.8150  0.1089
   84TMC2    C3 1305   2.842   3.469  10.569  0.4796  0.5910  0.5158
   84TMC2    C4 1306   3.024   3.630  10.688  0.0147  0.7281  0.6146
   84TMC2    C5 1307   3.061   3.549  10.583 -0.2075  0.1275 -0.0563
   84TMC2    C6 1308   2.971   3.468  10.519 -0.0548 -0.4013  0.3434
   84TMC2     C 1309   2.868   3.656  10.880 -0.5568  0.2103 -0.3976
   84TMC2     O 1310   2.752   3.668  10.915  0.1042 -0.5212 -0.3929
   84TMC2     H 1311   2.712   3.521  10.735 -0.7216 -1.3517 -1.5546
   84TMC2    H1 1312   3.087   3.705  10.734  1.9950 -2.3901  3.0141
   84TMC2    H2 1313   2.987   3.424  10.422 -0.5054 -1.4999  0.7660
   84TMC2    C7 1314   3.177   3.591  10.502 -0.0435 -0.5579  0.4804
   84TMC2    C8 1315   2.753   3.372  10.525 -0.3242 -0.0074  0.0577
   84TMC2    O1 1316   3.227   3.699  10.508  0.1754 -0.2878 -0.5019
   84TMC2    O2 1317   2.761   3.339  10.407 -0.1767 -0.1383  0.1822
   84TMC2    O5 1318   2.756   3.285  10.628 -0.2926 -0.3186  0.2037
   84TMC2    H5 1319   2.761   3.331  10.714  1.2864  0.4672 -0.2914
   85TMC2    C1 1320   3.402   2.063  16.345  0.1334  0.1939  1.0412
   85TMC2    C2 1321   3.428   2.194  16.387  0.0416 -0.0194 -0.0596
   85TMC2    C3 1322   3.512   2.260  16.305 -0.4826 -0.1129 -1.1210
   85TMC2    C4 1323   3.450   2.006  16.236 -0.2709 -0.3419  0.0626
   85TMC2    C5 1324   3.535   2.085  16.159 -0.4787 -0.3432 -0.1055
   85TMC2    C6 1325   3.568   2.208  16.192  0.1441 -0.2076  0.1915
   85TMC2     C 1326   3.272   2.023  16.388  0.6312  0.3211  0.9545
   85TMC2     O 1327   3.204   2.112  16.436  0.4776  0.2263 -0.7770
   85TMC2     H 1328   3.383   2.237  16.476  0.4261 -1.5491  0.8685
   85TMC2    H1 1329   3.422   1.907  16.203  0.2903 -1.1951  2.1871
   85TMC2    H2 1330   3.640   2.257  16.128 -1.1866  0.9385 -0.4373
   85TMC2    C7 1331   3.596   2.025  16.042 -0.2766 -0.1510  0.0225
   85TMC2    C8 1332   3.556   2.397  16.326 -0.2757 -0.1063  0.2968
   85TMC2    O1 1333   3.617   1.905  16.040 -0.2871 -0.1585 -0.2858
   85TMC2    O2 1334   3.610   2.459  16.231  0.4565 -0.0762 -0.1957
   85TMC2    O5 1335   3.592   2.414  16.456  0.2929 -0.6222 -0.2267
   85TMC2    H5 1336   3.568   2.343  16.520  0.8691 -0.1148  0.5514
   86MPD2     C 1337   2.895   1.689  16.439 -0.3125 -0.2516 -0.3998
   86MPD2    C1 1338   2.999   1.624  16.383 -0.0079  0.1022 -0.3726
   86MPD2    C2 1339   3.112   1.698  16.357 -0.0103  0.0497 -0.3588
   86MPD2    C3 1340   3.123   1.826  16.392 -0.3663 -0.0041  0.1601
   86MPD2    C4 1341   3.005   1.890  16.435 -0.8633  0.5935  0.1305
   86MPD2    C5 1342   2.894   1.821  16.464  0.2288 -0.9309 -1.3345
   86MPD2     H 1343   3.203   1.649  16.323 -0.4546 -1.1991  0.2534
   86MPD2    H1 1344   2.998   1.996  16.457 -0.0517  0.5514  0.6156
   86MPD2    H2 1345   2.799   1.638  16.441 -0.6622  0.3686 -1.3727
   86MPD2    H3 1346   2.803   1.859  16.510  1.4757  0.9124 -0.4191
   86MPD2     N 1347   3.250   1.887  16.384  0.8034 -0.1051  0.3383
   86MPD2    H5 1348   3.325   1.825  16.355  1.3746  0.5301  0.4447
   86MPD2    N1 1349   3.005   1.483  16.363  0.5830 -0.1963  0.3256
   86MPD2    H7 1350   3.086   1.447  16.314  1.3830  2.0514 -0.0376
   87TMC2    C1 1351   0.053   0.536   0.260 -0.4699 -0.3390  0.2190
   87TMC2    C2 1352   0.103   0.627   0.355  0.5721  0.2867 -0.3348
   87TMC2    C3 1353   0.010   0.700   0.421  0.5991  0.2958 -0.0689
   87TMC2    C4 1354   4.655   0.521   0.244 -0.0703  0.4705 -0.3494
   87TMC2    C5 1355   4.569   0.612   0.307 -0.2746  1.0275  0.0162
   87TMC2    C6 1356   4.619   0.712   0.390  0.1578  0.3466  0.2482
   87TMC2     C 1357   0.138   0.426   0.214  0.0462 -0.3237 -0.1153
   87TMC2     O 1358   0.088   0.342   0.137 -0.7094 -0.2482 -0.3045
   87TMC2     H 1359   0.207   0.638   0.385  0.8291 -1.1482 -0.7257
   87TMC2    H1 1360   4.622   0.447   0.173  2.0914  1.9088 -2.8678
   87TMC2    H2 1361   4.556   0.781   0.444  1.1154  1.5227 -0.1326
   87TMC2    C7 1362   4.426   0.608   0.286  0.3296 -0.1083 -0.7084
   87TMC2    C8 1363   0.060   0.787   0.520 -0.4623 -0.0766  0.4109
   87TMC2    O1 1364   4.386   0.581   0.174  0.5176  0.0292 -0.0968
   87TMC2    O2 1365   0.173   0.829   0.517 -0.5785 -0.1487  0.4088
   87TMC2    O5 1366   4.733   0.766   0.643  0.4547  0.2306  0.7284
   87TMC2    H5 1367   4.648   0.721   0.625  0.3470  0.6155  0.2481
   88MPD2     C 1368   4.155   0.657   0.517  0.1309  0.5776 -0.1645
   88MPD2    C1 1369   4.214   0.669   0.396 -0.0975  0.2091  0.1557
   88MPD2    C2 1370   4.140   0.706   0.284  0.1178  0.6140  0.0001
   88MPD2    C3 1371   4.012   0.756   0.306  0.0711  0.2887  0.1631
   88MPD2    C4 1372   3.956   0.757   0.430  0.5198  0.1211  0.2835
   88MPD2    C5 1373   4.028   0.710   0.537  0.3117 -0.7831  1.3133
   88MPD2     H 1374   4.184   0.708   0.185  0.5873 -0.1693  0.1901
   88MPD2    H1 1375   3.854   0.794   0.439  0.8566  0.9604  0.6375
   88MPD2    H2 1376   4.209   0.619   0.603  0.4116 -0.4695 -0.8086
   88MPD2    H3 1377   3.980   0.722   0.633  0.4699 -0.1342  1.3062
   88MPD2     N 1378   3.926   0.808   0.203  0.0945 -0.8225 -1.1123
   88MPD2    H5 1379   3.835   0.846   0.229  1.4039  1.0280  0.7786
   88MPD2    N1 1380   4.352   0.636   0.393 -0.1053  0.2238  0.0276
   88MPD2    H7 1381   4.403   0.632   0.481  0.5592  2.1458 -0.2812
   89TMC2    C1 1382   1.677   3.431   1.723  0.3601 -0.2014 -0.5594
   89TMC2    C2 1383   1.721   3.363   1.612  0.0419  0.4179  0.1548
   89TMC2    C3 1384   1.845   3.397   1.559 -0.6130  0.8030 -0.8087
   89TMC2    C4 1385   1.750   3.533   1.787 -0.1433 -0.0936 -0.0269
   89TMC2    C5 1386   1.870   3.568   1.727 -1.0598 -0.1814  0.3836
   89TMC2    C6 1387   1.921   3.496   1.614  0.5348  0.6877 -0.7756
   89TMC2     C 1388   1.556   3.392   1.789 -0.4147  0.2326 -0.0642
   89TMC2     O 1389   1.511   3.469   1.871 -0.4187 -0.2385 -0.0756
   89TMC2     H 1390   1.650   3.312   1.547  0.3702 -1.3498  1.1798
   89TMC2    H1 1391   1.707   3.598   1.863  0.1483  0.6248 -0.4749
   89TMC2    H2 1392   2.023   3.517   1.581  1.5243 -2.9151 -0.0213
   89TMC2    C7 1393   1.929   3.697   1.768  0.5561 -0.5493  0.6816
   89TMC2    C8 1394   1.901   3.327   1.450 -0.2908 -0.1074  0.3093
   89TMC2    O1 1395   1.879   3.762   1.858  0.2593  0.0612  0.5956
   89TMC2    O2 1396   1.997   3.368   1.385 -0.0059 -0.3955  0.6579
   89TMC2    O5 1397   1.876   3.197   1.468 -0.1393 -0.7010  0.1455
   89TMC2    H5 1398   1.812   3.180   1.541  1.5607  0.0164  1.8030
   90MPD2     C 1399   1.193   3.043   1.864  0.0663 -0.6108 -0.4870
   90MPD2    C1 1400   1.294   2.980   1.796 -0.8072 -0.6740  0.4533
   90MPD2    C2 1401   1.401   3.059   1.755 -0.7012 -0.4332 -0.3640
   90MPD2    C3 1402   1.403   3.194   1.786  0.3013  0.1092  0.0516
   90MPD2    C4 1403   1.297   3.258   1.850 -0.2398 -0.0448  1.0350
   90MPD2    C5 1404   1.196   3.179   1.889  0.0290  0.6439  0.2208
   90MPD2     H 1405   1.488   3.009   1.715 -0.1964  0.0902  0.0874
   90MPD2    H1 1406   1.308   3.365   1.864 -1.1803  0.4747 -2.0078
   90MPD2    H2 1407   1.109   2.990   1.906  0.6674 -1.2257 -0.0528
   90MPD2    H3 1408   1.117   3.228   1.944  0.3509 -0.3089  1.5508
   90MPD2     N 1409   1.524   3.263   1.757 -0.2740  0.0655  0.4780
   90MPD2    H5 1410   1.596   3.203   1.718  1.2497  2.6840 -0.6588
   90MPD2    N1 1411   1.308   2.838   1.777  0.3879 -0.5218  0.0103
   90MPD2    H7 1412   1.392   2.810   1.729 -0.3663 -0.3266 -1.4460
   91TMC2    C1 1413   2.842   2.485  16.626  0.3371  0.1525  0.0081
   91TMC2    C2 1414   2.880   2.529  16.753  0.4126  0.3708  0.0341
   91TMC2    C3 1415   2.787   2.510  16.856 -0.3035  0.2089 -0.9336
   91TMC2    C4 1416   2.718   2.447  16.599  0.3385  0.1594  0.4876
   91TMC2    C5 1417   2.632   2.423  16.704 -0.2608 -0.8737  0.2338
   91TMC2    C6 1418   2.664   2.464  16.829 -0.4581 -0.4529  0.3143
   91TMC2     C 1419   2.919   2.521  16.514  0.1112  0.0314  0.5029
   91TMC2     O 1420   2.887   2.464  16.412 -0.3165 -0.1060 -0.3103
   91TMC2     H 1421   2.979   2.564  16.782  1.6884 -2.5949 -0.6820
   91TMC2    H1 1422   2.697   2.407  16.500 -1.2197  0.5478  0.6550
   91TMC2    H2 1423   2.588   2.464  16.906  0.3931  1.5161  1.1509
   91TMC2    C7 1424   2.496   2.376  16.678  0.5696 -0.0671  0.4929
   91TMC2    C8 1425   2.819   2.585  16.978 -0.3163  0.2301 -0.0209
   91TMC2    O1 1426   2.435   2.323  16.770 -0.4097 -0.1160 -0.4216
   91TMC2    O2 1427   2.867   2.698  16.981 -0.2948  0.2263  0.4354
   91TMC2    O5 1428   2.738   2.543  17.075 -0.0268  0.1102 -0.3765
   91TMC2    H5 1429   2.700   2.453  17.066  0.3809  0.0074 -1.1000
   92MPD2     C 1430   3.091   2.646  16.306  0.6525  0.5257 -0.2370
   92MPD2    C1 1431   3.129   2.632  16.436  0.4538 -1.0999  0.8178
   92MPD2    C2 1432   3.258   2.652  16.480 -0.1497  0.1332 -0.2742
   92MPD2    C3 1433   3.347   2.705  16.387 -0.3038 -0.6236 -0.4178
   92MPD2    C4 1434   3.307   2.736  16.254  0.7099  0.3948  0.9287
   92MPD2    C5 1435   3.181   2.700  16.222  0.0205 -0.1498  0.7751
   92MPD2     H 1436   3.296   2.645  16.581  1.8807  0.1133 -1.0301
   92MPD2    H1 1437   3.372   2.768  16.173 -1.4403  0.3556 -0.7910
   92MPD2    H2 1438   2.992   2.624  16.268  0.3768 -1.2024  1.5326
   92MPD2    H3 1439   3.155   2.723  16.120  1.9161 -2.8850 -0.3246
   92MPD2     N 1440   3.473   2.727  16.445  0.4888 -0.1991  0.0169
   92MPD2    H5 1441   3.482   2.701  16.542 -0.9650  1.8152  0.7033
   92MPD2    N1 1442   3.031   2.598  16.537  0.3011 -0.6431 -0.1437
   92MPD2    H7 1443   3.053   2.628  16.632  1.2552  0.9491 -0.8663
   93TMC2    C1 1444   0.712   2.509  14.059 -0.3525 -0.3785 -0.0091
   93TMC2    C2 1445   0.675   2.470  14.185  0.3329 -0.5500  0.8889
   93TMC2    C3 1446   0.767   2.504  14.282 -0.5310  0.1444  0.3037
   93TMC2    C4 1447   0.832   2.567  14.034  0.0786  0.4959  0.9351
   93TMC2    C5 1448   0.920   2.590  14.138  0.4880  0.1132 -0.6025
   93TMC2    C6 1449   0.884   2.562  14.264 -0.8469  0.1027 -0.1100
   93TMC2     C 1450   0.622   2.487  13.943 -0.5448 -0.1088 -0.3606
   93TMC2     O 1451   0.672   2.478  13.834  0.0098  0.3940 -0.6179
   93TMC2     H 1452   0.581   2.432  14.224 -0.2597 -2.6275 -2.5588
   93TMC2    H1 1453   0.860   2.605  13.936 -0.0469  2.0816  1.5059
   93TMC2    H2 1454   0.946   2.580  14.350  0.3324 -0.4881 -0.8439
   93TMC2    C7 1455   1.038   2.670  14.115 -0.6714 -0.3951  0.3075
   93TMC2    C8 1456   0.737   2.461  14.417  0.5112  0.3199 -0.3391
   93TMC2    O1 1457   1.125   2.636  14.034 -0.3228  0.1192 -0.4023
   93TMC2    O2 1458   0.814   2.401  14.493 -0.2781  0.3215  0.0041
   93TMC2    O5 1459   0.664   2.557  14.469 -0.6783  0.2671  0.2683
   93TMC2    H5 1460   0.632   2.618  14.398  0.6711  0.3592 -0.2618
   94MPD2     C 1461   0.404   2.396  13.774  0.7599  0.4087 -0.6905
   94MPD2    C1 1462   0.383   2.450  13.897 -0.3871  0.4426 -0.1107
   94MPD2    C2 1463   0.261   2.474  13.944 -0.8646 -0.1574  0.4147
   94MPD2    C3 1464   0.152   2.448  13.861 -0.9360 -0.3739 -0.0674
   94MPD2    C4 1465   0.182   2.394  13.731 -0.3782 -0.1975 -0.4796
   94MPD2    C5 1466   0.305   2.375  13.688  0.2811  0.3332  0.7786
   94MPD2     H 1467   0.247   2.510  14.045  1.4889 -2.3397  1.5396
   94MPD2    H1 1468   0.099   2.365  13.666 -1.8460 -0.4638  1.5155
   94MPD2    H2 1469   0.506   2.384  13.738  1.5250  2.1982  0.9290
   94MPD2    H3 1470   0.338   2.330  13.595  0.0182 -1.6068  1.6159
   94MPD2     N 1471   0.015   2.479  13.888  0.1866  0.5030  0.3371
   94MPD2    H5 1472   4.684   2.458  13.816 -1.8716  1.2339  2.0674
   94MPD2    N1 1473   0.490   2.479  13.986  0.2129 -0.6143  0.1100
   94MPD2    H7 1474   0.473   2.495  14.084  1.5266  0.5157  0.1479
   95TMC2    C1 1475   1.075   3.946  15.452 -0.1140  0.5776 -0.1549
   95TMC2    C2 1476   1.150   3.830  15.438  0.4762  0.1965 -0.5992
   95TMC2    C3 1477   1.103   3.722  15.365  0.0077  0.5569 -0.6911
   95TMC2    C4 1478   0.950   3.950  15.388 -0.1035  0.3045 -0.3771
   95TMC2    C5 1479   0.912   3.834  15.318 -0.1528 -0.0602  0.2301
   95TMC2    C6 1480   0.979   3.722  15.314 -0.4601 -0.1306 -0.1779
   95TMC2     C 1481   1.151   4.063  15.483 -0.7725  0.1291 -0.5503
   95TMC2     O 1482   1.094   4.169  15.456 -0.4459 -0.4404  0.9629
   95TMC2     H 1483   1.255   3.821  15.462  0.5237  2.2343 -0.0521
   95TMC2    H1 1484   0.888   4.038  15.399 -0.9194 -0.4732  1.2643
   95TMC2    H2 1485   0.933   3.635  15.267  1.3127 -0.9410 -0.4004
   95TMC2    C7 1486   0.771   3.820  15.291  0.1456  0.0590  0.3208
   95TMC2    C8 1487   1.191   3.604  15.356  0.2629  0.0572  0.4177
   95TMC2    O1 1488   0.719   3.712  15.315  0.2283  0.2893  0.6092
   95TMC2    O2 1489   1.261   3.562  15.448  0.4333 -0.3628 -0.2069
   95TMC2    O5 1490   1.198   3.573  15.225  0.2001  0.0468  0.0819
   95TMC2    H5 1491   1.128   3.600  15.162 -0.2043 -0.2099  0.4172
   96MPD2     C 1492   1.522   4.361  15.642  0.8504 -0.1774 -0.4778
   96MPD2    C1 1493   1.421   4.379  15.543 -0.1671  0.1104  0.0338
   96MPD2    C2 1494   1.335   4.276  15.520 -0.7176 -0.0248 -0.3610
   96MPD2    C3 1495   1.354   4.150  15.579  0.1422  0.6152  0.2199
   96MPD2    C4 1496   1.449   4.131  15.672 -0.4762  0.1568  0.3211
   96MPD2    C5 1497   1.527   4.239  15.709 -0.3872  0.3643  0.7919
   96MPD2     H 1498   1.267   4.287  15.436 -1.2385  1.1392  0.2210
   96MPD2    H1 1499   1.470   4.040  15.728 -0.5126  0.5607  1.0018
   96MPD2    H2 1500   1.585   4.445  15.672 -0.3232  0.3360  0.5669
   96MPD2    H3 1501   1.603   4.229  15.786 -0.3439  0.2825  0.7390
   96MPD2     N 1502   1.270   4.041  15.551 -0.7530 -0.7889 -0.0486
   96MPD2    H5 1503   1.297   3.949  15.582  0.1152 -0.6755 -0.4598
   96MPD2    N1 1504   1.417   4.501  15.475  0.7239  0.0961 -0.1845
   96MPD2    H7 1505   1.464   4.580  15.519 -1.1379  0.5510  0.9867
   97TMC2    C1 1506   2.709   2.248   0.225 -0.1428  0.3191 -0.0186
   97TMC2    C2 1507   2.804   2.157   0.182  0.0416 -0.2731  0.7887
   97TMC2    C3 1508   2.931   2.182   0.203 -0.2281  0.1147  0.0480
   97TMC2    C4 1509   2.744   2.369   0.276  0.6144 -0.4577 -0.1527
   97TMC2    C5 1510   2.875   2.394   0.286  0.3816 -0.2359  0.1995
   97TMC2    C6 1511   2.967   2.303   0.251 -0.4482  0.7562  0.3440
   97TMC2     C 1512   2.576   2.201   0.245 -0.8156 -0.5786 -0.6417
   97TMC2     O 1513   2.514   2.251   0.341  0.2557 -0.0737  0.7918
   97TMC2     H 1514   2.779   2.055   0.156 -0.6426 -0.1893  1.1190
   97TMC2    H1 1515   2.667   2.438   0.309  0.2911 -0.9436  0.1160
   97TMC2    H2 1516   3.070   2.337   0.255 -0.3601  0.6385 -0.8549
   97TMC2    C7 1517   2.930   2.529   0.298  0.3974  0.2607 -0.9405
   97TMC2    C8 1518   3.026   2.106   0.127  0.1828 -0.0534  0.5792
   97TMC2    O1 1519   3.047   2.539   0.326 -0.2097  0.7856  0.3807
   97TMC2    O2 1520   3.002   2.029   0.035 -0.7134 -0.2696  0.2137
   97TMC2    O5 1521   3.149   2.119   0.187 -0.3311  0.2275 -0.0832
   97TMC2    H5 1522   3.147   2.175   0.268 -1.3619  0.9327 -0.6033
   98MPD2     C 1523   2.218   1.853   0.143 -0.0274  0.2167  0.3238
   98MPD2    C1 1524   2.242   1.933   0.258 -0.3775 -0.2935 -0.0305
   98MPD2    C2 1525   2.353   2.016   0.261  0.5837 -0.2085  0.5433
   98MPD2    C3 1526   2.427   2.035   0.152 -1.2117  0.7959  0.0170
   98MPD2    C4 1527   2.387   1.978   0.036 -0.3176 -0.1389  0.3615
   98MPD2    C5 1528   2.286   1.888   0.031 -0.3356  0.2113 -0.2956
   98MPD2     H 1529   2.378   2.073   0.350 -0.7296  1.1114  0.0723
   98MPD2    H1 1530   2.440   1.992  17.689  1.1631  1.8848  1.4913
   98MPD2    H2 1531   2.144   1.774   0.137 -0.4420  0.6053  0.3456
   98MPD2    H3 1532   2.274   1.845  17.679  1.4485  0.9229 -0.8221
   98MPD2     N 1533   2.543   2.116   0.146  0.2744 -0.1040  0.5919
   98MPD2    H5 1534   2.598   2.110   0.061 -0.4858  0.2072  0.0713
   98MPD2    N1 1535   2.161   1.909   0.372  1.3266 -0.0206  0.4073
   98MPD2    H7 1536   2.086   1.843   0.355  1.3390  0.7177 -2.4802
   99TMC2    C1 1537   1.192   0.289   0.925  0.0471  0.3837  0.4889
   99TMC2    C2 1538   1.225   0.419   0.950  0.3912  0.3133 -0.0900
   99TMC2    C3 1539   1.130   0.488   1.015 -0.0444 -0.0210 -0.2851
   99TMC2    C4 1540   1.072   0.232   0.961  0.4838  0.1645 -0.3613
   99TMC2    C5 1541   0.996   0.306   1.047  0.2484 -0.1398 -0.2609
   99TMC2    C6 1542   1.021   0.433   1.073 -0.1795 -0.3978 -0.5334
   99TMC2     C 1543   1.309   0.216   0.874  0.1497  0.3714 -0.4734
   99TMC2     O 1544   1.421   0.260   0.902  0.6490 -0.0490 -0.1341
   99TMC2     H 1545   1.318   0.465   0.920 -0.5803  1.0839 -1.9522
   99TMC2    H1 1546   1.043   0.132   0.934 -0.8821  0.0946  1.3150
   99TMC2    H2 1547   0.956   0.491   1.138 -0.1916 -1.4052  0.3649
   99TMC2    C7 1548   0.854   0.272   1.051 -0.3589  0.4984 -0.4138
   99TMC2    C8 1549   1.137   0.630   1.029  0.3197 -0.1255  0.2594
   99TMC2    O1 1550   0.783   0.357   1.106  0.0397 -0.5333 -0.1153
   99TMC2    O2 1551   1.038   0.700   1.049 -0.3898  0.2389 -0.1602
   99TMC2    O5 1552   1.257   0.650   1.085 -0.0866  0.2319  0.2597
   99TMC2    H5 1553   1.312   0.569   1.081  1.3212  1.1063  2.0055
  100MPD2     C 1554   1.512   0.019   0.783 -0.1217  0.2627 -0.2276
  100MPD2    C1 1555   1.374   4.735   0.774 -0.2857  1.0035  0.3697
  100MPD2    C2 1556   1.331   4.613   0.727  0.6538  0.7718  0.4043
  100MPD2    C3 1557   1.422   4.524   0.675  0.2613 -0.8474  0.3122
  100MPD2    C4 1558   1.556   4.546   0.688 -0.8453 -0.9186  0.0982
  100MPD2    C5 1559   1.603   4.662   0.738  0.4498  0.9841  0.1166
  100MPD2     H 1560   1.228   4.580   0.728  0.4216  1.5309  1.2584
  100MPD2    H1 1561   1.631   4.479   0.649 -0.8826 -0.6631 -0.4037
  100MPD2    H2 1562   1.560   0.112   0.812  0.3240 -0.0516  0.0405
  100MPD2    H3 1563   1.710   4.672   0.751  0.4729 -0.7567  1.3095
  100MPD2     N 1564   1.362   4.397   0.628 -0.4306 -0.8230  0.4042
  100MPD2    H5 1565   1.262   4.397   0.615 -0.3388 -1.4094 -0.3055
  100MPD2    N1 1566   1.277   0.094   0.817 -0.5574 -0.2729 -0.6567
  100MPD2    H7 1567   1.179   0.066   0.813 -0.8509  0.8675 -1.3712
  101TMC2    C1 1568   2.330   0.108  13.433 -0.0409 -0.1628  0.6305
  101TMC2    C2 1569   2.427   0.099  13.530  0.5397 -0.5296 -0.8423
  101TMC2    C3 1570   2.517   0.197  13.532  0.7659  0.0642 -0.1298
  101TMC2    C4 1571   2.319   0.204  13.335  0.3915 -0.5506  0.5929
  101TMC2    C5 1572   2.416   0.297  13.341 -0.3240 -0.4999 -0.1461
  101TMC2    C6 1573   2.511   0.293  13.444  0.4054 -0.0993 -0.6015
  101TMC2     C 1574   2.211   0.023  13.454  0.2165 -0.6584 -0.3261
  101TMC2     O 1575   2.101   0.071  13.426  0.0720 -0.6431  0.4239
  101TMC2     H 1576   2.427   0.036  13.618  2.6999  2.7247  1.4683
  101TMC2    H1 1577   2.254   0.190  13.249  0.7652 -0.6183  0.3202
  101TMC2    H2 1578   2.598   0.358  13.445 -0.5336  1.1163  1.5969
  101TMC2    C7 1579   2.431   0.391  13.235  0.5337 -0.1321  0.1055
  101TMC2    C8 1580   2.545   0.230  13.669 -0.4083  1.0434  0.0073
  101TMC2    O1 1581   2.544   0.424  13.212 -0.1296 -0.4957  0.3139
  101TMC2    O2 1582   2.472   0.205  13.762  0.1317  0.8290  0.0653
  101TMC2    O5 1583   2.651   0.310  13.674  0.0915  0.1272 -0.3625
  101TMC2    H5 1584   2.711   0.317  13.596  0.1145 -0.0819 -0.3633
  102MPD2     C 1585   2.208   4.400  13.524  0.1813 -0.3517 -0.3396
  102MPD2    C1 1586   2.164   4.529  13.535 -0.0848  0.0301 -0.6941
  102MPD2    C2 1587   2.035   4.549  13.577  0.9415 -0.0090  0.4401
  102MPD2    C3 1588   1.951   4.442  13.603 -0.2930 -0.8675 -0.3096
  102MPD2    C4 1589   1.999   4.309  13.602 -0.3526 -0.2424  0.2007
  102MPD2    C5 1590   2.129   4.294  13.555  0.4303 -0.2853  0.2403
  102MPD2     H 1591   1.997   4.648  13.600 -1.3173 -1.1973  1.8075
  102MPD2    H1 1592   1.940   4.224  13.634  2.9333 -2.9691 -0.9408
  102MPD2    H2 1593   2.314   4.378  13.510 -0.3847 -3.0306 -0.5033
  102MPD2    H3 1594   2.175   4.196  13.565  0.8487  0.0130  1.1611
  102MPD2     N 1595   1.816   4.475  13.633 -0.3383  0.1355  0.2471
  102MPD2    H5 1596   1.785   4.571  13.620 -0.9686  0.0128  0.8188
  102MPD2    N1 1597   2.249   4.641  13.518  0.0929 -0.0526 -0.5891
  102MPD2    H7 1598   2.348   4.621  13.518  0.3968  1.4278 -0.2633
  103TMC2    C1 1599   4.371   0.553  12.689 -0.1464 -0.2674  0.0613
  103TMC2    C2 1600   4.438   0.610  12.583  0.8207  0.1261  0.3898
  103TMC2    C3 1601   4.545   0.687  12.621  0.1447  0.5125  0.0174
  103TMC2    C4 1602   4.405   0.570  12.816 -0.3950 -0.3452  0.2875
  103TMC2    C5 1603   4.495   0.667  12.846  0.7439 -0.1939  0.1431
  103TMC2    C6 1604   4.565   0.733  12.749 -0.1702  0.8642 -0.5485
  103TMC2     C 1605   4.292   0.442  12.652 -0.6415  0.0018  0.1391
  103TMC2     O 1606   4.279   0.353  12.734 -0.1499 -0.5886 -0.1999
  103TMC2     H 1607   4.435   0.578  12.480  0.0531 -1.1184  0.7962
  103TMC2    H1 1608   4.355   0.507  12.888 -1.0390 -1.3517 -1.0522
  103TMC2    H2 1609   4.640   0.806  12.777  0.4118  0.7100 -1.6911
  103TMC2    C7 1610   4.544   0.665  12.984  1.3647 -0.2459  0.6561
  103TMC2    C8 1611   4.633   0.754  12.524  0.5607 -0.2339 -0.0752
  103TMC2    O1 1612   4.665   0.690  12.998 -0.5411  0.2680  0.9108
  103TMC2    O2 1613   4.586   0.830  12.441 -0.6279 -0.3109  0.1032
  103TMC2    O5 1614   0.026   0.716  12.534  0.2877 -0.4468 -0.0366
  103TMC2    H5 1615   0.048   0.645  12.598  0.1984 -1.1071 -0.7281
  104MPD2     C 1616   4.082   0.262  12.535  0.5013  0.7093 -0.4768
  104MPD2    C1 1617   4.131   0.380  12.476  0.3046  0.1176  0.0763
  104MPD2    C2 1618   4.077   0.431  12.358  0.1165 -1.0362  0.2681
  104MPD2    C3 1619   3.977   0.358  12.292  0.3211 -0.4606  0.3537
  104MPD2    C4 1620   3.927   0.244  12.352  0.1490  0.1358  0.1817
  104MPD2    C5 1621   3.978   0.198  12.471  0.0948 -0.2101  0.1297
  104MPD2     H 1622   4.115   0.516  12.303 -0.6883 -0.9359 -0.1275
  104MPD2    H1 1623   3.857   0.178  12.302 -0.6830 -0.5251  2.2469
  104MPD2    H2 1624   4.101   0.221  12.633 -0.2922 -1.4322 -1.2258
  104MPD2    H3 1625   3.940   0.111  12.523 -0.4520  0.3906  0.7409
  104MPD2     N 1626   3.937   0.406  12.169 -0.0727 -0.0572 -0.3002
  104MPD2    H5 1627   3.989   0.484  12.128 -0.9242 -0.0918 -1.4338
  104MPD2    N1 1628   4.227   0.464  12.534  0.3626 -0.3928 -0.5007
  104MPD2    H7 1629   4.250   0.551  12.486 -1.6206  1.3369  1.6829
  105TMC2    C1 1630   0.559   4.248   0.170  0.5930  0.3743 -0.3071
  105TMC2    C2 1631   0.435   4.195   0.211  0.1751 -0.4919  1.0415
  105TMC2    C3 1632   0.334   4.289   0.238  0.7159  0.3365 -0.1362
  105TMC2    C4 1633   0.580   4.382   0.160 -0.1860 -0.0426  0.2572
  105TMC2    C5 1634   0.478   4.468   0.185 -0.0917  0.0147  0.6335
  105TMC2    C6 1635   0.355   4.420   0.222  0.5850 -0.7355  0.3757
  105TMC2     C 1636   0.670   4.152   0.174  0.4626  0.2090  0.4471
  105TMC2     O 1637   0.656   4.046   0.237  0.3581  0.6026  0.0447
  105TMC2     H 1638   0.429   4.088   0.230  0.5861 -1.1914 -2.7505
  105TMC2    H1 1639   0.679   4.424   0.146 -0.3983  0.0932 -0.8191
  105TMC2    H2 1640   0.275   4.493   0.231 -0.5487 -1.8751 -0.6483
  105TMC2    C7 1641   0.510   4.605   0.216  0.6418 -0.0577  0.0483
  105TMC2    C8 1642   0.202   4.257   0.296 -0.4919 -0.1235  0.1445
  105TMC2    O1 1643   0.633   4.623   0.232 -0.1168  0.1701  0.0900
  105TMC2    O2 1644   0.139   4.338   0.360  0.3336  0.4104  0.2880
  105TMC2    O5 1645   0.174   4.125   0.275  0.0096  0.4067  0.2397
  105TMC2    H5 1646   0.225   4.079   0.205  0.1147  2.1966 -0.8582
  106MPD2     C 1647   1.157   4.055   0.020 -0.1233  0.0545  0.6037
  106MPD2    C1 1648   1.114   4.170  17.702 -0.0419  0.1195 -0.6362
  106MPD2    C2 1649   0.986   4.219  17.725 -1.0656 -1.0640 -0.6194
  106MPD2    C3 1650   0.903   4.147   0.066  0.0778 -0.4505  0.4113
  106MPD2    C4 1651   0.941   4.029   0.130  0.3617 -0.0371  0.9214
  106MPD2    C5 1652   1.070   3.990   0.105 -0.2892 -0.3092 -0.2693
  106MPD2     H 1653   0.959   4.315  17.682 -1.3619 -0.1417  1.6403
  106MPD2    H1 1654   0.879   3.979   0.204  0.2357 -2.2462 -0.6813
  106MPD2    H2 1655   1.258   4.016   0.020  0.3734  1.2930  1.9529
  106MPD2    H3 1656   1.104   3.909   0.169 -0.1383  0.4714  0.6353
  106MPD2     N 1657   0.775   4.201   0.097  0.0579  0.0537  0.6931
  106MPD2    H5 1658   0.756   4.282   0.038  1.6810 -0.4060 -0.4848
  106MPD2    N1 1659   1.200   4.253  17.623 -0.1486  0.1356  0.0315
  106MPD2    H7 1660   1.159   4.337  17.583 -1.2580 -1.1104 -1.4058
  107TMC2    C1 1661   2.409   3.716  11.708 -0.0946  0.5479  0.6467
  107TMC2    C2 1662   2.318   3.751  11.616 -0.0294  0.2945 -0.8138
  107TMC2    C3 1663   2.365   3.781  11.492  0.5782 -0.6301  0.0526
  107TMC2    C4 1664   2.542   3.693  11.675 -0.4686  0.2238 -0.0198
  107TMC2    C5 1665   2.585   3.728  11.548 -0.4837  0.0898 -0.8405
  107TMC2    C6 1666   2.495   3.768  11.455 -0.5050 -0.5756 -0.4054
  107TMC2     C 1667   2.356   3.670  11.832  0.1703 -0.2231  0.2852
  107TMC2     O 1668   2.253   3.722  11.870 -0.2689  0.1477 -0.3440
  107TMC2     H 1669   2.215   3.737  11.645  0.3059  0.2966  0.4021
  107TMC2    H1 1670   2.613   3.656  11.747 -0.9743  1.6667  1.2118
  107TMC2    H2 1671   2.528   3.813  11.362 -1.3340  1.6219  0.3707
  107TMC2    C7 1672   2.725   3.708  11.514  0.1458 -0.2339 -0.6100
  107TMC2    C8 1673   2.261   3.803  11.392 -0.0859 -0.1145 -0.1052
  107TMC2    O1 1674   2.798   3.677  11.607 -0.1858  0.1894  0.0499
  107TMC2    O2 1675   2.295   3.796  11.275  0.0903  0.2516  0.2126
  107TMC2    O5 1676   2.145   3.857  11.435  0.1663 -0.5188  0.8139
  107TMC2    H5 1677   2.159   3.904  11.521  2.1659  1.2984 -0.5048
  108MPD2     C 1678   2.485   3.408  12.056  0.7113 -0.0739 -0.4149
  108MPD2    C1 1679   2.426   3.528  12.018  0.1342  0.3419 -1.3361
  108MPD2    C2 1680   2.345   3.594  12.110 -0.4564 -0.3029  0.3285
  108MPD2    C3 1681   2.332   3.547  12.239  0.0331  0.1178  0.1065
  108MPD2    C4 1682   2.390   3.427  12.277 -0.9794  0.2885  0.3756
  108MPD2    C5 1683   2.465   3.356  12.181  0.2601 -0.0963  0.0261
  108MPD2     H 1684   2.313   3.697  12.101  0.6136  0.0203  0.2087
  108MPD2    H1 1685   2.375   3.388  12.377 -1.4354  0.5994  0.4254
  108MPD2    H2 1686   2.564   3.363  11.997  2.5738  1.7613  0.6689
  108MPD2    H3 1687   2.519   3.270  12.220  2.5071  1.0615 -0.5274
  108MPD2     N 1688   2.252   3.618  12.335  0.3232 -0.1524 -0.5877
  108MPD2    H5 1689   2.244   3.581  12.429 -0.2614 -1.4372 -1.1387
  108MPD2    N1 1690   2.434   3.576  11.883 -0.5578 -0.3971  0.4564
  108MPD2    H7 1691   2.513   3.540  11.830 -0.0227  0.2352  0.8260
  109TMC2    C1 1692   0.972   1.230   0.492  0.4075  0.6180  0.0405
  109TMC2    C2 1693   1.003   1.141   0.389 -0.0872  0.2374  0.1786
  109TMC2    C3 1694   1.112   1.174   0.310  0.0725 -0.1714 -0.8273
  109TMC2    C4 1695   1.047   1.339   0.520  0.0590 -0.4656  0.0336
  109TMC2    C5 1696   1.156   1.357   0.443  0.4114  0.4438  0.7818
  109TMC2    C6 1697   1.200   1.274   0.348  0.3658  0.1288 -0.1866
  109TMC2     C 1698   0.859   1.194   0.577  0.7955 -0.4598  0.3106
  109TMC2     O 1699   0.778   1.117   0.529  0.9009  0.2800 -0.3302
  109TMC2     H 1700   0.933   1.061   0.366  0.1839 -0.1385  0.6562
  109TMC2    H1 1701   1.027   1.404   0.605 -3.2544 -0.8925 -0.4339
  109TMC2    H2 1702   1.290   1.304   0.295  0.1975  2.1734  0.6602
  109TMC2    C7 1703   1.189   1.497   0.411 -0.1858  0.3379 -0.1229
  109TMC2    C8 1704   1.161   1.077   0.213  0.7074  0.6584  0.1588
  109TMC2    O1 1705   1.098   1.579   0.395  0.2474 -0.4722  0.6704
  109TMC2    O2 1706   1.281   1.075   0.186  0.6580  0.0830 -0.0500
  109TMC2    O5 1707   1.059   1.012   0.156  0.9665  0.3956 -0.7946
  109TMC2    H5 1708   0.966   1.038   0.176  0.3225 -2.5886  0.0393
  110MPD2     C 1709   0.529   1.281   0.971  0.1970 -0.0469 -0.0861
  110MPD2    C1 1710   0.636   1.363   0.990 -0.2965 -0.0767  0.5238
  110MPD2    C2 1711   0.737   1.357   0.888 -0.8234 -0.2636 -0.2370
  110MPD2    C3 1712   0.734   1.275   0.780  0.1070 -0.1784 -0.1467
  110MPD2    C4 1713   0.626   1.192   0.770 -0.3039 -0.1403 -0.1121
  110MPD2    C5 1714   0.527   1.200   0.862  0.6110 -0.4821  0.6243
  110MPD2     H 1715   0.821   1.426   0.886 -0.8176 -0.3181 -1.7615
  110MPD2    H1 1716   0.623   1.119   0.690  1.5738 -0.0139 -0.2914
  110MPD2    H2 1717   0.442   1.288   1.035 -0.3344  1.9525 -1.0016
  110MPD2    H3 1718   0.437   1.142   0.843  0.6890 -0.5346  0.4263
  110MPD2     N 1719   0.851   1.272   0.694  0.3713 -0.3755  0.4518
  110MPD2    H5 1720   0.929   1.332   0.720  1.6419 -1.3413 -1.1139
  110MPD2    N1 1721   0.650   1.443   1.109  0.1324  0.5418 -0.3682
  110MPD2    H7 1722   0.581   1.464   1.180  1.4306 -0.3776  1.1740
  111TMC2    C1 1723   2.065   0.994  11.822  0.6084 -0.5364  0.0806
  111TMC2    C2 1724   1.979   0.901  11.765  0.2339  0.6479  0.1092
  111TMC2    C3 1725   2.010   0.770  11.771 -0.3254  0.7336 -0.3528
  111TMC2    C4 1726   2.186   0.950  11.871 -0.0319 -0.2420 -0.2402
  111TMC2    C5 1727   2.218   0.821  11.843  0.6649  0.2771 -0.4601
  111TMC2    C6 1728   2.134   0.727  11.800  0.3060  0.2623  0.3705
  111TMC2     C 1729   2.069   1.125  11.756 -0.1591 -0.1643 -0.0505
  111TMC2     O 1730   2.177   1.171  11.724  0.1349  0.2888 -0.2254
  111TMC2     H 1731   1.877   0.937  11.751  0.0245  0.8745  2.1556
  111TMC2    H1 1732   2.264   1.024  11.884 -0.2775  0.1268 -0.8905
  111TMC2    H2 1733   2.168   0.624  11.795 -0.2947  0.0398  0.9054
  111TMC2    C7 1734   2.354   0.778  11.871  0.2560 -1.0377 -0.0593
  111TMC2    C8 1735   1.899   0.695  11.716  0.0401  0.3098 -0.4699
  111TMC2    O1 1736   2.392   0.669  11.838  0.0183 -0.0496 -0.2269
  111TMC2    O2 1737   1.822   0.744  11.631  0.2498 -0.5711  0.1541
  111TMC2    O5 1738   1.928   0.567  11.728 -0.1864  0.3124  0.1039
  111TMC2    H5 1739   1.993   0.545  11.798 -1.1717 -0.6705  0.7162
  112MPD2     C 1740   1.805   1.516  11.564 -0.1110  0.5293 -0.3165
  112MPD2    C1 1741   1.926   1.459  11.523  0.0042 -0.2542  0.9884
  112MPD2    C2 1742   1.969   1.348  11.587  0.1157  0.0890 -0.1325
  112MPD2    C3 1743   1.892   1.286  11.680  0.4100  0.6692  0.6824
  112MPD2    C4 1744   1.766   1.329  11.713 -0.0203  0.7579 -0.1784
  112MPD2    C5 1745   1.731   1.449  11.660 -0.0173  0.5594 -0.3110
  112MPD2     H 1746   2.068   1.306  11.572  1.2041  3.0699 -1.3341
  112MPD2    H1 1747   1.696   1.291  11.787  2.3687 -1.0052  1.1712
  112MPD2    H2 1748   1.764   1.607  11.521 -0.4312 -0.1816 -1.5363
  112MPD2    H3 1749   1.646   1.501  11.703 -0.6837  0.6420 -1.7301
  112MPD2     N 1750   1.943   1.178  11.755  0.3689 -0.3224  0.2049
  112MPD2    H5 1751   1.871   1.132  11.811  0.0885  0.2793  0.3472
  112MPD2    N1 1752   2.003   1.508  11.422 -0.4587 -0.8277  0.1075
  112MPD2    H7 1753   2.087   1.455  11.400 -0.2177 -0.2751 -0.3114
  113TMC2    C1 1754   0.094   3.821   0.515 -0.0035  0.0432  0.1917
  113TMC2    C2 1755   4.714   3.860   0.463  0.3429 -0.5806 -0.3529
  113TMC2    C3 1756   4.646   3.767   0.381  0.7000 -0.6520  0.3486
  113TMC2    C4 1757   0.152   3.700   0.501 -0.5143 -0.0261  0.4423
  113TMC2    C5 1758   0.087   3.615   0.422  0.0279 -0.1482 -0.5119
  113TMC2    C6 1759   4.708   3.644   0.358  0.1848 -0.7960  0.6203
  113TMC2     C 1760   0.168   3.921   0.577  0.0557 -0.0351  0.4132
  113TMC2     O 1761   0.107   4.015   0.626  0.1033  0.2059  0.1676
  113TMC2     H 1762   4.683   3.963   0.475 -3.7038 -1.7854 -0.4692
  113TMC2    H1 1763   0.238   3.677   0.562  0.3157  0.3894 -0.5619
  113TMC2    H2 1764   4.659   3.566   0.302 -1.6954  0.6768  0.2131
  113TMC2    C7 1765   0.097   3.473   0.455  0.8958  0.2204  0.1648
  113TMC2    C8 1766   4.503   3.776   0.375  0.5934 -0.3768 -0.4833
  113TMC2    O1 1767   0.108   3.400   0.361 -0.1078  0.2491 -0.1634
  113TMC2    O2 1768   4.430   3.682   0.406  0.0342 -0.3879  0.0041
  113TMC2    O5 1769   4.474   3.903   0.380  0.1440  0.3436 -0.1103
  113TMC2    H5 1770   4.548   3.958   0.347  0.5863  0.4207  0.9970
  114MPD2     C 1771   0.595   4.211   0.567 -0.4671 -0.0108 -0.0116
  114MPD2    C1 1772   0.463   4.248   0.583  0.0421  0.2508  0.0589
  114MPD2    C2 1773   0.369   4.149   0.581 -0.6673  0.3946 -0.5132
  114MPD2    C3 1774   0.398   4.016   0.560  0.8081 -0.2754 -0.1175
  114MPD2    C4 1775   0.534   3.981   0.552  0.0198 -0.0550  1.1253
  114MPD2    C5 1776   0.626   4.081   0.556  0.5398 -0.0514  0.2698
  114MPD2     H 1777   0.266   4.180   0.597 -0.5382  0.2641  0.5753
  114MPD2    H1 1778   0.568   3.882   0.527 -2.5563 -0.5761 -0.3673
  114MPD2    H2 1779   0.672   4.285   0.547 -2.7579  2.0814 -1.1394
  114MPD2    H3 1780   0.731   4.064   0.536  0.5243 -1.4979  1.4170
  114MPD2     N 1781   0.304   3.915   0.553 -0.2794 -0.0005 -0.2578
  114MPD2    H5 1782   0.338   3.826   0.520  0.7190  0.1864  0.2628
  114MPD2    N1 1783   0.421   4.380   0.587  0.5923 -0.3590  0.1618
  114MPD2    H7 1784   0.321   4.390   0.597  0.5284 -0.8644  0.0581
  115TMC2    C1 1785   0.655   1.186  17.595 -0.0076 -0.1426 -0.4648
  115TMC2    C2 1786   0.775   1.123  17.583  0.0103  0.0740  0.8239
  115TMC2    C3 1787   0.880   1.202  17.546  0.1005  0.5695 -0.1000
  115TMC2    C4 1788   0.636   1.322  17.569  0.2571 -0.2765  0.4946
  115TMC2    C5 1789   0.752   1.394  17.530 -0.1787  0.0520 -0.0021
  115TMC2    C6 1790   0.872   1.337  17.528  0.4920  0.4851  0.2401
  115TMC2     C 1791   0.545   1.102  17.567 -0.4365  0.3189  0.2390
  115TMC2     O 1792   0.572   0.994  17.518  0.1726 -0.8030 -0.6326
  115TMC2     H 1793   0.789   1.018  17.605 -0.7938  0.2816  2.2569
  115TMC2    H1 1794   0.546   1.382  17.565  0.9564  0.6501 -1.4538
  115TMC2    H2 1795   0.964   1.389  17.503 -0.6645  2.8115  0.7480
  115TMC2    C7 1796   0.738   1.535  17.551 -0.2943  0.4153 -0.0228
  115TMC2    C8 1797   1.006   1.144  17.590  0.1702 -0.1913 -0.1570
  115TMC2    O1 1798   0.659   1.570  17.642  0.3516 -0.6544 -0.1705
  115TMC2    O2 1799   1.030   1.027  17.579  0.3685  0.9488 -0.2894
  115TMC2    O5 1800   1.030   1.222  17.695 -0.9091  0.0645 -0.1062
  115TMC2    H5 1801   0.957   1.281  17.724 -0.6345  0.6575 -0.6405
  116MPD2     C 1802   0.051   1.036  17.482 -0.0023  0.2041  0.3175
  116MPD2    C1 1803   0.158   0.964  17.436 -0.0905  0.4582  0.1318
  116MPD2    C2 1804   0.280   0.997  17.490  0.3016 -0.2193 -0.1153
  116MPD2    C3 1805   0.298   1.107  17.580  0.4731  0.4805 -0.1330
  116MPD2    C4 1806   0.190   1.183  17.623 -0.0375 -0.1990 -0.2628
  116MPD2    C5 1807   0.068   1.143  17.573  0.8097  0.0020 -0.3039
  116MPD2     H 1808   0.371   0.946  17.460 -0.1572 -0.3866 -1.2286
  116MPD2    H1 1809   0.197   1.264  17.696 -1.0186 -1.8571  1.6464
  116MPD2    H2 1810   4.684   1.029  17.452 -0.2688 -1.7734  1.7360
  116MPD2    H3 1811   4.723   1.205  17.608 -0.3982 -1.1035 -1.1852
  116MPD2     N 1812   0.428   1.146  17.619 -0.3127 -0.0812 -0.1836
  116MPD2    H5 1813   0.427   1.230  17.676 -0.1660  0.0970 -0.4437
  116MPD2    N1 1814   0.137   0.861  17.340  0.4437 -0.0947 -0.8960
  116MPD2    H7 1815   0.046   0.859  17.296  0.4056 -0.6279 -0.7881
  117TMC2    C1 1816   4.704   3.061  14.453 -0.1771  0.3796  0.0165
  117TMC2    C2 1817   0.100   3.040  14.484 -0.5727 -0.0255  0.3060
  117TMC2    C3 1818   0.179   3.143  14.521  0.2241 -0.0310  0.0974
  117TMC2    C4 1819   4.651   3.189  14.450 -0.4242  0.3299 -0.4601
  117TMC2    C5 1820   0.003   3.294  14.482  0.9314 -0.1189  0.3066
  117TMC2    C6 1821   0.134   3.274  14.529  0.0305  0.6013  0.2081
  117TMC2     C 1822   4.615   2.942  14.422  0.2265 -0.3297 -0.3788
  117TMC2     O 1823   4.669   2.853  14.360  0.1104 -0.2128 -0.2793
  117TMC2     H 1824   0.139   2.939  14.471  0.2077  0.5343 -1.7287
  117TMC2    H1 1825   4.553   3.210  14.410 -0.2289  1.0701 -0.5556
  117TMC2    H2 1826   0.207   3.347  14.563  0.2206 -0.5044  2.1959
  117TMC2    C7 1827   4.684   3.425  14.485  0.5256  0.1170 -0.6587
  117TMC2    C8 1828   0.316   3.114  14.547  0.0234 -0.7234 -0.0233
  117TMC2    O1 1829   0.026   3.516  14.481 -0.7867 -0.3353 -0.0801
  117TMC2    O2 1830   0.349   3.009  14.597 -0.3494 -0.2309  0.5703
  117TMC2    O5 1831   0.377   3.170  14.440 -0.0421 -0.4940 -0.0965
  117TMC2    H5 1832   0.310   3.225  14.393  1.9838  0.6701 -1.5995
  118MPD2     C 1833   4.317   3.499  14.545  0.6609  0.1015  0.1088
  118MPD2    C1 1834   4.452   3.529  14.514  0.6213  0.1261 -0.4370
  118MPD2    C2 1835   4.481   3.653  14.465  0.3663 -0.0747  0.5966
  118MPD2    C3 1836   4.379   3.748  14.447 -0.1491 -1.5567 -0.2805
  118MPD2    C4 1837   4.249   3.715  14.475  0.6731 -0.7420 -0.3972
  118MPD2    C5 1838   4.215   3.590  14.508 -1.0042  0.8995 -0.2111
  118MPD2     H 1839   4.587   3.677  14.457 -0.3235  2.7904  0.0364
  118MPD2    H1 1840   4.183   3.801  14.475 -1.0551 -2.0819 -1.7912
  118MPD2    H2 1841   4.287   3.402  14.583  0.5520 -0.1744 -0.6748
  118MPD2    H3 1842   4.110   3.573  14.528 -0.5519 -2.0755 -0.2903
  118MPD2     N 1843   4.397   3.879  14.397 -0.0699 -0.4765 -0.4366
  118MPD2    H5 1844   4.320   3.942  14.416 -0.7968 -1.3612 -0.4291
  118MPD2    N1 1845   4.549   3.422  14.519 -0.8576  0.2896 -0.3546
  118MPD2    H7 1846   4.513   3.331  14.547  0.1230 -0.2330 -0.7875
  119TMC2    C1 1847   2.626   4.078  13.596 -0.1617  0.4879  0.4940
  119TMC2    C2 1848   2.688   3.983  13.517 -0.4784  0.2665  0.3429
  119TMC2    C3 1849   2.623   3.867  13.477  0.8665  0.5577 -0.0880
  119TMC2    C4 1850   2.498   4.049  13.636 -0.0319 -0.2106 -0.3202
  119TMC2    C5 1851   2.442   3.932  13.594  0.1258 -0.0571 -0.3817
  119TMC2    C6 1852   2.499   3.837  13.519 -0.1779  0.0866 -0.9002
  119TMC2     C 1853   2.689   4.219  13.621 -0.0287 -0.0154  0.2201
  119TMC2     O 1854   2.608   4.290  13.675  0.3190  0.1688 -0.3052
  119TMC2     H 1855   2.795   3.992  13.504 -0.1921 -1.8249  1.3597
  119TMC2    H1 1856   2.435   4.123  13.684 -0.2717 -0.0325 -0.9005
  119TMC2    H2 1857   2.451   3.741  13.503  0.5641 -0.3414 -0.5771
  119TMC2    C7 1858   2.312   3.891  13.656  0.0307  0.1184  0.1998
  119TMC2    C8 1859   2.702   3.745  13.461 -0.5727  0.7781 -0.1798
  119TMC2    O1 1860   2.258   3.794  13.602  0.4445 -0.3184 -0.6057
  119TMC2    O2 1861   2.666   3.648  13.401 -0.0249 -0.4400  0.1645
  119TMC2    O5 1862   2.761   3.739  13.585 -0.8446  0.4123 -0.2122
  119TMC2    H5 1863   2.773   3.826  13.628 -0.2515  1.5043 -2.6160
  120MPD2     C 1864   3.087   4.551  13.671 -0.3960  0.6569 -0.1259
  120MPD2    C1 1865   2.955   4.548  13.714 -1.1350 -0.6257 -0.4284
  120MPD2    C2 1866   2.870   4.439  13.695 -0.1944 -0.3168 -0.4937
  120MPD2    C3 1867   2.911   4.337  13.615  0.8999 -0.4456 -0.3554
  120MPD2    C4 1868   3.041   4.342  13.566 -0.2297 -0.0773 -0.3110
  120MPD2    C5 1869   3.126   4.438  13.602  0.0946 -0.0347 -0.2843
  120MPD2     H 1870   2.771   4.432  13.739  0.2045  1.0974  0.6231
  120MPD2    H1 1871   3.096   4.260  13.519  2.2020  0.5006  1.5178
  120MPD2    H2 1872   3.159   4.628  13.695 -0.6196  1.0106 -0.5868
  120MPD2    H3 1873   3.226   4.437  13.560  0.6423 -3.7619  1.0620
  120MPD2     N 1874   2.828   4.230  13.593 -0.1452  0.5626  0.1462
  120MPD2    H5 1875   2.862   4.159  13.529  0.5265 -1.5092  2.8345
  120MPD2    N1 1876   2.906   4.657  13.786 -0.5443 -0.1105 -0.2032
  120MPD2    H7 1877   2.972   4.720  13.829  1.2142 -1.2643 -1.2175
  121TMC2    C1 1878   4.440   1.457  14.535 -0.0913 -0.4642  0.1997
  121TMC2    C2 1879   4.469   1.449  14.673  0.9862 -0.5812 -0.1830
  121TMC2    C3 1880   4.459   1.323  14.732 -0.0926 -0.0928 -0.1218
  121TMC2    C4 1881   4.406   1.342  14.463 -0.0626  0.7861 -0.8972
  121TMC2    C5 1882   4.390   1.228  14.533  0.3857  0.4940 -0.3636
  121TMC2    C6 1883   4.421   1.212  14.665  0.2993 -0.1828  0.2848
  121TMC2     C 1884   4.458   1.583  14.478 -0.2344  0.6276 -0.5147
  121TMC2     O 1885   4.491   1.674  14.558 -0.6535  0.1637 -0.0115
  121TMC2     H 1886   4.488   1.537  14.732  1.3126 -0.2584 -0.7709
  121TMC2    H1 1887   4.375   1.354  14.359  0.3358 -2.2379 -1.3543
  121TMC2    H2 1888   4.414   1.116  14.716  2.5219 -0.1353  0.7153
  121TMC2    C7 1889   4.314   1.124  14.471 -0.6857  0.2893 -0.3530
  121TMC2    C8 1890   4.479   1.288  14.877 -0.0081  0.0627  0.0105
  121TMC2    O1 1891   4.349   1.009  14.497 -0.1495 -0.6732  0.2725
  121TMC2    O2 1892   4.489   1.173  14.915  0.0103  0.6560 -0.5181
  121TMC2    O5 1893   4.428   1.381  14.957 -0.0678 -0.1245  0.2105
  121TMC2    H5 1894   4.403   1.465  14.914  0.5448 -0.2033 -0.2947
  122MPD2     C 1895   4.466   1.805  14.290 -0.2284  0.5007 -0.2432
  122MPD2    C1 1896   4.479   1.675  14.247  0.5439 -0.5909  0.2524
  122MPD2    C2 1897   4.503   1.639  14.117  0.0960 -0.0492  0.0634
  122MPD2    C3 1898   4.497   1.743  14.020  0.3217  0.3040  0.3061
  122MPD2    C4 1899   4.462   1.868  14.065  0.4650 -0.1554 -0.3239
  122MPD2    C5 1900   4.440   1.897  14.193  0.0510  0.2851 -0.1250
  122MPD2     H 1901   4.524   1.537  14.088  2.5923  0.2869  0.7095
  122MPD2    H1 1902   4.477   1.955  14.003 -2.6625 -1.4501 -2.9034
  122MPD2    H2 1903   4.456   1.835  14.394 -0.8575  1.2580 -0.5190
  122MPD2    H3 1904   4.399   1.992  14.226  1.8604  1.0197  0.0031
  122MPD2     N 1905   4.519   1.725  13.880 -0.2062 -0.3669  0.3235
  122MPD2    H5 1906   4.495   1.806  13.823  1.3358  1.0328  1.6700
  122MPD2    N1 1907   4.478   1.569  14.340  0.1747  0.2908  0.2471
  122MPD2    H7 1908   4.494   1.476  14.302 -0.6488  1.1321 -2.1399
  123TMC2    C1 1909   2.486   4.673  11.308 -0.1695 -0.0512 -0.7356
  123TMC2    C2 1910   2.373   0.008  11.284 -0.7164  0.0007 -0.0749
  123TMC2    C3 1911   2.396   0.136  11.245 -0.2006  0.0569  0.7091
  123TMC2    C4 1912   2.616   4.729  11.302 -0.1470 -0.3141  0.0267
  123TMC2    C5 1913   2.632   0.120  11.256  0.4516  0.3898 -0.5229
  123TMC2    C6 1914   2.519   0.190  11.225 -0.1949 -0.1540  0.3631
  123TMC2     C 1915   2.472   4.538  11.323  0.4348 -0.8470  0.4700
  123TMC2     O 1916   2.547   4.481  11.405  0.3917  0.2650 -0.0134
  123TMC2     H 1917   2.272   4.708  11.298  0.1530 -2.6816 -0.8626
  123TMC2    H1 1918   2.702   4.670  11.331  0.2607  1.0565  1.6397
  123TMC2    H2 1919   2.531   0.286  11.175  3.6328 -0.5541  0.4554
  123TMC2    C7 1920   2.758   0.160  11.182 -0.1219  0.1471  0.2629
  123TMC2    C8 1921   2.276   0.215  11.225 -0.1530 -0.0807 -0.1549
  123TMC2    O1 1922   2.840   0.071  11.163  0.5902  0.0786 -0.5066
  123TMC2    O2 1923   2.169   0.160  11.250 -0.1232  0.2841 -0.1184
  123TMC2    O5 1924   2.313   0.330  11.285  0.3530  0.4806  0.0956
  123TMC2    H5 1925   2.407   0.353  11.274  1.0867 -2.9171 -0.7479
  124MPD2     C 1926   2.224   4.111  11.173 -0.0311 -0.1989  0.3543
  124MPD2    C1 1927   2.185   4.214  11.089  0.3992 -0.0474  0.1555
  124MPD2    C2 1928   2.241   4.337  11.119  0.4474  0.6881  0.4759
  124MPD2    C3 1929   2.324   4.364  11.225  0.0337  0.0823 -0.4652
  124MPD2    C4 1930   2.335   4.266  11.316 -0.4125 -0.5445  0.2573
  124MPD2    C5 1931   2.292   4.139  11.288 -0.5386  0.1974 -0.6270
  124MPD2     H 1932   2.214   4.415  11.049  0.9700  1.5217  1.2115
  124MPD2    H1 1933   2.385   4.280  11.412 -1.0074  0.4062  0.4386
  124MPD2    H2 1934   2.192   4.008  11.164  2.3762 -1.1467  2.4665
  124MPD2    H3 1935   2.319   4.066  11.364  1.5595 -0.3038 -1.8502
  124MPD2     N 1936   2.375   4.490  11.230 -0.4146  0.0817 -0.0293
  124MPD2    H5 1937   2.328   4.560  11.173  1.9787  0.2651 -1.7942
  124MPD2    N1 1938   2.101   4.184  10.975  0.1001 -0.3121 -0.1340
  124MPD2    H7 1939   2.066   4.089  10.968 -1.6530  0.1794  1.7934
  125TMC2    C1 1940   3.174   1.477   9.491 -0.1455  0.4592  1.3846
  125TMC2    C2 1941   3.137   1.534   9.371 -0.3049 -0.2376  0.3666
  125TMC2    C3 1942   3.234   1.605   9.307 -0.5168 -0.6329  0.0533
  125TMC2    C4 1943   3.302   1.487   9.533 -0.2853 -0.0182 -0.1297
  125TMC2    C5 1944   3.394   1.570   9.472 -0.1761 -0.2308 -0.0361
  125TMC2    C6 1945   3.362   1.630   9.353 -0.6820  0.4130 -0.6810
  125TMC2     C 1946   3.083   1.392   9.560 -0.4590  0.3629  0.5495
  125TMC2     O 1947   2.988   1.367   9.491  0.1187  0.0936 -0.0537
  125TMC2     H 1948   3.040   1.522   9.323  0.3318 -0.0211 -0.9701
  125TMC2    H1 1949   3.335   1.434   9.621  0.2493 -0.8063 -0.8128
  125TMC2    H2 1950   3.413   1.713   9.307  1.5718 -0.0818  0.9313
  125TMC2    C7 1951   3.537   1.567   9.514 -0.7793  0.1811 -0.0640
  125TMC2    C8 1952   3.178   1.705   9.219 -0.6434 -0.5166  0.1710
  125TMC2    O1 1953   3.570   1.556   9.632  0.0910 -0.7209 -0.0027
  125TMC2    O2 1954   3.057   1.724   9.207 -0.1560  0.2149 -0.8803
  125TMC2    O5 1955   3.268   1.724   9.121 -0.2186  0.0139  0.3870
  125TMC2    H5 1956   3.360   1.692   9.133  0.1312  0.8074 -0.1633
  126MPD1     C 1957   2.801   1.253   9.967  0.4672  0.5955 -0.2140
  126MPD1    C1 1958   2.897   1.342  10.014  0.3960  0.0514  0.1438
  126MPD1    C2 1959   3.001   1.374   9.924  1.0582 -0.2696  0.2914
  126MPD1    C3 1960   2.992   1.341   9.791  0.8313 -0.0768 -0.0873
  126MPD1    C4 1961   2.877   1.272   9.746 -0.1136  0.1901 -0.2035
  126MPD1    C5 1962   2.794   1.225   9.837  0.0814 -1.1743  0.2070
  126MPD1     H 1963   3.076   1.444   9.958  1.6801 -0.5262 -0.5364
  126MPD1    H1 1964   2.860   1.250   9.641  0.7484  0.9259 -0.4978
  126MPD1    H2 1965   2.720   1.231  10.036  1.6864 -3.3552 -0.0308
  126MPD1    H3 1966   2.703   1.181   9.798  0.2500 -1.7534  0.4603
  126MPD1     N 1967   3.092   1.388   9.698 -0.6358  0.4860 -0.4588
  126MPD1    H5 1968   3.166   1.445   9.737  1.3263 -1.1516 -1.7947
  126MPD1    N1 1969   2.907   1.376  10.149 -0.5966 -0.2220 -0.3098
  126MPD1    H6 1970   2.820   1.372  10.202 -0.9195 -0.9182 -0.8892
  126MPD1    H7 1971   2.948   1.468  10.164  0.0007 -0.5289 -0.0975
  127TMC2    C1 1972   4.602   0.745   9.969  0.2673 -0.6267  0.0621
  127TMC2    C2 1973   4.655   0.746  10.087  0.2899  0.4639  0.4790
  127TMC2    C3 1974   4.598   0.670  10.186 -0.5910  0.0099 -0.6417
  127TMC2    C4 1975   4.491   0.679   9.940 -0.1915  0.1743  0.3898
  127TMC2    C5 1976   4.428   0.608  10.040 -0.5325 -0.1708  0.3630
  127TMC2    C6 1977   4.491   0.598  10.164  0.1392 -0.3990 -0.1295
  127TMC2     C 1978   4.654   0.836   9.867  0.2463  0.2502  0.2541
  127TMC2     O 1979   4.703   0.942   9.900 -0.0998 -0.3487  0.1917
  127TMC2     H 1980   0.004   0.811  10.100  0.8827 -0.0953 -0.6985
  127TMC2    H1 1981   4.449   0.690   9.841 -0.4738 -1.9216  0.2780
  127TMC2    H2 1982   4.448   0.545  10.248 -1.6413  0.2610 -0.6210
  127TMC2    C7 1983   4.294   0.556  10.009  0.4232  0.3674 -0.5634
  127TMC2    C8 1984   4.701   0.615  10.285  0.0386 -0.0686  0.4101
  127TMC2    O1 1985   4.253   0.587   9.897  0.0239  0.0166  0.0823
  127TMC2    O2 1986   0.064   0.678  10.313  0.0182  0.0426  0.4178
  127TMC2    O5 1987   4.652   0.512  10.356  0.2763  0.5678  0.8310
  127TMC2    H5 1988   4.589   0.453  10.310  1.9147 -0.5638  0.0388
  128MPD2     C 1989   4.604   0.816   9.504  1.3483  0.4083 -0.2330
  128MPD2    C1 1990   4.656   0.864   9.620  0.1148 -0.6903  0.1958
  128MPD2    C2 1991   4.721   0.982   9.614  0.2918 -0.2741  0.4974
  128MPD2    C3 1992   4.732   1.060   9.496 -0.2305  0.3130 -0.4392
  128MPD2    C4 1993   4.688   0.996   9.379 -0.7625 -0.3018 -0.3065
  128MPD2    C5 1994   4.620   0.882   9.384  0.4784 -0.0435 -0.2343
  128MPD2     H 1995   0.052   1.013   9.693  1.7059 -1.0536 -0.4068
  128MPD2    H1 1996   4.701   1.041   9.281  0.0271  0.0649 -0.0320
  128MPD2    H2 1997   4.538   0.730   9.502  2.3665 -0.3843 -0.1356
  128MPD2    H3 1998   4.588   0.839   9.290 -2.6358  0.8449  0.4052
  128MPD2     N 1999   0.067   1.186   9.502 -0.1969 -0.6571 -0.2307
  128MPD2    H5 2000   0.118   1.203   9.588 -0.7388  0.0604 -0.0532
  128MPD2    N1 2001   4.637   0.789   9.737 -0.5555  0.1874  0.0472
  128MPD2    H7 2002   4.589   0.701   9.720  1.8524 -0.8243 -1.6109
  129TMC2    C1 2003   2.152   2.096   1.485  0.5148  0.3596  0.3281
  129TMC2    C2 2004   2.278   2.135   1.438  0.6427 -0.2820  0.1786
  129TMC2    C3 2005   2.379   2.032   1.434  0.2679 -0.0192 -0.5940
  129TMC2    C4 2006   2.121   1.965   1.508 -0.1292 -0.2140  0.1699
  129TMC2    C5 2007   2.224   1.876   1.498 -0.2361 -0.6785  0.0659
  129TMC2    C6 2008   2.355   1.903   1.472  0.0240  0.2318  0.0445
  129TMC2     C 2009   2.066   2.198   1.541 -0.3695  0.5710 -0.3342
  129TMC2     O 2010   2.003   2.154   1.636  0.5330 -1.2132 -0.1630
  129TMC2     H 2011   2.307   2.237   1.416 -0.5965 -0.0431 -0.3188
  129TMC2    H1 2012   2.017   1.940   1.525 -0.1908  0.6658  1.0158
  129TMC2    H2 2013   2.425   1.822   1.454 -0.7078 -1.1064  3.2196
  129TMC2    C7 2014   2.179   1.735   1.486  0.3536 -0.5643  0.0062
  129TMC2    C8 2015   2.471   2.066   1.331  0.6858  0.1943  1.1741
  129TMC2    O1 2016   2.070   1.720   1.433  0.3204  0.0299 -0.0371
  129TMC2    O2 2017   2.437   2.086   1.211 -0.0393 -0.1741 -0.2804
  129TMC2    O5 2018   2.581   1.993   1.366  0.3319  0.2989 -0.1653
  129TMC2    H5 2019   2.606   1.993   1.460  0.6025  1.6303 -0.2317
  130MPD2     C 2020   1.926   2.431   1.636 -0.2503 -1.0220  0.1030
  130MPD2    C1 2021   2.024   2.432   1.536 -0.5418 -0.4234 -0.9232
  130MPD2    C2 2022   2.061   2.554   1.483 -0.8208  0.0422 -0.4945
  130MPD2    C3 2023   2.025   2.671   1.542  0.5981 -0.4750 -0.0017
  130MPD2    C4 2024   1.934   2.667   1.654 -0.8603 -0.5906 -0.6963
  130MPD2    C5 2025   1.882   2.544   1.691 -0.2140 -0.5153  0.0034
  130MPD2     H 2026   2.114   2.548   1.389 -1.2924 -0.0752 -0.7542
  130MPD2    H1 2027   1.891   2.756   1.700  3.2032  0.0300  1.8968
  130MPD2    H2 2028   1.869   2.344   1.669 -0.2869 -1.2103 -0.4598
  130MPD2    H3 2029   1.795   2.541   1.755  0.2919  0.2152  0.7170
  130MPD2     N 2030   2.087   2.792   1.489 -0.4832 -0.2502  0.2488
  130MPD2    H5 2031   2.146   2.789   1.407 -1.4025 -1.3804 -0.3699
  130MPD2    N1 2032   2.078   2.320   1.478  0.3290 -0.1158 -0.4192
  130MPD2    H7 2033   2.131   2.326   1.391  0.4777 -2.6462 -0.5118
  131TMC2    C1 2034   2.523   0.062  10.301 -0.6426  0.2696  0.1276
  131TMC2    C2 2035   2.597   0.082  10.414  0.3416 -0.5432  0.1246
  131TMC2    C3 2036   2.641   0.208  10.442 -0.4594  0.7282 -0.0962
  131TMC2    C4 2037   2.514   0.156  10.205  0.2995  0.1747 -0.5993
  131TMC2    C5 2038   2.559   0.284  10.239  1.0925 -0.0495 -0.5296
  131TMC2    C6 2039   2.626   0.314  10.357  0.5826 -0.5820 -0.1049
  131TMC2     C 2040   2.434   4.680  10.297  0.2408  0.4240  0.3190
  131TMC2     O 2041   2.469   4.590  10.377 -0.1588  0.2292 -0.9582
  131TMC2     H 2042   2.612   0.005  10.488 -1.7300 -0.5186  0.5463
  131TMC2    H1 2043   2.460   0.134  10.113  1.9340 -3.4098 -0.7032
  131TMC2    H2 2044   2.675   0.408  10.380 -1.0450 -0.2539  2.0041
  131TMC2    C7 2045   2.550   0.377  10.123  0.4728 -0.3068 -0.3205
  131TMC2    C8 2046   2.740   0.221  10.542  0.3509  0.3277  0.4483
  131TMC2    O1 2047   2.468   0.341  10.037 -0.0398 -0.3383 -1.0085
  131TMC2    O2 2048   2.779   0.332  10.575 -0.4613 -0.0722 -0.1109
  131TMC2    O5 2049   2.821   0.123  10.513 -0.2193  0.3141  0.1022
  131TMC2    H5 2050   2.788   0.055  10.451 -0.7647 -1.5786  2.4603
  132MPD2     C 2051   2.120   4.624  10.100  0.7679 -1.3159  0.0661
  132MPD2    C1 2052   2.207   4.607  10.204 -0.5454 -0.5564 -1.0830
  132MPD2    C2 2053   2.178   4.511  10.300  0.3153 -0.5842 -0.5702
  132MPD2    C3 2054   2.064   4.433  10.288 -0.2456 -0.2524  0.1769
  132MPD2    C4 2055   1.978   4.450  10.182 -0.6745 -0.3409  0.8702
  132MPD2    C5 2056   2.008   4.547  10.095  0.1479 -0.0388  0.5077
  132MPD2     H 2057   2.246   4.500  10.383 -1.3231  0.7723  0.9482
  132MPD2    H1 2058   1.884   4.397  10.172  0.0648 -1.3425 -0.6305
  132MPD2    H2 2059   2.133   4.695  10.019 -1.9821 -2.1825 -1.1290
  132MPD2    H3 2060   1.944   4.556  10.008  2.0111 -2.1317 -1.0779
  132MPD2     N 2061   2.042   4.338  10.387 -0.4931 -0.0811 -0.0078
  132MPD2    H5 2062   2.102   4.349  10.468  0.3154 -0.9446 -0.4846
  132MPD2    N1 2063   2.329   4.687  10.207  0.4119 -0.0405  0.3799
  132MPD2    H7 2064   2.338   0.027  10.141  0.6549 -0.3063  0.1028
  133TMC2    C1 2065   1.643   4.651  10.244 -0.1693 -0.0138 -0.5630
  133TMC2    C2 2066   1.574   4.537  10.290  0.1207 -0.3020  0.1523
  133TMC2    C3 2067   1.619   4.486  10.406  0.4493 -0.5038 -0.5314
  133TMC2    C4 2068   1.755   4.700  10.302  0.0600  0.0726 -0.4047
  133TMC2    C5 2069   1.801   4.638  10.414 -0.1906  0.1281  0.2102
  133TMC2    C6 2070   1.733   4.532  10.468  0.5990  0.5696  0.3171
  133TMC2     C 2071   1.574   0.004  10.152 -0.2509 -0.2248 -0.3714
  133TMC2     O 2072   1.643   0.093  10.108 -0.1431  0.3959  0.2989
  133TMC2     H 2073   1.497   4.488  10.231  1.0747 -1.5762 -0.0143
  133TMC2    H1 2074   1.800   0.053  10.262  0.8134 -0.3043 -0.4062
  133TMC2    H2 2075   1.770   4.483  10.558  1.3396 -1.3592 -1.0323
  133TMC2    C7 2076   1.919   4.687  10.482 -0.4818 -0.9380  0.2147
  133TMC2    C8 2077   1.538   4.393  10.479  0.7236 -0.8739 -0.4745
  133TMC2    O1 2078   1.960   4.619  10.577  0.2692  0.2134 -0.4689
  133TMC2    O2 2079   1.548   4.382  10.603 -0.0649  0.2705 -0.4905
  133TMC2    O5 2080   1.466   4.317  10.401 -0.1063 -0.1319 -0.0495
  133TMC2    H5 2081   1.479   4.328  10.305 -0.5502 -0.5497 -0.1590
  134MPD2     C 2082   1.209   0.060  10.123  0.0720  0.6169  0.6304
  134MPD2    C1 2083   1.348   0.077  10.100  0.6119 -0.2306 -0.6969
  134MPD2    C2 2084   1.386   0.183  10.023 -0.6862  0.2190 -0.5505
  134MPD2    C3 2085   1.288   0.274   9.986 -0.3391 -0.5361 -0.4277
  134MPD2    C4 2086   1.150   0.256  10.012  0.1914  0.7017 -0.8626
  134MPD2    C5 2087   1.118   0.142  10.067 -0.2234 -0.2275 -0.1345
  134MPD2     H 2088   1.489   0.215  10.009 -0.7313  1.0711  1.0226
  134MPD2    H1 2089   1.078   0.327   9.972  1.0466  2.1414  0.1650
  134MPD2    H2 2090   1.177   4.705  10.172  3.0749 -0.2045  1.0691
  134MPD2    H3 2091   1.015   0.112  10.083 -0.7749  1.0179 -1.3527
  134MPD2     N 2092   1.317   0.394   9.916 -0.4457 -0.1645 -0.0069
  134MPD2    H5 2093   1.243   0.462   9.903 -1.5878 -1.4991 -0.5438
  134MPD2    N1 2094   1.437   4.717  10.152  0.7139  0.2476  0.5774
  134MPD2    H7 2095   1.400   4.640  10.206 -0.2474  1.1534  1.2235
  135TMC2    C1 2096   3.784   2.006   9.617  0.2374 -0.3929  0.5302
  135TMC2    C2 2097   3.892   1.939   9.667 -0.7037 -0.1980 -0.6129
  135TMC2    C3 2098   3.898   1.917   9.802  0.3515 -0.3115 -0.3133
  135TMC2    C4 2099   3.693   2.056   9.703 -0.3035  0.5521  0.5834
  135TMC2    C5 2100   3.710   2.042   9.840 -0.2692  0.9475 -0.2726
  135TMC2    C6 2101   3.811   1.972   9.895  0.0609 -0.1971 -0.2257
  135TMC2     C 2102   3.777   2.060   9.481  0.3760  0.1201 -0.1981
  135TMC2     O 2103   3.671   2.106   9.438  0.5819 -0.0039 -0.3071
  135TMC2     H 2104   3.966   1.888   9.606  0.3749  0.8686 -0.1820
  135TMC2    H1 2105   3.608   2.108   9.659  1.6149  1.2942 -2.2698
  135TMC2    H2 2106   3.830   1.967  10.001 -0.9941 -2.9056 -0.1827
  135TMC2    C7 2107   3.613   2.111   9.921  0.5148 -0.1987  0.1065
  135TMC2    C8 2108   3.990   1.818   9.845  0.0701 -0.0043  0.0784
  135TMC2    O1 2109   3.541   2.189   9.862 -0.4207  0.1659  0.2210
  135TMC2    O2 2110   4.099   1.810   9.788  0.1729  0.3633 -0.0427
  135TMC2    O5 2111   3.903   1.716   9.856 -0.1989 -0.4947 -0.1724
  135TMC2    H5 2112   3.812   1.752   9.853  0.0030  0.0170 -0.1484
  136MPD2     C 2113   3.872   2.188   9.226 -0.3020 -0.0862  0.6502
  136MPD2    C1 2114   3.952   2.156   9.336  0.1833  0.0083 -0.0812
  136MPD2    C2 2115   4.093   2.175   9.325 -0.1450 -0.1660  0.1496
  136MPD2    C3 2116   4.149   2.229   9.215  0.3474 -0.0586 -0.0101
  136MPD2    C4 2117   4.069   2.272   9.113  0.0511  0.0699  0.4275
  136MPD2    C5 2118   3.935   2.244   9.118  0.2273  1.1299 -0.3845
  136MPD2     H 2119   4.154   2.151   9.411 -0.6436  0.8587  0.7940
  136MPD2    H1 2120   4.121   2.309   9.025 -0.3284 -0.9026 -0.2015
  136MPD2    H2 2121   3.764   2.179   9.229 -0.3229  0.4674  1.6275
  136MPD2    H3 2122   3.869   2.273   9.038 -3.4170 -1.3773  1.6973
  136MPD2     N 2123   4.292   2.248   9.204 -0.0081 -0.1105  0.2976
  136MPD2    H5 2124   4.330   2.282   9.117  0.6602  1.0610  1.0459
  136MPD2    N1 2125   3.907   2.091   9.448  0.7704 -0.6795  0.5796
  136MPD2    H7 2126   3.981   2.071   9.514  1.3896  0.2514  0.1670
  137TMC2    C1 2127   4.014   1.301   9.446 -0.0879 -0.4352  0.2168
  137TMC2    C2 2128   4.079   1.343   9.328  0.4700  0.6957 -0.4195
  137TMC2    C3 2129   4.004   1.334   9.210 -0.2868  0.3264 -0.6127
  137TMC2    C4 2130   3.877   1.265   9.446 -0.2393 -0.0232  0.4617
  137TMC2    C5 2131   3.816   1.261   9.329 -0.1686 -0.5575  0.2992
  137TMC2    C6 2132   3.875   1.294   9.209 -0.2655 -0.5520 -0.3418
  137TMC2     C 2133   4.079   1.346   9.565  0.0565  0.3563 -0.7208
  137TMC2     O 2134   4.186   1.405   9.559  0.0589 -0.2873 -0.1623
  137TMC2     H 2135   4.182   1.376   9.330  0.3130  1.2781 -2.1362
  137TMC2    H1 2136   3.830   1.243   9.542  0.0732 -0.2433  0.5661
  137TMC2    H2 2137   3.816   1.296   9.118 -0.9159  0.3280  0.0875
  137TMC2    C7 2138   3.672   1.238   9.324  0.0999  0.0992 -0.6000
  137TMC2    C8 2139   4.052   1.413   9.099 -0.2393 -0.1256  0.2322
  137TMC2    O1 2140   3.625   1.237   9.210  0.0680 -0.0664 -0.3802
  137TMC2    O2 2141   4.134   1.504   9.103 -0.3955  0.4832  0.4089
  137TMC2    O5 2142   4.010   1.367   8.981 -0.0669  0.0241  0.0144
  137TMC2    H5 2143   3.990   1.272   8.988 -0.9364  0.1367 -0.9567
  138MPD2     C 2144   3.984   1.283   9.895  0.0600 -0.2936  0.3313
  138MPD2    C1 2145   4.044   1.355   9.802 -0.0290  0.1970  0.5132
  138MPD2    C2 2146   4.136   1.453   9.827 -0.0845 -0.0479  0.1150
  138MPD2    C3 2147   4.166   1.493   9.957 -1.0182  0.1964  0.0504
  138MPD2    C4 2148   4.111   1.413  10.053  0.1432 -0.1834 -0.3039
  138MPD2    C5 2149   4.022   1.315  10.022  0.0624 -0.5632 -0.2821
  138MPD2     H 2150   4.185   1.512   9.750 -0.0374 -1.2079 -0.7332
  138MPD2    H1 2151   4.126   1.425  10.159 -3.2487  0.4101  0.1084
  138MPD2    H2 2152   3.912   1.204   9.881 -0.1472  0.3963 -2.3972
  138MPD2    H3 2153   3.983   1.270  10.112 -0.8098  0.8977  0.0718
  138MPD2     N 2154   4.238   1.605   9.981  0.7379  0.4820 -0.1077
  138MPD2    H5 2155   4.255   1.659   9.897 -0.1475 -1.8451 -1.7798
  138MPD2    N1 2156   4.006   1.322   9.673  0.1576 -0.1506 -0.9957
  138MPD2    H7 2157   3.918   1.271   9.667  0.6596 -1.0107 -1.0561
  139TMC2    C1 2158   4.087   4.158  13.696  0.2465  0.5173 -0.0736
  139TMC2    C2 2159   4.106   4.268  13.612  0.4148  0.1680  0.7334
  139TMC2    C3 2160   3.992   4.333  13.569  0.7662 -0.1120 -0.2778
  139TMC2    C4 2161   3.961   4.124  13.720  0.3659 -0.1964 -0.6556
  139TMC2    C5 2162   3.849   4.189  13.677  0.2991  0.1417  0.0283
  139TMC2    C6 2163   3.863   4.293  13.593 -0.0503  0.4587 -0.6480
  139TMC2     C 2164   4.188   4.117  13.796  0.2990  0.5861 -0.1525
  139TMC2     O 2165   4.174   4.006  13.843 -0.2916  0.1916  0.4736
  139TMC2     H 2166   4.203   4.315  13.598  0.2746  0.0757 -0.6193
  139TMC2    H1 2167   3.944   4.044  13.791 -1.5530 -0.3836 -1.3383
  139TMC2    H2 2168   3.780   4.352  13.557  0.7650  0.3626 -2.6921
  139TMC2    C7 2169   3.728   4.201  13.758  0.2582 -0.0122  0.6194
  139TMC2    C8 2170   3.990   4.422  13.450  0.0564  0.1266  0.9465
  139TMC2    O1 2171   3.662   4.303  13.746 -0.3092 -0.1030 -0.1870
  139TMC2    O2 2172   3.901   4.427  13.365 -0.0358 -0.0323  0.6000
  139TMC2    O5 2173   4.079   4.518  13.487  0.6361  0.0914 -0.5797
  139TMC2    H5 2174   4.104   4.510  13.581 -0.6920 -0.8921 -0.3062
  140MPD2     C 2175   4.491   4.293  13.887  0.8836  0.8127  0.6282
  140MPD2    C1 2176   4.409   4.178  13.875 -0.1417  0.6068 -0.7204
  140MPD2    C2 2177   4.441   4.058  13.935 -0.1056  0.2822  0.0550
  140MPD2    C3 2178   4.573   4.043  13.977  0.5096 -0.5002  0.3589
  140MPD2    C4 2179   4.664   4.153  13.986 -0.2475 -0.6094  0.5516
  140MPD2    C5 2180   4.616   4.277  13.948  0.3281  0.0128  0.2922
  140MPD2     H 2181   4.379   3.970  13.947 -0.8663  0.9480  0.9843
  140MPD2    H1 2182   0.030   4.147  14.021 -0.1987 -0.5816  0.4111
  140MPD2    H2 2183   4.459   4.389  13.850  0.4806  0.3729 -0.1642
  140MPD2    H3 2184   4.685   4.359  13.965  0.1122  0.4871 -1.0802
  140MPD2     N 2185   4.619   3.910  13.998  0.4800  0.1915  0.6954
  140MPD2    H5 2186   4.546   3.840  13.992 -0.0811  0.4712  4.0763
  140MPD2    N1 2187   4.289   4.199  13.804 -0.6139  0.2891 -0.5536
  140MPD2    H7 2188   4.289   4.290  13.759 -0.8759  0.7339  0.3665
  141TMC2    C1 2189   0.186   1.713  13.531  0.1054 -0.7369 -0.6487
  141TMC2    C2 2190   0.215   1.796  13.427  0.0773  0.0189  0.2294
  141TMC2    C3 2191   0.198   1.932  13.448  0.1009  0.5394  0.1150
  141TMC2    C4 2192   0.129   1.758  13.643  0.4494 -0.1964  0.1834
  141TMC2    C5 2193   0.097   1.897  13.651  0.2942  0.3160 -0.1642
  141TMC2    C6 2194   0.127   1.986  13.549 -0.0995 -0.1219  0.4737
  141TMC2     C 2195   0.241   1.577  13.530  0.0092 -0.0307 -0.3164
  141TMC2     O 2196   0.185   1.495  13.607 -0.4057  0.1546 -0.1663
  141TMC2     H 2197   0.239   1.771  13.324  0.5661 -0.3112  0.4218
  141TMC2    H1 2198   0.107   1.686  13.721  1.0663  0.1014  0.6323
  141TMC2    H2 2199   0.104   2.092  13.552 -1.4626 -0.4220  0.7743
  141TMC2    C7 2200   0.064   1.970  13.775  1.1335  0.1846  0.4096
  141TMC2    C8 2201   0.238   2.020  13.334 -0.5775 -0.5085 -0.2292
  141TMC2    O1 2202   0.015   2.083  13.761  0.4754  0.0070 -0.0182
  141TMC2    O2 2203   0.186   2.126  13.311 -0.1209 -0.5436 -0.3229
  141TMC2    O5 2204   0.354   1.978  13.278  0.2171 -0.0808  0.1347
  141TMC2    H5 2205   0.392   1.903  13.328 -1.8569 -1.6032 -0.5475
  142TMC2    C1 2206   3.263   4.646  10.561  0.2424  0.3415  0.2364
  142TMC2    C2 2207   3.284   4.733  10.452 -0.5487 -0.4598  0.6900
  142TMC2    C3 2208   3.237   0.128  10.466  0.1401 -0.2911 -0.0029
  142TMC2    C4 2209   3.204   4.685  10.670  0.8808 -0.2966  0.5179
  142TMC2    C5 2210   3.148   0.075  10.676  0.4335  0.3659  0.0435
  142TMC2    C6 2211   3.167   0.169  10.575 -0.4902  0.1683  0.0882
  142TMC2     C 2212   3.286   4.506  10.521  0.2583  0.0705  0.0628
  142TMC2     O 2213   3.308   4.483  10.404 -0.6382 -0.2868  0.2936
  142TMC2     H 2214   3.338   4.698  10.365 -0.7823  0.5005  0.1613
  142TMC2    H1 2215   3.190   4.616  10.752  0.5347  0.2227  0.8990
  142TMC2    H2 2216   3.127   0.269  10.568  1.5367  0.7068 -3.7973
  142TMC2    C7 2217   3.086   0.119  10.796 -0.0478  0.1296  0.1873
  142TMC2    C8 2218   3.239   0.228  10.362 -0.5120 -0.2956 -0.5709
  142TMC2    O1 2219   3.076   0.032  10.884  0.6515 -0.6234  0.2197
  142TMC2    O2 2220   3.154   0.313  10.338 -0.3666 -0.1380  0.2717
  142TMC2    O5 2221   3.338   0.199  10.277 -0.1182  0.1295 -0.1939
  142TMC2    H5 2222   3.414   0.151  10.317  2.9849  3.2428 -2.3563
  143MPD2     C 2223   3.215   4.004  10.637  0.3350 -0.5079  0.1779
  143MPD2    C1 2224   3.236   4.064  10.511 -0.2951  0.2419 -0.0210
  143MPD2    C2 2225   3.248   4.204  10.503 -0.1398 -0.0914  0.3201
  143MPD2    C3 2226   3.251   4.276  10.623  0.3212 -0.5395 -0.2671
  143MPD2    C4 2227   3.246   4.209  10.744 -1.0070 -0.5419  0.0035
  143MPD2    C5 2228   3.231   4.075  10.752 -0.5657 -0.3736 -0.4830
  143MPD2     H 2229   3.265   4.253  10.407  1.4217 -1.0549  0.0907
  143MPD2    H1 2230   3.258   4.265  10.836  0.5262 -0.2728 -0.3631
  143MPD2    H2 2231   3.197   3.898  10.649 -0.3653 -0.0344  3.3225
  143MPD2    H3 2232   3.228   4.021  10.846  1.6242  2.8002  1.4285
  143MPD2     N 2233   3.263   4.416  10.624 -0.3385 -0.4262  0.0755
  143MPD2    H5 2234   3.246   4.454  10.716  0.6631  1.1675 -0.3944
  143MPD2    N1 2235   3.251   3.977  10.398 -0.0300 -0.1362  0.7593
  143MPD2    H7 2236   3.245   3.877  10.416 -1.5785 -0.5225 -1.9247
  144TMC2    C1 2237   0.947   3.094   1.003  1.1750 -0.8443  0.5693
  144TMC2    C2 2238   1.042   3.013   1.053 -0.4403 -0.8093 -0.0905
  144TMC2    C3 2239   1.156   3.059   1.109 -0.0405 -0.2518  0.1322
  144TMC2    C4 2240   0.973   3.226   0.994  0.0028 -0.4082 -0.1245
  144TMC2    C5 2241   1.093   3.275   1.026  0.3601  0.2212 -0.1221
  144TMC2    C6 2242   1.182   3.193   1.088  0.2874 -0.1309  0.2446
  144TMC2     C 2243   0.829   3.038   0.940 -0.2460  0.3834  0.6077
  144TMC2     O 2244   0.836   2.930   0.887  0.3393 -0.1603 -0.3603
  144TMC2     H 2245   1.020   2.907   1.056  0.5629 -1.0104  0.1238
  144TMC2    H1 2246   0.905   3.290   0.938 -0.0536 -0.1326  0.2613
  144TMC2    H2 2247   1.278   3.229   1.124 -0.8951  0.6503  2.5887
  144TMC2    C7 2248   1.133   3.415   1.010 -0.3708  0.0593  0.3475
  144TMC2    C8 2249   1.261   2.960   1.123  0.5350  0.0475 -1.1039
  144TMC2    O1 2250   1.250   3.441   1.018  0.1629  0.5661  0.2878
  144TMC2    O2 2251   1.278   2.878   1.038 -0.2649 -0.2861  0.2013
  144TMC2    O5 2252   1.368   3.025   1.175 -0.2840 -0.2753 -0.2972
  144TMC2    H5 2253   1.337   3.087   1.244  0.0879  1.7072 -1.8998
  145MPD2     C 2254   0.400   3.124   0.684  0.3407 -0.3656 -0.0779
  145MPD2    C1 2255   0.473   3.007   0.688  0.0697 -0.5445 -0.6162
  145MPD2    C2 2256   0.587   2.996   0.767  0.2816  0.0434  0.0714
  145MPD2    C3 2257   0.611   3.110   0.850  0.0495 -0.6133  0.3221
  145MPD2    C4 2258   0.527   3.220   0.854  0.0630  0.2619 -0.4101
  145MPD2    C5 2259   0.421   3.226   0.765  0.3506  0.3417 -0.4773
  145MPD2     H 2260   0.649   2.908   0.758 -0.8824 -0.7845  0.0601
  145MPD2    H1 2261   0.556   3.307   0.911 -1.7942  0.0267  0.8904
  145MPD2    H2 2262   0.320   3.135   0.612 -2.6403 -2.4111  2.9628
  145MPD2    H3 2263   0.366   3.318   0.748  0.4768  0.4607 -0.2502
  145MPD2     N 2264   0.726   3.124   0.929  0.1959 -0.5894  0.1502
  145MPD2    H5 2265   0.722   3.193   1.004  2.9899 -1.7192  1.3493
  145MPD2    N1 2266   0.448   2.901   0.595  0.1726  0.1020 -0.5232
  145MPD2    H7 2267   0.509   2.820   0.605 -2.0310 -1.9044 -3.2577
  146TMC2    C1 2268   1.657   1.503  12.768  0.4695 -0.0949  0.4218
  146TMC2    C2 2269   1.554   1.502  12.675  0.3441 -0.7317  0.0421
  146TMC2    C3 2270   1.556   1.402  12.576  0.0636  0.4912 -0.5593
  146TMC2    C4 2271   1.760   1.417  12.757  1.2018 -0.2087  0.0463
  146TMC2    C5 2272   1.760   1.324  12.656 -0.7492 -0.1301 -0.4174
  146TMC2    C6 2273   1.668   1.320  12.557  0.0910 -0.7113 -0.6337
  146TMC2     C 2274   1.640   1.590  12.883  0.3330 -0.0305 -0.0852
  146TMC2     O 2275   1.549   1.672  12.880 -0.8314  0.2091  0.2355
  146TMC2     H 2276   1.466   1.564  12.691 -0.0812 -1.7479  1.7070
  146TMC2    H1 2277   1.842   1.428  12.827 -0.5034 -0.8434  2.1292
  146TMC2    H2 2278   1.674   1.257  12.469 -0.0531 -0.1690 -1.0319
  146TMC2    C7 2279   1.887   1.269  12.618  0.2547 -0.0632 -0.1380
  146TMC2    C8 2280   1.445   1.409  12.476  0.3513  0.1753 -0.5207
  146TMC2    O1 2281   1.907   1.222  12.505  0.2134  0.1222 -0.4588
  146TMC2    O2 2282   1.380   1.513  12.458  0.1545  0.5467  0.9132
  146TMC2    O5 2283   1.439   1.294  12.403 -0.3101  0.0996 -0.0193
  146TMC2    H5 2284   1.489   1.217  12.437 -0.9737 -0.9319 -1.3889
  147MPD2     C 2285   2.392   1.176  12.675 -0.1180  0.5595 -0.2879
  147MPD2    C1 2286   2.333   1.184  12.800 -0.1844  0.1754 -0.2121
  147MPD2    C2 2287   2.201   1.230  12.807  0.5855  0.6059  0.3437
  147MPD2    C3 2288   2.115   1.233  12.694 -0.0555  0.1662  0.2979
  147MPD2    C4 2289   2.171   1.202  12.572 -0.5256  0.8246  1.2599
  147MPD2    C5 2290   2.307   1.184  12.564 -0.1468 -0.6468 -0.4002
  147MPD2     H 2291   2.151   1.246  12.902  2.8915 -1.8954  1.9784
  147MPD2    H1 2292   2.120   1.206  12.476 -0.3024  4.1414  1.2647
  147MPD2    H2 2293   2.493   1.139  12.660  0.2591  0.3772  2.6152
  147MPD2    H3 2294   2.345   1.185  12.463  1.4334  1.6173  0.2191
  147MPD2     N 2295   1.977   1.271  12.717  0.8150 -0.1097 -0.6132
  147MPD2    H5 2296   1.942   1.281  12.812 -1.7034 -1.0316 -1.4548
  147MPD2    N1 2297   2.419   1.154  12.911  0.1216 -0.3601  0.3240
  147MPD2    H7 2298   2.512   1.123  12.887 -0.3286 -0.4360 -1.3111
  148TMC2    C1 2299   2.331   0.921  10.701 -0.1351 -0.2084 -0.2281
  148TMC2    C2 2300   2.453   0.959  10.658 -0.7022  0.1010  0.1499
  148TMC2    C3 2301   2.566   0.886  10.699  0.0215  0.6406  0.6212
  148TMC2    C4 2302   2.319   0.808  10.781  0.0481  0.9560 -0.3129
  148TMC2    C5 2303   2.432   0.742  10.819  0.3257 -0.4083  0.0809
  148TMC2    C6 2304   2.559   0.787  10.799  0.2381  0.2773  0.3455
  148TMC2     C 2305   2.211   0.999  10.660 -0.6114 -0.2433  0.1566
  148TMC2     O 2306   2.234   1.108  10.610  0.4008 -0.0745 -0.2801
  148TMC2     H 2307   2.457   1.036  10.582  3.0912 -0.3574 -0.1046
  148TMC2    H1 2308   2.221   0.780  10.818  2.0979 -3.0881  2.0079
  148TMC2    H2 2309   2.648   0.749  10.847  0.1504 -0.9872 -0.4654
  148TMC2    C7 2310   2.404   0.605  10.864 -0.9150 -0.0405  0.1857
  148TMC2    C8 2311   2.692   0.929  10.662 -0.4564 -0.1522 -0.0982
  148TMC2    O1 2312   2.296   0.581  10.912 -0.3551  0.5023  0.3323
  148TMC2    O2 2313   2.709   1.045  10.622  0.1196 -0.2227 -0.5761
  148TMC2    O5 2314   2.756   0.819  10.625  0.7265 -0.0717 -0.4000
  148TMC2    H5 2315   2.711   0.740  10.662  0.4310  0.5599  0.6011
  149MPD2     C 2316   1.946   1.104  10.579  0.8310 -0.2876 -0.4488
  149MPD2    C1 2317   1.969   0.971  10.606 -0.3384 -0.6697 -0.1137
  149MPD2    C2 2318   1.863   0.880  10.597  0.0960 -0.1901  0.2351
  149MPD2    C3 2319   1.735   0.917  10.557 -0.3497  0.5401  0.3641
  149MPD2    C4 2320   1.718   1.047  10.517  0.2780 -0.1114 -0.7683
  149MPD2    C5 2321   1.825   1.138  10.527  0.4402  0.1437  0.3443
  149MPD2     H 2322   1.881   0.776  10.618  1.8409  0.3116  1.2017
  149MPD2    H1 2323   1.625   1.083  10.475  0.1486 -2.0345 -2.1398
  149MPD2    H2 2324   2.013   1.188  10.590  0.3127  0.1580 -0.6925
  149MPD2    H3 2325   1.809   1.237  10.487 -1.1977  0.5627  2.0282
  149MPD2     N 2326   1.623   0.836  10.545 -0.7445  0.3252  0.4837
  149MPD2    H5 2327   1.538   0.877  10.509 -0.7314  0.6087  0.7803
  149MPD2    N1 2328   2.092   0.930  10.667 -0.7398 -0.3921  0.5007
  149MPD2    H7 2329   2.103   0.834  10.696 -0.6638 -0.8260 -0.9900
  150TMC2    C1 2330   4.178   4.289  12.629 -0.4627  0.5900  0.1288
  150TMC2    C2 2331   4.115   4.409  12.616  0.0655 -0.0527  0.0046
  150TMC2    C3 2332   4.191   4.522  12.608  0.1542  0.1624 -0.6113
  150TMC2    C4 2333   4.313   4.278  12.646  0.1875  1.0514  0.7781
  150TMC2    C5 2334   4.385   4.397  12.637 -0.6995  0.8119  0.5229
  150TMC2    C6 2335   4.327   4.521  12.620  0.4395 -0.5031  0.4692
  150TMC2     C 2336   4.096   4.167  12.634  0.1865  0.4582  0.4989
  150TMC2     O 2337   4.139   4.068  12.691  0.0314  0.7464  0.0585
  150TMC2     H 2338   4.008   4.423  12.610  0.0131 -1.2146 -1.8138
  150TMC2    H1 2339   4.353   4.178  12.653  0.2036  0.9462 -0.7503
  150TMC2    H2 2340   4.393   4.606  12.626  3.5216 -2.7776 -0.9075
  150TMC2    C7 2341   4.528   4.381  12.629  0.4434  0.2086  0.3656
  150TMC2    C8 2342   4.117   4.638  12.654  0.1638 -0.6817 -0.8292
  150TMC2    O1 2343   4.596   4.462  12.572 -0.3990 -0.0574 -0.2179
  150TMC2    O2 2344   3.996   4.631  12.689  0.4824  0.0712 -0.4044
  150TMC2    O5 2345   4.202   4.737  12.695  0.5323  0.3694 -0.2366
  150TMC2    H5 2346   4.276   0.007  12.632 -1.1563 -0.4679 -2.3016
  151MPD2     C 2347   3.795   3.877  12.336  0.1113 -0.4151  0.2846
  151MPD2    C1 2348   3.743   3.996  12.351 -0.4386  0.2453 -0.5504
  151MPD2    C2 2349   3.799   4.092  12.433 -0.6519 -0.4290 -0.7857
  151MPD2    C3 2350   3.923   4.073  12.487  0.4948 -0.3133  0.4003
  151MPD2    C4 2351   3.979   3.944  12.471  0.3633 -0.0137 -0.6001
  151MPD2    C5 2352   3.913   3.849  12.404 -0.6103  0.1334  0.5631
  151MPD2     H 2353   3.752   4.188  12.451  0.0334  0.2387 -2.5498
  151MPD2    H1 2354   4.064   3.906  12.527  0.7831  1.7380 -0.0372
  151MPD2    H2 2355   3.756   3.802  12.269 -0.1386 -0.8695  0.9355
  151MPD2    H3 2356   3.961   3.752  12.412  0.9074  0.9782  1.8088
  151MPD2     N 2357   3.990   4.177  12.543 -0.2421  0.0181  0.0953
  151MPD2    H5 2358   3.956   4.269  12.516  0.1180  0.0175 -0.3644
  151MPD2    N1 2359   3.617   4.011  12.286 -0.3830 -0.3159  0.4380
  151MPD2    H7 2360   3.586   3.929  12.235  1.9810 -0.8733 -0.1079
  152TMC2    C1 2361   3.834   3.803  13.259 -0.7207  0.5916  0.1594
  152TMC2    C2 2362   3.902   3.698  13.207  0.5742  0.7397 -0.6629
  152TMC2    C3 2363   4.012   3.724  13.136 -0.0965  0.0035  0.4080
  152TMC2    C4 2364   3.882   3.935  13.244 -0.2970  0.1761 -0.1285
  152TMC2    C5 2365   3.994   3.948  13.173 -0.3356  0.1760  0.7469
  152TMC2    C6 2366   4.068   3.849  13.116 -0.2388  0.1389  0.5866
  152TMC2     C 2367   3.691   3.792  13.235 -0.0557 -0.6308  0.2335
  152TMC2     O 2368   3.650   3.882  13.164 -0.1265  0.0525 -0.0872
  152TMC2     H 2369   3.861   3.599  13.220  0.6455  0.7867 -0.0742
  152TMC2    H1 2370   3.835   4.021  13.292 -0.6992 -0.2576  0.2556
  152TMC2    H2 2371   4.160   3.859  13.059 -0.1954  0.3419  0.6930
  152TMC2    C7 2372   4.009   4.085  13.128 -0.4106 -0.8350 -0.1132
  152TMC2    C8 2373   4.087   3.610  13.085 -0.2239  0.1205  0.5269
  152TMC2    O1 2374   3.913   4.160  13.125 -0.2614 -0.2147  0.0797
  152TMC2    O2 2375   4.068   3.502  13.137  0.2005 -0.2664 -0.7410
  152TMC2    O5 2376   4.139   3.633  12.959  0.0327 -0.1166 -0.4329
  152TMC2    H5 2377   4.106   3.718  12.922 -0.9210 -0.0792  0.4911
  153MPD2     C 2378   3.440   3.583  13.398  0.0649  0.3160  0.1588
  153MPD2    C1 2379   3.492   3.671  13.303 -0.0807 -0.8464 -0.2953
  153MPD2    C2 2380   3.407   3.738  13.217  0.1159  0.4161  0.1938
  153MPD2    C3 2381   3.270   3.730  13.235 -0.4118 -0.1971  0.0438
  153MPD2    C4 2382   3.219   3.638  13.327  0.3389 -0.3349 -0.0462
  153MPD2    C5 2383   3.302   3.568  13.411  0.0001  0.2236  0.3402
  153MPD2     H 2384   3.440   3.805  13.139  0.2280 -1.3803 -1.2746
  153MPD2    H1 2385   3.114   3.642  13.352  0.5120 -0.4058  0.7067
  153MPD2    H2 2386   3.505   3.537  13.471 -0.4621  0.4717  0.7169
  153MPD2    H3 2387   3.268   3.503  13.490  1.7480  0.4222  1.2697
  153MPD2     N 2388   3.186   3.813  13.151  0.3877  0.0360  0.2228
  153MPD2    H5 2389   3.230   3.874  13.083 -1.0892  2.0117  1.0407
  153MPD2    N1 2390   3.635   3.682  13.302 -0.1901  0.1960  0.5436
  153MPD2    H7 2391   3.701   3.620  13.349  0.5921  0.5712 -0.0539
  154TMC2    C1 2392   0.696   0.006  17.602 -0.5930 -0.1000  0.0116
  154TMC2    C2 2393   0.754   0.053  17.720 -0.1305  0.7506  0.3143
  154TMC2    C3 2394   0.879   0.003  17.742  0.1377  1.0414  1.0421
  154TMC2    C4 2395   0.759   4.664  17.516  0.3754  0.0238  0.2633
  154TMC2    C5 2396   0.885   4.620  17.546  0.1981  0.2450 -0.5240
  154TMC2    C6 2397   0.943   4.658  17.663 -0.5239 -1.0876 -0.1117
  154TMC2     C 2398   0.551   4.735  17.597  0.6385 -0.1534  0.4468
  154TMC2     O 2399   0.498   0.100  17.633 -0.2832 -0.4214 -0.7846
  154TMC2     H 2400   0.698   0.122   0.035 -2.8050  0.6858 -2.0806
  154TMC2    H1 2401   0.717   4.646  17.418  0.9153 -0.6893  0.1596
  154TMC2    H2 2402   1.048   4.638  17.678 -0.2777 -0.1115 -0.5585
  154TMC2    C7 2403   0.971   4.535  17.462  0.1738 -0.6507 -0.4692
  154TMC2    C8 2404   0.912   4.711   0.127  0.2819  0.5729  1.1529
  154TMC2    O1 2405   1.067   4.475  17.515 -0.4670  0.2182 -0.0272
  154TMC2    O2 2406   0.972   4.606   0.159  0.3266  0.3011 -0.4007
  154TMC2    O5 2407   0.891   0.086   0.202 -0.3830 -0.0516 -0.5382
  154TMC2    H5 2408   0.860   0.170   0.162  0.4767  0.6031  0.1993
  155MPD2     C 2409   0.379   4.457  17.437 -0.2907  0.5516 -0.2047
  155MPD2    C1 2410   0.391   4.581  17.504  0.7454  0.1702 -0.8791
  155MPD2    C2 2411   0.292   4.677  17.503 -0.0205  0.1002  0.3944
  155MPD2    C3 2412   0.174   4.648  17.433  0.7136  0.0827 -0.5468
  155MPD2    C4 2413   0.167   4.525  17.364  0.1728 -0.2750  0.4932
  155MPD2    C5 2414   0.264   4.429  17.365 -0.8598  0.5101 -0.3644
  155MPD2     H 2415   0.292   0.033  17.559 -0.7140  0.1217  0.3613
  155MPD2    H1 2416   0.078   4.500  17.308 -0.0846  0.6382  0.4884
  155MPD2    H2 2417   0.461   4.388  17.420 -1.1328 -1.0252  2.1085
  155MPD2    H3 2418   0.254   4.333  17.316 -1.5004  0.7020 -0.6060
  155MPD2     N 2419   0.062   0.005  17.444  0.3450  0.2171  0.1993
  155MPD2    H5 2420   0.071   0.079  17.512  1.0375 -0.7042  1.1229
  155MPD2    N1 2421   0.511   4.605  17.562 -0.0878 -0.1778  0.5793
  155MPD2    H7 2422   0.572   4.524  17.560  0.0506 -0.0118 -3.0679
  156TMC2    C1 2423   3.624   1.720  12.190  0.0369  0.2767 -0.3268
  156TMC2    C2 2424   3.486   1.729  12.182 -0.9199  0.0956  0.9463
  156TMC2    C3 2425   3.438   1.808  12.078  0.0803  0.6332 -0.6172
  156TMC2    C4 2426   3.711   1.788  12.109  1.1629 -0.0160  0.2622
  156TMC2    C5 2427   3.654   1.871  12.014  0.2158  1.0103  0.7099
  156TMC2    C6 2428   3.520   1.870  11.993  0.5585  0.5360  0.1238
  156TMC2     C 2429   3.677   1.665  12.310  0.1029 -0.1317 -0.1189
  156TMC2     O 2430   3.777   1.726  12.346  0.0951  0.3394  0.5361
  156TMC2     H 2431   3.413   1.673  12.237  1.0246 -2.8303  0.5278
  156TMC2    H1 2432   3.809   1.815  12.144  2.0998 -2.3874 -0.5228
  156TMC2    H2 2433   3.479   1.941  11.923  0.7131  1.4928  1.0096
  156TMC2    C7 2434   3.745   1.939  11.924 -0.2368  0.1633  0.2393
  156TMC2    C8 2435   3.290   1.821  12.083 -0.0047  0.4064 -0.0648
  156TMC2    O1 2436   3.860   1.927  11.954  0.7474 -0.0964 -0.5789
  156TMC2    O2 2437   3.229   1.797  12.186 -0.0187  0.5849  0.0359
  156TMC2    O5 2438   3.234   1.829  11.955  0.4778 -0.0353 -0.1383
  156TMC2    H5 2439   3.295   1.858  11.884  2.4686 -3.8646 -0.0042
  157MPD2     C 2440   3.593   1.355  12.491  0.3704 -0.5344  0.1894
  157MPD2    C1 2441   3.652   1.475  12.466 -0.3347  0.1004  0.0687
  157MPD2    C2 2442   3.726   1.538  12.558 -0.5683  0.2056  0.9575
  157MPD2    C3 2443   3.759   1.476  12.681  0.1717 -0.2447 -0.1053
  157MPD2    C4 2444   3.702   1.353  12.706 -0.1563  0.0017 -0.1990
  157MPD2    C5 2445   3.611   1.297  12.616 -0.4661  0.2916  0.5931
  157MPD2     H 2446   3.758   1.641  12.548  1.4534 -0.1851  3.2524
  157MPD2    H1 2447   3.722   1.297  12.797  1.1104  0.9724  0.1206
  157MPD2    H2 2448   3.513   1.322  12.426 -0.6964  1.8181  0.3174
  157MPD2    H3 2449   3.556   1.209  12.645 -0.1795 -0.2107 -0.3891
  157MPD2     N 2450   3.851   1.543  12.762 -0.2749 -0.1715 -0.2510
  157MPD2    H5 2451   3.869   1.638  12.731  1.1441 -0.0648  0.9248
  157MPD2    N1 2452   3.613   1.551  12.350 -0.2204 -0.4426  0.7133
  157MPD2    H7 2453   3.546   1.513  12.284  2.1171 -0.3806 -1.6732
  158TMC2    C1 2454   3.859   0.555  13.523 -0.2962 -0.3523 -0.4585
  158TMC2    C2 2455   3.856   0.598  13.389 -0.2657  0.2166  0.0434
  158TMC2    C3 2456   3.750   0.664  13.349 -0.0319  0.5138 -0.0700
  158TMC2    C4 2457   3.746   0.571  13.604 -0.0215  0.1576  0.5196
  158TMC2    C5 2458   3.637   0.625  13.551  0.1674 -0.5337  0.6332
  158TMC2    C6 2459   3.638   0.677  13.421  0.3694 -0.2682 -0.0603
  158TMC2     C 2460   3.991   0.507  13.564  0.1569  0.2094 -0.0924
  158TMC2     O 2461   4.076   0.483  13.479  0.0440  0.2336  0.2270
  158TMC2     H 2462   3.943   0.588  13.326 -0.5979 -2.3182 -0.0165
  158TMC2    H1 2463   3.747   0.544  13.709 -0.9042  1.7373  0.9313
  158TMC2    H2 2464   3.550   0.722  13.377  0.4256 -0.1964 -0.0998
  158TMC2    C7 2465   3.501   0.620  13.604  0.6779 -0.2820  0.3070
  158TMC2    C8 2466   3.752   0.720  13.208 -0.0392  0.0473 -0.6201
  158TMC2    O1 2467   3.419   0.701  13.553  0.0414  0.3271  0.1787
  158TMC2    O2 2468   3.836   0.686  13.121  0.2883 -0.0760 -0.4024
  158TMC2    O5 2469   3.637   0.790  13.188 -0.4772  0.1742  0.4156
  158TMC2    H5 2470   3.603   0.827  13.272 -0.0997 -1.5552  1.3341
  159MPD2     C 2471   4.336   0.413  13.938 -0.5835 -0.6432 -0.2145
  159MPD2    C1 2472   4.208   0.436  13.995  0.2132 -1.0228  0.1898
  159MPD2    C2 2473   4.102   0.451  13.906  0.0896  0.0038  0.1398
  159MPD2    C3 2474   4.115   0.462  13.774 -0.0802  0.0710  0.6492
  159MPD2    C4 2475   4.243   0.455  13.717 -0.2962 -0.0742 -0.0601
  159MPD2    C5 2476   4.345   0.424  13.804 -0.1014  0.4968  0.5195
  159MPD2     H 2477   4.001   0.472  13.941  0.4599  0.3404  1.0032
  159MPD2    H1 2478   4.265   0.456  13.611 -1.8716  0.2953 -0.3787
  159MPD2    H2 2479   4.425   0.417  14.000 -0.2563 -1.6577 -0.6188
  159MPD2    H3 2480   4.445   0.418  13.763 -0.2505  1.2230  0.0396
  159MPD2     N 2481   4.001   0.486  13.703  0.7179 -0.8143  0.0087
  159MPD2    H5 2482   3.918   0.500  13.760  2.1914  2.4896  1.3515
  159MPD2    N1 2483   4.189   0.459  14.132  0.1879  0.6241 -0.2691
  159MPD2    H7 2484   4.270   0.457  14.192  0.6658  1.5785 -0.8898
  160TMC2    C1 2485   3.642   4.293   1.627 -0.8930 -0.0635  0.9398
  160TMC2    C2 2486   3.538   4.341   1.699 -0.2170 -0.3066  0.0609
  160TMC2    C3 2487   3.498   4.268   1.811 -0.5845 -0.1879  0.3063
  160TMC2    C4 2488   3.722   4.193   1.669  0.0577  0.1750 -0.0343
  160TMC2    C5 2489   3.680   4.125   1.778  0.1809 -0.0651  0.1755
  160TMC2    C6 2490   3.570   4.158   1.847  0.9671  0.3019  0.3270
  160TMC2     C 2491   3.686   4.366   1.514 -0.4322 -0.6387 -0.0695
  160TMC2     O 2492   3.804   4.366   1.487  0.7291  0.2857 -0.0122
  160TMC2     H 2493   3.501   4.440   1.677  0.8732  0.4967  1.8980
  160TMC2    H1 2494   3.810   4.173   1.610 -0.2487  0.5518 -0.6187
  160TMC2    H2 2495   3.551   4.112   1.943 -0.3663  1.4415  0.6213
  160TMC2    C7 2496   3.764   4.018   1.814 -0.1501 -0.1766 -0.2753
  160TMC2    C8 2497   3.366   4.283   1.871 -0.2155 -0.0119 -0.0727
  160TMC2    O1 2498   3.774   3.995   1.933 -0.2342 -0.2889 -0.5718
  160TMC2    O2 2499   3.301   4.181   1.906  0.2554 -0.0677  0.5005
  160TMC2    O5 2500   3.322   4.407   1.850  0.4467 -0.1738  0.5183
  160TMC2    H5 2501   3.387   4.477   1.829  2.8124 -2.1660  1.1903
  161MPD2     C 2502   3.696   4.557   1.288  0.0824 -0.4542 -0.3555
  161MPD2    C1 2503   3.585   4.483   1.324 -0.0172 -0.7177 -0.1588
  161MPD2    C2 2504   3.468   4.495   1.250  0.9464 -0.0894 -0.4009
  161MPD2    C3 2505   3.471   4.576   1.134 -0.2560  0.5300 -0.3189
  161MPD2    C4 2506   3.590   4.632   1.091  0.1283 -0.2946 -0.0133
  161MPD2    C5 2507   3.701   4.626   1.173  0.3716  0.1445 -0.8696
  161MPD2     H 2508   3.381   4.456   1.301  1.0586 -0.4555 -0.4841
  161MPD2    H1 2509   3.600   4.705   1.012  1.5999 -0.4631  0.0140
  161MPD2    H2 2510   3.780   4.549   1.357  1.0404 -2.7011 -1.7857
  161MPD2    H3 2511   3.786   4.686   1.143  0.4328  0.6780  0.3674
  161MPD2     N 2512   3.348   4.599   1.059  0.5840  0.1973  0.3144
  161MPD2    H5 2513   3.341   4.666   0.983 -1.2657  0.6541  0.8744
  161MPD2    N1 2514   3.581   4.409   1.444 -0.3865 -0.0069 -0.2714
  161MPD2    H7 2515   3.493   4.363   1.461 -0.5540  0.0048 -1.0794
  162TMC2    C1 2516   0.897   0.983   0.950  0.2639  0.7698  0.0979
  162TMC2    C2 2517   0.780   0.934   0.999  0.0154  0.6040  0.4407
  162TMC2    C3 2518   0.730   0.999   1.110  0.7776 -0.5265 -0.4407
  162TMC2    C4 2519   0.963   1.093   1.007 -0.0735  0.0736  0.0367
  162TMC2    C5 2520   0.909   1.149   1.122  0.2528 -0.2088  0.3027
  162TMC2    C6 2521   0.784   1.109   1.169  0.0044  0.0115  0.6351
  162TMC2     C 2522   0.943   0.940   0.823  0.2871 -0.5543 -0.1646
  162TMC2     O 2523   1.057   0.966   0.789 -0.2900  0.5212  0.0038
  162TMC2     H 2524   0.747   0.836   0.968  0.2825 -0.2347  2.7833
  162TMC2    H1 2525   1.055   1.127   0.961  1.1325  0.0319  2.4261
  162TMC2    H2 2526   0.739   1.153   1.258  1.0410 -0.9581  1.6308
  162TMC2    C7 2527   0.994   1.230   1.214 -0.3830  0.4528 -0.0663
  162TMC2    C8 2528   0.619   0.944   1.178 -0.1094  0.6748 -0.1607
  162TMC2    O1 2529   0.956   1.256   1.331  0.2487 -0.8606 -0.4087
  162TMC2    O2 2530   0.585   0.977   1.294  0.1688  0.6569  0.1956
  162TMC2    O5 2531   0.532   0.928   1.071  0.2405 -0.5212 -0.4840
  162TMC2    H5 2532   0.580   0.921   0.986  0.3733 -0.1073 -0.4414
  163MPD2     C 2533   0.880   0.689   0.380 -0.6376 -0.1683 -0.3246
  163MPD2    C1 2534   0.994   0.745   0.433 -0.1285 -0.1729  0.6190
  163MPD2    C2 2535   0.990   0.816   0.549 -0.1411  0.1359  0.4512
  163MPD2    C3 2536   0.866   0.818   0.620  0.5380 -0.3109 -0.0211
  163MPD2    C4 2537   0.754   0.758   0.564 -0.4778  0.2070  0.0453
  163MPD2    C5 2538   0.757   0.700   0.437  0.1022  0.1981 -0.8420
  163MPD2     H 2539   1.078   0.870   0.583  0.4137 -0.5039  0.0182
  163MPD2    H1 2540   0.661   0.749   0.619 -0.6001  0.1130 -0.1763
  163MPD2    H2 2541   0.882   0.647   0.280 -0.3882 -2.2202  0.5384
  163MPD2    H3 2542   0.674   0.668   0.375 -1.2084  0.3114  0.8574
  163MPD2     N 2543   0.845   0.880   0.747  0.1595 -0.2484 -0.4465
  163MPD2    H5 2544   0.749   0.877   0.780  0.5179 -2.4264  0.4115
  163MPD2    N1 2545   1.112   0.730   0.353 -0.5062  0.4004  0.2954
  163MPD2    H7 2546   1.103   0.691   0.260  0.6478 -0.0930  0.3931
  164TMC2    C1 2547   2.733   1.358  11.224 -0.2749 -0.7230 -0.2615
  164TMC2    C2 2548   2.731   1.496  11.243  0.5600 -0.4200 -0.4950
  164TMC2    C3 2549   2.633   1.551  11.321  0.6700 -0.0183  0.2068
  164TMC2    C4 2550   2.651   1.273  11.296 -0.8777  0.5612 -0.6352
  164TMC2    C5 2551   2.551   1.336  11.378  0.3965 -0.6765 -0.4573
  164TMC2    C6 2552   2.541   1.477  11.394 -0.1036  0.0144  0.6178
  164TMC2     C 2553   2.818   1.317  11.114  0.8290  0.2522  0.4361
  164TMC2     O 2554   2.901   1.397  11.074 -0.3906  0.0802 -0.2665
  164TMC2     H 2555   2.784   1.565  11.176  1.1265 -0.8090 -0.4478
  164TMC2    H1 2556   2.657   1.167  11.279  0.2742  0.2382  1.8882
  164TMC2    H2 2557   2.452   1.529  11.426  0.3662  1.3490 -0.2737
  164TMC2    C7 2558   2.427   1.260  11.399 -0.1743 -0.0695 -0.2411
  164TMC2    C8 2559   2.626   1.694  11.316  0.8358 -0.4701 -0.5808
  164TMC2    O1 2560   2.335   1.336  11.419  0.3575  0.2018  0.2803
  164TMC2    O2 2561   2.626   1.752  11.207  0.4479  0.0440 -0.3479
  164TMC2    O5 2562   2.601   1.728  11.444 -0.2502 -0.2131  0.1854
  164TMC2    H5 2563   2.609   1.657  11.510  0.8416  1.2845  1.6531
  165TMC2    C1 2564   3.469   3.099   1.277 -0.4733  0.1757 -0.6430
  165TMC2    C2 2565   3.444   2.968   1.240 -0.0800 -0.0582  0.6287
  165TMC2    C3 2566   3.541   2.879   1.274  0.1558 -0.0832  0.3204
  165TMC2    C4 2567   3.576   3.130   1.351 -0.5983 -0.7101  1.1095
  165TMC2    C5 2568   3.667   3.034   1.383  0.0218  0.4155  0.4598
  165TMC2    C6 2569   3.660   2.907   1.333  0.7285  0.0723 -0.3227
  165TMC2     C 2570   3.368   3.204   1.251  0.2442 -0.1765  0.0972
  165TMC2     O 2571   3.383   3.302   1.320 -0.1949 -0.2915 -0.2561
  165TMC2     H 2572   3.352   2.939   1.190 -0.5899  1.4123  0.7106
  165TMC2    H1 2573   3.582   3.229   1.395  1.9322  0.8887 -2.8637
  165TMC2    H2 2574   3.730   2.829   1.360  0.5737  0.1391  0.2649
  165TMC2    C7 2575   3.795   3.086   1.433 -0.2749  0.3044 -0.9198
  165TMC2    C8 2576   3.514   2.732   1.254  0.4371 -0.4274 -0.7238
  165TMC2    O1 2577   3.891   3.015   1.390  0.1071 -0.5395  0.0405
  165TMC2    O2 2578   3.408   2.705   1.197  0.4395  0.5121 -0.4018
  165TMC2    O5 2579   3.539   2.672   1.370 -1.0575  0.1670 -0.1699
  165TMC2    H5 2580   3.619   2.706   1.416  0.9892 -1.2627 -2.6115
  166MPD2     C 2581   2.940   3.379   1.039 -0.3101 -0.1100  0.0604
  166MPD2    C1 2582   3.026   3.444   1.128 -0.6981  0.7170 -0.2265
  166MPD2    C2 2583   3.141   3.376   1.166  0.2219 -0.2529 -0.0639
  166MPD2    C3 2584   3.158   3.247   1.129 -0.1171  0.0800  0.0234
  166MPD2    C4 2585   3.070   3.182   1.041  0.2668 -0.4495 -0.3520
  166MPD2    C5 2586   2.961   3.251   0.998  0.6077  0.2532  0.0732
  166MPD2     H 2587   3.206   3.410   1.246 -0.5072  0.2513  0.3254
  166MPD2    H1 2588   3.084   3.081   1.003  1.6133 -0.9044  1.3690
  166MPD2    H2 2589   2.852   3.432   1.004 -0.4903  0.6783  1.6695
  166MPD2    H3 2590   2.898   3.197   0.928  2.2280 -0.4593 -0.8411
  166MPD2     N 2591   3.259   3.158   1.171  0.2851 -0.0144 -0.0822
  166MPD2    H5 2592   3.270   3.073   1.116  3.6061  0.4429 -0.0951
  166MPD2    N1 2593   3.002   3.577   1.173 -0.6513 -0.5221  0.2303
  166MPD2    H7 2594   2.906   3.606   1.160 -0.9056 -2.1283 -1.3804
  167TMC2    C1 2595   2.549   4.187  12.967 -0.3239 -0.0279 -0.2182
  167TMC2    C2 2596   2.524   4.210  13.101  0.4887 -0.6728  0.2184
  167TMC2    C3 2597   2.414   4.158  13.158  0.6753 -0.2174 -0.1266
  167TMC2    C4 2598   2.447   4.136  12.889  0.1987 -0.3478  0.1664
  167TMC2    C5 2599   2.322   4.111  12.946  0.1247 -0.1753  0.4010
  167TMC2    C6 2600   2.311   4.109  13.082  0.4420 -0.0079 -0.2585
  167TMC2     C 2601   2.612   4.298  12.895 -0.0590 -0.3538 -0.3489
  167TMC2     O 2602   2.702   4.266  12.819  0.6893  0.9314 -0.8674
  167TMC2     H 2603   2.596   4.261  13.164 -1.6579 -0.1990  2.2895
  167TMC2    H1 2604   2.462   4.136  12.781 -1.0476  0.8862 -0.0074
  167TMC2    H2 2605   2.216   4.083  13.127  0.0812  1.9282  0.0656
  167TMC2    C7 2606   2.200   4.146  12.880  0.6350  0.0097  0.3154
  167TMC2    C8 2607   2.395   4.188  13.296  0.2355 -0.0090 -0.5134
  167TMC2    O1 2608   2.095   4.155  12.948 -0.0162 -0.0449 -0.8354
  167TMC2    O2 2609   2.457   4.273  13.355  0.4576 -0.1797 -0.3382
  167TMC2    O5 2610   2.334   4.083  13.357  0.6045 -0.1434 -0.6891
  167TMC2    H5 2611   2.286   4.021  13.299  0.6865 -1.8020  1.0007
  168MPD2     C 2612   2.593   4.500  12.670  0.3232  0.6538 -0.0673
  168MPD2    C1 2613   2.490   4.456  12.752 -0.1392  0.4980 -0.0984
  168MPD2    C2 2614   2.360   4.480  12.720 -0.6435  0.0476  0.6677
  168MPD2    C3 2615   2.332   4.539  12.603  0.2720  0.0049  0.0266
  168MPD2    C4 2616   2.431   4.577  12.516  0.5718 -0.5483  0.7288
  168MPD2    C5 2617   2.563   4.564  12.549 -0.2355 -1.3042  0.2223
  168MPD2     H 2618   2.283   4.446  12.787 -1.5402  2.0046  0.6354
  168MPD2    H1 2619   2.404   4.620  12.420  2.4982 -1.6151 -0.3161
  168MPD2    H2 2620   2.696   4.486  12.698  0.1163 -0.5045  0.1413
  168MPD2    H3 2621   2.641   4.603  12.485 -1.1248  1.8522  1.0623
  168MPD2     N 2622   2.195   4.552  12.582  0.2899 -0.4506  0.5233
  168MPD2    H5 2623   2.129   4.514  12.650 -2.4084 -1.1107 -2.4905
  168MPD2    N1 2624   2.511   4.383  12.872 -0.7644  0.3821 -0.4569
  168MPD2    H7 2625   2.425   4.375  12.926  0.3730 -3.2757  0.8024
  169MPD1     C 2626   3.956   0.791   9.171  0.5865  0.1695  0.0837
  169MPD1    C1 2627   4.034   0.851   9.268  0.6662  0.1514 -0.5882
  169MPD1    C2 2628   4.078   0.768   9.365 -0.5084  0.7399  0.8044
  169MPD1    C3 2629   4.066   0.630   9.359 -0.1884  0.1898 -0.2213
  169MPD1    C4 2630   4.009   0.575   9.251  0.2452  0.0641 -0.7596
  169MPD1    C5 2631   3.947   0.653   9.161 -0.3641 -0.1497 -0.0720
  169MPD1     H 2632   4.128   0.809   9.452 -1.7104  1.1174  1.3166
  169MPD1    H1 2633   3.990   0.469   9.233  0.9028  0.0733 -1.5250
  169MPD1    H2 2634   3.906   0.850   9.094 -0.0098  0.0221  0.3592
  169MPD1    H3 2635   3.880   0.608   9.089 -0.5157  0.3327 -0.2282
  169MPD1     N 2636   4.094   0.565   9.482  0.5754 -0.1197 -0.2990
  169MPD1    H5 2637   4.142   0.620   9.553 -0.1720 -2.3666  1.9301
  169MPD1    N1 2638   4.027   0.990   9.291 -0.1713 -0.1749 -0.3038
  169MPD1    H6 2639   4.017   1.050   9.209  1.3789 -1.2530 -1.2813
  169MPD1    H7 2640   4.105   1.025   9.346 -2.5795  2.0317  1.6783
  170MPD1     C 2641   2.928   1.967  13.233 -0.3241  0.2622 -0.5367
  170MPD1    C1 2642   2.984   1.942  13.359  0.6066 -0.0742 -0.5037
  170MPD1    C2 2643   2.921   1.989  13.470  0.1464  0.5645 -0.1159
  170MPD1    C3 2644   2.809   2.070  13.464 -0.0512  0.2807  0.5577
  170MPD1    C4 2645   2.751   2.090  13.343 -0.1162  0.2114 -0.8773
  170MPD1    C5 2646   2.810   2.036  13.229  0.1311  0.0186 -0.4254
  170MPD1     H 2647   2.968   1.974  13.566  0.2848 -1.8744 -0.5530
  170MPD1    H1 2648   2.659   2.147  13.332 -0.0738  0.4583  0.0699
  170MPD1    H2 2649   2.965   1.919  13.143  1.0640  2.6943 -1.2691
  170MPD1    H3 2650   2.780   2.069  13.130 -1.0511  1.0134  0.2627
  170MPD1     N 2651   2.755   2.122  13.582  0.1546  0.4851  0.0628
  170MPD1    H5 2652   2.803   2.090  13.666  1.9698 -1.1602 -1.5871
  170MPD1    N1 2653   3.099   1.867  13.371  0.2002 -0.0517 -0.0641
  170MPD1    H6 2654   3.164   1.928  13.421 -0.6956  1.0667 -0.2564
  170MPD1    H7 2655   3.153   1.852  13.286 -2.2495 -1.0433 -1.4285
  171MPD1     C 2656   0.910   3.717  15.684  0.3451 -0.2376 -0.3030
  171MPD1    C1 2657   0.869   3.602  15.618  0.3385 -0.0326  0.3263
  171MPD1    C2 2658   0.938   3.485  15.640  0.0915 -0.2631  0.3481
  171MPD1    C3 2659   1.068   3.483  15.700 -0.4608 -0.2202  0.3210
  171MPD1    C4 2660   1.113   3.607  15.739 -0.1650 -0.0639  0.6473
  171MPD1    C5 2661   1.035   3.717  15.737 -0.2497  0.4271  0.5312
  171MPD1     H 2662   0.897   3.395  15.595  0.1631  0.6665 -1.5923
  171MPD1    H1 2663   1.214   3.628  15.773  0.5220 -0.5502 -1.0896
  171MPD1    H2 2664   0.847   3.805  15.687  0.1177 -0.4877  1.9048
  171MPD1    H3 2665   1.074   3.813  15.769  0.5478  0.4620 -0.5271
  171MPD1     N 2666   1.164   3.377  15.694  0.3845  0.4397 -0.5880
  171MPD1    H5 2667   1.258   3.398  15.725  0.6553 -1.5304 -0.0838
  171MPD1    N1 2668   0.736   3.597  15.571  0.1917  0.1158 -0.0585
  171MPD1    H6 2669   0.701   3.680  15.524  2.3452  0.2409 -1.4520
  171MPD1    H7 2670   0.716   3.516  15.514  2.6866 -1.7808  1.7654
  172MPD1     C 2671   0.699   2.199   0.510 -0.1790 -0.1589  0.2320
  172MPD1    C1 2672   0.615   2.303   0.515 -0.3860  0.8632  0.0167
  172MPD1    C2 2673   0.677   2.428   0.512 -0.2634  0.2159 -0.2558
  172MPD1    C3 2674   0.813   2.444   0.508  0.2853  0.1884 -0.1068
  172MPD1    C4 2675   0.886   2.332   0.489  0.8191  0.2208 -0.0784
  172MPD1    C5 2676   0.831   2.209   0.486 -0.7950 -0.4341  0.2028
  172MPD1     H 2677   0.609   2.512   0.521 -1.4043 -0.7030 -0.3084
  172MPD1    H1 2678   0.992   2.338   0.467  0.7715  2.6884  0.4107
  172MPD1    H2 2679   0.656   2.100   0.497 -0.4525 -0.3453  2.5626
  172MPD1    H3 2680   0.885   2.117   0.469 -0.0537 -0.3043  1.8451
  172MPD1     N 2681   0.883   2.566   0.512  0.5390 -0.0562  0.4177
  172MPD1    H5 2682   0.981   2.559   0.487  0.0018  0.7402 -1.9246
  172MPD1    N1 2683   0.473   2.284   0.504  0.3389  0.6915  0.5773
  172MPD1    H6 2684   0.420   2.351   0.559 -0.5437 -0.7024  1.3995
  172MPD1    H7 2685   0.438   2.197   0.542  0.6567  0.6986  0.8897
  173MPD1     C 2686   1.798   1.855  13.847  0.2064 -0.2184  0.4362
  173MPD1    C1 2687   1.921   1.918  13.862 -0.0814 -0.1408 -0.0472
  173MPD1    C2 2688   1.934   2.022  13.951 -0.4694  0.0818 -0.5901
  173MPD1    C3 2689   1.829   2.056  14.034  0.1631  0.2899 -0.1835
  173MPD1    C4 2690   1.697   2.004  14.002  0.5152 -0.1546  0.7176
  173MPD1    C5 2691   1.692   1.906  13.910 -0.2329 -0.6307  0.3723
  173MPD1     H 2692   2.033   2.060  13.972 -0.5772 -0.0174  0.1024
  173MPD1    H1 2693   1.605   2.039  14.047 -0.2960 -0.8412 -0.4049
  173MPD1    H2 2694   1.774   1.783  13.770  1.7091  0.0816 -0.3289
  173MPD1    H3 2695   1.601   1.854  13.883 -0.0972  0.4872 -2.2072
  173MPD1     N 2696   1.857   2.156  14.132  0.2780 -0.5184  0.0949
  173MPD1    H5 2697   1.952   2.190  14.137 -0.0308  0.9446 -3.8122
  173MPD1    N1 2698   2.027   1.863  13.790  0.5711 -0.0408 -0.3952
  173MPD1    H6 2699   2.081   1.931  13.736 -0.4223  0.2183 -1.0613
  173MPD1    H7 2700   1.995   1.790  13.728  2.9532 -1.1143 -0.3506
  174MPD1     C 2701   2.548   2.706  14.603 -0.2575  0.1241 -0.2441
  174MPD1    C1 2702   2.464   2.739  14.496  0.1534 -0.6107  0.4374
  174MPD1    C2 2703   2.347   2.668  14.472 -0.4845  0.4258 -0.0059
  174MPD1    C3 2704   2.323   2.559  14.551  0.3385 -0.0348  0.2560
  174MPD1    C4 2705   2.419   2.517  14.636 -0.8132 -0.1884  0.5090
  174MPD1    C5 2706   2.528   2.588  14.668  0.1751  1.0034 -0.5284
  174MPD1     H 2707   2.285   2.687  14.386 -0.0264 -0.8506 -0.6148
  174MPD1    H1 2708   2.408   2.427  14.696 -1.3187  0.8095  1.9283
  174MPD1    H2 2709   2.629   2.772  14.628 -0.8501  1.2886 -1.3999
  174MPD1    H3 2710   2.588   2.564  14.755 -1.1872 -0.1738  0.0874
  174MPD1     N 2711   2.213   2.471  14.527  0.5215 -0.3060 -0.1197
  174MPD1    H5 2712   2.205   2.393  14.592  1.3063  0.1135  0.4938
  174MPD1    N1 2713   2.495   2.850  14.415 -0.1018 -0.1137  0.0994
  174MPD1    H6 2714   2.594   2.873  14.424 -0.1313 -0.6328  1.6841
  174MPD1    H7 2715   2.481   2.829  14.317  0.6141  0.6390 -0.1674
  175MPD1     C 2716   0.634   3.300  15.763 -0.1851  0.5810 -0.0429
  175MPD1    C1 2717   0.504   3.263  15.786  0.2199  0.2358  0.0183
  175MPD1    C2 2718   0.464   3.247  15.918 -0.4038  0.0494 -0.6473
  175MPD1    C3 2719   0.548   3.275  16.025 -0.4871 -0.2593 -0.0461
  175MPD1    C4 2720   0.679   3.315  15.995 -0.1372 -0.7204  0.4944
  175MPD1    C5 2721   0.721   3.332  15.867  0.1027 -0.9954 -0.0760
  175MPD1     H 2722   0.371   3.196  15.941 -0.0643 -0.7677 -1.0670
  175MPD1    H1 2723   0.756   3.335  16.070  0.9105  0.7682 -0.9850
  175MPD1    H2 2724   0.681   3.312  15.667  0.9558  0.6175  0.5181
  175MPD1    H3 2725   0.828   3.342  15.852  0.0390 -2.7524 -1.7939
  175MPD1     N 2726   0.515   3.261  16.159  0.2877  0.0653  0.3557
  175MPD1    H5 2727   0.591   3.279  16.224  2.6789  0.0046 -2.4352
  175MPD1    N1 2728   0.420   3.221  15.680  0.0507 -0.0315  0.1304
  175MPD1    H6 2729   0.438   3.265  15.590  2.8689 -0.4038  0.5289
  175MPD1    H7 2730   0.325   3.254  15.698  0.5912  0.8434  1.3867
  176MPD1     C 2731   1.659   0.190  16.707  0.4926  0.1547  0.3009
  176MPD1    C1 2732   1.724   0.177  16.822  0.5779  0.2727  0.3122
  176MPD1    C2 2733   1.695   0.270  16.922  0.0798 -0.8253 -0.2128
  176MPD1    C3 2734   1.600   0.370  16.907 -0.5166 -0.0787 -0.4117
  176MPD1    C4 2735   1.529   0.367  16.788  1.0145  0.3795 -0.5014
  176MPD1    C5 2736   1.563   0.281  16.689  1.0413 -0.5709 -0.2647
  176MPD1     H 2737   1.728   0.245  17.022  0.5782  0.4016 -0.0702
  176MPD1    H1 2738   1.439   0.427  16.777  0.7792  0.0772 -0.2392
  176MPD1    H2 2739   1.666   0.114  16.631  1.2803  2.3615 -1.8334
  176MPD1    H3 2740   1.510   0.299  16.596  2.3823  0.9191 -0.7474
  176MPD1     N 2741   1.573   0.453  17.022  0.5785 -0.2212 -0.0393
  176MPD1    H5 2742   1.627   0.427  17.105  0.1058  1.3117  0.7597
  176MPD1    N1 2743   1.804   0.062  16.845  0.0030  0.3112 -0.3278
  176MPD1    H6 2744   1.825   0.014  16.758 -1.1394 -1.3157  0.2894
  176MPD1    H7 2745   1.757   4.737  16.910  1.5121 -1.8760 -1.3144
  177MPD1     C 2746   0.849   1.168   9.757  0.0452 -0.0719 -0.2159
  177MPD1    C1 2747   0.744   1.086   9.712 -0.5529 -0.5833  0.2473
  177MPD1    C2 2748   0.626   1.147   9.674 -0.5836  0.3834  0.2065
  177MPD1    C3 2749   0.611   1.284   9.656 -0.2316  0.6863 -0.3659
  177MPD1    C4 2750   0.712   1.363   9.714  0.7948  0.1057 -0.3849
  177MPD1    C5 2751   0.833   1.305   9.744 -0.3415 -0.2461 -0.1224
  177MPD1     H 2752   0.544   1.084   9.641  1.4503 -1.9543 -0.4227
  177MPD1    H1 2753   0.720   1.471   9.709  0.9893  0.1901  1.6162
  177MPD1    H2 2754   0.942   1.138   9.803  0.1837  1.3697  0.4440
  177MPD1    H3 2755   0.915   1.372   9.767  0.0023  0.1089 -2.3664
  177MPD1     N 2756   0.488   1.331   9.599  0.2328  0.4706 -0.3328
  177MPD1    H5 2757   0.427   1.257   9.568 -1.7140  1.3876  1.2948
  177MPD1    N1 2758   0.741   0.947   9.733 -0.2409  0.8632  0.1680
  177MPD1    H6 2759   0.826   0.898   9.706 -0.6062  0.9508 -1.1235
  177MPD1    H7 2760   0.682   0.899   9.665 -0.0069 -1.6312  1.7146
  178MPD1     C 2761   2.394   1.579   0.818  0.0248  0.4175 -0.1071
  178MPD1    C1 2762   2.405   1.482   0.721 -0.4916 -0.1137 -1.2983
  178MPD1    C2 2763   2.445   1.526   0.598 -0.0051  0.1457 -0.1325
  178MPD1    C3 2764   2.494   1.656   0.571  0.7285  0.0663  0.5599
  178MPD1    C4 2765   2.492   1.746   0.676  0.5489  0.4040 -0.5128
  178MPD1    C5 2766   2.439   1.706   0.796 -0.5517  0.6132  0.2179
  178MPD1     H 2767   2.434   1.457   0.515  0.0945  0.9656 -0.8317
  178MPD1    H1 2768   2.524   1.849   0.665 -0.1788  0.8343  1.4834
  178MPD1    H2 2769   2.350   1.556   0.915 -1.3144 -0.5002 -0.9384
  178MPD1    H3 2770   2.416   1.776   0.876 -0.6939 -0.2899  0.9750
  178MPD1     N 2771   2.557   1.705   0.453 -0.1876 -0.8952 -0.1347
  178MPD1    H5 2772   2.611   1.791   0.455  0.3036 -1.3097  3.8002
  178MPD1    N1 2773   2.342   1.358   0.736  0.2547 -0.3257 -0.0778
  178MPD1    H6 2774   2.378   1.285   0.675 -0.0027 -0.3538 -0.1944
  178MPD1    H7 2775   2.322   1.320   0.828 -1.3097 -0.4601 -0.4669
  179MPD1     C 2776   2.923   4.660  15.931 -0.3432 -0.4033  0.0259
  179MPD1    C1 2777   2.914   4.522  15.922 -0.0307  0.2314  0.2889
  179MPD1    C2 2778   2.798   4.462  15.967  0.0313 -0.1945  0.2576
  179MPD1    C3 2779   2.696   4.545  16.011  0.1904 -0.1336 -0.9518
  179MPD1    C4 2780   2.687   4.672  15.986  0.1356  0.2197 -0.1487
  179MPD1    C5 2781   2.811   4.734  15.957  0.8164  0.1451  0.5237
  179MPD1     H 2782   2.792   4.354  15.978  0.8671 -0.3171 -0.4587
  179MPD1    H1 2783   2.605   4.734  16.021  1.2720  1.1624  0.8624
  179MPD1    H2 2784   3.015   4.716  15.934 -0.9984  0.6009  1.2135
  179MPD1    H3 2785   2.828   0.104  15.957  1.3637  0.0615 -1.0753
  179MPD1     N 2786   2.586   4.495  16.082 -0.1216 -0.0305 -0.1712
  179MPD1    H5 2787   2.513   4.564  16.090 -0.0684  0.2343 -1.8886
  179MPD1    N1 2788   3.039   4.457  15.901 -0.1901  0.0531 -0.8311
  179MPD1    H6 2789   3.111   4.512  15.855 -0.1794  1.3855  0.7920
  179MPD1    H7 2790   3.034   4.374  15.842  0.4181  0.6039 -1.6429
  180MPD1     C 2791   2.136   0.925  15.931  0.2918  0.5606 -0.2566
  180MPD1    C1 2792   2.141   1.051  15.881  0.4353  0.8955  0.1483
  180MPD1    C2 2793   2.127   1.062  15.749 -0.3699  0.2109 -0.4030
  180MPD1    C3 2794   2.090   0.958  15.666 -0.4797  0.1576 -0.0174
  180MPD1    C4 2795   2.073   0.832  15.725 -0.1363 -0.3133  0.4716
  180MPD1    C5 2796   2.107   0.819  15.856 -0.0052  0.0416  0.2572
  180MPD1     H 2797   2.139   1.160  15.703 -0.2588  0.0212 -0.7828
  180MPD1    H1 2798   2.045   0.747  15.663 -0.7362  0.3710 -0.2021
  180MPD1    H2 2799   2.167   0.903  16.032 -1.1941 -2.6748 -0.5004
  180MPD1    H3 2800   2.116   0.722  15.905 -1.6031 -0.2922 -0.0907
  180MPD1     N 2801   2.061   0.977  15.533 -0.2327  0.4917  0.7042
  180MPD1    H5 2802   2.081   1.071  15.499 -0.7523  0.8411  1.3527
  180MPD1    N1 2803   2.194   1.155  15.964  0.5435 -0.0731 -0.1579
  180MPD1    H6 2804   2.167   1.250  15.941  1.5889  0.8537  2.5275
  180MPD1    H7 2805   2.181   1.134  16.063  1.5960 -0.1069 -0.0289
  181MPD1     C 2806   4.325   2.972  10.673  0.9216  0.0420  0.6310
  181MPD1    C1 2807   4.332   3.059  10.775  0.1510 -0.2559  0.3412
  181MPD1    C2 2808   4.412   3.170  10.763 -0.3000  0.6941  0.4635
  181MPD1    C3 2809   4.465   3.200  10.640  0.1037 -0.3088  0.3965
  181MPD1    C4 2810   4.454   3.114  10.540  0.4552  0.1471  0.8530
  181MPD1    C5 2811   4.381   3.001  10.554 -0.4924 -0.1143  0.2417
  181MPD1     H 2812   4.427   3.221  10.857  1.8269 -1.0085  1.0561
  181MPD1    H1 2813   4.494   3.139  10.442 -0.0057  0.0270  0.6322
  181MPD1    H2 2814   4.270   2.878  10.680  0.6823  0.2311  1.2448
  181MPD1    H3 2815   4.372   2.923  10.480  0.5998  1.8136 -1.9016
  181MPD1     N 2816   4.550   3.313  10.622  0.0713  0.1441  0.7239
  181MPD1    H5 2817   4.591   3.333  10.531  1.9984 -0.1568  1.5202
  181MPD1    N1 2818   4.281   3.021  10.904 -0.0847 -0.0896  0.2173
  181MPD1    H6 2819   4.192   2.974  10.893 -0.6727  0.3886  3.0627
  181MPD1    H7 2820   4.273   3.095  10.972 -1.6408 -0.9712  0.9844
  182MPD1     C 2821   4.378   2.413   2.350  0.6932  0.1890  0.4016
  182MPD1    C1 2822   4.242   2.439   2.340 -0.1899 -0.5182 -0.2397
  182MPD1    C2 2823   4.195   2.480   2.220 -0.3952  0.1366 -0.0544
  182MPD1    C3 2824   4.277   2.496   2.108 -0.4014  0.3416 -0.5980
  182MPD1    C4 2825   4.410   2.462   2.122 -0.3954 -0.3329 -0.0572
  182MPD1    C5 2826   4.459   2.420   2.246 -0.5174 -0.5975 -0.6088
  182MPD1     H 2827   4.089   2.498   2.206 -0.3424  1.0535  0.7460
  182MPD1    H1 2828   4.478   2.452   2.038  0.3785  2.5494  0.2103
  182MPD1    H2 2829   4.423   2.395   2.448  2.1868 -0.3126 -0.3781
  182MPD1    H3 2830   4.561   2.384   2.250  0.4359  2.1006 -0.0972
  182MPD1     N 2831   4.244   2.558   1.981  0.0048 -0.3758  0.4240
  182MPD1    H5 2832   4.306   2.547   1.902 -0.8544 -0.5082 -0.2271
  182MPD1    N1 2833   4.164   2.439   2.453 -0.0498 -0.0663 -0.1673
  182MPD1    H6 2834   4.199   2.377   2.526 -0.7079  0.9073  0.9987
  182MPD1    H7 2835   4.070   2.409   2.427 -0.5292 -0.0540  1.5069
  183MPD1     C 2836   0.448   3.092   9.155 -0.0483 -0.4126  0.9660
  183MPD1    C1 2837   0.460   3.226   9.183 -1.1501  0.1450  0.3661
  183MPD1    C2 2838   0.563   3.263   9.264  0.1080 -0.3997 -0.5039
  183MPD1    C3 2839   0.654   3.173   9.321  0.0081  0.4526  0.7518
  183MPD1    C4 2840   0.644   3.038   9.289  0.2314 -0.6329  0.3812
  183MPD1    C5 2841   0.536   3.002   9.208  0.7431 -0.1866 -0.2594
  183MPD1     H 2842   0.564   3.368   9.289 -0.8472 -0.3715 -0.5811
  183MPD1    H1 2843   0.713   2.960   9.317  2.8029  1.5093 -0.0117
  183MPD1    H2 2844   0.367   3.051   9.096 -0.0636 -0.0683  0.7534
  183MPD1    H3 2845   0.526   2.897   9.181  0.3921 -0.1729 -0.1802
  183MPD1     N 2846   0.742   3.229   9.418  0.4389 -0.7044 -0.5622
  183MPD1    H5 2847   0.727   3.328   9.437  0.7099 -0.8750  0.5452
  183MPD1    N1 2848   0.397   3.319   9.102 -0.3982 -0.2122 -0.1995
  183MPD1    H6 2849   0.377   3.405   9.152 -2.1129 -0.2632 -0.7916
  183MPD1    H7 2850   0.308   3.289   9.063 -1.2372  1.7368  0.2106
  184MPD1     C 2851   3.851   0.849  10.199 -0.0339 -0.5752  0.1277
  184MPD1    C1 2852   3.991   0.828  10.228  0.5514 -0.3714  0.3281
  184MPD1    C2 2853   4.083   0.892  10.148  0.3180  0.7474  0.3507
  184MPD1    C3 2854   4.051   0.940  10.026 -0.3474 -0.4980 -0.1035
  184MPD1    C4 2855   3.924   0.948   9.991 -2.0448  0.0450 -0.2285
  184MPD1    C5 2856   3.821   0.893  10.073 -0.5158 -0.7879  0.4122
  184MPD1     H 2857   4.189   0.890  10.173  0.5718  0.7634 -0.7257
  184MPD1    H1 2858   3.915   0.970   9.885 -1.7909 -2.2170 -0.7235
  184MPD1    H2 2859   3.766   0.826  10.263  0.3967 -0.8679  0.5893
  184MPD1    H3 2860   3.724   0.894  10.027  0.1818 -1.9774 -1.0897
  184MPD1     N 2861   4.143   1.008   9.942  0.1045 -0.4112  0.1483
  184MPD1    H5 2862   4.102   1.049   9.858  3.3485  2.3280 -0.1144
  184MPD1    N1 2863   4.023   0.769  10.351 -0.0393  0.3169 -0.2960
  184MPD1    H6 2864   4.116   0.729  10.354 -0.2777 -0.1442  0.9279
  184MPD1    H7 2865   3.957   0.702  10.391 -0.2807 -0.5365 -2.1376
  185MPD1     C 2866   4.344   1.192   8.982 -0.1212  1.1325  0.2403
  185MPD1    C1 2867   4.318   1.077   9.051  0.3295  0.0097 -0.2665
  185MPD1    C2 2868   4.337   1.077   9.187  0.5365  0.4788  0.0582
  185MPD1    C3 2869   4.394   1.184   9.255 -0.4498  1.2072  0.1271
  185MPD1    C4 2870   4.432   1.293   9.183  0.5351 -0.6195 -0.4847
  185MPD1    C5 2871   4.406   1.296   9.046 -0.5447  0.1674  0.4171
  185MPD1     H 2872   4.299   0.995   9.246  0.9711  0.8341  0.8204
  185MPD1    H1 2873   4.489   1.373   9.228 -1.3005  0.2193  0.3484
  185MPD1    H2 2874   4.315   1.204   8.878 -0.2334  0.0459  0.1438
  185MPD1    H3 2875   4.449   1.373   8.983  0.2823 -1.0428 -0.4940
  185MPD1     N 2876   4.422   1.193   9.389 -0.2323 -0.5690  0.3833
  185MPD1    H5 2877   4.481   1.270   9.418  0.3940 -1.6191  1.9115
  185MPD1    N1 2878   4.244   0.976   8.986 -0.0241  0.0792  0.1369
  185MPD1    H6 2879   4.278   0.886   9.020  2.0136  1.5202  1.9532
  185MPD1    H7 2880   4.261   0.971   8.885 -0.7819 -1.3443  0.0750
  186MPD1     C 2881   2.463   0.170  15.724 -0.3325  0.8134 -0.3640
  186MPD1    C1 2882   2.585   0.226  15.730 -0.1383 -0.5606 -0.3990
  186MPD1    C2 2883   2.634   0.267  15.856 -0.7719  0.6552 -0.4517
  186MPD1    C3 2884   2.545   0.273  15.960  0.2100 -0.3695  0.9941
  186MPD1    C4 2885   2.415   0.239  15.938 -0.0689 -0.3964 -0.6592
  186MPD1    C5 2886   2.376   0.181  15.829  0.2955  0.4064 -0.6932
  186MPD1     H 2887   2.738   0.294  15.864 -1.1713  2.0424 -0.0394
  186MPD1    H1 2888   2.346   0.240  16.022  0.1022 -0.1812 -0.5214
  186MPD1    H2 2889   2.427   0.109  15.642  1.1321  0.1670 -0.5148
  186MPD1    H3 2890   2.272   0.152  15.812  0.8136  0.3003 -3.7785
  186MPD1     N 2891   2.582   0.315  16.084 -0.1533  0.3054  0.4441
  186MPD1    H5 2892   2.506   0.328  16.149  0.3499  1.2495  0.8470
  186MPD1    N1 2893   2.671   0.211  15.624 -0.4367  0.5191 -0.4899
  186MPD1    H6 2894   2.741   0.286  15.624  0.7523 -0.5674  2.2525
  186MPD1    H7 2895   2.613   0.212  15.541 -1.0345 -0.3946 -0.0814
  187MPD1     C 2896   1.635   1.334   0.476 -0.3274  0.1352  0.3888
  187MPD1    C1 2897   1.565   1.279   0.377  0.5753 -0.2098 -0.6147
  187MPD1    C2 2898   1.600   1.310   0.247  0.2219 -0.2343 -0.1730
  187MPD1    C3 2899   1.684   1.412   0.211  0.1792 -0.4777 -0.9354
  187MPD1    C4 2900   1.758   1.462   0.316  0.1892  0.2293 -0.4945
  187MPD1    C5 2901   1.737   1.418   0.445 -0.3379 -0.0814 -0.3448
  187MPD1     H 2902   1.558   1.247   0.169 -1.1242  0.3384  0.0776
  187MPD1    H1 2903   1.846   1.526   0.314  1.2889 -1.2532  0.8308
  187MPD1    H2 2904   1.615   1.308   0.579 -0.1703 -0.9192  0.1544
  187MPD1    H3 2905   1.794   1.456   0.529  1.9963 -2.9267 -0.6657
  187MPD1     N 2906   1.716   1.472   0.087 -0.0213  0.8897 -0.0925
  187MPD1    H5 2907   1.790   1.541   0.080  1.3172 -0.6510 -1.1709
  187MPD1    N1 2908   1.486   1.161   0.400  0.1422  0.3042 -0.0802
  187MPD1    H6 2909   1.466   1.150   0.499 -2.0366  1.2817 -0.4121
  187MPD1    H7 2910   1.407   1.154   0.337 -1.4339 -1.5960  2.1295
  188MPD1     C 2911   2.560   2.215  10.614  0.3959 -0.1111 -0.2471
  188MPD1    C1 2912   2.428   2.175  10.624  0.0458  0.3864 -0.4742
  188MPD1    C2 2913   2.403   2.043  10.588  0.1942  0.3418 -0.3728
  188MPD1    C3 2914   2.499   1.959  10.531  0.1598  0.1462  0.1644
  188MPD1    C4 2915   2.623   2.012  10.502  0.0709  0.3245  0.5692
  188MPD1    C5 2916   2.653   2.130  10.560 -0.1706  0.8704 -0.4922
  188MPD1     H 2917   2.305   2.005  10.614 -0.3839  2.4079  0.4416
  188MPD1    H1 2918   2.701   1.950  10.458  1.5589  2.0147  0.8304
  188MPD1    H2 2919   2.582   2.320  10.629  0.6722 -0.2665  0.4677
  188MPD1    H3 2920   2.752   2.174  10.548  0.6981 -0.6878  0.9426
  188MPD1     N 2921   2.466   1.824  10.505 -0.1364  0.0198 -0.1796
  188MPD1    H5 2922   2.371   1.802  10.531 -0.4471  2.5663  0.9037
  188MPD1    N1 2923   2.325   2.255  10.680  0.7923 -0.1708  0.5750
  188MPD1    H6 2924   2.231   2.238  10.645  0.7785  1.5603 -0.2180
  188MPD1    H7 2925   2.343   2.355  10.668 -0.0056 -0.0031  0.7132
  189MPD1     C 2926   4.077   2.899   0.543 -0.4842 -0.0618 -0.5312
  189MPD1    C1 2927   3.980   2.803   0.515 -0.0331  0.7874  1.6137
  189MPD1    C2 2928   3.848   2.840   0.495  0.6081  0.9998 -0.0972
  189MPD1    C3 2929   3.813   2.972   0.530 -0.4089 -0.1407 -0.3255
  189MPD1    C4 2930   3.910   3.057   0.580 -0.3063 -0.4623 -0.0093
  189MPD1    C5 2931   4.038   3.017   0.589  0.0114  0.8402 -0.8536
  189MPD1     H 2932   3.776   2.773   0.449 -0.1858  1.0060  1.1118
  189MPD1    H1 2933   3.899   3.164   0.591 -0.9867 -0.4163 -1.1290
  189MPD1    H2 2934   4.183   2.879   0.550 -0.5006 -0.2375 -0.7841
  189MPD1    H3 2935   4.107   3.093   0.623  1.6100  0.4204 -3.1318
  189MPD1     N 2936   3.684   3.015   0.514  0.3304 -0.1524  0.0130
  189MPD1    H5 2937   3.624   2.940   0.481  0.5913 -1.0931  1.6905
  189MPD1    N1 2938   4.023   2.678   0.477  0.1666 -0.4359 -0.6320
  189MPD1    H6 2939   4.119   2.660   0.508  0.2897  1.2746 -0.0479
  189MPD1    H7 2940   3.956   2.603   0.493  1.1991 -0.9963  1.1292
  190MPD1     C 2941   2.428   0.903  15.208  0.3122  0.0230  0.1653
  190MPD1    C1 2942   2.560   0.924  15.181 -0.4031 -0.0446 -0.3399
  190MPD1    C2 2943   2.636   1.007  15.264  0.0054 -0.5823 -0.1707
  190MPD1    C3 2944   2.588   1.052  15.388  0.4646 -0.1489 -0.3788
  190MPD1    C4 2945   2.454   1.015  15.422  0.0180 -0.5309 -0.9813
  190MPD1    C5 2946   2.380   0.942  15.332 -0.2160 -0.6077 -0.3165
  190MPD1     H 2947   2.738   1.033  15.240  0.4761 -1.0995  1.2644
  190MPD1    H1 2948   2.403   1.029  15.518 -1.4103 -0.1756 -1.7884
  190MPD1    H2 2949   2.369   0.839  15.143  0.8666 -0.7937  0.4719
  190MPD1    H3 2950   2.282   0.915  15.370  0.3975 -1.5156  0.6189
  190MPD1     N 2951   2.671   1.138  15.462  0.3157  0.2585  0.5416
  190MPD1    H5 2952   2.754   1.173  15.416  1.2729  0.4352  2.4004
  190MPD1    N1 2953   2.610   0.877  15.056 -0.3680 -0.2979 -0.0528
  190MPD1    H6 2954   2.591   0.781  15.029  1.1152 -1.0093  1.4090
  190MPD1    H7 2955   2.711   0.880  15.051 -0.3945  2.5270  1.0428
  191MPD1     C 2956   2.358   2.152  13.213  1.0434  0.1226  0.1997
  191MPD1    C1 2957   2.365   2.284  13.204  0.0961  0.1074 -0.1070
  191MPD1    C2 2958   2.298   2.336  13.092  0.7080 -0.2724  0.7540
  191MPD1    C3 2959   2.229   2.245  13.005 -0.1103 -0.2505 -0.7900
  191MPD1    C4 2960   2.221   2.108  13.026  0.2509 -0.0507 -0.4959
  191MPD1    C5 2961   2.296   2.068  13.126  0.5926 -0.2758  0.3577
  191MPD1     H 2962   2.314   2.441  13.072 -0.3684  0.1926  2.2645
  191MPD1    H1 2963   2.164   2.041  12.963 -0.0121 -0.2040 -0.0928
  191MPD1    H2 2964   2.418   2.104  13.289 -0.5108  0.1648  1.4566
  191MPD1    H3 2965   2.300   1.961  13.144 -1.1892 -0.2954  0.6503
  191MPD1     N 2966   2.144   2.317  12.915  0.0902 -0.0781  0.0715
  191MPD1    H5 2967   2.141   2.418  12.910  0.2760 -0.0445  0.5908
  191MPD1    N1 2968   2.461   2.366  13.268 -0.3375 -0.1257  0.2664
  191MPD1    H6 2969   2.428   2.462  13.264  0.4784  0.2020  1.5267
  191MPD1    H7 2970   2.477   2.342  13.365  5.2775 -3.1834 -1.3642
  192MPD1     C 2971   1.305   1.903  12.610  0.9140 -0.6095  0.1141
  192MPD1    C1 2972   1.331   2.002  12.515 -0.1078 -0.0279 -0.2785
  192MPD1    C2 2973   1.416   2.100  12.541  0.8651  0.2045  0.3277
  192MPD1    C3 2974   1.483   2.103  12.663 -0.7946  0.7048  0.0615
  192MPD1    C4 2975   1.456   2.006  12.762  0.5030 -0.1643 -0.2970
  192MPD1    C5 2976   1.367   1.905  12.731 -0.6195 -0.4738 -0.1849
  192MPD1     H 2977   1.442   2.177  12.469 -0.8940 -0.3234 -0.8695
  192MPD1    H1 2978   1.517   1.988  12.849  0.8599  0.3434 -0.4452
  192MPD1    H2 2979   1.220   1.836  12.599  0.4747  0.1151 -0.9157
  192MPD1    H3 2980   1.334   1.835  12.807 -2.2593 -1.6725 -2.0174
  192MPD1     N 2981   1.586   2.196  12.693  0.4386 -0.9729  1.1053
  192MPD1    H5 2982   1.636   2.179  12.780  2.9813 -0.6233 -0.2805
  192MPD1    N1 2983   1.255   2.007  12.400  0.2413  0.2843  0.2724
  192MPD1    H6 2984   1.306   2.055  12.327 -0.6998 -0.1824 -0.6808
  192MPD1    H7 2985   1.237   1.915  12.359 -0.9329  0.4296  0.4773
  193MPD1     C 2986   1.365   2.781  17.480 -0.8323  0.1378  0.3338
  193MPD1    C1 2987   1.278   2.878  17.435 -0.7671  0.2905  0.3667
  193MPD1    C2 2988   1.326   2.975  17.353 -0.0588  0.0656 -0.1547
  193MPD1    C3 2989   1.459   2.986  17.328 -0.2760 -0.2866  0.0884
  193MPD1    C4 2990   1.546   2.885  17.373 -0.4124 -0.0752  1.0431
  193MPD1    C5 2991   1.501   2.779  17.450 -0.1815 -0.4934  0.0888
  193MPD1     H 2992   1.255   3.028  17.290  0.5690 -0.9891 -1.7553
  193MPD1    H1 2993   1.652   2.881  17.347 -0.8318  1.9830 -0.9662
  193MPD1    H2 2994   1.314   2.716  17.550 -0.3282  0.1778  0.7431
  193MPD1    H3 2995   1.573   2.710  17.491 -1.8684 -1.0402  2.1622
  193MPD1     N 2996   1.514   3.087  17.239 -0.0925  0.0583 -0.1169
  193MPD1    H5 2997   1.615   3.089  17.228 -0.0552 -0.0613  0.2054
  193MPD1    N1 2998   1.141   2.859  17.458  0.1781  0.3430  0.2580
  193MPD1    H6 2999   1.094   2.946  17.483  0.9659  1.1911 -1.2329
  193MPD1    H7 3000   1.130   2.797  17.538 -2.5528  0.1958 -0.2185
  194MPD1     C 3001   3.246   4.216   0.130 -0.1320 -1.1115 -1.3782
  194MPD1    C1 3002   3.231   4.352   0.135 -0.0767 -0.0037 -0.3750
  194MPD1    C2 3003   3.307   4.430   0.048 -0.5819  0.5106  0.5328
  194MPD1    C3 3004   3.405   4.369  17.713  0.9318  0.5927 -0.0972
  194MPD1    C4 3005   3.421   4.230  17.712 -0.0660 -0.3378  0.7964
  194MPD1    C5 3006   3.343   4.162   0.053  0.2612  0.5205 -0.3184
  194MPD1     H 3007   3.291   4.537   0.044  0.1019  0.5594 -0.7622
  194MPD1    H1 3008   3.500   4.184  17.653 -0.0610 -1.6972  1.8664
  194MPD1    H2 3009   3.182   4.151   0.189  0.0993 -1.1717 -1.1923
  194MPD1    H3 3010   3.352   4.054   0.056 -1.6749  0.4123  1.6313
  194MPD1     N 3011   3.495   4.434  17.622 -0.3556  0.0133 -0.7188
  194MPD1    H5 3012   3.554   4.376  17.563 -2.0859 -2.2014 -0.2817
  194MPD1    N1 3013   3.135   4.409   0.216 -0.1729  0.0979 -0.4497
  194MPD1    H6 3014   3.149   4.505   0.248  1.8624 -0.9342  1.6453
  194MPD1    H7 3015   3.097   4.353   0.292  2.7677  0.1044  1.0146
  195MPD1     C 3016   0.845   2.430   0.059  0.6374  0.4292 -0.0630
  195MPD1    C1 3017   0.936   2.402  17.702 -0.0489 -0.4823  0.2862
  195MPD1    C2 3018   0.971   2.271  17.689 -0.0532 -0.1560 -0.1512
  195MPD1    C3 3019   0.936   2.178   0.040  0.1936 -0.7381  0.0903
  195MPD1    C4 3020   0.861   2.212   0.151 -0.0300  0.3484 -0.1758
  195MPD1    C5 3021   0.812   2.341   0.158 -0.3465  0.2015  0.6152
  195MPD1     H 3022   1.027   2.238  17.603  0.1933 -2.4212  0.8936
  195MPD1    H1 3023   0.836   2.132   0.219 -1.3743  1.3760  0.5559
  195MPD1    H2 3024   0.811   2.532   0.072  3.2459  1.1464  1.2067
  195MPD1    H3 3025   0.744   2.370   0.237  0.4984  1.4889  0.8731
  195MPD1     N 3026   0.990   2.044   0.050 -0.4460 -0.1242  0.3028
  195MPD1    H5 3027   0.948   1.987   0.123 -0.4245 -0.2462  0.2204
  195MPD1    N1 3028   0.967   2.491  17.599 -0.1794 -0.4761  0.1444
  195MPD1    H6 3029   1.050   2.464  17.548  0.1506  2.2329 -0.7515
  195MPD1    H7 3030   0.981   2.588  17.628  0.0289 -0.0587 -1.3737
  196MPD1     C 3031   0.012   1.462   0.120 -0.4832  0.1327 -0.1044
  196MPD1    C1 3032   0.134   1.523   0.140 -0.2356  0.1147  0.2591
  196MPD1    C2 3033   0.185   1.537   0.268 -0.7980  0.0094  0.3924
  196MPD1    C3 3034   0.113   1.498   0.379  0.2381 -0.8432  0.5375
  196MPD1    C4 3035   4.726   1.441   0.356  0.3016 -0.9068 -0.2105
  196MPD1    C5 3036   4.674   1.421   0.232  0.3312 -0.5718 -0.1559
  196MPD1     H 3037   0.283   1.581   0.284  0.4099 -2.6640  0.3010
  196MPD1    H1 3038   4.658   1.411   0.434 -2.0754 -1.3020 -2.4221
  196MPD1    H2 3039   4.707   1.440   0.022  1.2008 -0.7760 -0.6331
  196MPD1    H3 3040   4.574   1.380   0.226  0.0719 -0.3044  2.0871
  196MPD1     N 3041   0.154   1.502   0.519  0.1745 -0.1372 -0.3739
  196MPD1    H5 3042   0.104   1.446   0.588  1.2068  1.2026  1.4496
  196MPD1    N1 3043   0.209   1.545   0.024 -0.1869  0.5214  0.7753
  196MPD1    H6 3044   0.151   1.579  17.694  0.4804 -1.4395 -0.6006
  196MPD1    H7 3045   0.277   1.618   0.044  2.1028 -1.1481 -0.9495
  197MPD1     C 3046   0.252   3.881  17.140 -0.2558 -0.6503 -0.0124
  197MPD1    C1 3047   0.217   3.989  17.055 -0.7512 -0.2945  0.2699
  197MPD1    C2 3048   0.248   3.967  16.923  0.4171 -0.1879  0.0293
  197MPD1    C3 3049   0.281   3.843  16.881 -0.1922  0.3336 -0.1008
  197MPD1    C4 3050   0.308   3.737  16.962 -0.7530  0.0774 -0.0146
  197MPD1    C5 3051   0.300   3.764  17.089  0.3084  0.0422  0.4559
  197MPD1     H 3052   0.232   4.052  16.857 -1.3531  0.5543  1.4329
  197MPD1    H1 3053   0.333   3.639  16.925 -0.8104  1.3636 -3.4522
  197MPD1    H2 3054   0.243   3.881  17.248  1.7842 -0.0121  0.1571
  197MPD1    H3 3055   0.316   3.682  17.157  0.7067 -0.5190 -0.3059
  197MPD1     N 3056   0.299   3.810  16.745 -0.1152  0.1208 -0.2155
  197MPD1    H5 3057   0.308   3.710  16.728  1.6860  0.1476  0.5292
  197MPD1    N1 3058   0.174   4.113  17.102  0.1076  0.2413  0.4087
  197MPD1    H6 3059   0.122   4.111  17.190  2.1790  1.6682  1.6823
  197MPD1    H7 3060   0.125   4.157  17.025 -0.4304  0.5583  0.9305
  198MPD1     C 3061   2.193   2.100  15.199  0.3920  0.0302 -0.6850
  198MPD1    C1 3062   2.253   2.225  15.190 -0.4828  0.0540 -0.0835
  198MPD1    C2 3063   2.229   2.307  15.303 -0.1405  0.0338 -0.5437
  198MPD1    C3 3064   2.134   2.277  15.398  0.7243 -0.6634  0.0714
  198MPD1    C4 3065   2.080   2.151  15.396  0.2881 -0.3482 -0.0682
  198MPD1    C5 3066   2.117   2.063  15.305 -0.0017 -0.5422 -0.3142
  198MPD1     H 3067   2.280   2.402  15.307 -1.0993  0.5308 -0.2136
  198MPD1    H1 3068   2.017   2.126  15.481  1.4308 -1.2728  0.5174
  198MPD1    H2 3069   2.208   2.037  15.112  0.8665  2.5511 -2.4306
  198MPD1    H3 3070   2.073   1.964  15.310 -2.5984  0.7298  1.9888
  198MPD1     N 3071   2.126   2.362  15.510 -0.6977 -0.2158  0.1646
  198MPD1    H5 3072   2.172   2.452  15.502 -0.6000 -0.2461  0.4012
  198MPD1    N1 3073   2.351   2.256  15.090  0.2768 -0.0149 -0.1784
  198MPD1    H6 3074   2.382   2.352  15.091 -1.9204  0.6924 -0.4641
  198MPD1    H7 3075   2.332   2.225  14.995  0.0952  2.2425 -0.8786
  199MPD1     C 3076   4.501   4.571  11.163  0.0026 -0.2021 -0.2905
  199MPD1    C1 3077   4.555   4.448  11.137 -0.0081  0.6707  0.2112
  199MPD1    C2 3078   4.556   4.397  11.007 -0.4989  0.1334  0.2598
  199MPD1    C3 3079   4.493   4.467  10.910  0.2214 -0.3278  0.5006
  199MPD1    C4 3080   4.437   4.588  10.938  0.9774  0.3416  0.4035
  199MPD1    C5 3081   4.447   4.638  11.065 -0.4749  0.0250 -0.5594
  199MPD1     H 3082   4.593   4.298  10.985 -0.6089  0.1908 -0.1855
  199MPD1    H1 3083   4.374   4.643  10.869 -0.1940 -1.0580  0.3679
  199MPD1    H2 3084   4.509   4.612  11.263  0.4990 -0.7552 -0.1001
  199MPD1    H3 3085   4.392   4.730  11.083  0.0545  0.5466 -1.5578
  199MPD1     N 3086   4.473   4.421  10.774  0.5992 -0.0324 -0.1391
  199MPD1    H5 3087   4.425   4.485  10.711  0.2930 -0.1521 -0.0290
  199MPD1    N1 3088   4.632   4.381  11.238 -0.0575 -0.0596  0.0160
  199MPD1    H6 3089   4.621   4.282  11.215 -2.0929 -0.1244  1.2425
  199MPD1    H7 3090   4.595   4.396  11.332 -1.0531 -4.8698  0.3940
  200MPD1     C 3091   2.992   3.547  15.307  0.0077  0.2815  0.0436
  200MPD1    C1 3092   3.020   3.556  15.169 -0.1714 -0.0102 -0.1862
  200MPD1    C2 3093   3.152   3.542  15.134  0.2843  0.1598 -0.2869
  200MPD1    C3 3094   3.253   3.548  15.231  0.2125  0.2464  0.3784
  200MPD1    C4 3095   3.219   3.541  15.362 -0.7332  0.3690 -0.5448
  200MPD1    C5 3096   3.092   3.542  15.401 -0.1437  0.1049  0.8698
  200MPD1     H 3097   3.182   3.545  15.030 -2.7442 -1.0889 -1.1978
  200MPD1    H1 3098   3.287   3.539  15.446 -1.4847 -0.1114  0.0499
  200MPD1    H2 3099   2.889   3.538  15.341  0.2319  0.2217  0.7123
  200MPD1    H3 3100   3.056   3.544  15.503  0.6082  0.3992  1.1298
  200MPD1     N 3101   3.387   3.559  15.176  0.5556  0.0317 -0.3888
  200MPD1    H5 3102   3.400   3.567  15.076 -1.5577  1.0696 -0.5870
  200MPD1    N1 3103   2.916   3.552  15.072  0.1134  0.2771 -0.1497
  200MPD1    H6 3104   2.825   3.581  15.105 -0.8905 -0.7916 -1.9565
  200MPD1    H7 3105   2.936   3.597  14.983 -2.0456  2.0945  0.3011
  201MPD1     C 3106   1.134   2.958  12.863  0.5752 -0.5412 -0.5768
  201MPD1    C1 3107   1.080   2.834  12.841 -0.2103  0.4051 -0.6130
  201MPD1    C2 3108   1.122   2.732  12.923 -0.1374  0.4034  0.2421
  201MPD1    C3 3109   1.211   2.756  13.025 -0.0764  0.5243  0.2953
  201MPD1    C4 3110   1.250   2.888  13.055 -0.4018  0.4332 -0.1205
  201MPD1    C5 3111   1.209   2.988  12.971 -0.0997  0.9311  0.0452
  201MPD1     H 3112   1.084   2.631  12.910 -0.6165  0.2116  3.0850
  201MPD1    H1 3113   1.325   2.906  13.131  0.4596 -2.8911 -0.1875
  201MPD1    H2 3114   1.114   3.041  12.797 -2.4702 -1.6710 -1.0775
  201MPD1    H3 3115   1.248   3.088  12.990  0.7043  0.4341  1.0347
  201MPD1     N 3116   1.254   2.648  13.105  0.3026 -0.7938  0.1409
  201MPD1    H5 3117   1.213   2.559  13.081  1.1724 -1.7908  2.3310
  201MPD1    N1 3118   0.993   2.807  12.730 -0.4631  0.7773  0.5659
  201MPD1    H6 3119   0.931   2.885  12.707 -3.3290 -1.6520  0.0169
  201MPD1    H7 3120   0.937   2.725  12.750  1.3816 -0.3310  1.0772
  202MPD1     C 3121   0.928   2.080   9.407  0.1422  0.8708  0.3930
  202MPD1    C1 3122   0.950   2.215   9.412  0.6033  1.1174  0.0923
  202MPD1    C2 3123   1.075   2.249   9.456 -0.6439 -0.1135 -0.1175
  202MPD1    C3 3124   1.155   2.167   9.531  0.3054 -0.7426  0.1730
  202MPD1    C4 3125   1.113   2.038   9.551  0.9112 -0.0504  0.2094
  202MPD1    C5 3126   0.997   1.996   9.492  0.1206  0.1369  0.4107
  202MPD1     H 3127   1.114   2.341   9.414 -0.7630 -0.3478 -0.7401
  202MPD1    H1 3128   1.176   1.970   9.608  2.2616 -0.5368 -1.8829
  202MPD1    H2 3129   0.837   2.035   9.369 -0.5897  3.2430 -0.6865
  202MPD1    H3 3130   0.977   1.890   9.502  0.7629  0.0073  0.2852
  202MPD1     N 3131   1.286   2.205   9.573  0.3793  0.1115  0.4440
  202MPD1    H5 3132   1.344   2.131   9.610  1.4627  1.1730  0.8818
  202MPD1    N1 3133   0.882   2.292   9.321 -0.1156 -0.5447  0.2144
  202MPD1    H6 3134   0.891   2.389   9.352 -0.4515  0.4888 -2.8823
  202MPD1    H7 3135   0.785   2.262   9.311 -0.3800  0.1532  0.7165
  203MPD1     C 3136   4.601   2.992  12.399 -0.2080 -0.7881 -0.2860
  203MPD1    C1 3137   4.543   2.888  12.323 -0.3201  0.2470  0.3031
  203MPD1    C2 3138   4.563   2.755  12.361  0.1390 -0.2248  0.3259
  203MPD1    C3 3139   4.616   2.732  12.490 -0.5196 -0.2381  0.0509
  203MPD1    C4 3140   4.663   2.832  12.568  0.6286 -0.3563  0.3104
  203MPD1    C5 3141   4.665   2.964  12.520 -0.0141 -0.0955 -0.3453
  203MPD1     H 3142   4.522   2.673  12.303  2.2270 -1.2130  0.2579
  203MPD1    H1 3143   4.714   2.810  12.661 -0.2799  0.9564  1.1210
  203MPD1    H2 3144   4.599   3.095  12.365 -2.1172 -0.9626 -0.6732
  203MPD1    H3 3145   4.723   3.041  12.570  0.1287  0.1391 -0.8645
  203MPD1     N 3146   4.604   2.601  12.533 -0.3394  0.0490 -0.3200
  203MPD1    H5 3147   4.593   2.528  12.463 -0.0366 -0.5426  0.2440
  203MPD1    N1 3148   4.502   2.915  12.188  0.2238 -0.4557 -0.0461
  203MPD1    H6 3149   4.450   3.002  12.185  0.5956 -0.2599 -0.6719
  203MPD1    H7 3150   4.435   2.842  12.163 -0.8980  1.5412 -2.8902
  204MPD1     C 3151   3.792   4.423   0.066 -0.4347 -0.8686 -0.7819
  204MPD1    C1 3152   3.905   4.431  17.736 -0.4678 -0.1549 -0.7369
  204MPD1    C2 3153   3.967   4.309  17.702 -0.1953 -0.7167 -0.0895
  204MPD1    C3 3154   3.902   4.191  17.714  0.7548  0.1660 -0.4502
  204MPD1    C4 3155   3.782   4.189   0.032  0.1570 -0.5802 -0.1413
  204MPD1    C5 3156   3.729   4.306   0.081  0.5791  0.1449  0.3590
  204MPD1     H 3157   4.067   4.300  17.661  0.7268 -2.3242  2.5604
  204MPD1    H1 3158   3.730   4.097   0.056  1.3444 -1.2014  0.0398
  204MPD1    H2 3159   3.732   4.504   0.105 -2.5543 -3.7825  2.0390
  204MPD1    H3 3160   3.631   4.292   0.126  0.0071 -0.7145 -1.1681
  204MPD1     N 3161   3.964   4.076  17.658 -0.0416  0.0612 -0.0567
  204MPD1    H5 3162   4.051   4.089  17.608 -0.9082  1.0102 -1.3549
  204MPD1    N1 3163   3.968   4.561  17.720  0.3345 -0.8223 -0.0484
  204MPD1    H6 3164   3.907   4.642  17.712  0.7171 -0.5506 -0.2005
  204MPD1    H7 3165   4.034   4.559  17.643 -0.2005  1.6464 -0.5804
  205MPD1     C 3166   3.025   2.587  17.268  0.6367 -0.2136  0.3230
  205MPD1    C1 3167   3.093   2.705  17.234  1.0356  0.3320 -0.1432
  205MPD1    C2 3168   3.220   2.720  17.279 -0.3443 -0.0463 -0.2532
  205MPD1    C3 3169   3.284   2.623  17.358  0.5089  0.0712 -0.6810
  205MPD1    C4 3170   3.223   2.499  17.367  1.3348 -0.7987 -0.0395
  205MPD1    C5 3171   3.093   2.481  17.327 -0.2554  0.3421  0.5362
  205MPD1     H 3172   3.278   2.808  17.255 -0.3694  0.3804  1.2081
  205MPD1    H1 3173   3.284   2.426  17.417  1.2216  0.3166  1.7406
  205MPD1    H2 3174   2.923   2.558  17.245  1.0182 -1.7724  0.5752
  205MPD1    H3 3175   3.046   2.385  17.345 -0.6881  0.3293 -0.6497
  205MPD1     N 3176   3.416   2.641  17.415  0.8087  0.6155  0.2346
  205MPD1    H5 3177   3.455   2.556  17.454 -0.3704  0.1345  0.3638
  205MPD1    N1 3178   3.031   2.809  17.162  0.0099  0.4002  0.1406
  205MPD1    H6 3179   2.944   2.771  17.125 -1.3184  3.2197  0.3816
  205MPD1    H7 3180   3.086   2.863  17.096 -2.1660 -0.1391 -2.1617
  206MPD1     C 3181   3.813   0.512  16.713  0.3898  0.2440 -0.3479
  206MPD1    C1 3182   3.885   0.453  16.611 -0.0562 -0.2870 -0.0141
  206MPD1    C2 3183   3.932   0.543  16.513  0.2296  0.1817 -0.1440
  206MPD1    C3 3184   3.884   0.671  16.496  0.4733  0.1692 -0.3943
  206MPD1    C4 3185   3.789   0.712  16.591 -0.2727 -0.7608  0.3413
  206MPD1    C5 3186   3.758   0.631  16.706  0.3061 -0.1019  0.8820
  206MPD1     H 3187   4.001   0.496  16.443  1.4195  1.2033  0.3462
  206MPD1    H1 3188   3.750   0.813  16.591  0.2068 -0.5935  2.8166
  206MPD1    H2 3189   3.783   0.449  16.796 -0.4160 -0.6228 -1.2937
  206MPD1    H3 3190   3.706   0.680  16.787  0.3131 -0.7839  1.2934
  206MPD1     N 3191   3.919   0.772  16.397  0.4995 -0.1040  0.2485
  206MPD1    H5 3192   3.871   0.862  16.403 -0.6670 -0.9115  2.8900
  206MPD1    N1 3193   3.947   0.326  16.635 -0.0783 -0.1106  0.8254
  206MPD1    H6 3194   3.879   0.267  16.683 -0.8389  1.1522  1.3021
  206MPD1    H7 3195   3.980   0.283  16.548  0.2320  2.7849 -0.4940
  207MPD1     C 3196   4.020   3.850   9.850 -0.3059  0.1328 -0.6081
  207MPD1    C1 3197   3.943   3.750   9.808  0.3869 -0.4654  0.2226
  207MPD1    C2 3198   3.807   3.746   9.842 -0.4836 -0.4297  0.7686
  207MPD1    C3 3199   3.761   3.841   9.936 -0.1473 -0.2174  0.1068
  207MPD1    C4 3200   3.848   3.941   9.983 -0.2508  0.2248  0.5278
  207MPD1    C5 3201   3.977   3.948   9.928  0.1845 -0.3712  0.2020
  207MPD1     H 3202   3.748   3.668   9.796  0.6813 -1.5985  1.2779
  207MPD1    H1 3203   3.818   4.018  10.053  1.2089  0.4152  0.9596
  207MPD1    H2 3204   4.127   3.860   9.842 -0.1630 -0.8356  0.0261
  207MPD1    H3 3205   4.043   4.021   9.974 -1.2210  0.8694  0.2466
  207MPD1     N 3206   3.628   3.843   9.991  0.3850  0.1448 -0.2250
  207MPD1    H5 3207   3.607   3.897  10.073  2.2823  0.2831  0.1686
  207MPD1    N1 3208   3.994   3.673   9.708  0.5049 -0.6287  0.4334
  207MPD1    H6 3209   3.954   3.580   9.720 -0.4584 -0.2603  0.0368
  207MPD1    H7 3210   4.096   3.666   9.709  0.7065  2.5379  0.7714
  208MPD1     C 3211   0.055   2.304   0.229 -0.0297 -0.0691  0.6428
  208MPD1    C1 3212   4.670   2.299   0.174  0.7222  0.1034 -0.6749
  208MPD1    C2 3213   4.569   2.255   0.267  1.0059  0.2710  0.9344
  208MPD1    C3 3214   4.592   2.251   0.407  0.6040  0.3811  0.3327
  208MPD1    C4 3215   4.712   2.287   0.454  0.5899 -0.0402 -0.4131
  208MPD1    C5 3216   0.079   2.298   0.365 -0.1668 -0.2488  0.4497
  208MPD1     H 3217   4.476   2.228   0.219 -0.1095  2.4575  1.8776
  208MPD1    H1 3218   4.732   2.281   0.560  0.7908  2.3665 -0.3221
  208MPD1    H2 3219   0.141   2.313   0.163 -0.5581  0.7825  0.0661
  208MPD1    H3 3220   0.182   2.312   0.397 -0.2682 -0.3527  0.8168
  208MPD1     N 3221   4.476   2.226   0.488 -0.7057 -0.1779  0.2087
  208MPD1    H5 3222   4.386   2.218   0.441 -0.5965  0.4324 -0.0929
  208MPD1    N1 3223   4.648   2.279   0.040 -0.0310  0.2968  0.4737
  208MPD1    H6 3224   4.719   2.322  17.728 -1.7299  2.2692 -0.1433
  208MPD1    H7 3225   4.553   2.299   0.009 -0.0261 -0.4206 -0.0103
  209MPD1     C 3226   2.206   3.028  10.602  0.1130  0.5156 -0.0356
  209MPD1    C1 3227   2.285   3.128  10.543 -1.0148  0.3671 -0.2358
  209MPD1    C2 3228   2.423   3.103  10.543  0.5603 -0.0193  0.1544
  209MPD1    C3 3229   2.488   3.001  10.613 -0.6899  0.8378 -0.7010
  209MPD1    C4 3230   2.409   2.915  10.678  0.1727 -0.0028  0.8570
  209MPD1    C5 3231   2.272   2.931  10.666 -0.1991 -0.4382 -0.1039
  209MPD1     H 3232   2.494   3.163  10.486  0.7897  0.2176  0.6875
  209MPD1    H1 3233   2.441   2.824  10.727  0.4122 -0.9298 -1.0265
  209MPD1    H2 3234   2.097   3.023  10.605 -0.0116  1.2033 -2.9710
  209MPD1    H3 3235   2.221   2.853  10.721 -1.1888 -1.1836 -2.0940
  209MPD1     N 3236   2.621   2.991  10.606  0.3281 -0.3605 -0.5848
  209MPD1    H5 3237   2.664   3.060  10.545  1.9300 -0.5936  0.2705
  209MPD1    N1 3238   2.233   3.223  10.458 -0.4576  0.0492 -0.0566
  209MPD1    H6 3239   2.292   3.306  10.449 -2.0160  1.5588  3.7321
  209MPD1    H7 3240   2.143   3.245  10.499 -1.2343 -2.1793 -0.5772
  210MPD1     C 3241   3.584   3.104  11.060 -0.1685  0.2440 -0.4944
  210MPD1    C1 3242   3.476   3.040  11.117 -0.3364 -0.1831  0.1398
  210MPD1    C2 3243   3.374   2.999  11.027 -0.2433 -0.3538  0.2955
  210MPD1    C3 3244   3.376   3.032  10.896  0.4214  0.1070  0.0280
  210MPD1    C4 3245   3.485   3.075  10.842  0.2903 -0.5762  0.5192
  210MPD1    C5 3246   3.595   3.108  10.920  0.4254  0.2103 -0.1791
  210MPD1     H 3247   3.287   2.959  11.078  0.2205 -0.0967  1.2818
  210MPD1    H1 3248   3.494   3.089  10.735 -1.3140 -0.1475  0.4421
  210MPD1    H2 3249   3.661   3.153  11.119  0.8280 -0.0647 -1.5399
  210MPD1    H3 3250   3.679   3.151  10.867  0.6032  0.2583  0.1458
  210MPD1     N 3251   3.273   3.007  10.802 -0.1770  0.4292 -0.4705
  210MPD1    H5 3252   3.299   3.023  10.705  0.5473  1.0548 -0.1743
  210MPD1    N1 3253   3.448   3.055  11.251 -0.0946 -0.2501  0.5408
  210MPD1    H6 3254   3.402   2.975  11.293 -1.5650 -0.0963 -0.8235
  210MPD1    H7 3255   3.523   3.076  11.317 -1.2814  1.2119  1.4404
  211MPD1     C 3256   3.963   2.174  16.898 -0.3998 -0.1100  0.2682
  211MPD1    C1 3257   3.909   2.163  16.772 -0.0045  0.0570 -0.6164
  211MPD1    C2 3258   3.861   2.275  16.712 -0.2502  0.4802  0.5421
  211MPD1    C3 3259   3.899   2.398  16.754 -0.5417 -0.2306  0.6729
  211MPD1    C4 3260   3.962   2.409  16.878 -0.4086  0.3769 -0.3662
  211MPD1    C5 3261   3.990   2.297  16.955 -0.1453  0.5315  0.2880
  211MPD1     H 3262   3.798   2.266  16.625  1.2540  0.1189 -0.5155
  211MPD1    H1 3263   3.965   2.503  16.931  1.1257 -0.9907  2.0128
  211MPD1    H2 3264   3.984   2.091  16.965  1.6902  0.2298  0.0498
  211MPD1    H3 3265   4.009   2.306  17.061  0.5795  0.7756  0.1389
  211MPD1     N 3266   3.844   2.510  16.686 -0.3399 -0.0571  0.2463
  211MPD1    H5 3267   3.799   2.500  16.596 -0.9481  0.8406  0.4492
  211MPD1    N1 3268   3.873   2.035  16.729  0.3875  0.0263 -0.1826
  211MPD1    H6 3269   3.941   1.964  16.755  0.4468 -0.8884 -2.8519
  211MPD1    H7 3270   3.850   2.035  16.630  1.7111  0.5407 -0.4900
  212MPD1     C 3271   3.197   1.247  16.838 -0.1369  0.1380  0.2800
  212MPD1    C1 3272   3.297   1.170  16.888 -0.3233 -0.2743  0.0732
  212MPD1    C2 3273   3.255   1.043  16.945  0.1158 -0.0746  0.1320
  212MPD1    C3 3274   3.120   1.011  16.972 -0.4959 -0.8811 -0.2174
  212MPD1    C4 3275   3.023   1.105  16.923 -0.2865  0.3937 -0.1015
  212MPD1    C5 3276   3.065   1.217  16.849  0.6497 -0.1923 -0.5172
  212MPD1     H 3277   3.337   0.978  16.973  0.5763  0.6655  0.4930
  212MPD1    H1 3278   2.917   1.094  16.942  0.1084 -2.0438  0.7025
  212MPD1    H2 3279   3.224   1.348  16.808  0.0322 -0.2529 -0.8902
  212MPD1    H3 3280   2.989   1.289  16.821  0.3301  0.3229  1.6596
  212MPD1     N 3281   3.081   0.895  17.047 -0.1792  0.0957  0.6990
  212MPD1    H5 3282   2.989   0.895  17.089 -1.0367  0.6379 -1.1710
  212MPD1    N1 3283   3.425   1.197  16.855 -0.0381 -0.2616  0.1061
  212MPD1    H6 3284   3.447   1.296  16.859  0.0905 -0.3568  1.7291
  212MPD1    H7 3285   3.492   1.150  16.916  0.0530  0.0631  0.2587
  213MPD1     C 3286   1.833   1.332  15.920 -0.6217  0.5113  0.4407
  213MPD1    C1 3287   1.703   1.294  15.894 -0.0409  0.3074 -0.9234
  213MPD1    C2 3288   1.666   1.320  15.770  0.7892  0.4195 -0.0612
  213MPD1    C3 3289   1.728   1.416  15.688  0.8503 -0.1046 -1.0557
  213MPD1    C4 3290   1.843   1.469  15.732  0.0767 -0.0923 -0.3726
  213MPD1    C5 3291   1.890   1.432  15.851  0.0377 -0.7798  0.1811
  213MPD1     H 3292   1.576   1.274  15.731 -0.5141  2.2832  0.7363
  213MPD1    H1 3293   1.888   1.556  15.686  0.2139  0.0418  0.0100
  213MPD1    H2 3294   1.871   1.312  16.020 -1.1293  0.2322  0.5788
  213MPD1    H3 3295   1.975   1.481  15.897 -1.7235  2.1763  0.2972
  213MPD1     N 3296   1.674   1.443  15.559 -0.4597  0.1880  0.2270
  213MPD1    H5 3297   1.580   1.408  15.544 -0.3710 -0.0948  0.3292
  213MPD1    N1 3298   1.650   1.189  15.963  0.0728 -0.2105 -0.5227
  213MPD1    H6 3299   1.549   1.199  15.958  0.1405  0.8612  0.2453
  213MPD1    H7 3300   1.663   1.200  16.064 -1.8935  2.0959 -0.5104
  214MPD1     C 3301   0.965   1.190  14.916  0.3873 -0.5665  0.3284
  214MPD1    C1 3302   0.985   1.183  15.051 -0.4763  0.3196  1.0024
  214MPD1    C2 3303   1.085   1.267  15.100 -0.2078  0.1375  0.1401
  214MPD1    C3 3304   1.175   1.336  15.025 -0.0757  0.1295  0.9596
  214MPD1    C4 3305   1.154   1.333  14.888  0.6776  0.0194  0.1241
  214MPD1    C5 3306   1.054   1.253  14.834 -0.6508 -0.2398 -0.2686
  214MPD1     H 3307   1.100   1.268  15.208 -1.1343 -1.5552  0.2785
  214MPD1    H1 3308   1.217   1.386  14.818  1.1585 -0.8736 -0.1150
  214MPD1    H2 3309   0.875   1.141  14.882  0.9034  0.0662 -1.9247
  214MPD1    H3 3310   1.050   1.247  14.725 -0.6451 -0.3735 -0.2611
  214MPD1     N 3311   1.287   1.406  15.075 -0.1957 -0.5900  0.4503
  214MPD1    H5 3312   1.349   1.448  15.006 -1.6052 -1.0746 -1.1348
  214MPD1    N1 3313   0.893   1.128  15.138  0.1794  0.1422  0.3132
  214MPD1    H6 3314   0.928   1.110  15.232 -1.4519  0.7400  1.0355
  214MPD1    H7 3315   0.862   1.039  15.099 -1.6586  0.3138  1.3538
  215MPD1     C 3316   1.640   2.673  10.695  0.0255 -0.1600 -0.2286
  215MPD1    C1 3317   1.578   2.791  10.687  0.6187  0.0858 -0.2404
  215MPD1    C2 3318   1.523   2.848  10.802  0.7810  0.1723 -0.4384
  215MPD1    C3 3319   1.543   2.789  10.929 -0.1644  0.7622  0.1239
  215MPD1    C4 3320   1.607   2.668  10.929 -0.4422 -0.3144 -0.2571
  215MPD1    C5 3321   1.641   2.612  10.812  0.4725  0.6821  0.4345
  215MPD1     H 3322   1.484   2.949  10.794 -0.6745 -0.2679  0.9594
  215MPD1    H1 3323   1.630   2.617  11.021  0.1230  1.4821  0.5939
  215MPD1    H2 3324   1.688   2.627  10.609 -0.5472 -1.6173  0.2343
  215MPD1    H3 3325   1.690   2.516  10.817 -0.2107  0.2567 -1.3561
  215MPD1     N 3326   1.498   2.852  11.049 -0.0895  0.2641 -0.2045
  215MPD1    H5 3327   1.437   2.931  11.029  0.7168  1.6917  2.8408
  215MPD1    N1 3328   1.557   2.842  10.557  0.1600  0.3493 -0.3072
  215MPD1    H6 3329   1.637   2.811  10.502  0.0776 -1.1185  0.4334
  215MPD1    H7 3330   1.545   2.943  10.547 -0.8189  0.3992  1.4758
  216MPD1     C 3331   3.259   0.980  17.370 -0.6652 -0.4504 -0.8045
  216MPD1    C1 3332   3.163   0.923  17.451 -0.1488 -0.1221 -0.2191
  216MPD1    C2 3333   3.170   0.786  17.478 -0.2063  0.1646  0.1786
  216MPD1    C3 3334   3.274   0.712  17.430  0.4180 -0.0923  0.9177
  216MPD1    C4 3335   3.377   0.773  17.354  0.0750 -0.0514  0.1506
  216MPD1    C5 3336   3.364   0.902  17.322  0.0971  0.2509 -0.0006
  216MPD1     H 3337   3.089   0.735  17.528  0.7024  0.0763  1.5526
  216MPD1    H1 3338   3.460   0.713  17.319 -0.6036 -0.4927 -0.7142
  216MPD1    H2 3339   3.246   1.083  17.340 -2.9759 -0.1113  1.3615
  216MPD1    H3 3340   3.433   0.957  17.261 -1.0428  1.5041 -0.1608
  216MPD1     N 3341   3.270   0.571  17.445 -0.1207 -0.7345 -0.4645
  216MPD1    H5 3342   3.204   0.535  17.513 -0.4952 -1.7212 -1.3547
  216MPD1    N1 3343   3.048   1.000  17.492  0.6001  0.0138  0.6136
  216MPD1    H6 3344   3.004   0.970  17.579  2.1499 -0.5395  1.2299
  216MPD1    H7 3345   3.070   1.097  17.511 -0.4608  0.0822  1.4222
  217MPD1     C 3346   4.471   3.031   9.019 -0.3141 -0.8043  0.9542
  217MPD1    C1 3347   4.589   2.966   8.978 -0.0596  0.3465  1.2767
  217MPD1    C2 3348   4.605   2.827   9.010 -0.1191 -0.3018 -0.2008
  217MPD1    C3 3349   4.516   2.765   9.102  0.7617 -0.2175  0.3143
  217MPD1    C4 3350   4.409   2.841   9.154  0.1919 -0.6003 -0.4185
  217MPD1    C5 3351   4.394   2.974   9.120 -0.0175 -0.1330 -0.2099
  217MPD1     H 3352   4.695   2.776   8.979  1.4762  2.6496 -0.3990
  217MPD1    H1 3353   4.349   2.792   9.230  2.6742 -1.3995  1.0143
  217MPD1    H2 3354   4.453   3.129   8.976 -3.1223 -1.2531  1.0912
  217MPD1    H3 3355   4.319   3.029   9.176 -0.9753 -0.5762 -1.0534
  217MPD1     N 3356   4.536   2.632   9.150  0.0864 -0.0923 -0.5129
  217MPD1    H5 3357   4.462   2.589   9.203 -2.0642  1.0418 -2.5968
  217MPD1    N1 3358   4.671   3.029   8.885  0.1001 -0.6860  0.1381
  217MPD1    H6 3359   4.673   3.129   8.903  0.6001 -0.4622 -1.1054
  217MPD1    H7 3360   0.029   2.991   8.885  0.5611  0.4660 -0.7448
  218MPD1     C 3361   0.754   1.767  12.520  0.1232 -0.5622  0.3034
  218MPD1    C1 3362   0.877   1.762  12.460  0.1621  0.4010 -0.7540
  218MPD1    C2 3363   0.962   1.868  12.473 -0.1724 -0.3432  0.1364
  218MPD1    C3 3364   0.930   1.970  12.557  0.0082 -0.3931 -0.0297
  218MPD1    C4 3365   0.805   1.972  12.614  0.4257 -0.5752 -0.0872
  218MPD1    C5 3366   0.714   1.869  12.597  0.1991  0.5929  0.7311
  218MPD1     H 3367   1.057   1.861  12.422 -1.1897 -0.7770 -1.7351
  218MPD1    H1 3368   0.764   2.051  12.675  0.3219  0.9589 -2.1403
  218MPD1    H2 3369   0.691   1.679  12.513  0.1362 -0.4633 -1.0172
  218MPD1    H3 3370   0.617   1.871  12.646 -1.4247 -0.9642 -2.4290
  218MPD1     N 3371   1.017   2.081  12.569 -0.4897  0.4281 -0.5696
  218MPD1    H5 3372   1.105   2.079  12.518 -1.0740 -2.3784 -1.4624
  218MPD1    N1 3373   0.918   1.649  12.388  0.2318 -0.0586  0.9508
  218MPD1    H6 3374   0.837   1.592  12.364  0.9731 -0.6098 -0.2626
  218MPD1    H7 3375   0.975   1.676  12.308  0.5049 -1.0576  0.8105
  219MPD1     C 3376   1.437   2.675  11.952  0.3199  0.1938  0.6972
  219MPD1    C1 3377   1.434   2.543  11.976  0.0488 -0.3793 -0.4780
  219MPD1    C2 3378   1.383   2.497  12.092  0.0931 -0.2878 -0.2776
  219MPD1    C3 3379   1.360   2.580  12.201 -1.1045  0.0258 -0.5402
  219MPD1    C4 3380   1.388   2.713  12.178 -0.5557  0.4816  0.0744
  219MPD1    C5 3381   1.420   2.761  12.057  0.4096  0.1420 -0.0886
  219MPD1     H 3382   1.371   2.391  12.111 -0.3221 -0.2191 -0.1759
  219MPD1    H1 3383   1.384   2.787  12.257 -0.9239  1.2205 -0.6348
  219MPD1    H2 3384   1.459   2.713  11.853  0.5056 -3.0646 -0.5221
  219MPD1    H3 3385   1.443   2.865  12.038  0.8920  0.2804  1.2189
  219MPD1     N 3386   1.335   2.539  12.334  0.0011 -0.2585  0.1443
  219MPD1    H5 3387   1.322   2.613  12.402 -1.1808  0.8334 -1.2572
  219MPD1    N1 3388   1.463   2.463  11.860 -0.2880 -0.1403 -0.0105
  219MPD1    H6 3389   1.544   2.505  11.816  0.2098 -0.7696  0.3117
  219MPD1    H7 3390   1.493   2.367  11.878 -2.3447 -0.5547  1.2196
  220MPD1     C 3391   1.726   3.923  10.012 -0.2545  0.4006 -0.0472
  220MPD1    C1 3392   1.713   4.025  10.099 -0.3426 -0.0016  0.7816
  220MPD1    C2 3393   1.622   3.999  10.202 -0.0406 -0.6422  0.1106
  220MPD1    C3 3394   1.552   3.886  10.212  0.3316 -0.0435 -0.2172
  220MPD1    C4 3395   1.569   3.789  10.122 -0.6704 -0.1243 -0.0325
  220MPD1    C5 3396   1.656   3.811  10.026  0.0170  0.2437 -0.2432
  220MPD1     H 3397   1.600   4.077  10.274 -2.5776 -0.6220 -0.7044
  220MPD1    H1 3398   1.511   3.698  10.124 -1.5788  0.4402 -1.5496
  220MPD1    H2 3399   1.796   3.934   9.930 -0.1415 -1.9326 -0.2628
  220MPD1    H3 3400   1.668   3.731   9.955 -0.5086  1.5159 -1.7617
  220MPD1     N 3401   1.468   3.873  10.328 -0.6973 -0.0562 -0.2049
  220MPD1    H5 3402   1.462   3.937  10.407  0.8017  2.1793 -1.9164
  220MPD1    N1 3403   1.774   4.153  10.072  0.2045  0.3156  0.7642
  220MPD1    H6 3404   1.808   4.191  10.161 -1.6343 -0.7833  1.9365
  220MPD1    H7 3405   1.856   4.139  10.013 -0.5828 -1.1494  0.0173
  221MPD1     C 3406   4.517   1.917  17.337  0.1774  0.3375 -0.1816
  221MPD1    C1 3407   4.414   1.827  17.307  0.3958  0.1025 -0.2442
  221MPD1    C2 3408   4.398   1.780  17.180  0.3762 -0.1214 -0.3649
  221MPD1    C3 3409   4.493   1.806  17.083  0.0234  0.2734  0.7746
  221MPD1    C4 3410   4.597   1.887  17.115  0.1605  0.1387  0.2127
  221MPD1    C5 3411   4.608   1.937  17.239  0.0394  0.3749 -0.0786
  221MPD1     H 3412   4.315   1.712  17.172  0.2113 -0.3715  3.6835
  221MPD1    H1 3413   4.665   1.921  17.038  2.2831 -0.2118  1.9246
  221MPD1    H2 3414   4.521   1.949  17.440  0.4214  0.9896 -0.3933
  221MPD1    H3 3415   4.694   2.001  17.254 -0.0275  0.4366  0.0371
  221MPD1     N 3416   4.479   1.762  16.950  0.0865  0.8635 -0.1123
  221MPD1    H5 3417   4.558   1.786  16.891 -1.3982  3.4706 -1.0504
  221MPD1    N1 3418   4.308   1.814  17.401 -0.3262  0.1400  0.4421
  221MPD1    H6 3419   4.251   1.730  17.393  1.4226 -1.1113  1.0901
  221MPD1    H7 3420   4.339   1.816  17.498 -0.7568  0.5578  0.5716
  222MPD1     C 3421   3.188   1.283  17.597  0.6171  0.2322  0.2816
  222MPD1    C1 3422   3.053   1.304  17.581  0.5662 -0.7929  0.5525
  222MPD1    C2 3423   2.972   1.319  17.688  0.0843 -0.3585 -0.0798
  222MPD1    C3 3424   3.023   1.325   0.066 -0.2951 -0.2644  0.5219
  222MPD1    C4 3425   3.158   1.326   0.079  0.5367 -0.3499  0.1363
  222MPD1    C5 3426   3.240   1.304  17.719  0.1526 -0.2842  0.2658
  222MPD1     H 3427   2.865   1.324  17.667  0.2502 -0.2988 -0.9296
  222MPD1    H1 3428   3.204   1.348   0.174  3.2734  1.0270 -1.4987
  222MPD1    H2 3429   3.263   1.259  17.522  1.2448  0.8927  0.6996
  222MPD1    H3 3430   3.348   1.301  17.726  0.1524 -0.8229  0.0309
  222MPD1     N 3431   2.943   1.345   0.189 -0.0243 -0.2459 -0.6465
  222MPD1    H5 3432   2.993   1.358   0.276 -0.5238 -0.8463 -0.2708
  222MPD1    N1 3433   3.003   1.296  17.447  0.1270 -0.6744  1.0330
  222MPD1    H6 3434   3.074   1.314  17.376 -0.4118 -0.9231  0.4242
  222MPD1    H7 3435   2.918   1.351  17.440  0.1832 -0.7509 -0.3100
  223MPD1     C 3436   2.360   0.641   0.483 -0.4293  0.0716 -0.0503
  223MPD1    C1 3437   2.463   0.652   0.393  0.4608  0.1014 -0.2167
  223MPD1    C2 3438   2.536   0.768   0.395 -0.4032  0.2378 -0.0700
  223MPD1    C3 3439   2.505   0.871   0.482 -0.2479  0.0788 -0.3210
  223MPD1    C4 3440   2.402   0.859   0.573 -0.5185  0.2691  0.2168
  223MPD1    C5 3441   2.332   0.744   0.571 -0.4790 -0.1712 -0.4801
  223MPD1     H 3442   2.611   0.790   0.320  0.3670 -0.8870  0.3636
  223MPD1    H1 3443   2.391   0.922   0.660 -4.7074 -0.9764  0.6038
  223MPD1    H2 3444   2.304   0.548   0.489 -0.6958  0.3117  1.2297
  223MPD1    H3 3445   2.260   0.726   0.650  1.8462  3.4045  2.4558
  223MPD1     N 3446   2.571   0.992   0.465 -0.5842 -0.0058 -0.4025
  223MPD1    H5 3447   2.641   0.999   0.392 -0.6251  2.0120 -0.2313
  223MPD1    N1 3448   2.502   0.537   0.317 -0.1690 -0.3232  0.1998
  223MPD1    H6 3449   2.557   0.563   0.236 -0.5796 -0.8934 -0.2614
  223MPD1    H7 3450   2.429   0.473   0.288  0.6093 -0.5804 -1.2069
  224MPD1     C 3451   4.666   3.228   9.268  0.1352 -0.2547  0.1765
  224MPD1    C1 3452   0.004   3.343   9.290 -0.0229  0.0463 -0.7905
  224MPD1    C2 3453   0.126   3.329   9.362 -0.0537  0.3144  1.2192
  224MPD1    C3 3454   0.170   3.200   9.399 -0.2860  0.0297  0.5672
  224MPD1    C4 3455   0.097   3.088   9.371  0.2585  0.1126  0.3265
  224MPD1    C5 3456   4.714   3.101   9.303 -0.0478 -1.1567 -0.1475
  224MPD1     H 3457   0.187   3.417   9.375 -1.0539  1.2437 -0.3399
  224MPD1    H1 3458   0.136   2.988   9.391 -1.3143 -0.7438 -0.9197
  224MPD1    H2 3459   4.568   3.214   9.225  1.5066  1.2302 -3.4441
  224MPD1    H3 3460   4.656   3.011   9.287  0.5723 -1.9547  2.1865
  224MPD1     N 3461   0.281   3.190   9.485 -0.3297 -0.0802 -0.4281
  224MPD1    H5 3462   0.299   3.094   9.513  0.8259 -0.0283 -1.0132
  224MPD1    N1 3463   4.683   3.468   9.259  0.1796  0.2250 -0.0612
  224MPD1    H6 3464   4.606   3.458   9.194 -1.9722 -1.9702  2.7845
  224MPD1    H7 3465   0.016   3.535   9.226  2.0528 -0.9975  1.3816
  225MPD1     C 3466   1.860   3.474  12.572  0.0941 -0.2980  0.2980
  225MPD1    C1 3467   1.799   3.396  12.478 -0.1349  0.6727 -0.8618
  225MPD1    C2 3468   1.669   3.367  12.490 -0.3418  0.4159  0.5211
  225MPD1    C3 3469   1.594   3.420  12.594 -0.5726  0.2645 -0.0551
  225MPD1    C4 3470   1.655   3.501  12.684 -0.0459 -0.0828 -0.5665
  225MPD1    C5 3471   1.787   3.528  12.675  0.6771  0.0497 -0.0285
  225MPD1     H 3472   1.617   3.314  12.411  0.3256 -0.2074  0.4920
  225MPD1    H1 3473   1.596   3.557  12.755  0.0311 -1.6860  0.7664
  225MPD1    H2 3474   1.964   3.498  12.586 -0.2945  0.3514  2.0618
  225MPD1    H3 3475   1.835   3.602  12.738  0.9195  0.0264 -0.1859
  225MPD1     N 3476   1.451   3.416  12.607 -0.4115  0.0407  0.1544
  225MPD1    H5 3477   1.416   3.467  12.688 -0.2184  0.4525 -0.0183
  225MPD1    N1 3478   1.873   3.356  12.361  0.3872 -0.2221  0.1328
  225MPD1    H6 3479   1.968   3.329  12.381  0.6711  0.8125  0.2010
  225MPD1    H7 3480   1.818   3.287  12.310 -1.0922 -0.9235  2.6888
  226MPD1     C 3481   4.710   3.262   9.771  0.0346  0.0480  0.6656
  226MPD1    C1 3482   0.001   3.246   9.905 -0.2723 -0.1800 -0.0511
  226MPD1    C2 3483   0.038   3.359   9.976 -0.1757  0.4176  0.5083
  226MPD1    C3 3484   0.060   3.483   9.909 -0.0193  0.8122  0.1205
  226MPD1    C4 3485   0.053   3.493   9.769 -0.7026 -0.3873 -0.2370
  226MPD1    C5 3486   0.006   3.380   9.708  1.1409 -0.6188 -0.1170
  226MPD1     H 3487   0.035   3.356  10.085 -0.6518  0.5477  0.4968
  226MPD1    H1 3488   0.080   3.582   9.713  1.3981  0.2224  1.7186
  226MPD1    H2 3489   4.678   3.177   9.710 -1.9116  0.1374  1.5641
  226MPD1    H3 3490   4.730   3.394   9.601  0.0235 -0.8394 -0.0215
  226MPD1     N 3491   0.091   3.596   9.993  0.5294  0.2496  0.0764
  226MPD1    H5 3492   0.108   3.579  10.091 -0.0906  1.2043  0.3461
  226MPD1    N1 3493   4.689   3.130   9.969 -0.1638  0.1868 -0.0193
  226MPD1    H6 3494   4.712   3.061   9.898  2.7058  0.6162  0.4903
  226MPD1    H7 3495   0.010   3.114  10.051  2.7768  3.4021 -1.4245
  227MPD1     C 3496   4.573   4.579   9.875 -0.7049  0.1851  0.4570
  227MPD1    C1 3497   4.566   4.475   9.782  0.2590 -0.5763  0.1645
  227MPD1    C2 3498   4.625   4.352   9.813 -0.4044 -0.5110 -0.2414
  227MPD1    C3 3499   4.677   4.326   9.941 -0.2474 -0.8335  0.3409
  227MPD1    C4 3500   4.681   4.429  10.035 -0.1924  0.7339 -0.0189
  227MPD1    C5 3501   4.627   4.551   9.997 -0.4386 -0.3712  0.0492
  227MPD1     H 3502   4.636   4.273   9.739  2.1390 -0.7671  0.4189
  227MPD1    H1 3503   4.728   4.421  10.132 -0.5196 -0.8574  0.0138
  227MPD1    H2 3504   4.552   4.681   9.843 -2.0424  0.0761  0.9850
  227MPD1    H3 3505   4.616   4.631  10.069 -1.1483 -0.5325  0.1261
  227MPD1     N 3506   4.731   4.201   9.970  0.0660  0.2230 -0.0604
  227MPD1    H5 3507   0.001   4.134   9.894 -0.5916 -0.9866  0.9459
  227MPD1    N1 3508   4.530   4.502   9.645 -0.7523  0.0451 -0.0015
  227MPD1    H6 3509   4.451   4.567   9.651 -1.9902 -1.2439 -2.7268
  227MPD1    H7 3510   4.500   4.422   9.591 -0.3447 -0.3203  0.3142
  228MPD1     C 3511   3.156   1.594  13.104 -0.1782  0.5391  0.0792
  228MPD1    C1 3512   3.066   1.592  13.000  0.3781  0.0871  0.0327
  228MPD1    C2 3513   2.956   1.505  13.023 -0.0864  0.1468  0.2874
  228MPD1    C3 3514   2.946   1.419  13.136 -0.2286 -0.2404 -0.4197
  228MPD1    C4 3515   3.054   1.413  13.222 -0.7136 -0.0138 -0.4831
  228MPD1    C5 3516   3.155   1.505  13.211 -0.3211  0.1863  0.7548
  228MPD1     H 3517   2.874   1.504  12.951  0.4005 -2.6394 -0.1898
  228MPD1    H1 3518   3.059   1.343  13.304 -0.0406 -0.0017 -0.5113
  228MPD1    H2 3519   3.235   1.667  13.112 -1.6487  1.7992  3.0104
  228MPD1    H3 3520   3.238   1.507  13.280  1.6480 -0.9406 -1.6089
  228MPD1     N 3521   2.834   1.336  13.153 -0.2721  0.1386  0.6352
  228MPD1    H5 3522   2.750   1.351  13.097  0.2139 -1.1704 -0.4625
  228MPD1    N1 3523   3.069   1.683  12.890 -0.4050  0.0241  0.5174
  228MPD1    H6 3524   3.027   1.652  12.803  2.2559  1.5571 -1.2905
  228MPD1    H7 3525   3.165   1.712  12.873 -0.5071  0.2348  0.3133
  229MPD1     C 3526   2.344   0.300  14.620  0.4515 -0.0701 -0.0654
  229MPD1    C1 3527   2.346   0.346  14.750  0.6251 -0.0367 -0.3082
  229MPD1    C2 3528   2.435   0.287  14.845 -0.6871 -0.4915  0.3518
  229MPD1    C3 3529   2.518   0.182  14.812  0.9131 -0.0605  0.3417
  229MPD1    C4 3530   2.512   0.143  14.677  0.3894 -0.0884 -0.1618
  229MPD1    C5 3531   2.425   0.201  14.585  0.0444  0.5534  0.4480
  229MPD1     H 3532   2.436   0.328  14.945  1.7106 -0.8079  0.4485
  229MPD1    H1 3533   2.577   0.062  14.645  0.1425 -0.0794 -0.6827
  229MPD1    H2 3534   2.271   0.334  14.547 -1.5373 -0.6516  1.6405
  229MPD1    H3 3535   2.440   0.163  14.484 -1.4813  0.0873  0.3970
  229MPD1     N 3536   2.609   0.116  14.901  0.2730 -0.5004  0.1611
  229MPD1    H5 3537   2.665   0.037  14.870 -1.1758 -2.0507  1.4977
  229MPD1    N1 3538   2.247   0.433  14.791 -0.5375  0.0977  0.2731
  229MPD1    H6 3539   2.203   0.478  14.711  1.1571  0.6180 -0.3658
  229MPD1    H7 3540   2.272   0.506  14.857 -0.8757  0.0448  0.4569
  230MPD1     C 3541   3.247   0.094  15.786  0.4013 -0.2524  0.6553
  230MPD1    C1 3542   3.217   4.702  15.755  1.1033  0.0264  0.1924
  230MPD1    C2 3543   3.118   4.680  15.668  0.2714  0.0339  0.7798
  230MPD1    C3 3544   3.062   0.049  15.596  0.4556  0.2544  0.1125
  230MPD1    C4 3545   3.105   0.178  15.622  0.6445  0.3087  0.9702
  230MPD1    C5 3546   3.191   0.195  15.720 -0.6524  0.4086 -0.1448
  230MPD1     H 3547   3.091   4.577  15.647 -0.3685  0.5450 -0.8926
  230MPD1    H1 3548   3.072   0.265  15.566  0.2324 -2.3056 -2.8175
  230MPD1    H2 3549   3.326   0.116  15.858  0.8075  1.3140 -0.2857
  230MPD1    H3 3550   3.236   0.294  15.729 -0.1972  0.0438  1.5651
  230MPD1     N 3551   2.971   0.013  15.493 -0.5964  0.6846  0.3098
  230MPD1    H5 3552   2.942   4.653  15.487  0.4449  0.2943  1.7528
  230MPD1    N1 3553   3.282   4.603  15.817 -0.3976  0.1296  0.0444
  230MPD1    H6 3554   3.280   4.518  15.760 -0.4735 -0.3461  0.7617
  230MPD1    H7 3555   3.379   4.623  15.840 -0.2066 -0.3284 -0.3544
  231MPD1     C 3556   0.774   1.352  15.680 -0.9229  0.4091  0.4506
  231MPD1    C1 3557   0.746   1.318  15.543  0.6349  0.7024  0.2714
  231MPD1    C2 3558   0.802   1.399  15.446 -0.4713  0.1679  1.5389
  231MPD1    C3 3559   0.877   1.511  15.471 -0.1929 -0.0622  0.6556
  231MPD1    C4 3560   0.900   1.543  15.602 -0.0174 -0.1798 -0.0739
  231MPD1    C5 3561   0.852   1.462  15.707  0.2977  0.8563  0.2594
  231MPD1     H 3562   0.801   1.374  15.341  0.1244  0.0420  1.5675
  231MPD1    H1 3563   0.950   1.633  15.635  0.8097 -0.3854 -0.7631
  231MPD1    H2 3564   0.751   1.295  15.769 -0.4687 -0.4602  0.0084
  231MPD1    H3 3565   0.877   1.491  15.809 -1.6369  2.2957  0.3272
  231MPD1     N 3566   0.935   1.589  15.363 -0.2949 -0.4577 -0.5563
  231MPD1    H5 3567   0.913   1.552  15.271 -3.1642  0.8505 -0.3991
  231MPD1    N1 3568   0.687   1.193  15.509 -0.4023 -0.4403 -0.1440
  231MPD1    H6 3569   0.635   1.186  15.422  1.8929 -0.0662 -1.5560
  231MPD1    H7 3570   0.636   1.155  15.588 -2.5293  0.9254 -0.8605
  232MPD1     C 3571   3.020   4.093   0.443  0.2242  0.4584  0.6806
  232MPD1    C1 3572   3.038   3.988   0.528  0.9611 -0.1769 -0.0229
  232MPD1    C2 3573   2.974   3.864   0.495 -0.5929 -0.3089  0.0969
  232MPD1    C3 3574   2.889   3.857   0.382 -0.2652 -0.2524  0.4755
  232MPD1    C4 3575   2.877   3.965   0.303  0.1528 -0.7173  1.1720
  232MPD1    C5 3576   2.949   4.068   0.327 -0.1106 -0.2604 -0.3543
  232MPD1     H 3577   2.977   3.776   0.559  0.7428 -0.4108 -0.0898
  232MPD1    H1 3578   2.813   3.972   0.215  1.2058 -0.7077  0.3981
  232MPD1    H2 3579   3.059   4.191   0.467  1.9723  0.1554 -0.8830
  232MPD1    H3 3580   2.942   4.153   0.261 -1.7264 -0.9804 -1.0959
  232MPD1     N 3581   2.810   3.743   0.370  1.1458 -0.5581  0.0918
  232MPD1    H5 3582   2.823   3.666   0.435 -0.2742  0.2688  1.3539
  232MPD1    N1 3583   3.088   4.014   0.659  0.6358  0.7466 -0.2936
  232MPD1    H6 3584   3.155   4.091   0.661  1.1409  0.2945  0.1349
  232MPD1    H7 3585   3.119   3.930   0.706 -1.0007 -0.4658 -1.3621
  233MPD1     C 3586   2.668   3.385   1.311  0.0997  0.2121  0.0617
  233MPD1    C1 3587   2.632   3.262   1.261  0.5376 -0.4459 -0.1961
  233MPD1    C2 3588   2.719   3.153   1.271 -0.0621  0.4691  0.4665
  233MPD1    C3 3589   2.851   3.168   1.331  0.2325 -0.1452  0.1519
  233MPD1    C4 3590   2.874   3.287   1.393 -0.8124  0.3865  0.0796
  233MPD1    C5 3591   2.783   3.388   1.380 -0.8106  0.5253 -0.3839
  233MPD1     H 3592   2.681   3.059   1.232  1.3606  1.2246 -2.6895
  233MPD1    H1 3593   2.977   3.305   1.421 -0.4170 -2.9943  0.7574
  233MPD1    H2 3594   2.615   3.479   1.298  0.5167  0.4658  0.1977
  233MPD1    H3 3595   2.806   3.488   1.416  0.5876  0.0667 -0.0115
  233MPD1     N 3596   2.943   3.057   1.334 -0.5889  0.2879 -0.1559
  233MPD1    H5 3597   3.030   3.074   1.383 -0.0919  0.5174 -1.1265
  233MPD1    N1 3598   2.516   3.255   1.185 -0.5067 -0.2111  0.3670
  233MPD1    H6 3599   2.447   3.315   1.231  0.6852  0.3743  1.3713
  233MPD1    H7 3600   2.475   3.164   1.164  1.2390 -1.3758  2.0969
  234MPD1     C 3601   0.872   1.471  10.154 -0.3652  0.2078  0.0032
  234MPD1    C1 3602   0.791   1.473  10.042 -0.5195  0.2491  0.4719
  234MPD1    C2 3603   0.784   1.586   9.966  0.4135 -0.4978  0.2772
  234MPD1    C3 3604   0.868   1.693   9.995 -0.2517  0.0126  0.9120
  234MPD1    C4 3605   0.945   1.690  10.113 -0.8930  0.3945  0.6099
  234MPD1    C5 3606   0.960   1.574  10.183 -0.7535 -0.1098  0.2965
  234MPD1     H 3607   0.715   1.592   9.882 -0.6802  0.2374  1.2333
  234MPD1    H1 3608   0.993   1.781  10.145 -0.7725  0.0030  1.5291
  234MPD1    H2 3609   0.867   1.387  10.222  1.1862 -0.9187 -1.2685
  234MPD1    H3 3610   1.029   1.581  10.266  0.1164  0.2194 -0.4479
  234MPD1     N 3611   0.853   1.808   9.909 -0.0348  0.0436 -0.2916
  234MPD1    H5 3612   0.777   1.804   9.842 -0.9217 -0.0438  0.7165
  234MPD1    N1 3613   0.688   1.378  10.031  0.2395  0.6932 -0.0062
  234MPD1    H6 3614   0.712   1.293  10.080 -0.6599 -0.6842 -1.9708
  234MPD1    H7 3615   0.663   1.358   9.934  1.9669  1.2013 -0.5614
  235MPD1     C 3616   1.705   3.423  10.472  0.3115 -0.1612 -0.4467
  235MPD1    C1 3617   1.711   3.520  10.375  0.5513 -0.2255  0.3732
  235MPD1    C2 3618   1.734   3.652  10.414  0.2000  0.8062  0.0919
  235MPD1    C3 3619   1.752   3.689  10.545  0.0884  0.5330 -0.1439
  235MPD1    C4 3620   1.719   3.598  10.641  0.3503 -1.5571  0.1500
  235MPD1    C5 3621   1.689   3.464  10.604 -0.2376  0.3016 -0.3776
  235MPD1     H 3622   1.736   3.731  10.340  0.2191 -0.7390 -1.5648
  235MPD1    H1 3623   1.723   3.626  10.746 -2.5298 -0.9480  0.0904
  235MPD1    H2 3624   1.688   3.319  10.447  0.9951 -0.2850 -0.3991
  235MPD1    H3 3625   1.679   3.382  10.674 -0.3760  0.4953 -0.1737
  235MPD1     N 3626   1.797   3.820  10.557 -0.0449  0.3981  0.2283
  235MPD1    H5 3627   1.800   3.872  10.470 -0.0430  0.0259  0.0103
  235MPD1    N1 3628   1.713   3.488  10.241 -0.2254 -0.0223 -0.4347
  235MPD1    H6 3629   1.656   3.405  10.224 -2.1091  0.8203  1.7713
  235MPD1    H7 3630   1.675   3.566  10.188  0.8215  0.9878  0.2987
  236MPD1     C 3631   0.814   0.682  10.013 -0.2229  0.0824 -0.3847
  236MPD1    C1 3632   0.913   0.778  10.036 -0.0602 -0.2403  0.3363
  236MPD1    C2 3633   1.024   0.746  10.114  0.0540 -0.0777 -0.2538
  236MPD1    C3 3634   1.026   0.619  10.182 -0.2099  0.4658 -0.4196
  236MPD1    C4 3635   0.936   0.520  10.155 -0.0776  0.1265  0.4489
  236MPD1    C5 3636   0.827   0.551  10.065 -1.3019  0.1432 -0.1977
  236MPD1     H 3637   1.109   0.812  10.124 -0.9994  1.3655 -0.8453
  236MPD1    H1 3638   0.933   0.424  10.206  2.1238 -0.6761 -0.9320
  236MPD1    H2 3639   0.725   0.707   9.957 -0.8158 -0.5460  0.2861
  236MPD1    H3 3640   0.749   0.485  10.032 -2.3565  1.5087 -0.4386
  236MPD1     N 3641   1.123   0.597  10.277  0.6927 -0.5862 -0.4386
  236MPD1    H5 3642   1.127   0.500  10.307 -1.2890 -0.4252  0.3337
  236MPD1    N1 3643   0.896   0.912  10.004 -0.2673 -0.2352  0.7496
  236MPD1    H6 3644   0.831   0.924   9.927  0.1233 -0.2094  0.4313
  236MPD1    H7 3645   0.980   0.965   9.983 -2.1033  2.3745  0.0293
  237MPD1     C 3646   1.748   2.881  14.970  0.5525 -0.1837 -0.1000
  237MPD1    C1 3647   1.695   2.997  15.020 -0.6508  0.4564 -0.5273
  237MPD1    C2 3648   1.569   2.980  15.077  0.1550  0.3728 -1.0075
  237MPD1    C3 3649   1.493   2.866  15.062 -0.1755 -0.4030 -0.1050
  237MPD1    C4 3650   1.546   2.754  15.006 -0.4540  0.1384 -0.1834
  237MPD1    C5 3651   1.677   2.764  14.965  0.5625 -0.6308  0.2043
  237MPD1     H 3652   1.532   3.067  15.130  1.2183  0.3791 -0.2895
  237MPD1    H1 3653   1.483   2.667  14.990 -0.6455  0.3041 -0.3415
  237MPD1    H2 3654   1.853   2.879  14.946  0.5965 -2.7451  0.3291
  237MPD1    H3 3655   1.734   2.680  14.927 -0.5893 -0.3828 -2.0864
  237MPD1     N 3656   1.356   2.858  15.113 -0.1089  0.6649 -0.8863
  237MPD1    H5 3657   1.321   2.763  15.127  0.4470  0.1694 -2.7838
  237MPD1    N1 3658   1.778   3.105  15.054 -0.0632  0.2006  0.3614
  237MPD1    H6 3659   1.727   3.192  15.068  0.1153  0.3562  0.0592
  237MPD1    H7 3660   1.848   3.116  14.980  0.6105 -0.8667  0.8380
  238MPD1     C 3661   2.728   1.588  15.721  0.5936  1.0361 -0.0065
  238MPD1    C1 3662   2.800   1.590  15.601  0.2240  0.0476  0.1482
  238MPD1    C2 3663   2.729   1.639  15.494  0.1569 -0.3339 -0.2517
  238MPD1    C3 3664   2.597   1.679  15.493 -0.0870 -0.2277 -1.0087
  238MPD1    C4 3665   2.539   1.680  15.615 -0.1332 -0.4094  0.1121
  238MPD1    C5 3666   2.596   1.636  15.728  0.7913 -0.4045  0.3125
  238MPD1     H 3667   2.774   1.634  15.396  2.0256 -0.9431  0.6471
  238MPD1    H1 3668   2.437   1.717  15.619 -0.1417 -0.4459  0.2490
  238MPD1    H2 3669   2.788   1.569  15.809  2.1999 -1.8889 -1.7308
  238MPD1    H3 3670   2.548   1.628  15.825  0.2465 -1.2204 -0.0241
  238MPD1     N 3671   2.523   1.705  15.379 -0.0109  0.0602  0.5658
  238MPD1    H5 3672   2.430   1.741  15.398 -0.1395 -0.2065  0.4380
  238MPD1    N1 3673   2.934   1.574  15.601 -0.3589  0.0406 -0.2829
  238MPD1    H6 3674   2.970   1.525  15.519  1.5268 -0.8433  1.0575
  238MPD1    H7 3675   2.968   1.528  15.686  1.1012  0.3795 -0.6721
  239MPD1     C 3676   3.077   2.218  15.355  0.8935  0.2139 -0.0953
  239MPD1    C1 3677   3.199   2.257  15.310  0.4455 -0.2037  0.3473
  239MPD1    C2 3678   3.214   2.346  15.206  0.0183  0.2289 -0.8286
  239MPD1    C3 3679   3.100   2.409  15.154 -0.2195  0.6010  0.0715
  239MPD1    C4 3680   2.983   2.379  15.216 -0.0777  0.7170  0.7900
  239MPD1    C5 3681   2.969   2.284  15.313  0.3411  0.7312  0.1536
  239MPD1     H 3682   3.313   2.367  15.168  0.3319  1.2975  0.5766
  239MPD1    H1 3683   2.888   2.423  15.186  0.2144  0.8674  0.0708
  239MPD1    H2 3684   3.059   2.155  15.442 -1.3378 -1.0651 -1.4866
  239MPD1    H3 3685   2.873   2.274  15.361  0.8978 -2.1394  0.6593
  239MPD1     N 3686   3.096   2.508  15.053  0.3609 -0.1984 -0.5577
  239MPD1    H5 3687   3.001   2.537  15.033  0.0364 -1.0287 -0.2043
  239MPD1    N1 3688   3.314   2.195  15.363  0.3249  0.0828  0.1150
  239MPD1    H6 3689   3.396   2.255  15.357  1.8097 -1.9117  0.7951
  239MPD1    H7 3690   3.314   2.167  15.461 -1.3372  1.2858  0.4610
  240MPD1     C 3691   2.223   2.783  13.570  0.0853 -0.5168  0.3241
  240MPD1    C1 3692   2.113   2.739  13.644  0.0540  0.2135 -0.2549
  240MPD1    C2 3693   2.137   2.650  13.751  0.6186 -0.1240  0.2283
  240MPD1    C3 3694   2.263   2.645  13.803 -0.3950 -0.0504 -0.5126
  240MPD1    C4 3695   2.370   2.708  13.742  0.0309 -0.4294 -0.3099
  240MPD1    C5 3696   2.345   2.770  13.623 -0.2125 -0.2427 -0.7893
  240MPD1     H 3697   2.052   2.603  13.797  0.1037 -1.6906 -2.3173
  240MPD1    H1 3698   2.474   2.711  13.770 -0.1712  1.9608  0.1971
  240MPD1    H2 3699   2.205   2.835  13.477  0.7724  0.0975  0.5279
  240MPD1    H3 3700   2.426   2.836  13.594 -0.3037 -0.7046 -2.0932
  240MPD1     N 3701   2.277   2.563  13.919 -0.2995 -0.6539  0.5959
  240MPD1    H5 3702   2.191   2.527  13.961  0.3139 -2.7433  0.0935
  240MPD1    N1 3703   1.984   2.752  13.590  0.0696 -0.5141  0.4894
  240MPD1    H6 3704   1.967   2.850  13.569  3.1947 -0.0165  0.2591
  240MPD1    H7 3705   1.917   2.743  13.666 -1.0187 -2.3648 -0.6757
  241MPD1     C 3706   2.882   2.293  14.807 -0.8502  0.4683 -0.3574
  241MPD1    C1 3707   2.919   2.370  14.699  0.8151  0.3994  0.1567
  241MPD1    C2 3708   2.819   2.388  14.597 -0.7427  0.4554  0.1813
  241MPD1    C3 3709   2.705   2.319  14.599  0.7159 -0.0534  0.7557
  241MPD1    C4 3710   2.665   2.254  14.719  0.6939 -0.3756  0.4042
  241MPD1    C5 3711   2.755   2.241  14.816 -1.3615  0.0480  0.2451
  241MPD1     H 3712   2.847   2.435  14.504  0.1616 -1.2631 -0.4116
  241MPD1    H1 3713   2.582   2.185  14.725 -0.0488  0.2529 -2.5355
  241MPD1    H2 3714   2.946   2.267  14.891  0.1746  0.3297 -1.1849
  241MPD1    H3 3715   2.738   2.174  14.900  0.5746  0.6057  1.1016
  241MPD1     N 3716   2.620   2.311  14.485 -0.1407 -0.1356  0.7654
  241MPD1    H5 3717   2.541   2.250  14.501 -1.3602  1.1347 -0.4722
  241MPD1    N1 3718   3.044   2.430  14.700  0.0757 -0.8023 -0.1700
  241MPD1    H6 3719   3.115   2.378  14.752 -0.5698  1.8542  3.4090
  241MPD1    H7 3720   3.088   2.442  14.609 -0.1708  1.4634 -0.0004
  242MPD1     C 3721   2.378   0.629  16.291 -0.3873 -1.1226 -0.2298
  242MPD1    C1 3722   2.274   0.564  16.226 -0.4240  0.8483  0.0461
  242MPD1    C2 3723   2.271   0.563  16.087 -0.3206 -0.3076  0.1092
  242MPD1    C3 3724   2.379   0.612  16.016  0.0432 -0.0867  0.9275
  242MPD1    C4 3725   2.486   0.663  16.084  0.5088 -0.7038  0.3538
  242MPD1    C5 3726   2.480   0.676  16.219 -0.2040  0.0705  0.1591
  242MPD1     H 3727   2.179   0.532  16.039 -0.4740  2.8295 -1.6401
  242MPD1    H1 3728   2.575   0.707  16.040  1.6468 -2.7039  0.6277
  242MPD1    H2 3729   2.391   0.638  16.398  0.3005  0.5903 -0.4594
  242MPD1    H3 3730   2.563   0.729  16.265 -0.3804 -0.0828  0.6493
  242MPD1     N 3731   2.392   0.614  15.873  0.7345 -0.5928 -0.0329
  242MPD1    H5 3732   2.472   0.664  15.836  1.0325 -0.0979  1.2930
  242MPD1    N1 3733   2.159   0.543  16.307 -0.1044  0.6247  0.0800
  242MPD1    H6 3734   2.187   0.504  16.397  0.9298 -0.4976 -0.7286
  242MPD1    H7 3735   2.093   0.483  16.258  0.4179  1.7785 -2.0480
  243MPD1     C 3736   2.787   4.207  17.682  0.6075  0.3229  0.3446
  243MPD1    C1 3737   2.906   4.281  17.673 -0.3273 -0.1772 -0.1672
  243MPD1    C2 3738   3.019   4.212  17.635  0.5369 -0.6828 -0.6434
  243MPD1    C3 3739   3.026   4.079  17.620  0.0081  0.2439 -0.4018
  243MPD1    C4 3740   2.903   4.013  17.634  0.1778 -0.2832  0.0245
  243MPD1    C5 3741   2.790   4.073  17.669 -0.6211  0.5541 -0.3751
  243MPD1     H 3742   3.103   4.280  17.622 -0.9060  1.1556 -0.2385
  243MPD1    H1 3743   2.886   3.907  17.619  0.4875 -0.3385  0.0517
  243MPD1    H2 3744   2.692   4.248  17.714  1.1340  1.2506  0.7139
  243MPD1    H3 3745   2.702   4.016  17.695 -1.0287  1.9087  1.2766
  243MPD1     N 3746   3.148   4.020  17.582  0.5273  0.6536 -0.2476
  243MPD1    H5 3747   3.224   4.086  17.584  0.0974  1.1526 -0.3805
  243MPD1    N1 3748   2.908   4.420  17.682 -0.0781  0.2616 -0.2065
  243MPD1    H6 3749   2.997   4.458  17.714  0.6678 -1.6912  0.0367
  243MPD1    H7 3750   2.826   4.464  17.723  1.9163  2.2827  1.5841
  244MPD1     C 3751   3.866   3.439   0.369  0.0629  0.1257 -0.1532
  244MPD1    C1 3752   3.904   3.569   0.369  0.0310 -0.3556 -0.1030
  244MPD1    C2 3753   3.850   3.655   0.275  0.2616  0.1751  0.4784
  244MPD1    C3 3754   3.739   3.612   0.199 -0.2012  0.5785 -0.2614
  244MPD1    C4 3755   3.698   3.481   0.208 -0.4502  0.8797  0.1023
  244MPD1    C5 3756   3.761   3.396   0.292  0.3047 -0.1276 -0.2168
  244MPD1     H 3757   3.870   3.762   0.278  1.2279  0.0034  0.0056
  244MPD1    H1 3758   3.619   3.436   0.151 -0.2239  0.5432  0.0545
  244MPD1    H2 3759   3.915   3.369   0.437  2.8139  0.9995 -1.2572
  244MPD1    H3 3760   3.729   3.292   0.288 -0.9546  0.2128  0.8293
  244MPD1     N 3761   3.677   3.701   0.115 -0.2082  0.1929  0.2476
  244MPD1    H5 3762   3.716   3.793   0.101  2.3227 -0.8120  0.5996
  244MPD1    N1 3763   4.016   3.617   0.438 -0.2631  0.4711  0.2058
  244MPD1    H6 3764   4.038   3.558   0.518  0.7615  0.5102 -0.0362
  244MPD1    H7 3765   3.984   3.706   0.475  0.1014  1.1656 -1.1605
  245MPD1     C 3766   0.160   4.026  13.653  0.2729 -0.5573  0.3993
  245MPD1    C1 3767   0.122   4.149  13.610 -0.3559 -0.1272  0.8210
  245MPD1    C2 3768   0.221   4.233  13.563  0.5986 -0.1702 -0.2805
  245MPD1    C3 3769   0.355   4.197  13.555 -0.1127 -0.1657  0.1040
  245MPD1    C4 3770   0.383   4.067  13.594 -0.7694  0.2097  0.4001
  245MPD1    C5 3771   0.287   3.983  13.648  0.6359 -0.0573  0.0269
  245MPD1     H 3772   0.206   4.331  13.520  1.1224 -0.4983 -1.1893
  245MPD1    H1 3773   0.480   4.021  13.584 -0.6008  0.8292 -0.8781
  245MPD1    H2 3774   0.089   3.959  13.701  0.5280 -0.6536  0.6402
  245MPD1    H3 3775   0.320   3.886  13.684 -0.3895  0.0640  1.2945
  245MPD1     N 3776   0.451   4.294  13.512  0.6406  0.2449 -0.2632
  245MPD1    H5 3777   0.419   4.387  13.487  0.6150 -0.1731 -1.8045
  245MPD1    N1 3778   4.725   4.190  13.595  0.0511  0.5076 -0.1297
  245MPD1    H6 3779   4.669   4.177  13.680 -1.8420  2.6604 -1.0530
  245MPD1    H7 3780   4.717   4.291  13.586 -1.0652  0.7082  2.9983
  246MPD1     C 3781   2.320   0.253  10.583  0.1953  0.2798 -0.0324
  246MPD1    C1 3782   2.230   0.320  10.501 -0.4466  0.2078  0.0385
  246MPD1    C2 3783   2.112   0.257  10.461 -0.3303 -0.1175 -0.3742
  246MPD1    C3 3784   2.086   0.128  10.483  0.5497  0.0034  0.3274
  246MPD1    C4 3785   2.185   0.063  10.554 -0.7675  0.5106  0.6885
  246MPD1    C5 3786   2.298   0.118  10.592 -0.7227  0.8165 -0.7105
  246MPD1     H 3787   2.030   0.313  10.416 -0.0679 -0.1248 -0.8630
  246MPD1    H1 3788   2.183   4.694  10.576  2.1654  0.4834  0.8541
  246MPD1    H2 3789   2.409   0.304  10.620 -0.1985  0.4413  0.7058
  246MPD1    H3 3790   2.361   0.054  10.654  0.6986  1.4496 -1.4950
  246MPD1     N 3791   1.968   0.069  10.437 -0.3612  0.1338 -0.4714
  246MPD1    H5 3792   1.924   0.127  10.367 -1.4427 -0.3751 -0.2062
  246MPD1    N1 3793   2.254   0.460  10.482  1.0516 -0.0879  0.1509
  246MPD1    H6 3794   2.225   0.502  10.394  1.4189 -0.2438 -0.0475
  246MPD1    H7 3795   2.347   0.498  10.499  2.1489 -2.3095 -0.7797
  247MPD1     C 3796   0.339   4.028  15.112  0.0693 -0.1429  0.1432
  247MPD1    C1 3797   0.358   3.901  15.162 -0.3518  0.6596 -0.6608
  247MPD1    C2 3798   0.485   3.883  15.224  0.1094 -0.1391 -0.0648
  247MPD1    C3 3799   0.588   3.965  15.203 -0.3148 -1.1713 -0.8714
  247MPD1    C4 3800   0.563   4.091  15.154 -0.1889 -0.3552  0.9266
  247MPD1    C5 3801   0.440   4.126  15.112 -0.3564 -0.2455 -0.0759
  247MPD1     H 3802   0.505   3.790  15.277  0.2738  0.7411  1.4192
  247MPD1    H1 3803   0.646   4.161  15.151 -2.8050  2.7317  0.1011
  247MPD1    H2 3804   0.239   4.059  15.084 -0.3237 -0.5478  1.1028
  247MPD1    H3 3805   0.424   4.220  15.061  3.3315  1.3054  1.6472
  247MPD1     N 3806   0.723   3.938  15.240 -0.9672  0.5154 -0.0903
  247MPD1    H5 3807   0.796   4.006  15.217  0.1035 -1.1932 -1.7273
  247MPD1    N1 3808   0.251   3.826  15.201 -0.1527 -0.1704 -0.0733
  247MPD1    H6 3809   0.182   3.834  15.126 -0.3410 -0.8286  0.0240
  247MPD1    H7 3810   0.282   3.729  15.210  1.4828  0.0928 -2.8982
  248MPD1     C 3811   1.008   4.207  17.064 -0.1273  0.2669  0.2951
  248MPD1    C1 3812   0.911   4.299  17.027  0.0681 -0.1462  0.6196
  248MPD1    C2 3813   0.890   4.405  17.118 -0.1780 -0.2593  0.2794
  248MPD1    C3 3814   0.956   4.412  17.247  0.3976  0.3745 -0.2177
  248MPD1    C4 3815   1.045   4.308  17.276 -0.1426 -0.6019 -0.3876
  248MPD1    C5 3816   1.064   4.212  17.187 -0.2463  0.5271  0.2262
  248MPD1     H 3817   0.825   4.485  17.084  0.2470  0.6004  1.4804
  248MPD1    H1 3818   1.091   4.297  17.373 -2.0649  0.7352  0.6797
  248MPD1    H2 3819   1.041   4.127  16.998 -1.4078 -1.4591  1.7620
  248MPD1    H3 3820   1.135   4.135  17.214 -2.0228 -0.8062  1.1077
  248MPD1     N 3821   0.918   4.519  17.337 -0.1362 -0.0948  0.0464
  248MPD1    H5 3822   0.843   4.576  17.301 -0.1976 -0.6575 -0.7056
  248MPD1    N1 3823   0.873   4.305  16.896  0.1423 -0.3971  0.2189
  248MPD1    H6 3824   0.865   4.217  16.846 -0.4763  1.0657 -2.2646
  248MPD1    H7 3825   0.798   4.367  16.869  1.3292  0.9654  0.0272
  249MPD1     C 3826   4.496   3.904   9.846  0.3077  0.0086 -0.2657
  249MPD1    C1 3827   4.453   3.777   9.883 -0.8235  0.1476 -0.9569
  249MPD1    C2 3828   4.363   3.765   9.987  0.0911  0.1755 -0.5561
  249MPD1    C3 3829   4.323   3.877  10.059 -0.3551  0.3371 -0.5920
  249MPD1    C4 3830   4.362   4.005  10.020  0.0647 -0.1433 -0.3022
  249MPD1    C5 3831   4.454   4.017   9.914 -0.6280  0.2845 -0.3678
  249MPD1     H 3832   4.326   3.668  10.019 -0.0778  0.0537 -1.1337
  249MPD1    H1 3833   4.325   4.099  10.058  2.5832  1.0524 -0.7786
  249MPD1    H2 3834   4.563   3.915   9.762 -1.0634  0.8720 -1.2476
  249MPD1    H3 3835   4.488   4.118   9.895  0.0346  0.3675  1.2594
  249MPD1     N 3836   4.219   3.854  10.143 -0.7374  0.9091 -0.0074
  249MPD1    H5 3837   4.188   3.759  10.159  0.3134  0.7928  1.2675
  249MPD1    N1 3838   4.495   3.669   9.811 -0.0053 -0.6173  0.4100
  249MPD1    H6 3839   4.594   3.671   9.788 -0.6281 -2.8169 -2.5849
  249MPD1    H7 3840   4.496   3.583   9.866  3.3083 -2.1343 -1.9819
  250MPD2     C 3841   4.379   2.807  13.575  0.2615  0.5147  0.6642
  250MPD2    C1 3842   4.259   2.864  13.625 -0.1661  0.1961  0.7137
  250MPD2    C2 3843   4.144   2.800  13.593  0.0253  0.3287 -0.8420
  250MPD2    C3 3844   4.136   2.704  13.494  0.3068 -0.0830 -0.2709
  250MPD2    C4 3845   4.257   2.651  13.450 -0.3407  0.9328 -0.2652
  250MPD2    C5 3846   4.381   2.692  13.499 -0.8522 -0.6023 -0.5089
  250MPD2     H 3847   4.048   2.839  13.626 -0.2401 -1.2349  0.2606
  250MPD2    H1 3848   4.268   2.580  13.370 -2.8815  3.1736 -2.6246
  250MPD2    H2 3849   4.475   2.851  13.597  1.7572 -1.8607 -1.0752
  250MPD2    H3 3850   4.473   2.640  13.471 -0.1051  0.1037  0.6376
  250MPD2     N 3851   4.017   2.676  13.422  0.7991  0.1551  0.4614
  250MPD2    H5 3852   4.028   2.630  13.333  2.5831  1.9508 -0.2203
  250MPD2    N1 3853   4.267   2.991  13.696 -0.3023 -0.1288  0.0738
  250MPD2    H7 3854   4.362   3.016  13.718 -0.7822  0.1507  1.8715
  251TMC3    C1 3855   4.200   3.185  13.812  0.1333 -0.2204  0.1402
  251TMC3    C2 3856   4.094   3.264  13.830  0.4403  0.6535 -0.1858
  251TMC3    C3 3857   4.110   3.400  13.835  0.0289 -0.0119 -0.0331
  251TMC3    C4 3858   4.319   3.237  13.772 -0.2346 -0.7790 -0.4889
  251TMC3    C5 3859   4.337   3.374  13.768  0.4211 -0.3610 -0.6091
  251TMC3    C6 3860   4.230   3.457  13.795  0.2172 -0.6937 -0.3492
  251TMC3     C 3861   4.166   3.054  13.755 -0.0703 -0.2392  0.3063
  251TMC3     O 3862   4.046   3.030  13.753 -0.1022 -0.0810 -0.0093
  251TMC3     H 3863   3.999   3.220  13.860 -0.7130  2.3499 -1.3716
  251TMC3    H1 3864   4.408   3.181  13.744 -1.7547 -3.7896  0.7072
  251TMC3    H2 3865   4.249   3.562  13.813  1.1075 -0.9252  0.0460
  251TMC3    C7 3866   4.472   3.419  13.741 -0.1592 -0.3152  0.2413
  251TMC3    C8 3867   3.990   3.484  13.854 -0.0153  0.1956  0.4058
  251TMC3    O1 3868   4.567   3.340  13.763  0.1193 -0.0065  0.3352
  251TMC3    O2 3869   3.900   3.433  13.921  0.0588 -0.6074 -0.1609
  252TMC3    C1 3870   4.143   0.366   9.614  0.5470 -0.2299  0.3477
  252TMC3    C2 3871   4.258   0.424   9.650  0.0324 -0.7105  0.0828
  252TMC3    C3 3872   4.346   0.346   9.712 -0.2201 -0.8979 -0.2800
  252TMC3    C4 3873   4.111   0.234   9.623  0.3398  0.5338  0.5517
  252TMC3    C5 3874   4.208   0.161   9.692  0.1867  0.2783  0.5549
  252TMC3    C6 3875   4.325   0.217   9.736 -0.8109 -0.3932  0.9665
  252TMC3     C 3876   4.076   0.430   9.505  0.6007 -0.7425 -0.1805
  252TMC3     O 3877   4.026   0.350   9.424  0.0186  0.5660  0.2097
  252TMC3     H 3878   4.283   0.528   9.630 -1.0788 -0.3036  0.8236
  252TMC3    H1 3879   4.020   0.182   9.596  0.7416 -0.2448  0.6989
  252TMC3    H2 3880   4.400   0.154   9.782 -1.7938 -1.5349  1.0171
  252TMC3    C7 3881   4.184   0.014   9.711 -0.7231 -0.2968 -0.1175
  252TMC3    C8 3882   4.478   0.400   9.750 -0.3710 -0.9295 -0.7240
  252TMC3    O1 3883   4.103   4.703   9.634  0.0834 -0.6179  0.0152
  252TMC3    O2 3884   4.519   0.503   9.687 -0.7281 -0.2089  0.2024
  253MPD2     C 3885   0.312   2.886  15.091  0.2304 -0.2768 -0.2480
  253MPD2    C1 3886   0.200   2.938  15.144 -0.0519 -0.4960 -0.4258
  253MPD2    C2 3887   0.191   2.923  15.280 -0.2535 -0.6177 -0.1322
  253MPD2    C3 3888   0.287   2.870  15.367 -0.4555  0.8192  0.8774
  253MPD2    C4 3889   0.393   2.807  15.307 -0.0105 -0.3272 -0.5695
  253MPD2    C5 3890   0.409   2.829  15.172  0.0093 -0.0129 -0.1240
  253MPD2     H 3891   0.095   2.948  15.323 -0.5636  1.0870 -1.7934
  253MPD2    H1 3892   0.476   2.774  15.367  0.9979  1.5114 -0.9601
  253MPD2    H2 3893   0.342   2.900  14.988  1.5451  1.0823  0.3072
  253MPD2    H3 3894   0.496   2.794  15.118 -0.2420 -1.0044  0.1086
  253MPD2     N 3895   0.281   2.891  15.509  0.5553  0.1423  0.0684
  253MPD2    H5 3896   0.351   2.843  15.566  1.7801  1.6357 -0.1783
  253MPD2    N1 3897   0.099   3.003  15.066  0.3291  0.0298 -0.6981
  253MPD2    H7 3898   0.026   3.042  15.124  0.0290  1.0733 -1.7810
  254TMC3    C1 3899   0.191   2.970  15.721 -0.0209 -0.2559  0.0143
  254TMC3    C2 3900   0.087   3.051  15.774 -0.1081  0.1060  0.4338
  254TMC3    C3 3901   0.061   3.042  15.909  0.8302  0.3976 -0.5626
  254TMC3    C4 3902   0.232   2.859  15.790 -0.3502 -0.4687 -0.7043
  254TMC3    C5 3903   0.200   2.852  15.921  0.5801 -0.1654 -0.4530
  254TMC3    C6 3904   0.113   2.934  15.982 -0.3136 -0.8523  0.4921
  254TMC3     C 3905   0.199   2.981  15.576 -0.2352  0.0823 -0.1934
  254TMC3     O 3906   0.139   3.077  15.525  0.0081  0.5461 -0.2943
  254TMC3     H 3907   0.032   3.127  15.720 -0.6743  1.0712  2.3742
  254TMC3    H1 3908   0.319   2.802  15.758 -0.4377 -0.7730 -0.3939
  254TMC3    H2 3909   0.108   2.916  16.089 -2.6417 -1.2324  0.3090
  254TMC3    C7 3910   0.308   2.802  16.011  0.2061  0.2382  0.1271
  254TMC3    C8 3911   4.715   3.140  15.983 -0.1412 -0.3213 -0.8494
  254TMC3    O1 3912   0.277   2.741  16.111 -0.1035 -0.1698  0.0068
  254TMC3    O2 3913   4.669   3.091  16.083  0.1895  0.6482 -0.4212
  255MPD2     C 3914   4.005   2.211  10.669  0.0680  0.3150  0.4276
  255MPD2    C1 3915   4.001   2.077  10.635  0.2269 -0.0659  0.0453
  255MPD2    C2 3916   4.091   2.027  10.544  0.2436  0.8879 -0.0178
  255MPD2    C3 3917   4.174   2.111  10.475 -0.1159  0.0340  0.5343
  255MPD2    C4 3918   4.174   2.249  10.495 -0.6981 -0.7728  0.4451
  255MPD2    C5 3919   4.092   2.295  10.597  0.2112 -0.0949 -0.1046
  255MPD2     H 3920   4.096   1.919  10.531 -0.3373  1.0219 -1.3622
  255MPD2    H1 3921   4.242   2.311  10.436 -1.7721 -0.8598 -0.8842
  255MPD2    H2 3922   3.940   2.252  10.746  0.8860 -0.0377  1.2946
  255MPD2    H3 3923   4.107   2.398  10.624  0.7473 -0.8960  2.6086
  255MPD2     N 3924   4.240   2.050  10.370  0.4906  0.0415  0.3885
  255MPD2    H5 3925   4.224   1.951  10.355 -1.7917  0.5869 -0.8513
  255MPD2    N1 3926   3.902   2.001  10.701  0.2681  0.2142  0.0065
  255MPD2    H7 3927   3.847   2.061  10.760  2.6412 -0.0667  2.5184
  256TMC3    C1 3928   3.717   1.864  10.714 -0.1360 -0.3182  0.5991
  256TMC3    C2 3929   3.639   1.980  10.726  0.2846 -0.3622  0.3425
  256TMC3    C3 3930   3.505   1.968  10.729 -0.4354 -0.0432  0.4471
  256TMC3    C4 3931   3.657   1.740  10.693 -0.3077  0.2829 -0.5082
  256TMC3    C5 3932   3.522   1.735  10.688 -0.0837 -0.0534  0.1080
  256TMC3    C6 3933   3.446   1.851  10.706  0.4614 -0.5974 -0.3170
  256TMC3     C 3934   3.852   1.880  10.671  0.2053 -0.2196 -0.5457
  256TMC3     O 3935   3.882   1.805  10.582 -0.4976 -0.5875  0.5932
  256TMC3     H 3936   3.677   2.080  10.740 -0.6093  0.2427 -1.4652
  256TMC3    H1 3937   3.713   1.647  10.685  0.5461  0.6903  0.8355
  256TMC3    H2 3938   3.338   1.846  10.694  0.2767 -0.5168  1.3398
  256TMC3    C7 3939   3.453   1.627  10.635 -0.2636 -0.1964 -0.4593
  256TMC3    C8 3940   3.443   2.056  10.638 -0.3373 -0.0908  0.1990
  256TMC3    O1 3941   3.530   1.553  10.576 -0.2846  0.5670  0.4805
  256TMC3    O2 3942   3.330   2.100  10.658  0.3377  0.1217 -0.4316
  257MPD2     C 3943   2.706   3.132  13.711  0.1564 -0.0043  0.0369
  257MPD2    C1 3944   2.683   3.053  13.602 -0.3590  0.4308 -0.2166
  257MPD2    C2 3945   2.706   2.917  13.610 -0.6659 -0.4547  0.2593
  257MPD2    C3 3946   2.742   2.858  13.733 -0.3742  0.7881  0.4377
  257MPD2    C4 3947   2.769   2.945  13.845 -0.2483 -0.8880 -0.5430
  257MPD2    C5 3948   2.752   3.083  13.832 -0.7945 -0.1867  0.0209
  257MPD2     H 3949   2.706   2.851  13.523  2.0762 -0.2277  0.0875
  257MPD2    H1 3950   2.811   2.899  13.934 -2.7749 -0.2781  0.9386
  257MPD2    H2 3951   2.683   3.237  13.698  0.5042  0.4353  3.0153
  257MPD2    H3 3952   2.776   3.156  13.909 -1.8334  1.9004 -1.6532
  257MPD2     N 3953   2.745   2.715  13.732 -0.4131 -0.3976 -0.2807
  257MPD2    H5 3954   2.734   2.670  13.641  2.0127 -0.7752 -0.3984
  257MPD2    N1 3955   2.639   3.117  13.487  0.1000 -0.0542  0.5534
  257MPD2    H7 3956   2.632   3.218  13.478 -0.3101  0.0652  2.3131
  258TMC3    C1 3957   2.788   2.498  13.819 -0.8608 -0.2038 -0.3442
  258TMC3    C2 3958   2.706   2.439  13.729  0.4288 -0.2557 -0.9068
  258TMC3    C3 3959   2.703   2.305  13.725  0.2863 -0.1607  0.4710
  258TMC3    C4 3960   2.851   2.426  13.922 -0.3056  0.5084  0.4475
  258TMC3    C5 3961   2.828   2.290  13.925  0.4237  0.1149  0.0533
  258TMC3    C6 3962   2.758   2.227  13.823 -0.6509 -0.7669  0.4140
  258TMC3     C 3963   2.770   2.638  13.846 -0.5204 -0.5301  0.1947
  258TMC3     O 3964   2.784   2.677  13.960  0.3713 -0.1497  0.3949
  258TMC3     H 3965   2.657   2.497  13.652 -0.8367 -0.1730 -0.0333
  258TMC3    H1 3966   2.911   2.474  13.998  0.5996 -2.3978  1.5552
  258TMC3    H2 3967   2.748   2.120  13.835 -0.4102 -0.7822  0.4685
  258TMC3    C7 3968   2.873   2.208  14.031 -0.2925 -0.0063  0.1743
  258TMC3    C8 3969   2.684   2.240  13.594  0.1802 -0.5218 -0.4317
  258TMC3    O1 3970   2.829   2.094  14.037  0.2701 -0.5778  0.0846
  258TMC3    O2 3971   2.623   2.294  13.501  0.3290  0.1288 -0.0257
  259MPD2     C 3972   1.311   4.464   0.285  0.4187  0.3818 -0.3418
  259MPD2    C1 3973   1.422   4.548   0.305 -0.2277  0.8060 -0.0490
  259MPD2    C2 3974   1.548   4.497   0.266 -0.2816 -0.2756  0.4780
  259MPD2    C3 3975   1.549   4.398   0.165 -0.6976  0.3272  0.0032
  259MPD2    C4 3976   1.434   4.320   0.143  0.9480  0.0708 -0.5987
  259MPD2    C5 3977   1.317   4.347   0.210  0.0021 -0.0768  0.1017
  259MPD2     H 3978   1.643   4.546   0.283 -0.1660  0.0479 -1.1533
  259MPD2    H1 3979   1.439   4.235   0.077 -0.3703 -0.2890 -0.2357
  259MPD2    H2 3980   1.211   4.487   0.319  0.6143 -2.2889  1.9987
  259MPD2    H3 3981   1.226   4.298   0.180  1.2292 -1.7223 -0.9225
  259MPD2     N 3982   1.673   4.370   0.109 -0.1759  0.0268 -0.0237
  259MPD2    H5 3983   1.754   4.428   0.132  0.5401 -0.0210 -2.4485
  259MPD2    N1 3984   1.398   4.669   0.376 -0.4228 -0.2786 -0.1569
  259MPD2    H7 3985   1.303   4.688   0.406  0.8115  1.7766  2.4447
  260TMC3    C1 3986   1.849   4.247   0.025 -0.2539  0.1373  0.4608
  260TMC3    C2 3987   1.910   4.170  17.672  0.3426  0.4540 -0.2685
  260TMC3    C3 3988   2.007   4.079  17.707 -0.2400  0.7127 -0.8687
  260TMC3    C4 3989   1.906   4.244   0.153 -0.8954  0.2911  0.2350
  260TMC3    C5 3990   2.018   4.164   0.170 -0.4589  0.3566 -0.1114
  260TMC3    C6 3991   2.077   4.083   0.079  0.2764  0.2487 -0.1648
  260TMC3     C 3992   1.705   4.262   0.026  0.4791  0.8504  0.1959
  260TMC3     O 3993   1.645   4.179  17.704  0.4785 -0.2598 -0.8345
  260TMC3     H 3994   1.869   4.157  17.573  2.0662 -4.4150 -0.3398
  260TMC3    H1 3995   1.869   4.303   0.236 -3.6009 -1.1556  0.0600
  260TMC3    H2 3996   2.169   4.027   0.092 -0.5213 -1.1884 -0.5969
  260TMC3    C7 3997   2.023   4.101   0.299 -0.1601  0.3633  0.1854
  260TMC3    C8 3998   2.041   3.972  17.609 -0.0290  0.4438 -0.2763
  260TMC3    O1 3999   2.092   4.003   0.302 -0.4101 -0.3660 -0.1130
  260TMC3    O2 4000   2.009   3.986  17.492  0.2990 -0.4185  0.0681
  261MPD2     C 4001   3.855   2.614  12.795 -0.1292 -0.0942 -0.4134
  261MPD2    C1 4002   3.815   2.728  12.852 -0.2286 -0.4904 -0.2081
  261MPD2    C2 4003   3.834   2.845  12.792  0.0346 -0.5314 -0.1066
  261MPD2    C3 4004   3.904   2.854  12.671 -0.0327  0.5213 -0.4597
  261MPD2    C4 4005   3.936   2.742  12.608  0.1374  0.0233 -0.6333
  261MPD2    C5 4006   3.911   2.623  12.671  0.1261 -0.0328  0.4331
  261MPD2     H 4007   3.821   2.938  12.847  2.6736 -0.6040  0.6053
  261MPD2    H1 4008   3.976   2.735  12.508 -1.4951  1.3702 -1.3771
  261MPD2    H2 4009   3.857   2.521  12.852 -0.4581  0.9778  1.3477
  261MPD2    H3 4010   3.939   2.529  12.625 -1.6031 -0.0488 -0.5833
  261MPD2     N 4011   3.927   2.984  12.624  0.0656 -0.5659 -0.1851
  261MPD2    H5 4012   3.877   3.061  12.667  0.3404  0.3843 -1.5702
  261MPD2    N1 4013   3.752   2.730  12.980 -0.0796  0.0943 -0.2825
  261MPD2    H7 4014   3.717   2.817  13.017  1.8697  1.8505 -2.5759
  262TMC3    C1 4015   3.995   3.158  12.478 -0.0903  0.7283 -0.4759
  262TMC3    C2 4016   3.870   3.220  12.479  0.4207  0.6202  0.1266
  262TMC3    C3 4017   3.867   3.347  12.434 -0.5612 -0.8116 -0.5491
  262TMC3    C4 4018   4.094   3.211  12.399 -0.1515 -0.1818  0.3467
  262TMC3    C5 4019   4.083   3.331  12.341 -0.3840 -0.1710  0.2183
  262TMC3    C6 4020   3.973   3.403  12.363  1.0505 -0.4043  0.0266
  262TMC3     C 4021   4.002   3.013  12.513  0.2516 -0.5105  0.1359
  262TMC3     O 4022   4.080   2.938  12.453 -0.3459 -0.9312 -0.4776
  262TMC3     H 4023   3.782   3.171  12.520 -1.4159  2.0248 -2.1229
  262TMC3    H1 4024   4.183   3.151  12.385  0.0080 -0.4572  2.5669
  262TMC3    H2 4025   3.970   3.505  12.325  0.4975 -1.1189 -1.8442
  262TMC3    C7 4026   4.204   3.390  12.285 -0.0127 -0.0935  0.0989
  262TMC3    C8 4027   3.741   3.415  12.413 -0.4373  0.4661 -0.2982
  262TMC3    O1 4028   4.306   3.326  12.299 -0.1550  0.0546 -0.0882
  262TMC3    O2 4029   3.739   3.484  12.315 -0.2746  0.5889 -0.0740
  263MPD2     C 4030   4.605   2.474  11.932  0.1414 -0.1792 -0.1801
  263MPD2    C1 4031   4.664   2.449  11.810  0.4539  0.1580  1.0866
  263MPD2    C2 4032   4.685   2.546  11.722 -0.3083  0.3211  0.1794
  263MPD2    C3 4033   4.648   2.675  11.753  0.2557 -0.5357  0.6771
  263MPD2    C4 4034   4.574   2.696  11.868  0.2797  0.3656  0.1905
  263MPD2    C5 4035   4.547   2.592  11.952  0.5933  0.1186  0.5046
  263MPD2     H 4036   0.005   2.528  11.631 -0.9115 -2.4467  0.3396
  263MPD2    H1 4037   4.547   2.797  11.897  1.8468  1.1139 -0.9508
  263MPD2    H2 4038   4.604   2.402  12.013  1.4797 -0.4639 -0.4285
  263MPD2    H3 4039   4.508   2.616  12.050  0.3997  1.4484  0.1079
  263MPD2     N 4040   4.700   2.781  11.674 -0.0014  0.1647  0.6044
  263MPD2    H5 4041   0.018   2.748  11.596 -2.7744  1.4226 -1.9174
  263MPD2    N1 4042   4.728   2.321  11.794  0.1192  0.3072 -0.1466
  263MPD2    H7 4043   4.733   2.263  11.878 -2.8708 -0.2238 -0.3453
  264TMC3    C1 4044   0.023   3.007  11.606  0.5046 -1.2534 -0.3013
  264TMC3    C2 4045   0.040   3.139  11.648  0.9257  0.6843 -0.1383
  264TMC3    C3 4046   0.093   3.230  11.559 -0.0678 -0.8811  1.0645
  264TMC3    C4 4047   0.076   2.961  11.489  0.3865  0.5295 -0.6948
  264TMC3    C5 4048   0.135   3.057  11.406  0.1755  0.0160  0.1277
  264TMC3    C6 4049   0.149   3.188  11.444  0.1436 -0.3130 -0.3695
  264TMC3     C 4050   4.687   2.918  11.697  0.0919 -0.3715 -0.2499
  264TMC3     O 4051   4.640   2.973  11.793 -0.1336  0.1709 -0.3012
  264TMC3     H 4052   4.734   3.164  11.745 -0.1962  1.3277 -0.7907
  264TMC3    H1 4053   0.042   2.864  11.455 -0.3486  0.4862  0.1594
  264TMC3    H2 4054   0.198   3.260  11.380  0.3427  0.3786  0.5641
  264TMC3    C7 4055   0.208   3.013  11.287 -0.7452  0.7458 -0.2487
  264TMC3    C8 4056   0.148   3.352  11.610 -0.3111 -0.2268  0.4478
  264TMC3    O1 4057   0.255   3.103  11.223 -0.1856 -0.6019  0.6021
  264TMC3    O2 4058   0.233   3.406  11.545  0.3464 -0.4914  0.2195
  265MPD2     C 4059   1.493   2.607  15.463 -0.6579 -0.3022  0.4354
  265MPD2    C1 4060   1.558   2.719  15.417  0.0019 -0.7845 -0.5680
  265MPD2    C2 4061   1.665   2.708  15.332 -0.3011 -0.4248  0.1839
  265MPD2    C3 4062   1.700   2.579  15.285 -0.3314 -0.0705 -0.5399
  265MPD2    C4 4063   1.629   2.464  15.328 -0.1125  0.4040 -0.2292
  265MPD2    C5 4064   1.537   2.485  15.424 -0.1563 -0.1057  0.2925
  265MPD2     H 4065   1.704   2.796  15.284  0.5493 -0.0500  1.5714
  265MPD2    H1 4066   1.658   2.367  15.289  1.0598 -0.7199  3.4587
  265MPD2    H2 4067   1.417   2.622  15.538  1.8323  0.2938  2.8600
  265MPD2    H3 4068   1.492   2.400  15.474 -0.5160  1.2706  2.2728
  265MPD2     N 4069   1.801   2.547  15.197 -0.5508 -0.6531  0.0172
  265MPD2    H5 4070   1.811   2.449  15.172 -1.3728 -0.6113 -0.4543
  265MPD2    N1 4071   1.526   2.849  15.458  0.0795  0.2022 -0.3552
  265MPD2    H7 4072   1.597   2.918  15.439 -0.9146  1.0062 -1.1470
  266TMC3    C1 4073   1.393   3.011  15.578 -0.6467  0.3564 -0.3390
  266TMC3    C2 4074   1.490   3.051  15.659 -0.6020  0.2206  0.0560
  266TMC3    C3 4075   1.480   3.152  15.750 -0.2046  0.3577 -0.3805
  266TMC3    C4 4076   1.270   3.077  15.571 -0.4376  0.3937  0.3458
  266TMC3    C5 4077   1.263   3.180  15.657  0.4366 -0.1770  0.0819
  266TMC3    C6 4078   1.358   3.214  15.750  0.1555 -0.0535 -0.1721
  266TMC3     C 4079   1.405   2.878  15.516 -0.3808  0.1930 -0.1531
  266TMC3     O 4080   1.303   2.816  15.503  0.4754 -0.0307  0.0619
  266TMC3     H 4081   1.586   3.001  15.661  0.1108  1.6546  1.5142
  266TMC3    H1 4082   1.196   3.064  15.493 -0.2310 -1.3905  0.4349
  266TMC3    H2 4083   1.344   3.284  15.832 -0.7314 -0.9425  0.4392
  266TMC3    C7 4084   1.140   3.252  15.646 -0.2876  0.4699 -0.7942
  266TMC3    C8 4085   1.543   3.119  15.879 -0.0651  0.0046  1.1212
  266TMC3    O1 4086   1.033   3.202  15.609 -0.1295  0.0635 -0.2899
  266TMC3    O2 4087   1.569   3.000  15.904 -0.1589  0.1407 -0.4291
  267MPD2     C 4088   3.067   4.645   0.421  0.0007  0.0930  0.0643
  267MPD2    C1 4089   3.194   4.680   0.382  0.3321  0.3790 -0.1275
  267MPD2    C2 4090   3.216   4.737   0.258 -0.6035 -0.5734  0.6021
  267MPD2    C3 4091   3.107   0.031   0.174  0.3163 -0.3303  0.2041
  267MPD2    C4 4092   2.981   4.723   0.210  0.2781  0.5998  0.0967
  267MPD2    C5 4093   2.963   4.671   0.339  0.0512  0.7463  0.0722
  267MPD2     H 4094   3.312   0.031   0.220  0.4166 -3.4783  0.7939
  267MPD2    H1 4095   2.896   4.735   0.143 -0.2130  2.4259  1.0489
  267MPD2    H2 4096   3.045   4.616   0.523  2.7661  0.1972  0.6673
  267MPD2    H3 4097   2.862   4.640   0.361 -0.1473  0.8900 -0.6205
  267MPD2     N 4098   3.124   0.091   0.042 -0.3911  0.2197 -0.3043
  267MPD2    H5 4099   3.045   0.080  17.726 -2.0318  0.5148  1.7097
  267MPD2    N1 4100   3.309   4.657   0.467 -0.3546  0.3915 -0.7219
  267MPD2    H7 4101   3.399   4.678   0.426  0.9387 -1.9245  0.8913
  268TMC3    C1 4102   3.444   4.613   0.647  0.4895  0.3359 -0.1742
  268TMC3    C2 4103   3.540   4.681   0.578  0.1997  0.1631  0.0760
  268TMC3    C3 4104   3.669   4.676   0.625 -0.0458 -0.0778  0.3115
  268TMC3    C4 4105   3.476   4.512   0.738  0.5627  0.3418 -0.4863
  268TMC3    C5 4106   3.607   4.492   0.762  0.1471  0.2228 -0.9080
  268TMC3    C6 4107   3.708   4.581   0.723 -0.6147 -0.2179  0.0095
  268TMC3     C 4108   3.307   4.620   0.598 -0.2080  0.1912  0.0195
  268TMC3     O 4109   3.221   4.586   0.672  0.2983  0.3740  0.6364
  268TMC3     H 4110   3.512   0.028   0.515  3.1140  1.3390  0.3824
  268TMC3    H1 4111   3.397   4.450   0.777 -0.0732  0.4228 -1.6445
  268TMC3    H2 4112   3.814   4.559   0.735 -0.1632  1.9034 -0.1297
  268TMC3    C7 4113   3.657   4.359   0.812 -0.2257 -0.0672 -0.0334
  268TMC3    C8 4114   3.783   4.721   0.542 -0.7869  0.1173 -0.0652
  268TMC3    O1 4115   3.776   4.364   0.835 -0.4221  0.3117  0.1088
  268TMC3    O2 4116   3.892   4.718   0.596  0.5526 -0.1843  0.2342
  269MPD2     C 4117   4.368   3.472  15.620  0.1701 -0.0036  0.2462
  269MPD2    C1 4118   4.293   3.468  15.740 -0.7884 -0.5060  0.6035
  269MPD2    C2 4119   4.213   3.582  15.769  0.1646  0.0173  0.1999
  269MPD2    C3 4120   4.207   3.686  15.677  0.5045  0.2880 -0.5766
  269MPD2    C4 4121   4.279   3.681  15.559 -0.6525  0.3969 -0.2468
  269MPD2    C5 4122   4.372   3.580  15.537  0.2030 -0.3144  1.3673
  269MPD2     H 4123   4.138   3.573  15.847 -0.6467  0.1761 -0.5641
  269MPD2    H1 4124   4.270   3.759  15.485  3.9913  0.8181 -0.3591
  269MPD2    H2 4125   4.419   3.380  15.593 -1.7693 -1.1229  0.4800
  269MPD2    H3 4126   4.444   3.586  15.456 -0.4680  0.2959  0.8133
  269MPD2     N 4127   4.132   3.804  15.709  0.4966 -0.2079 -0.0369
  269MPD2    H5 4128   4.060   3.795  15.779  1.4493 -0.1277  0.9498
  269MPD2    N1 4129   4.279   3.347  15.811 -0.0934  0.3500  0.0801
  269MPD2    H7 4130   4.341   3.271  15.785  1.8237  1.5223  1.2335
  270TMC3    C1 4131   4.211   3.187  15.961  0.3826  0.5797  0.2085
  270TMC3    C2 4132   4.097   3.117  15.997 -0.6096  0.2972 -0.1028
  270TMC3    C3 4133   4.101   2.985  16.039  0.3074 -0.0850  0.0040
  270TMC3    C4 4134   4.329   3.117  15.948 -0.0494 -0.5574  0.1627
  270TMC3    C5 4135   4.329   2.990  16.002 -0.0343 -0.4058 -0.9020
  270TMC3    C6 4136   4.224   2.932  16.058  0.1866 -0.2827 -0.0638
  270TMC3     C 4137   4.196   3.321  15.914  0.4361 -0.0493  0.9044
  270TMC3     O 4138   4.092   3.379  15.939 -0.4328  0.2521  0.3549
  270TMC3     H 4139   4.002   3.167  16.013 -1.0134 -0.8140  0.9874
  270TMC3    H1 4140   4.422   3.165  15.920 -0.4052 -0.0699 -0.1836
  270TMC3    H2 4141   4.221   2.824  16.068  1.2871 -0.3425 -0.3387
  270TMC3    C7 4142   4.429   2.894  15.968 -0.2378 -0.3362 -0.2525
  270TMC3    C8 4143   4.006   2.895  15.970  0.5848 -0.3483  0.4840
  270TMC3    O1 4144   4.432   2.790  16.037 -0.3040  0.4969 -0.1410
  270TMC3    O2 4145   4.063   2.808  15.904  0.1693  0.2049  0.0891
  271MPD2     C 4146   3.474   2.948  14.254 -0.7514 -0.3215 -0.4696
  271MPD2    C1 4147   3.462   3.028  14.365 -0.1074  0.4265  1.1488
  271MPD2    C2 4148   3.364   3.127  14.372 -0.5441  0.5921  0.6276
  271MPD2    C3 4149   3.269   3.130  14.271  0.0496  0.1927 -1.0561
  271MPD2    C4 4150   3.292   3.054  14.159  0.6543 -0.5316  0.0403
  271MPD2    C5 4151   3.384   2.959  14.153  0.5050  0.4527 -0.0079
  271MPD2     H 4152   3.348   3.188  14.460 -1.0012  1.2853  0.0697
  271MPD2    H1 4153   3.222   3.050  14.077  0.1584 -1.7827  0.5254
  271MPD2    H2 4154   3.532   2.856  14.255  1.8009  1.2989 -0.9685
  271MPD2    H3 4155   3.383   2.895  14.065  1.3057  0.9394 -0.3646
  271MPD2     N 4156   3.157   3.219  14.270  0.6829 -0.8861 -0.3062
  271MPD2    H5 4157   3.110   3.231  14.181 -1.4875  1.1398  1.1026
  271MPD2    N1 4158   3.546   3.014  14.473  0.6848 -0.1608  0.1150
  271MPD2    H7 4159   3.528   3.071  14.555  2.7333  0.6304  0.0279
  272TMC3    C1 4160   3.697   2.916  14.622 -0.0304  0.9652 -0.2075
  272TMC3    C2 4161   3.819   2.855  14.638 -0.0293  0.2070 -0.6207
  272TMC3    C3 4162   3.852   2.804  14.762 -0.8318  0.3268  0.1917
  272TMC3    C4 4163   3.612   2.932  14.728  0.1549 -0.1343  0.3757
  272TMC3    C5 4164   3.651   2.879  14.850  0.4052 -0.5577  0.4199
  272TMC3    C6 4165   3.770   2.810  14.872  0.3421  0.2572  0.2958
  272TMC3     C 4166   3.646   2.917  14.489 -0.3361  0.3210  0.0285
  272TMC3     O 4167   3.693   2.842  14.407 -0.5165 -0.4564  0.6440
  272TMC3     H 4168   3.886   2.834  14.556  1.7749  0.1612  0.8661
  272TMC3    H1 4169   3.508   2.951  14.706  0.3362 -2.5494 -2.4464
  272TMC3    H2 4170   3.795   2.783  14.974  3.3122  0.0669 -0.4925
  272TMC3    C7 4171   3.591   2.928  14.970  0.1741  0.0779 -0.1150
  272TMC3    C8 4172   3.989   2.758  14.779 -0.0561 -0.2617 -0.0761
  272TMC3    O1 4173   3.608   2.863  15.071  0.2595  0.5594  0.1128
  272TMC3    O2 4174   4.070   2.833  14.726  0.9225  0.5428 -0.2069
  273MPD2     C 4175   0.207   1.298  11.171 -0.7911 -0.3916  0.4127
  273MPD2    C1 4176   0.298   1.341  11.266  0.6042 -0.0809 -0.2691
  273MPD2    C2 4177   0.422   1.396  11.218  0.2105 -0.2188 -0.3985
  273MPD2    C3 4178   0.443   1.417  11.084 -0.6706 -0.0456 -0.2646
  273MPD2    C4 4179   0.349   1.377  10.993  0.0382 -0.3428 -0.1386
  273MPD2    C5 4180   0.239   1.318  11.040  0.0946 -0.0740  0.2981
  273MPD2     H 4181   0.488   1.427  11.298  0.9772  0.2530 -1.2168
  273MPD2    H1 4182   0.355   1.392  10.886 -1.2843 -1.2110 -0.3263
  273MPD2    H2 4183   0.109   1.269  11.205  0.0516 -0.4433  2.7565
  273MPD2    H3 4184   0.167   1.293  10.963  0.1615  1.0376 -0.1163
  273MPD2     N 4185   0.547   1.490  11.022  0.0331 -0.1215  0.1752
  273MPD2    H5 4186   0.546   1.500  10.921 -0.6771  0.5783  0.2489
  273MPD2    N1 4187   0.268   1.303  11.398 -0.0911 -0.6289  0.0888
  273MPD2    H7 4188   0.179   1.255  11.404 -1.1822  1.4511  0.6806
  274TMC3    C1 4189   0.708   1.659  11.016  0.4492 -0.7677 -1.1701
  274TMC3    C2 4190   0.691   1.667  10.884 -0.0512 -0.1759  0.7629
  274TMC3    C3 4191   0.683   1.783  10.820  0.4521  0.1085  0.1763
  274TMC3    C4 4192   0.730   1.776  11.088 -0.0584 -0.1874 -0.5493
  274TMC3    C5 4193   0.725   1.898  11.025  0.4976 -0.0505 -0.4814
  274TMC3    C6 4194   0.706   1.901  10.887  0.4578 -0.9136 -0.3558
  274TMC3     C 4195   0.645   1.553  11.094 -0.9056  0.0529 -0.3660
  274TMC3     O 4196   0.660   1.554  11.218  0.0396 -0.4188  0.3159
  274TMC3     H 4197   0.686   1.578  10.822  0.0215  0.1291  0.3136
  274TMC3    H1 4198   0.755   1.773  11.193  0.5938 -0.0665 -0.6960
  274TMC3    H2 4199   0.679   1.994  10.839 -0.3337 -0.5624  0.7733
  274TMC3    C7 4200   0.729   2.022  11.101 -0.3954  0.1565  0.0436
  274TMC3    C8 4201   0.595   1.791  10.708  0.0984 -0.0196 -1.1660
  274TMC3    O1 4202   0.763   2.124  11.044  0.0720 -0.3015 -0.0027
  274TMC3    O2 4203   0.509   1.706  10.711 -0.4535 -0.2948  0.1590
  275MPD2     C 4204   0.010   4.371  14.671 -0.4722  0.2573 -1.0585
  275MPD2    C1 4205   0.048   4.238  14.689  0.2453  0.0885 -0.8738
  275MPD2    C2 4206   4.692   4.141  14.711  0.1911 -0.1168 -0.4437
  275MPD2    C3 4207   4.557   4.178  14.707  0.4294  0.0829 -0.3095
  275MPD2    C4 4208   4.517   4.308  14.694  0.2717  0.2842  0.0855
  275MPD2    C5 4209   4.613   4.404  14.680  0.2947 -0.4702  0.4196
  275MPD2     H 4210   4.726   4.040  14.731  1.8083  0.6533  0.6983
  275MPD2    H1 4211   4.413   4.338  14.692 -0.4737 -2.0937  2.8504
  275MPD2    H2 4212   0.078   4.452  14.647  0.6722 -1.0084 -2.0994
  275MPD2    H3 4213   4.572   4.505  14.673  0.8624 -0.2285  0.6269
  275MPD2     N 4214   4.454   4.083  14.720 -0.1589 -0.0396  0.4869
  275MPD2    H5 4215   4.361   4.108  14.690 -0.1982 -0.1935  0.4804
  275MPD2    N1 4216   0.186   4.198  14.680  0.2299  0.1357  0.1414
  275MPD2    H7 4217   0.211   4.103  14.706 -1.9074 -0.7637 -1.0706
  276TMC3    C1 4218   0.427   4.226  14.689 -0.7652 -0.1969 -0.6490
  276TMC3    C2 4219   0.434   4.096  14.724 -0.4016  0.4090 -1.3501
  276TMC3    C3 4220   0.556   4.049  14.773  0.9613  0.7186 -0.1900
  276TMC3    C4 4221   0.523   4.311  14.724 -0.5965 -0.1574 -0.0465
  276TMC3    C5 4222   0.646   4.260  14.767  0.3010 -0.0163 -0.7696
  276TMC3    C6 4223   0.669   4.128  14.785  0.0138 -0.9294 -0.1430
  276TMC3     C 4224   0.294   4.286  14.673  0.2202 -0.0592  0.1632
  276TMC3     O 4225   0.286   4.408  14.663  0.0518 -0.4500  0.7721
  276TMC3     H 4226   0.352   4.026  14.720  0.6392 -0.8855  0.0878
  276TMC3    H1 4227   0.513   4.418  14.715  2.4472  0.3385  2.2897
  276TMC3    H2 4228   0.762   4.079  14.811  0.5986  0.6107  0.6331
  276TMC3    C7 4229   0.736   4.356  14.817 -0.0519  0.1266 -0.4906
  276TMC3    C8 4230   0.581   3.916  14.818 -0.0113  0.4766 -0.3034
  276TMC3    O1 4231   0.786   4.318  14.927 -0.2029 -0.5248  0.1048
  276TMC3    O2 4232   0.695   3.881  14.839 -0.9235  0.0250  0.4121
  277MPD2     C 4233   2.317   3.133  13.674  0.4127  0.2167  0.1047
  277MPD2    C1 4234   2.181   3.120  13.652 -0.8524 -0.6682  0.9395
  277MPD2    C2 4235   2.114   3.052  13.749  0.0315  0.0483  0.8090
  277MPD2    C3 4236   2.165   3.021  13.873 -0.0135  0.1832  0.2195
  277MPD2    C4 4237   2.300   3.041  13.899  0.0216  0.2009  0.2962
  277MPD2    C5 4238   2.368   3.106  13.799  0.1969  0.0531  0.3562
  277MPD2     H 4239   2.006   3.043  13.740  0.1897 -1.7380  0.7144
  277MPD2    H1 4240   2.352   3.016  13.990 -0.4727  2.3398  1.1733
  277MPD2    H2 4241   2.382   3.185  13.606  0.8534  2.0793  1.9347
  277MPD2    H3 4242   2.475   3.111  13.818  0.1950 -0.1878  0.4328
  277MPD2     N 4243   2.078   2.967  13.964 -0.1623 -0.2413 -0.2603
  277MPD2    H5 4244   1.987   2.930  13.938 -1.1019  0.7575  1.6259
  277MPD2    N1 4245   2.121   3.178  13.541  0.0293 -0.0253 -0.8520
  277MPD2    H7 4246   2.182   3.232  13.481  0.6952  0.2224  0.0482
  278TMC3    C1 4247   2.019   2.864  14.164  0.3031 -0.1227  0.1945
  278TMC3    C2 4248   2.020   2.738  14.117 -0.3481 -0.7290  0.9776
  278TMC3    C3 4249   1.900   2.671  14.100  0.0832  0.5696  0.1943
  278TMC3    C4 4250   1.897   2.920  14.206  0.1932 -0.0753  0.7847
  278TMC3    C5 4251   1.782   2.838  14.210 -0.0129  0.1049 -0.1732
  278TMC3    C6 4252   1.780   2.716  14.147  0.8773  0.1873  0.0077
  278TMC3     C 4253   2.105   2.956  14.101  0.5201  0.1184  1.0790
  278TMC3     O 4254   2.163   3.038  14.170  0.1309  0.0940  0.1213
  278TMC3     H 4255   2.113   2.708  14.071 -0.8832 -2.5894  1.0799
  278TMC3    H1 4256   1.889   3.027  14.219  0.9582 -0.1002  1.4543
  278TMC3    H2 4257   1.696   2.650  14.131 -0.3042  0.7247  4.2135
  278TMC3    C7 4258   1.660   2.911  14.241  0.9708 -0.8555  0.1355
  278TMC3    C8 4259   1.910   2.550  14.021 -1.0916  0.2684  0.0350
  278TMC3    O1 4260   1.677   2.988  14.336  0.0037 -0.6746  0.0526
  278TMC3    O2 4261   2.013   2.484  14.036 -0.0172  0.3265 -0.2137
  279MPD2     C 4262   1.365   3.000   0.131  0.4263  0.2583 -0.0072
  279MPD2    C1 4263   1.238   3.034   0.173  0.3939  0.3471  0.1910
  279MPD2    C2 4264   1.170   3.122   0.102  0.5668 -0.2036 -0.9802
  279MPD2    C3 4265   1.214   3.175  17.731  0.4487 -0.6166  0.1432
  279MPD2    C4 4266   1.339   3.145  17.689  0.3203  0.5261 -0.2913
  279MPD2    C5 4267   1.419   3.056   0.016  0.1116  0.6196 -0.4868
  279MPD2     H 4268   1.080   3.155   0.153  1.1793 -2.3092  1.5161
  279MPD2    H1 4269   1.381   3.184  17.597  1.3808 -0.3657 -0.1816
  279MPD2    H2 4270   1.433   2.938   0.189 -0.1815 -1.5646 -1.2316
  279MPD2    H3 4271   1.515   3.033  17.717  0.2051  0.2158 -0.0819
  279MPD2     N 4272   1.144   3.268  17.644  0.0759 -0.1532 -0.5536
  279MPD2    H5 4273   1.197   3.314  17.570 -2.5431  0.6967 -1.9106
  279MPD2    N1 4274   1.187   3.001   0.301 -0.0667  0.0926 -0.1167
  279MPD2    H7 4275   1.107   3.058   0.326 -0.9158 -1.5486  0.8711
  280TMC3    C1 4276   1.143   2.878   0.484 -0.2899  0.2547  0.5238
  280TMC3    C2 4277   1.050   2.775   0.479 -0.3136  0.3130  0.1419
  280TMC3    C3 4278   0.920   2.801   0.527 -0.1847 -0.3034  0.4279
  280TMC3    C4 4279   1.113   2.996   0.546  0.4841  0.5287 -0.6610
  280TMC3    C5 4280   0.988   3.013   0.598 -0.5189 -0.4333 -0.2080
  280TMC3    C6 4281   0.887   2.926   0.574 -0.3838 -0.6840 -0.3274
  280TMC3     C 4282   1.230   2.893   0.367 -0.7205  0.1716 -0.2669
  280TMC3     O 4283   1.302   2.797   0.339 -0.2415 -0.1323 -0.0109
  280TMC3     H 4284   1.073   2.690   0.416 -0.7242 -0.6278  1.2518
  280TMC3    H1 4285   1.185   3.077   0.544 -1.2462  2.1250  0.8356
  280TMC3    H2 4286   0.788   2.942   0.613 -0.2606 -1.9728  0.4958
  280TMC3    C7 4287   0.952   3.149   0.629 -0.3506 -0.2071 -0.0704
  280TMC3    C8 4288   0.825   2.688   0.532 -0.4745 -0.2944 -0.0783
  280TMC3    O1 4289   1.030   3.221   0.691  0.6759  0.0496  0.2712
  280TMC3    O2 4290   0.704   2.714   0.561  0.1826  0.1760  0.4596
  281TMC3    C1 4291   0.037   3.724  13.990  0.0175 -0.7815  0.3194
  281TMC3    C2 4292   0.135   3.685  13.896 -0.2662 -0.1532 -0.1223
  281TMC3    C3 4293   0.163   3.556  13.888 -0.4461 -0.5450  0.0673
  281TMC3    C4 4294   4.710   3.631  14.067 -0.3831 -0.1503 -0.3435
  281TMC3    C5 4295   0.012   3.501  14.057 -0.4955 -0.0412 -0.2164
  281TMC3    C6 4296   0.096   3.461  13.960 -0.4666  0.1132  0.5188
  281TMC3     C 4297   0.013   3.863  14.009  0.5015  0.4941 -0.7593
  281TMC3     O 4298   0.117   3.931  14.018  0.1570 -0.1366 -0.4364
  281TMC3     H 4299   0.184   3.759  13.834  0.2585 -0.0103  0.4602
  281TMC3    H1 4300   4.630   3.670  14.130 -0.2971  2.4426 -1.8459
  281TMC3    H2 4301   0.116   3.356  13.944  0.6068  0.3544  0.3125
  281TMC3    C7 4302   4.667   3.397  14.112 -0.1207  0.3778  1.1088
  281TMC3    C8 4303   0.238   3.508  13.776 -0.1886 -0.4315 -0.9201
  281TMC3    O1 4304   4.713   3.284  14.126 -0.0477 -0.2891 -0.3160
  281TMC3    O2 4305   0.344   3.454  13.809  0.9570  0.3885 -0.3054
  282MPD2     C 4306   1.968   0.070  15.151 -0.1991 -0.4076 -0.3695
  282MPD2    C1 4307   1.845   0.131  15.142 -0.2511  0.1385  0.0748
  282MPD2    C2 4308   1.769   0.118  15.031 -0.1222  1.1155  0.0154
  282MPD2    C3 4309   1.819   0.044  14.924 -0.4814 -0.7250  0.1155
  282MPD2    C4 4310   1.936   4.717  14.938  0.4546  0.2843  0.0373
  282MPD2    C5 4311   2.009   4.727  15.050  0.2204 -0.0778  0.5169
  282MPD2     H 4312   1.674   0.168  15.019 -0.9281  0.0344  1.8208
  282MPD2    H1 4313   1.984   4.655  14.863  1.0654  1.2321 -0.3499
  282MPD2    H2 4314   2.039   0.073  15.233  3.3002 -0.7050 -3.4046
  282MPD2    H3 4315   2.103   4.674  15.060  0.0183 -0.8402 -1.6766
  282MPD2     N 4316   1.744   0.039  14.804 -0.1382  0.0556 -0.2997
  282MPD2    H5 4317   1.663   0.100  14.802 -1.2633 -1.4247  0.3261
  282MPD2    N1 4318   1.791   0.210  15.249 -0.4832  0.3825 -0.4575
  282MPD2    H7 4319   1.702   0.256  15.229 -1.0695  0.0598  1.3840
  283TMC3    C1 4320   1.764   0.276  15.467 -0.0176 -0.0487  0.3031
  283TMC3    C2 4321   1.811   0.367  15.554  0.6193 -0.1818 -0.3766
  283TMC3    C3 4322   1.753   0.389  15.673 -0.4822  0.3290  0.4324
  283TMC3    C4 4323   1.677   0.183  15.517  1.1492 -0.1026  0.4173
  283TMC3    C5 4324   1.628   0.193  15.646  0.1741  0.6564 -0.0273
  283TMC3    C6 4325   1.665   0.297  15.729  0.4937  0.7831 -0.6015
  283TMC3     C 4326   1.853   0.232  15.366  0.4580  0.4556 -0.0630
  283TMC3     O 4327   1.961   0.201  15.406  0.1814 -0.2903  0.3937
  283TMC3     H 4328   1.896   0.427  15.522  1.7187 -0.8081  1.3461
  283TMC3    H1 4329   1.654   0.107  15.444 -0.5227  2.3383 -1.5762
  283TMC3    H2 4330   1.632   0.305  15.832  0.5178  2.7115 -0.7410
  283TMC3    C7 4331   1.556   0.075  15.690  0.2007 -0.7259 -0.5309
  283TMC3    C8 4332   1.735   0.526  15.718 -0.2532  0.8194 -0.2730
  283TMC3    O1 4333   1.527   4.732  15.604  0.5190  0.6609  0.6282
  283TMC3    O2 4334   1.766   0.556  15.835 -0.4173 -0.0270  0.0235
  284MPD2     C 4335   4.463   3.733  12.685  0.5418  0.9108 -0.6740
  284MPD2    C1 4336   4.580   3.790  12.633  0.1329 -0.1879 -0.3683
  284MPD2    C2 4337   4.707   3.730  12.646 -0.3357  0.2257  0.4370
  284MPD2    C3 4338   4.713   3.605  12.698 -0.0325 -0.0179 -0.1708
  284MPD2    C4 4339   4.599   3.542  12.751 -0.1489 -0.5982 -0.0803
  284MPD2    C5 4340   4.483   3.611  12.743 -1.2269  0.2480  0.3728
  284MPD2     H 4341   0.057   3.785  12.613 -0.6057  0.8077  0.7023
  284MPD2    H1 4342   4.607   3.446  12.801  0.0297 -0.5410  0.0010
  284MPD2    H2 4343   4.363   3.774  12.676  0.0704  0.0641  0.8658
  284MPD2    H3 4344   4.392   3.573  12.788  0.0445 -2.4554  0.6837
  284MPD2     N 4345   0.093   3.533  12.698 -0.5627  0.3265  0.2032
  284MPD2    H5 4346   0.088   3.443  12.744 -1.4142  0.8203  1.0494
  284MPD2    N1 4347   4.579   3.908  12.556 -0.7587  0.3499 -0.5543
  284MPD2    H7 4348   4.671   3.939  12.528 -0.1943 -0.0069  0.8709
  285TMC3    C1 4349   4.501   4.075  12.412 -0.5174 -0.1161  0.9728
  285TMC3    C2 4350   4.634   4.104  12.372  0.0307 -0.3682 -0.3131
  285TMC3    C3 4351   4.647   4.210  12.289  0.0163  0.2050  0.3174
  285TMC3    C4 4352   4.394   4.155  12.381 -0.6839 -0.6355 -0.4547
  285TMC3    C5 4353   4.424   4.254  12.294 -0.7267  0.0073 -0.1422
  285TMC3    C6 4354   4.543   4.291  12.248  0.5648 -1.1015  0.0304
  285TMC3     C 4355   4.466   3.971  12.501 -0.6283  0.4726 -0.9320
  285TMC3     O 4356   4.351   3.947  12.532  0.3546 -0.4124  0.9416
  285TMC3     H 4357   4.720   4.040  12.390  1.0438  0.2069 -3.0040
  285TMC3    H1 4358   4.294   4.134  12.417 -0.8106 -0.0342 -0.4667
  285TMC3    H2 4359   4.546   4.368  12.172  1.2367 -0.2336  0.9338
  285TMC3    C7 4360   4.315   4.332  12.230 -0.1063 -0.5140 -0.2704
  285TMC3    C8 4361   0.034   4.219  12.208  0.3344 -0.2525  0.0319
  285TMC3    O1 4362   4.323   4.454  12.238  0.4513 -0.5665 -0.2415
  285TMC3    O2 4363   0.107   4.122  12.208  0.2245 -0.0321 -0.6951
  286MPD2     C 4364   0.109   2.843   1.686 -0.3827 -0.2777  1.2861
  286MPD2    C1 4365   0.092   2.863   1.552  0.6129  0.5638  0.5819
  286MPD2    C2 4366   0.154   2.774   1.466 -0.5227 -0.0553  0.3477
  286MPD2    C3 4367   0.236   2.667   1.508  0.5291 -0.3222 -0.4715
  286MPD2    C4 4368   0.258   2.659   1.643  0.3174  0.1551 -0.8911
  286MPD2    C5 4369   0.188   2.738   1.734  0.0659 -0.5298 -0.3394
  286MPD2     H 4370   0.131   2.780   1.360 -2.1536  1.4116  0.7916
  286MPD2    H1 4371   0.325   2.586   1.686 -1.0436 -0.6810 -0.1832
  286MPD2    H2 4372   0.056   2.892   1.767  0.2411  0.5031  1.2226
  286MPD2    H3 4373   0.211   2.724   1.839 -2.7101  0.5299  0.4090
  286MPD2     N 4374   0.308   2.584   1.420  0.1268 -0.3866  0.8562
  286MPD2    H5 4375   0.375   2.524   1.467 -0.0643 -0.3233  1.2138
  286MPD2    N1 4376   0.007   2.971   1.514  0.2508 -0.5066  0.0764
  286MPD2    H7 4377   4.693   3.025   1.583  0.6342  0.2546 -0.2438
  287TMC3    C1 4378   0.372   2.485   1.211 -0.1625  0.2274  0.2699
  287TMC3    C2 4379   0.319   2.430   1.099  0.1794  0.8665 -0.2372
  287TMC3    C3 4380   0.377   2.318   1.043 -0.2161  0.2989 -0.1546
  287TMC3    C4 4381   0.484   2.437   1.263 -0.1603 -0.6781  0.1537
  287TMC3    C5 4382   0.529   2.316   1.211 -0.4040 -0.1716 -0.0064
  287TMC3    C6 4383   0.482   2.254   1.104 -0.9357 -0.5342  0.3354
  287TMC3     C 4384   0.280   2.572   1.287 -0.1639  0.5127 -0.6400
  287TMC3     O 4385   0.179   2.605   1.232 -0.1213  0.4043  0.0302
  287TMC3     H 4386   0.223   2.468   1.067 -0.0055  1.2024  0.7076
  287TMC3    H1 4387   0.532   2.488   1.345 -1.5844  0.6071  0.1717
  287TMC3    H2 4388   0.513   2.156   1.069 -2.6153 -1.5737  1.7411
  287TMC3    C7 4389   0.658   2.282   1.265 -0.1250  0.3938 -0.3067
  287TMC3    C8 4390   0.314   2.263   0.929  0.7199 -0.0425  0.1729
  287TMC3    O1 4391   0.673   2.321   1.378  0.2415 -0.2823  0.5310
  287TMC3    O2 4392   0.208   2.302   0.884 -0.6981  0.4129 -0.2394
  288TMC3    C1 4393   2.031   2.366  14.436  0.5108  0.0176 -0.2017
  288TMC3    C2 4394   1.981   2.347  14.563 -0.1195  0.3212  0.4037
  288TMC3    C3 4395   1.860   2.281  14.570  0.1198 -0.1914  0.4122
  288TMC3    C4 4396   1.961   2.315  14.331 -0.6088 -0.1810 -0.0175
  288TMC3    C5 4397   1.847   2.238  14.351  0.4437 -0.5814 -0.1459
  288TMC3    C6 4398   1.789   2.219  14.467 -0.2955 -0.7479  0.5177
  288TMC3     C 4399   2.124   2.472  14.424  0.5344  0.5685  0.4333
  288TMC3     O 4400   2.126   2.540  14.324 -0.1663 -0.0301  0.1075
  288TMC3     H 4401   2.013   2.405  14.649 -1.2686  0.3014  0.8514
  288TMC3    H1 4402   1.987   2.343  14.230 -0.4814 -1.0173 -0.2176
  288TMC3    H2 4403   1.685   2.188  14.473 -0.5508  0.0681  0.3516
  288TMC3    C7 4404   1.777   2.177  14.244 -0.2023 -0.3604  0.4849
  288TMC3    C8 4405   1.787   2.318  14.685 -0.1327 -0.0289  0.4420
  288TMC3    O1 4406   1.687   2.101  14.274  0.3648 -0.0572  0.0155
  288TMC3    O2 4407   1.804   2.432  14.734 -0.2331 -0.3653 -0.3797
  289MPD2     C 4408   2.263   1.837  14.421  0.4834 -0.5701  0.8819
  289MPD2    C1 4409   2.194   1.932  14.352  0.1753  0.2645 -0.6518
  289MPD2    C2 4410   2.065   1.912  14.310 -0.0970  0.2638 -1.5106
  289MPD2    C3 4411   1.994   1.793  14.342 -0.2001  0.3099  0.5653
  289MPD2    C4 4412   2.068   1.693  14.406  0.4313  0.3888 -0.2261
  289MPD2    C5 4413   2.191   1.723  14.450  0.3659  0.0348 -0.2515
  289MPD2     H 4414   2.016   1.991  14.254 -0.5881  0.5632 -0.6613
  289MPD2    H1 4415   2.029   1.598  14.441  1.1123 -0.4531 -1.7606
  289MPD2    H2 4416   2.368   1.850  14.442  0.5845  0.6740 -0.4054
  289MPD2    H3 4417   2.248   1.648  14.504 -2.9311 -1.1945  1.5143
  289MPD2     N 4418   1.857   1.787  14.310  0.2327  0.3114 -0.0355
  289MPD2    H5 4419   1.814   1.865  14.261  0.7274 -1.5028 -3.3079
  289MPD2    N1 4420   2.264   2.051  14.319  0.0322 -0.3462  0.1387
  289MPD2    H7 4421   2.353   2.048  14.367  0.7967 -0.8901 -1.3116
  290TMC3    C1 4422   1.637   1.704  14.289 -0.0417  0.0211 -0.1143
  290TMC3    C2 4423   1.574   1.825  14.293 -0.1875  0.6845 -0.4301
  290TMC3    C3 4424   1.457   1.838  14.215 -0.1192  0.5073  0.1347
  290TMC3    C4 4425   1.582   1.608  14.216  0.1848  0.7281  0.1472
  290TMC3    C5 4426   1.469   1.618  14.147  0.8696 -0.5522 -1.1335
  290TMC3    C6 4427   1.403   1.739  14.140 -0.3438 -0.4806  0.0176
  290TMC3     C 4428   1.771   1.680  14.339 -0.3140 -0.4523  0.0455
  290TMC3     O 4429   1.795   1.570  14.381 -0.3123 -0.2147 -0.1266
  290TMC3     H 4430   1.601   1.902  14.365  1.0454  0.0582 -0.2270
  290TMC3    H1 4431   1.637   1.514  14.211 -2.7885 -0.9217 -1.4031
  290TMC3    H2 4432   1.306   1.759  14.094 -1.4714 -0.4948  2.4087
  290TMC3    C7 4433   1.481   1.537  14.032  0.1949 -0.2077  0.2097
  290TMC3    C8 4434   1.360   1.941  14.255 -0.7872 -0.6034 -0.2434
  290TMC3    O1 4435   1.505   1.590  13.922 -0.6140  0.1761  0.0110
  290TMC3    O2 4436   1.243   1.919  14.227 -0.3073 -0.4412  0.1919
  291MPD2     C 4437   0.601   1.413   0.490  0.3112 -0.1560 -0.8227
  291MPD2    C1 4438   0.583   1.381   0.350  0.0768 -0.1180  0.1236
  291MPD2    C2 4439   0.664   1.444   0.255 -0.0037 -0.4690  0.6293
  291MPD2    C3 4440   0.758   1.538   0.289  0.2300 -0.0800 -0.4262
  291MPD2    C4 4441   0.771   1.570   0.420 -0.4496  0.4899  0.3926
  291MPD2    C5 4442   0.688   1.511   0.514 -0.5188 -0.4431 -0.4737
  291MPD2     H 4443   0.664   1.420   0.150  1.6772 -0.6819  0.6717
  291MPD2    H1 4444   0.846   1.639   0.458  1.9514 -0.8868 -1.8237
  291MPD2    H2 4445   0.540   1.375   0.572  1.6730 -3.0203 -1.1303
  291MPD2    H3 4446   0.699   1.551   0.614 -0.5657  3.0315 -1.8250
  291MPD2     N 4447   0.850   1.602   0.202  0.1694  0.1475  0.4128
  291MPD2    H5 4448   0.894   1.685   0.241  2.0005 -0.0413 -1.2459
  291MPD2    N1 4449   0.484   1.285   0.311  0.0420 -0.1177  0.1491
  291MPD2    H7 4450   0.485   1.250   0.215 -1.1301 -0.1476  0.1480
  292TMC3    C1 4451   0.287   1.155   0.331  0.3007 -0.0833 -0.4269
  292TMC3    C2 4452   0.170   1.163   0.396  0.9842  0.6632 -0.4325
  292TMC3    C3 4453   0.075   1.085   0.350 -0.3200  0.3919  0.5659
  292TMC3    C4 4454   0.320   1.059   0.234  0.0461  0.4002  0.1422
  292TMC3    C5 4455   0.213   0.974   0.194  0.6239 -0.5290 -0.7601
  292TMC3    C6 4456   0.090   0.996   0.246 -0.0005 -0.5432 -0.0847
  292TMC3     C 4457   0.395   1.221   0.394  0.1959 -0.8247  0.2257
  292TMC3     O 4458   0.383   1.221   0.516  0.2757  0.6799 -0.0067
  292TMC3     H 4459   0.154   1.226   0.482  1.4563 -1.7645  1.4419
  292TMC3    H1 4460   0.418   1.045   0.191 -0.4492  0.6335 -1.0915
  292TMC3    H2 4461   0.007   0.930   0.223 -0.5337 -0.3621  1.3711
  292TMC3    C7 4462   0.226   0.881   0.083  0.5116  0.2579 -0.6830
  292TMC3    C8 4463   4.692   1.082   0.427  0.0136  0.6114  0.1376
  292TMC3    O1 4464   0.340   0.838   0.070 -0.3468  0.1577  0.3731
  292TMC3    O2 4465   4.695   1.112   0.547  0.1137 -0.1106  0.4295
  293MPD2     C 4466   2.785   2.597  12.925 -0.1760  0.0617  0.2130
  293MPD2    C1 4467   2.785   2.735  12.947  1.1924  0.1967  0.3739
  293MPD2    C2 4468   2.808   2.783  13.076  0.4593  0.5955  0.5243
  293MPD2    C3 4469   2.845   2.704  13.181  0.8040 -0.0634  0.1140
  293MPD2    C4 4470   2.841   2.562  13.164 -1.1495 -0.3954  0.2196
  293MPD2    C5 4471   2.800   2.516  13.036  0.4537  0.4607 -0.0892
  293MPD2     H 4472   2.806   2.890  13.087 -1.3715  0.6077  0.0244
  293MPD2    H1 4473   2.865   2.496  13.247  1.6412  0.9419  0.4565
  293MPD2    H2 4474   2.750   2.556  12.831 -1.7388 -2.8153  2.0530
  293MPD2    H3 4475   2.795   2.408  13.024  2.1732  0.5311 -1.4497
  293MPD2     N 4476   2.892   2.768  13.300 -0.1783 -0.1356  0.0869
  293MPD2    H5 4477   2.895   2.870  13.293 -0.6493 -0.1066  0.2848
  293MPD2    N1 4478   2.738   2.803  12.833 -0.0067  0.0964  0.5293
  293MPD2    H7 4479   2.699   2.738  12.766 -0.8710  0.6787  0.4756
  294TMC3    C1 4480   2.663   2.995  12.709  0.3157 -0.8816 -0.3231
  294TMC3    C2 4481   2.554   2.930  12.662  0.1527  0.3909 -0.0193
  294TMC3    C3 4482   2.486   2.996  12.564  0.2524  0.0917 -0.0263
  294TMC3    C4 4483   2.701   3.117  12.666  0.2336  0.5177  0.2000
  294TMC3    C5 4484   2.621   3.183  12.578 -0.1137  0.4141 -0.3117
  294TMC3    C6 4485   2.507   3.125  12.530  0.3799  0.9634 -0.2134
  294TMC3     C 4486   2.733   2.940  12.827  0.3109 -0.2474  0.1419
  294TMC3     O 4487   2.788   3.018  12.904 -0.3516  0.6874 -0.5610
  294TMC3     H 4488   2.527   2.831  12.698  1.5298 -0.2638 -0.7817
  294TMC3    H1 4489   2.787   3.170  12.705  0.1115  0.4139  0.6082
  294TMC3    H2 4490   2.457   3.173  12.446 -0.4653  1.4422  0.5562
  294TMC3    C7 4491   2.683   3.289  12.498 -0.1042 -0.4105 -0.4667
  294TMC3    C8 4492   2.377   2.926  12.499  0.2258  0.3267  0.0049
  294TMC3    O1 4493   2.619   3.390  12.469  0.0984 -0.3317  0.1724
  294TMC3    O2 4494   2.288   2.982  12.435  0.0168 -0.5568 -0.3104
  295MPD2     C 4495   2.811   2.564   1.349  0.0573  0.1860  0.6113
  295MPD2    C1 4496   2.723   2.594   1.244  0.5254  0.0506  0.4106
  295MPD2    C2 4497   2.648   2.703   1.254 -0.3787  0.0905  0.5380
  295MPD2    C3 4498   2.629   2.768   1.378  0.1963 -0.9492  0.4041
  295MPD2    C4 4499   2.702   2.731   1.492  0.0075 -0.7322  0.0325
  295MPD2    C5 4500   2.796   2.634   1.471  0.1305 -0.3323 -0.2041
  295MPD2     H 4501   2.598   2.726   1.161  0.8231 -1.6910 -0.5664
  295MPD2    H1 4502   2.691   2.780   1.588 -0.8951  0.9103 -0.9109
  295MPD2    H2 4503   2.881   2.481   1.352  0.3086  0.3104 -2.0599
  295MPD2    H3 4504   2.855   2.592   1.552  0.4027  0.4682  0.0225
  295MPD2     N 4505   2.532   2.871   1.386 -0.1340 -0.1337  0.9167
  295MPD2    H5 4506   2.476   2.874   1.301  0.0890 -0.3144  0.7632
  295MPD2    N1 4507   2.727   2.518   1.123  0.4767 -0.0675  0.0938
  295MPD2    H7 4508   2.679   2.558   1.043  1.2033  0.2581 -0.1794
  296TMC3    C1 4509   2.395   3.035   1.482 -0.5930  0.3239 -0.5294
  296TMC3    C2 4510   2.397   3.158   1.547 -0.2211 -0.3207  0.2766
  296TMC3    C3 4511   2.271   3.195   1.601 -0.2540  0.2041  0.6537
  296TMC3    C4 4512   2.281   2.966   1.458  0.4097 -1.0364  0.0341
  296TMC3    C5 4513   2.162   3.012   1.511 -0.0028 -0.6554  0.2569
  296TMC3    C6 4514   2.155   3.123   1.587 -0.6341  0.3892  0.7103
  296TMC3     C 4515   2.523   2.966   1.485 -0.6670  0.3597 -0.5303
  296TMC3     O 4516   2.602   2.990   1.572 -0.0297 -0.6566  0.8783
  296TMC3     H 4517   2.493   3.203   1.569  0.1846 -1.5450  1.0024
  296TMC3    H1 4518   2.282   2.888   1.383  3.3927 -0.5309 -0.4502
  296TMC3    H2 4519   2.067   3.137   1.648  0.2118  2.0920  1.5546
  296TMC3    C7 4520   2.062   2.915   1.542 -0.3680  0.3145 -0.5287
  296TMC3    C8 4521   2.273   3.318   1.681 -0.0893  0.0516  0.8153
  296TMC3    O1 4522   1.976   2.941   1.622 -0.2837  0.0584 -0.3850
  296TMC3    O2 4523   2.187   3.340   1.767 -0.4349  0.1440 -0.3842
  297MPD2     C 4524   0.925   3.376  16.627 -0.7030 -0.6906 -0.1047
  297MPD2    C1 4525   0.822   3.457  16.597 -0.7331  0.4290 -0.8727
  297MPD2    C2 4526   0.842   3.590  16.569 -0.2426  0.5402  0.5208
  297MPD2    C3 4527   0.972   3.635  16.549 -0.3306  0.1310  0.0852
  297MPD2    C4 4528   1.079   3.551  16.573  0.1979  0.2861  0.9692
  297MPD2    C5 4529   1.052   3.428  16.609  0.4503  0.0854  0.3102
  297MPD2     H 4530   0.752   3.649  16.555 -0.8116 -0.6083 -0.6771
  297MPD2    H1 4531   1.184   3.578  16.569  0.1715  0.5907  2.3942
  297MPD2    H2 4532   0.919   3.269  16.644 -0.6215 -0.7622 -0.5069
  297MPD2    H3 4533   1.135   3.359  16.618  0.5057  0.0043 -0.8134
  297MPD2     N 4534   1.009   3.759  16.499  0.0513  0.4612 -0.2463
  297MPD2    H5 4535   1.106   3.778  16.479 -0.0216 -0.8713 -1.8633
  297MPD2    N1 4536   0.691   3.409  16.593 -0.2731 -0.0301  0.4160
  297MPD2    H7 4537   0.621   3.470  16.553 -0.6543  0.8155  2.3666
  298TMC3    C1 4538   0.519   3.266  16.544 -0.2573 -0.0428  0.1006
  298TMC3    C2 4539   0.502   3.214  16.418 -0.3071 -0.0834 -0.1059
  298TMC3    C3 4540   0.382   3.241  16.360 -0.3104 -0.2617 -0.3249
  298TMC3    C4 4541   0.418   3.336  16.606  0.3055 -0.5458 -0.3216
  298TMC3    C5 4542   0.301   3.361  16.545  0.4728  0.3641  0.1115
  298TMC3    C6 4543   0.285   3.318  16.417 -0.6809  0.3629 -0.4052
  298TMC3     C 4544   0.662   3.273  16.589  0.4051 -0.4640  0.7075
  298TMC3     O 4545   0.739   3.179  16.583 -0.6032 -0.1048  0.1252
  298TMC3     H 4546   0.575   3.152  16.368  0.6150  2.1779 -1.5814
  298TMC3    H1 4547   0.459   3.381  16.696  0.0107  1.7733 -1.3307
  298TMC3    H2 4548   0.203   3.343  16.350 -2.9517 -2.3414  1.3330
  298TMC3    C7 4549   0.216   3.463  16.589 -0.0505 -0.1972 -0.1957
  298TMC3    C8 4550   0.387   3.235  16.211  0.8257 -0.6629  0.7441
  298TMC3    O1 4551   0.251   3.515  16.694  0.4506  0.0451 -0.0243
  298TMC3    O2 4552   0.280   3.250  16.155  0.1938 -0.2431  0.0442
  299MPD2     C 4553   1.310   4.107  10.816  0.8876  0.0095 -0.6623
  299MPD2    C1 4554   1.232   4.010  10.873  0.0533 -0.4190 -0.0588
  299MPD2    C2 4555   1.109   3.980  10.820  0.9449 -0.4497 -0.4548
  299MPD2    C3 4556   1.069   4.039  10.702 -0.1000 -0.0454  0.3553
  299MPD2    C4 4557   1.153   4.125  10.642  0.6188  0.5248  0.5721
  299MPD2    C5 4558   1.271   4.161  10.694  0.0650 -0.0710  0.4053
  299MPD2     H 4559   1.055   3.898  10.866  0.4854  0.3794  0.5015
  299MPD2    H1 4560   1.132   4.163  10.542  1.0006  0.6747  0.5489
  299MPD2    H2 4561   1.406   4.136  10.859  0.2118  3.0710 -1.2047
  299MPD2    H3 4562   1.332   4.242  10.655  0.2309 -1.1220 -1.5203
  299MPD2     N 4563   0.952   4.015  10.628 -0.1767  0.1098 -0.1030
  299MPD2    H5 4564   0.942   4.047  10.532  0.4831  0.5119 -0.0342
  299MPD2    N1 4565   1.283   3.949  10.990 -0.4360  0.3016 -0.2896
  299MPD2    H7 4566   1.375   3.978  11.020  1.3513 -1.1900 -4.3375
  300TMC3    C1 4567   0.721   3.953  10.603 -0.3877 -0.1175 -0.2353
  300TMC3    C2 4568   0.683   4.081  10.571 -0.3543  0.3356  0.5166
  300TMC3    C3 4569   0.549   4.115  10.584  0.1035 -0.8146 -0.2865
  300TMC3    C4 4570   0.631   3.858  10.643 -0.3113  0.1679  0.0894
  300TMC3    C5 4571   0.499   3.896  10.657 -0.1204 -0.2806 -0.0961
  300TMC3    C6 4572   0.454   4.023  10.622  1.0365 -0.1997  0.2094
  300TMC3     C 4573   0.848   3.947  10.676  0.3885  0.1568 -0.2679
  300TMC3     O 4574   0.845   3.874  10.777 -0.4608  0.0421  0.1346
  300TMC3     H 4575   0.756   4.152  10.535  2.0334 -2.5037 -0.2566
  300TMC3    H1 4576   0.664   3.764  10.687 -2.0700  1.4285  4.1291
  300TMC3    H2 4577   0.349   4.041  10.641  0.9691 -0.1460 -0.2254
  300TMC3    C7 4578   0.424   3.816  10.753 -0.4109  0.1266  0.4640
  300TMC3    C8 4579   0.523   4.249  10.627 -0.6130 -0.0569 -0.3633
  300TMC3    O1 4580   0.381   3.712  10.708  0.7563 -0.2019  0.6115
  300TMC3    O2 4581   0.626   4.317  10.647 -0.1935 -0.1910 -0.1984
  301MPD2     C 4582   3.063   0.649   0.932  0.6393  0.3013 -0.0085
  301MPD2    C1 4583   2.943   0.578   0.918 -0.0233  0.1085  0.0939
  301MPD2    C2 4584   2.942   0.438   0.922  0.0996  0.2859 -0.0484
  301MPD2    C3 4585   3.061   0.368   0.929  0.3580 -0.3475 -0.7595
  301MPD2    C4 4586   3.184   0.439   0.944  0.9272  0.3401  0.4809
  301MPD2    C5 4587   3.184   0.576   0.951 -0.2085  0.4630 -0.4934
  301MPD2     H 4588   2.843   0.393   0.923  0.8294 -1.2644  1.0948
  301MPD2    H1 4589   3.279   0.389   0.951  0.1885 -0.9328  1.3898
  301MPD2    H2 4590   3.076   0.756   0.921 -1.1803  0.4670 -0.5105
  301MPD2    H3 4591   3.277   0.627   0.967 -0.1369  0.6384 -1.4249
  301MPD2     N 4592   3.075   0.228   0.923  0.7663  0.3783 -0.0154
  301MPD2    H5 4593   3.165   0.182   0.927 -0.0625 -1.3983 -1.5742
  301MPD2    N1 4594   2.816   0.636   0.905 -0.6706 -0.1328  0.6462
  301MPD2    H7 4595   2.736   0.574   0.915 -0.5662 -0.6314 -1.6319
  302TMC3    C1 4596   3.028   0.009   0.869  0.0768  0.6953  0.7245
  302TMC3    C2 4597   3.115   4.701   0.967  0.2897 -0.4813 -0.1776
  302TMC3    C3 4598   3.128   4.563   0.983 -0.8886 -0.1883 -0.7772
  302TMC3    C4 4599   2.945   4.667   0.796 -0.3164 -0.2007  0.0673
  302TMC3    C5 4600   2.968   4.531   0.811 -0.1815  0.5390 -0.1664
  302TMC3    C6 4601   3.057   4.479   0.903 -0.1161  0.2505 -0.7113
  302TMC3     C 4602   2.971   0.143   0.894  0.1165  0.7995 -0.7161
  302TMC3     O 4603   2.855   0.159   0.871 -0.0817 -0.2248  0.1726
  302TMC3     H 4604   3.166   0.036   1.030  1.7300 -1.8379  0.1786
  302TMC3    H1 4605   2.878   4.713   0.725  0.9118 -0.3194 -1.1661
  302TMC3    H2 4606   3.085   4.375   0.911 -1.9726 -0.3036 -1.5051
  302TMC3    C7 4607   2.902   4.432   0.732 -0.7580  0.1607 -0.0145
  302TMC3    C8 4608   3.238   4.515   1.067  0.0627 -0.0675 -0.6175
  302TMC3    O1 4609   2.954   4.321   0.728  0.3341  0.2509 -0.5373
  302TMC3    O2 4610   3.224   4.408   1.123  0.0341  0.1980  0.5838
  303MPD2     C 4611   4.176   3.223  11.330 -0.0394  0.3023  0.3437
  303MPD2    C1 4612   4.080   3.150  11.264 -0.3565 -0.1317  0.4517
  303MPD2    C2 4613   4.055   3.170  11.127 -0.3397  0.7341  0.0434
  303MPD2    C3 4614   4.124   3.262  11.057  0.0499  0.2080  0.1938
  303MPD2    C4 4615   4.223   3.339  11.117 -0.1865 -0.1582  0.2706
  303MPD2    C5 4616   4.251   3.311  11.252 -1.0449  0.4549  0.7252
  303MPD2     H 4617   3.969   3.120  11.085 -1.0408  0.9588  1.2062
  303MPD2    H1 4618   4.282   3.418  11.072 -2.1095  0.9661 -0.2775
  303MPD2    H2 4619   4.183   3.214  11.438 -0.8243  0.8628  0.4383
  303MPD2    H3 4620   4.327   3.374  11.295 -0.1499 -0.6713  0.8107
  303MPD2     N 4621   4.106   3.285  10.917 -0.2441 -0.0046  0.3053
  303MPD2    H5 4622   4.163   3.358  10.876  1.4518 -1.4222  0.1617
  303MPD2    N1 4623   4.009   3.047  11.339 -0.5196  0.2477  0.2110
  303MPD2    H7 4624   3.955   2.981  11.283  0.8172 -1.7585  1.3239
  304TMC3    C1 4625   3.939   2.906  11.511  0.0545 -0.3872 -0.8000
  304TMC3    C2 4626   3.853   2.896  11.613 -0.0831  0.0625 -0.1413
  304TMC3    C3 4627   3.777   2.786  11.636  0.4965  0.8810  0.0533
  304TMC3    C4 4628   3.964   2.797  11.431 -0.1430  0.0383  0.7034
  304TMC3    C5 4629   3.902   2.680  11.469 -0.2430  0.5737  1.2919
  304TMC3    C6 4630   3.807   2.670  11.566 -0.3969  0.0972 -0.4256
  304TMC3     C 4631   4.005   3.033  11.482  0.2059 -0.6539  0.5751
  304TMC3     O 4632   4.028   3.109  11.573 -0.4088  0.1295 -0.3437
  304TMC3     H 4633   3.821   2.983  11.670 -0.4618 -0.1021 -0.0980
  304TMC3    H1 4634   4.037   2.801  11.351 -0.4278  0.2854  0.4559
  304TMC3    H2 4635   3.760   2.577  11.596  1.4637 -0.8555 -0.4419
  304TMC3    C7 4636   3.867   2.581  11.364  0.1171  0.1071  0.5065
  304TMC3    C8 4637   3.634   2.809  11.629 -0.8416  0.6873 -0.3436
  304TMC3    O1 4638   3.758   2.530  11.386 -0.3517 -0.6048  0.1215
  304TMC3    O2 4639   3.587   2.898  11.703 -0.4605  0.1213 -0.3326
  305MPD2     C 4640   1.638   0.457  14.116  0.0134  0.0734  0.4193
  305MPD2    C1 4641   1.684   0.336  14.153  0.0349  0.0299  0.4444
  305MPD2    C2 4642   1.660   0.232  14.063  0.2509  0.2346  0.6271
  305MPD2    C3 4643   1.555   0.242  13.966 -0.5290 -0.3930  0.3170
  305MPD2    C4 4644   1.487   0.361  13.957 -0.3931  0.4275  0.2767
  305MPD2    C5 4645   1.531   0.465  14.030 -0.8564 -0.4266 -0.0596
  305MPD2     H 4646   1.721   0.143  14.070 -0.7139 -0.4218  0.6277
  305MPD2    H1 4647   1.407   0.369  13.884 -0.9116  0.8461  0.8989
  305MPD2    H2 4648   1.670   0.550  14.163 -0.0458 -0.1583  0.9107
  305MPD2    H3 4649   1.479   0.559  14.017 -0.4375  0.2613  3.2571
  305MPD2     N 4650   1.530   0.131  13.876 -0.1846  0.6557  0.0004
  305MPD2    H5 4651   1.473   0.152  13.795 -0.0720 -1.7097 -0.7050
  305MPD2    N1 4652   1.795   0.337  14.249 -0.3535 -0.1095  0.7657
  305MPD2    H7 4653   1.823   0.425  14.290  2.7311 -0.4881 -0.5825
  306TMC3    C1 4654   1.933   0.238  14.415  0.6508  0.4506 -0.4028
  306TMC3    C2 4655   2.026   0.142  14.429 -0.0130 -0.8256 -0.3659
  306TMC3    C3 4656   2.070   0.121  14.555  0.0843 -0.8043  0.4897
  306TMC3    C4 4657   1.891   0.324  14.514 -0.2072 -0.2059  0.0188
  306TMC3    C5 4658   1.949   0.308  14.637 -0.6199  0.0586  0.1958
  306TMC3    C6 4659   2.035   0.200  14.664 -0.6613 -0.0562 -0.3693
  306TMC3     C 4660   1.845   0.223  14.308 -0.8569 -0.1647  0.5261
  306TMC3     O 4661   1.826   0.107  14.263  0.2976 -0.4113  0.4990
  306TMC3     H 4662   2.048   0.073  14.349 -2.7264 -0.2447 -1.6004
  306TMC3    H1 4663   1.827   0.412  14.508 -0.1360 -0.2431 -1.2987
  306TMC3    H2 4664   2.061   0.180  14.767 -2.9889  3.1183  0.8406
  306TMC3    C7 4665   1.872   0.374  14.744  0.2263  0.1328 -0.2800
  306TMC3    C8 4666   2.134   4.727  14.579  1.2807 -0.1684  0.0573
  306TMC3    O1 4667   1.755   0.402  14.724  0.3749 -0.2770  0.1847
  306TMC3    O2 4668   2.137   4.649  14.491 -0.3756 -0.0226  0.0204
  307MPD2     C 4669   4.529   2.911   0.271 -0.1814 -0.3367 -0.7540
  307MPD2    C1 4670   4.494   3.047   0.288 -0.0387 -0.1693  0.4891
  307MPD2    C2 4671   4.442   3.093   0.407  0.1822 -0.0661 -0.5435
  307MPD2    C3 4672   4.431   3.008   0.516 -0.6898 -0.3427  0.4964
  307MPD2    C4 4673   4.467   2.873   0.501 -0.4594 -0.3766  0.2503
  307MPD2    C5 4674   4.513   2.823   0.375 -0.8481  0.0452  0.6366
  307MPD2     H 4675   4.409   3.196   0.397 -0.6023 -0.2232  0.4954
  307MPD2    H1 4676   4.455   2.805   0.584 -0.9608  1.2932  1.5529
  307MPD2    H2 4677   4.565   2.873   0.176  0.2025 -1.0283 -0.3346
  307MPD2    H3 4678   4.529   2.716   0.367  0.4805  0.2614  0.4742
  307MPD2     N 4679   4.396   3.069   0.638  0.6577  0.1473 -0.2170
  307MPD2    H5 4680   4.357   3.162   0.635 -1.5931 -0.7511  1.0388
  307MPD2    N1 4681   4.498   3.138   0.183  0.1460  0.1113  0.1290
  307MPD2    H7 4682   4.464   3.231   0.204 -1.6299 -0.3933 -0.4434
  308TMC3    C1 4683   4.141   3.118   0.995 -0.3884 -0.6735 -0.4655
  308TMC3    C2 4684   4.150   3.255   0.984 -0.1582  0.2565 -0.0105
  308TMC3    C3 4685   4.258   3.304   0.920 -0.2123  0.2569  0.5001
  308TMC3    C4 4686   4.236   3.040   0.936  0.9096  0.4447 -0.1351
  308TMC3    C5 4687   4.339   3.097   0.861  0.4669  0.4517  0.8857
  308TMC3    C6 4688   4.352   3.229   0.853  0.2847  0.4019  0.7167
  308TMC3     C 4689   4.017   3.042   1.018  0.5556  0.1096  0.2566
  308TMC3     O 4690   4.024   2.918   1.015 -0.4418  0.2927  0.3661
  308TMC3     H 4691   4.071   3.322   1.015 -0.7468 -1.3631  2.0057
  308TMC3    H1 4692   4.220   2.933   0.925 -0.1300  0.4516  1.3354
  308TMC3    H2 4693   4.434   3.271   0.796 -0.1428  1.6274  1.0024
  308TMC3    C7 4694   4.394   3.006   0.760 -0.0450  0.6105 -0.5626
  308TMC3    C8 4695   4.256   3.446   0.897 -0.8216 -0.2844  0.2148
  308TMC3    O1 4696   4.408   2.890   0.794 -0.3121  0.1327 -0.2988
  308TMC3    O2 4697   4.143   3.495   0.890  0.1505  0.2659  0.2045
  309MPD2     C 4698   3.646   3.530  17.408  0.6064 -0.6800 -0.1399
  309MPD2    C1 4699   3.566   3.572  17.309 -0.4573 -0.1594 -0.3587
  309MPD2    C2 4700   3.431   3.551  17.324 -0.5255  0.5425  0.0474
  309MPD2    C3 4701   3.378   3.522  17.448  0.2037  0.3123  0.1548
  309MPD2    C4 4702   3.460   3.466  17.541 -0.0615  0.2236 -0.0065
  309MPD2    C5 4703   3.597   3.465  17.516 -0.5526 -0.2198 -0.0448
  309MPD2     H 4704   3.372   3.582  17.238  1.1717 -0.0623 -1.3379
  309MPD2    H1 4705   3.427   3.424  17.635 -0.1212  3.1167  1.2490
  309MPD2    H2 4706   3.755   3.532  17.412  0.5522  0.9287  0.7012
  309MPD2    H3 4707   3.673   3.427  17.584 -1.5373  0.2748  1.3342
  309MPD2     N 4708   3.237   3.526  17.477  0.1792 -0.3590  0.6178
  309MPD2    H5 4709   3.215   3.500  17.573  1.5063 -1.7837  0.5446
  309MPD2    N1 4710   3.611   3.618  17.185  0.1642 -0.2349  0.6080
  309MPD2    H7 4711   3.542   3.640  17.115  0.7631  0.2075  0.1546
  310TMC3    C1 4712   3.766   3.708  17.019 -0.6440  0.5430 -0.9340
  310TMC3    C2 4713   3.651   3.750  16.952 -0.8257 -0.0497 -0.3834
  310TMC3    C3 4714   3.665   3.771  16.817  0.0379 -0.2411  0.2937
  310TMC3    C4 4715   3.881   3.687  16.956  0.9951 -0.1533 -0.0533
  310TMC3    C5 4716   3.884   3.699  16.821 -0.4741 -0.2635 -0.6990
  310TMC3    C6 4717   3.777   3.743  16.751 -0.5094 -0.1705  0.3941
  310TMC3     C 4718   3.744   3.630  17.148  0.6697  0.4216 -0.0994
  310TMC3     O 4719   3.845   3.582  17.198 -0.3306 -0.6617  0.4635
  310TMC3     H 4720   3.553   3.764  16.997  0.1230 -1.1249  2.0209
  310TMC3    H1 4721   3.966   3.651  17.014  2.1543 -0.7568 -2.1357
  310TMC3    H2 4722   3.772   3.735  16.643 -0.4867  0.3452  0.3550
  310TMC3    C7 4723   3.963   3.589  16.774  0.7773 -0.4566 -0.1097
  310TMC3    C8 4724   3.551   3.811  16.744 -0.4358  0.4330  0.0500
  310TMC3    O1 4725   3.988   3.492  16.845 -0.5334  0.4700 -0.2346
  310TMC3    O2 4726   3.439   3.778  16.771  0.1432 -0.0049  0.0433
  311MPD2     C 4727   0.436   0.272  12.663  0.7445  0.2216  0.0730
  311MPD2    C1 4728   0.518   0.210  12.752 -0.8876 -0.8537 -0.5800
  311MPD2    C2 4729   0.472   0.100  12.822  0.0090  0.5241 -0.1846
  311MPD2    C3 4730   0.342   0.057  12.804 -0.1296 -0.0627  0.2149
  311MPD2    C4 4731   0.264   0.114  12.710 -0.0941  0.2516 -0.3490
  311MPD2    C5 4732   0.309   0.219  12.640 -0.2502 -0.1542 -0.1152
  311MPD2     H 4733   0.542   0.060  12.895 -0.3167  0.5461  0.1400
  311MPD2    H1 4734   0.160   0.083  12.703  0.3372 -1.7463  1.7522
  311MPD2    H2 4735   0.452   0.369  12.618 -1.4999  0.8388  0.6208
  311MPD2    H3 4736   0.229   0.274  12.591 -0.3193 -0.6724 -0.5902
  311MPD2     N 4737   0.303   4.681  12.879 -0.0159 -0.7375 -0.3083
  311MPD2    H5 4738   0.368   4.658  12.954  0.2405  1.3304  0.1101
  311MPD2    N1 4739   0.659   0.238  12.765  0.0823  0.4327 -0.2349
  311MPD2    H7 4740   0.720   0.190  12.829  1.2912  0.4002 -1.4156
  312TMC3    C1 4741   0.156   4.522  12.989  0.1665 -0.4224 -0.4345
  312TMC3    C2 4742   0.039   4.444  12.977  1.3855 -0.3402 -0.3677
  312TMC3    C3 4743   4.730   4.378  13.086  0.3524 -0.2498 -0.1071
  312TMC3    C4 4744   0.216   4.543  13.109  0.8374  0.5525 -0.3364
  312TMC3    C5 4745   0.153   4.489  13.219  0.1792 -0.3010 -0.0328
  312TMC3    C6 4746   0.054   4.400  13.205 -0.0245 -0.0412  0.5256
  312TMC3     C 4747   0.178   4.621  12.882 -0.6324 -0.4497  0.0602
  312TMC3     O 4748   0.082   4.633  12.805  0.2393 -0.1081  0.7107
  312TMC3     H 4749   0.002   4.416  12.879  0.4577 -0.2148 -0.0565
  312TMC3    H1 4750   0.292   4.620  13.116  0.5356  0.8887 -0.7663
  312TMC3    H2 4751   0.017   4.344  13.291  0.5833  0.3140  1.0182
  312TMC3    C7 4752   0.185   4.543  13.346  0.0499 -0.0833 -0.0634
  312TMC3    C8 4753   4.598   4.329  13.092  0.2315 -0.5312 -0.0848
  312TMC3    O1 4754   0.301   4.582  13.362  0.3530  0.0556 -0.7144
  312TMC3    O2 4755   4.575   4.241  13.172 -0.2932  0.1982 -0.6047
  313MPD2     C 4756   4.301   4.430  11.834 -0.3153  0.6003  0.0519
  313MPD2    C1 4757   4.418   4.497  11.792  0.7209 -0.5101 -0.9422
  313MPD2    C2 4758   4.544   4.438  11.804  0.2752  0.5332  0.6527
  313MPD2    C3 4759   4.546   4.302  11.839  0.5575 -0.5035  0.2928
  313MPD2    C4 4760   4.433   4.240  11.887 -0.4316 -0.2897 -0.2016
  313MPD2    C5 4761   4.316   4.304  11.886 -0.2459  0.3156 -0.3741
  313MPD2     H 4762   4.634   4.488  11.771  0.5934 -0.8084 -0.4902
  313MPD2    H1 4763   4.422   4.140  11.926  1.1415 -0.1398  0.6328
  313MPD2    H2 4764   4.201   4.466  11.818 -1.0128 -1.4533 -0.2155
  313MPD2    H3 4765   4.219   4.263  11.910 -0.8261  1.5090 -0.6655
  313MPD2     N 4766   4.669   4.234  11.807  0.3003 -0.0804 -0.3210
  313MPD2    H5 4767   0.010   4.281  11.762  2.5562 -3.0425  0.4463
  313MPD2    N1 4768   4.411   4.627  11.729 -0.2093  0.2718 -0.5502
  313MPD2    H7 4769   4.506   4.661  11.713  0.4478 -2.5376 -2.5080
  314TMC3    C1 4770   4.326   0.091  11.628 -0.1736 -0.1643  0.4466
  314TMC3    C2 4771   4.448   0.148  11.650  0.2528  0.5254 -0.3240
  314TMC3    C3 4772   4.491   0.242  11.561 -0.1990 -0.7206 -0.1822
  314TMC3    C4 4773   4.245   0.131  11.526 -0.1184 -0.8073 -0.5874
  314TMC3    C5 4774   4.288   0.233  11.447 -0.7517 -0.1748 -0.1935
  314TMC3    C6 4775   4.412   0.289  11.458  0.3153 -0.3887  0.8361
  314TMC3     C 4776   4.301   4.698  11.694  0.0404  0.1112  0.4866
  314TMC3     O 4777   4.185   4.652  11.685 -0.4290  0.4608 -0.4179
  314TMC3     H 4778   4.511   0.107  11.729 -3.2171  1.6276  3.0276
  314TMC3    H1 4779   4.160   0.069  11.499 -0.6187 -1.3250  2.2259
  314TMC3    H2 4780   4.433   0.379  11.400 -0.5885 -1.5423 -1.2711
  314TMC3    C7 4781   4.242   0.220  11.309 -0.5770  0.4770  0.4395
  314TMC3    C8 4782   4.615   0.307  11.583 -0.0084 -0.0722 -0.2618
  314TMC3    O1 4783   4.128   0.177  11.295  0.1178  0.1827  0.4482
  314TMC3    O2 4784   4.629   0.411  11.517 -0.6524 -0.1276 -0.2911
  315MPD2     C 4785   0.058   2.907  17.742 -0.1040 -0.3500  0.2511
  315MPD2    C1 4786   0.106   2.941   0.125  0.2079  0.0152 -0.8546
  315MPD2    C2 4787   0.138   3.074   0.158  0.7827 -0.3608 -0.0493
  315MPD2    C3 4788   0.115   3.172   0.066  0.6593 -1.2261 -0.4716
  315MPD2    C4 4789   0.071   3.141  17.686 -0.3270 -0.9008 -0.0219
  315MPD2    C5 4790   0.044   3.009  17.656 -0.4397 -0.3698 -0.3514
  315MPD2     H 4791   0.180   3.098   0.255  1.9700 -0.3319 -0.5735
  315MPD2    H1 4792   0.043   3.216  17.612  2.1276 -1.6130 -1.6717
  315MPD2    H2 4793   0.029   2.807  17.713  1.2536 -0.6580 -0.0752
  315MPD2    H3 4794   0.004   2.986  17.558 -0.7923 -0.1094 -0.2694
  315MPD2     N 4795   0.137   3.306   0.101  0.1819  0.1616 -0.2364
  315MPD2    H5 4796   0.172   3.326   0.195 -0.7136  1.4714 -0.1961
  315MPD2    N1 4797   0.129   2.843   0.225 -0.4663  0.7945 -0.3982
  315MPD2    H7 4798   0.163   2.875   0.315 -1.3558 -0.3272  0.3432
  316TMC3    C1 4799   0.229   3.523   0.064  0.6013 -0.0183  0.1763
  316TMC3    C2 4800   0.307   3.497   0.171  0.0885 -0.1676 -0.5871
  316TMC3    C3 4801   0.359   3.606   0.230  0.0040  0.4254 -0.1542
  316TMC3    C4 4802   0.212   3.642   0.007  0.7117 -0.0740 -0.3616
  316TMC3    C5 4803   0.271   3.750   0.063  0.5304 -0.3473  0.0437
  316TMC3    C6 4804   0.345   3.733   0.182  0.1913 -0.3269  0.4150
  316TMC3     C 4805   0.140   3.415   0.018 -0.4164 -0.4450  0.8233
  316TMC3     O 4806   0.092   3.432  17.654 -0.3471  0.5749  0.0049
  316TMC3     H 4807   0.317   3.403   0.225 -0.1232 -0.4221 -0.9864
  316TMC3    H1 4808   0.152   3.651  17.663 -0.9013  0.5359  0.7776
  316TMC3    H2 4809   0.384   3.819   0.235  1.8083 -1.8364  1.6765
  316TMC3    C7 4810   0.232   3.879   0.014 -0.3507 -0.3291  1.0429
  316TMC3    C8 4811   0.435   3.598   0.358 -0.6447 -0.5031  0.2856
  316TMC3    O1 4812   0.268   3.965   0.092 -0.2601 -0.1995  0.1469
  316TMC3    O2 4813   0.434   3.699   0.424  0.2561 -0.0549 -0.3796
  317MPD2     C 4814   1.635   1.708  13.175 -0.3264 -0.2414  0.1069
  317MPD2    C1 4815   1.715   1.604  13.127  0.0277  0.6319  0.3111
  317MPD2    C2 4816   1.820   1.550  13.209  0.0621 -0.2279  0.1908
  317MPD2    C3 4817   1.842   1.606  13.333 -0.0019  0.4705 -0.4238
  317MPD2    C4 4818   1.759   1.701  13.380  0.2513 -0.6166 -0.0726
  317MPD2    C5 4819   1.663   1.753  13.300 -0.9553  0.4266  0.0724
  317MPD2     H 4820   1.878   1.466  13.173 -0.6021 -0.3661 -0.5549
  317MPD2    H1 4821   1.761   1.741  13.480 -0.5937 -1.0877  0.1340
  317MPD2    H2 4822   1.541   1.735  13.129  0.6621  1.9524 -0.6144
  317MPD2    H3 4823   1.608   1.827  13.358 -1.2044 -0.4633  0.9882
  317MPD2     N 4824   1.950   1.554  13.401 -0.1411  0.4211 -0.4601
  317MPD2    H5 4825   2.012   1.483  13.363 -0.0358 -0.1772  0.8278
  317MPD2    N1 4826   1.701   1.544  12.997  0.2130  0.8127 -0.3622
  317MPD2    H7 4827   1.760   1.464  12.977 -1.4169 -0.4805  0.0145
  318TMC3    C1 4828   2.094   1.519  13.589  0.6395  0.0135  0.3796
  318TMC3    C2 4829   2.074   1.451  13.708  0.1305 -0.1800 -0.3416
  318TMC3    C3 4830   2.143   1.335  13.723 -0.2667 -0.0273 -0.1029
  318TMC3    C4 4831   2.200   1.509  13.506  0.5363 -0.8751  0.6014
  318TMC3    C5 4832   2.283   1.407  13.538  0.4653 -0.5550 -0.1528
  318TMC3    C6 4833   2.253   1.316  13.642 -0.5599  0.3380  0.3909
  318TMC3     C 4834   1.978   1.579  13.534  0.1419  0.6609 -0.2381
  318TMC3     O 4835   1.909   1.636  13.618  0.2230  0.3715 -0.2955
  318TMC3     H 4836   2.006   1.473  13.789 -0.9602  1.0006 -1.5749
  318TMC3    H1 4837   2.211   1.572  13.418  3.7425 -1.3350  0.6610
  318TMC3    H2 4838   2.318   1.234  13.669 -0.9098 -0.3662 -0.8800
  318TMC3    C7 4839   2.411   1.412  13.489 -0.4608  0.4844 -0.6697
  318TMC3    C8 4840   2.053   1.229  13.715  0.7490 -0.0513  0.0383
  318TMC3    O1 4841   2.426   1.475  13.386 -0.4721 -0.3771  0.2675
  318TMC3    O2 4842   2.101   1.119  13.745  0.1647 -0.1131  0.0628
  319MPD2     C 4843   2.762   2.826  16.615 -0.2368  1.7706  0.0570
  319MPD2    C1 4844   2.649   2.811  16.692  0.5587  0.6547 -0.2665
  319MPD2    C2 4845   2.527   2.766  16.637  0.1195 -0.6726  0.4060
  319MPD2    C3 4846   2.527   2.741  16.495  0.1755 -0.2114 -0.6711
  319MPD2    C4 4847   2.636   2.768  16.418 -0.1441  0.2625 -0.9099
  319MPD2    C5 4848   2.753   2.815  16.478  1.0709  0.5261  0.1070
  319MPD2     H 4849   2.438   2.762  16.699 -0.3924  0.7795 -0.2138
  319MPD2    H1 4850   2.637   2.765  16.310 -4.2491 -0.5900 -0.9360
  319MPD2    H2 4851   2.853   2.855  16.666  0.6009 -0.1401 -0.3096
  319MPD2    H3 4852   2.836   2.838  16.413  1.1581  0.1314  0.0744
  319MPD2     N 4853   2.395   2.716  16.441  0.0933  0.2251  0.0422
  319MPD2    H5 4854   2.391   2.727  16.340  1.1296  1.6424  0.1587
  319MPD2    N1 4855   2.665   2.844  16.826  0.9093 -0.4731  0.0322
  319MPD2    H7 4856   2.751   2.891  16.854  1.4704 -2.5726  1.7990
  320TMC3    C1 4857   2.165   2.700  16.433  0.5054 -0.4451  0.6846
  320TMC3    C2 4858   2.164   2.796  16.335 -0.0689  0.1986 -0.0121
  320TMC3    C3 4859   2.046   2.816  16.272 -0.0707 -0.6783 -0.8366
  320TMC3    C4 4860   2.051   2.632  16.475  0.2585  0.8397 -0.5048
  320TMC3    C5 4861   1.934   2.662  16.411  0.0354  0.1593  0.4562
  320TMC3    C6 4862   1.934   2.743  16.297  0.1365  0.4471  0.3290
  320TMC3     C 4863   2.283   2.683  16.514 -0.3906 -0.1524  0.1909
  320TMC3     O 4864   2.272   2.630  16.622  0.0501  0.4398  0.0057
  320TMC3     H 4865   2.258   2.846  16.315 -0.2355  1.0050  1.1891
  320TMC3    H1 4866   2.055   2.567  16.562 -0.2638  0.7421 -0.5530
  320TMC3    H2 4867   1.842   2.772  16.248  0.3703  1.4904  0.5154
  320TMC3    C7 4868   1.822   2.574  16.422 -0.0519 -0.1298 -0.3102
  320TMC3    C8 4869   2.061   2.897  16.155 -0.1636 -0.2251  0.0037
  320TMC3    O1 4870   1.767   2.549  16.318  0.8593  0.7663 -1.0661
  320TMC3    O2 4871   2.143   2.984  16.146  0.0498 -0.4540  0.0283
  321TMC3    C1 4872   2.592   2.892  17.047 -0.2221  0.1319 -0.1003
  321TMC3    C2 4873   2.584   2.813  17.155  0.3192  0.2882 -0.2163
  321TMC3    C3 4874   2.606   2.869  17.277  0.1615 -0.0476 -1.0010
  321TMC3    C4 4875   2.637   3.021  17.054  0.2592  0.1276 -0.2281
  321TMC3    C5 4876   2.668   3.066  17.178  0.2557  0.3345  0.7299
  321TMC3    C6 4877   2.627   3.004  17.291 -0.7460 -0.4320 -0.6527
  321TMC3     C 4878   2.567   2.814  16.920 -0.0728 -0.2096 -0.5260
  321TMC3     O 4879   2.484   2.727  16.925  0.7198  0.3337 -0.1436
  321TMC3     H 4880   2.566   2.707  17.146 -0.6524  0.5640 -1.6141
  321TMC3    H1 4881   2.668   3.076  16.966 -0.4396  0.4239 -0.2911
  321TMC3    H2 4882   2.633   3.055  17.386 -1.6313 -0.1120 -0.7684
  321TMC3    C7 4883   2.796   3.128  17.192  0.1996  0.7871  0.7776
  321TMC3    C8 4884   2.653   2.793  17.389 -0.8751 -0.2201  0.3954
  321TMC3    O1 4885   2.846   3.202  17.108 -0.4310  0.0385 -0.0913
  321TMC3    O2 4886   2.705   2.870  17.471 -0.2577 -0.2260  0.0065
  322MPD2     C 4887   1.524   4.073  13.849 -0.2130 -0.2620 -0.2512
  322MPD2    C1 4888   1.561   4.022  13.969 -0.9451 -0.4033  0.2386
  322MPD2    C2 4889   1.577   3.883  13.983 -0.2143  0.6166  0.0725
  322MPD2    C3 4890   1.568   3.803  13.869 -0.4712 -0.1342 -1.0347
  322MPD2    C4 4891   1.535   3.856  13.753 -0.0057 -0.2665  0.3091
  322MPD2    C5 4892   1.502   3.989  13.744 -0.5125 -0.4769  0.3872
  322MPD2     H 4893   1.613   3.830  14.070  0.7232  0.5302 -0.3617
  322MPD2    H1 4894   1.527   3.799  13.661  0.9800  0.9406 -0.5333
  322MPD2    H2 4895   1.506   4.178  13.827 -0.0539 -0.0798  0.4783
  322MPD2    H3 4896   1.448   4.027  13.658 -0.1203  0.1650  0.4237
  322MPD2     N 4897   1.619   3.673  13.878  0.3491  0.5337 -0.1765
  322MPD2    H5 4898   1.658   3.651  13.970  1.3323  1.7076 -0.3132
  322MPD2    N1 4899   1.603   4.103  14.079  0.3844  0.1735  0.0919
  322MPD2    H7 4900   1.643   4.055  14.159 -1.7728 -1.1872  0.3457
  323TMC3    C1 4901   1.683   4.299  14.181  0.1937 -0.5903  0.0904
  323TMC3    C2 4902   1.753   4.410  14.144  0.1417  0.2589  0.1742
  323TMC3    C3 4903   1.839   4.465  14.234  0.1720  0.3161  0.3357
  323TMC3    C4 4904   1.691   4.235  14.301  0.2060  0.1925  0.4848
  323TMC3    C5 4905   1.782   4.297  14.388  0.0219  0.3602  0.2629
  323TMC3    C6 4906   1.849   4.412  14.360  0.0662  0.3067  0.6192
  323TMC3     C 4907   1.600   4.246  14.076 -0.6719 -0.3401  0.7026
  323TMC3     O 4908   1.546   4.324  14.002 -0.3164 -0.0428  0.4466
  323TMC3     H 4909   1.729   4.454  14.049 -0.9847  0.4481  0.5429
  323TMC3    H1 4910   1.627   4.153  14.331  1.6079 -1.6412 -1.5946
  323TMC3    H2 4911   1.927   4.453  14.422 -1.4943  1.7625  1.6286
  323TMC3    C7 4912   1.790   4.242  14.517  0.4504 -0.4285  0.4770
  323TMC3    C8 4913   1.965   4.522  14.181 -0.1512 -0.4778  0.0741
  323TMC3    O1 4914   1.717   4.145  14.538  0.0989 -0.0341  0.2145
  323TMC3    O2 4915   2.068   4.463  14.207  0.1321 -0.3926  0.2561
  324MPD2     C 4916   3.496   0.650  14.437 -0.4342 -0.6744  0.2859
  324MPD2    C1 4917   3.485   0.770  14.499 -0.0579 -0.4705  0.3660
  324MPD2    C2 4918   3.366   0.809  14.553  0.0803  0.4873 -0.8032
  324MPD2    C3 4919   3.253   0.723  14.553 -0.4772  0.1743 -0.7773
  324MPD2    C4 4920   3.275   0.595  14.504  0.4540  0.0677 -0.3779
  324MPD2    C5 4921   3.399   0.561  14.447 -0.4780  0.6505 -0.4906
  324MPD2     H 4922   3.362   0.898  14.614  1.1455 -1.0545  1.5066
  324MPD2    H1 4923   3.198   0.519  14.510  1.0273 -0.4375  0.5417
  324MPD2    H2 4924   3.589   0.619  14.390 -2.6825 -1.9050 -3.4102
  324MPD2    H3 4925   3.403   0.460  14.407  0.7574  0.5061  0.0056
  324MPD2     N 4926   3.126   0.758  14.605 -0.3293  0.2646  0.4366
  324MPD2    H5 4927   3.056   0.684  14.606  2.0016 -1.9486  0.0042
  324MPD2    N1 4928   3.589   0.857  14.519  0.1281  0.1306  0.0684
  324MPD2    H7 4929   3.579   0.924  14.595 -0.0351 -0.6597  0.7491
  325TMC3    C1 4930   2.956   0.904  14.692  0.3334  0.0886 -0.1475
  325TMC3    C2 4931   2.858   0.815  14.654  0.8141 -0.6262 -0.1294
  325TMC3    C3 4932   2.729   0.853  14.662  0.1876  0.0801 -0.2139
  325TMC3    C4 4933   2.920   1.025  14.753 -0.3934  0.5232 -0.1586
  325TMC3    C5 4934   2.791   1.049  14.774 -0.1778  0.6512  0.1878
  325TMC3    C6 4935   2.692   0.970  14.720 -0.7056  0.2555  0.4607
  325TMC3     C 4936   3.088   0.889  14.630  0.2744  0.5161  0.0911
  325TMC3     O 4937   3.163   0.985  14.651  0.0483 -0.0660 -0.0637
  325TMC3     H 4938   2.883   0.721  14.607  1.0962  0.4388 -2.1404
  325TMC3    H1 4939   3.004   1.088  14.782 -0.2010 -0.6094  1.7246
  325TMC3    H2 4940   2.586   0.993  14.709 -0.6397  1.1092  1.6215
  325TMC3    C7 4941   2.748   1.152  14.867 -0.2814  0.0234  0.7699
  325TMC3    C8 4942   2.631   0.749  14.608 -0.1251  0.2276 -0.3972
  325TMC3    O1 4943   2.843   1.222  14.907 -0.1187 -0.4652 -0.3029
  325TMC3    O2 4944   2.682   0.662  14.536 -0.5100  0.3643  0.4413
  326MPD2     C 4945   0.207   1.755  10.932  0.0627  0.3021  0.1876
  326MPD2    C1 4946   0.156   1.860  10.857  0.1470 -1.5510  0.1729
  326MPD2    C2 4947   0.223   1.980  10.877  0.3844  0.6494 -0.0216
  326MPD2    C3 4948   0.334   1.994  10.952  0.2675 -0.1100 -0.2837
  326MPD2    C4 4949   0.373   1.890  11.029 -0.1302 -0.0554 -0.2581
  326MPD2    C5 4950   0.305   1.770  11.026  0.2053  0.1271 -0.0148
  326MPD2     H 4951   0.173   2.063  10.829 -0.3111  0.1036 -0.2384
  326MPD2    H1 4952   0.454   1.902  11.100 -0.0372  0.1335 -0.3953
  326MPD2    H2 4953   0.147   1.665  10.933  1.9558 -0.9584 -2.1697
  326MPD2    H3 4954   0.325   1.688  11.094 -0.7456 -0.4002 -0.3755
  326MPD2     N 4955   0.413   2.111  10.958 -0.0071  0.4672  0.3263
  326MPD2    H5 4956   0.483   2.116  11.031  2.3673  2.6706 -2.0996
  326MPD2    N1 4957   0.045   1.862  10.771 -0.5787  0.4494 -0.7516
  326MPD2    H7 4958   0.011   1.954  10.745  0.7638  0.8414 -1.1128
  327TMC3    C1 4959   4.641   1.811  10.608 -0.4236 -0.0134 -0.0083
  327TMC3    C2 4960   4.571   1.927  10.647  0.1660  0.5151  0.3458
  327TMC3    C3 4961   4.574   2.038  10.561 -0.7125  0.1357  0.6081
  327TMC3    C4 4962   4.708   1.802  10.491 -0.2360  0.5400  1.2917
  327TMC3    C5 4963   4.698   1.909  10.404 -0.7163 -0.5596  0.1697
  327TMC3    C6 4964   4.634   2.026  10.437 -0.3474  0.0468 -0.5567
  327TMC3     C 4965   4.715   1.754  10.717 -0.7426 -0.2387 -0.2634
  327TMC3     O 4966   0.007   1.639  10.725  0.1731  0.6094 -0.5821
  327TMC3     H 4967   4.554   1.929  10.754  0.4818 -2.7837  0.4603
  327TMC3    H1 4968   0.026   1.712  10.468 -1.0667  0.7024 -1.3767
  327TMC3    H2 4969   4.644   2.112  10.372  1.3185  1.6010  1.8231
  327TMC3    C7 4970   0.088   1.942  10.339 -0.4293 -1.1836 -0.3516
  327TMC3    C8 4971   4.542   2.172  10.617  0.7420  0.1486 -0.3292
  327TMC3    O1 4972   0.087   2.021  10.248  0.3457 -0.3783  0.1408
  327TMC3    O2 4973   4.589   2.264  10.555 -0.1263  0.4352  0.4130
  328MPD2     C 4974   1.818   1.119  17.515 -0.5077  0.0934 -0.3768
  328MPD2    C1 4975   1.824   1.032  17.404 -0.0768 -0.2011 -0.3807
  328MPD2    C2 4976   1.889   1.072  17.291  0.3449  0.0921  0.6972
  328MPD2    C3 4977   1.973   1.187  17.299  0.4187 -0.3390 -0.4818
  328MPD2    C4 4978   1.977   1.275  17.407 -0.9054 -0.0852  0.0112
  328MPD2    C5 4979   1.904   1.232  17.511  0.4449 -0.0035 -0.1802
  328MPD2     H 4980   1.877   1.015  17.199 -0.9716 -1.2336  1.6841
  328MPD2    H1 4981   2.041   1.362  17.416 -0.7006 -0.2773  0.4189
  328MPD2    H2 4982   1.761   1.108  17.606  0.8569 -1.0768  0.3272
  328MPD2    H3 4983   1.910   1.286  17.605  3.3096 -0.8336  0.1172
  328MPD2     N 4984   2.037   1.232  17.182 -1.2352  0.1875 -0.5707
  328MPD2    H5 4985   2.057   1.332  17.188 -1.1534  0.0824  0.8127
  328MPD2    N1 4986   1.748   0.916  17.411 -0.3002 -0.6454 -0.3250
  328MPD2    H7 4987   1.692   0.909  17.496  0.8047  0.0006  0.4610
  329TMC3    C1 4988   1.627   0.734  17.323  0.1676 -0.0509 -0.3684
  329TMC3    C2 4989   1.508   0.805  17.361 -0.0930  0.0777  0.1224
  329TMC3    C3 4990   1.396   0.787  17.279 -0.4778 -0.1149 -0.2404
  329TMC3    C4 4991   1.614   0.648  17.215 -1.1753  0.3930  0.4179
  329TMC3    C5 4992   1.494   0.620  17.159 -0.5397  0.2371  0.0325
  329TMC3    C6 4993   1.382   0.688  17.183  0.3612 -0.2238 -0.3034
  329TMC3     C 4994   1.752   0.813  17.322  0.1888 -0.2202  0.0300
  329TMC3     O 4995   1.823   0.788  17.230 -0.0297  0.3207 -0.0659
  329TMC3     H 4996   1.506   0.872  17.446  1.2539 -1.9794  1.7801
  329TMC3    H1 4997   1.703   0.599  17.179 -0.6273  1.1891  0.7068
  329TMC3    H2 4998   1.283   0.660  17.150  0.6233 -1.2507 -0.2321
  329TMC3    C7 4999   1.479   0.555  17.031 -0.1233  0.2090  0.0381
  329TMC3    C8 5000   1.313   0.904  17.247  0.2276 -0.0187 -0.4174
  329TMC3    O1 5001   1.372   0.573  16.973  0.0036 -0.0391  0.3490
  329TMC3    O2 5002   1.261   0.898  17.138  0.2691  0.2992  0.3928
  330TMC3    C1 5003   0.220   1.605   9.355  0.1719 -0.2021 -0.2540
  330TMC3    C2 5004   0.135   1.494   9.342  0.9552  0.0126 -0.3809
  330TMC3    C3 5005   0.144   1.396   9.431  0.1808  0.5773  0.2279
  330TMC3    C4 5006   0.320   1.600   9.444 -0.1242 -0.1009  0.2483
  330TMC3    C5 5007   0.335   1.486   9.516 -0.2010  0.6687  0.1627
  330TMC3    C6 5008   0.238   1.388   9.525 -0.1982 -1.2492 -0.3040
  330TMC3     C 5009   0.211   1.733   9.285 -0.9153  0.1544  0.4892
  330TMC3     O 5010   0.315   1.796   9.264 -0.2138 -0.1090  0.4191
  330TMC3     H 5011   0.053   1.493   9.271 -1.9683  0.5743  3.0099
  330TMC3    H1 5012   0.399   1.673   9.450  0.7115 -1.1441  1.9338
  330TMC3    H2 5013   0.232   1.319   9.608 -1.3858  0.5677  1.1252
  330TMC3    C7 5014   0.465   1.464   9.575 -0.1631 -0.2119  0.3454
  330TMC3    C8 5015   0.056   1.285   9.407 -0.1223 -0.0235 -0.1657
  330TMC3    O1 5016   0.532   1.560   9.606 -0.6317 -0.0902  0.6111
  330TMC3    O2 5017   4.724   1.296   9.312 -0.5825  0.2479  0.2592
  331MPD2     C 5018   2.924   0.006  13.360 -0.4494 -0.4619 -0.3091
  331MPD2    C1 5019   3.003   4.732  13.247 -0.9256 -0.6594  0.0076
  331MPD2    C2 5020   3.003   4.620  13.171  0.7119  0.1742  0.9389
  331MPD2    C3 5021   2.928   4.514  13.211 -0.6114  0.1164 -0.3299
  331MPD2    C4 5022   2.847   4.522  13.325 -0.4675 -0.2923 -0.3570
  331MPD2    C5 5023   2.848   4.636  13.396 -0.1596 -0.6090  0.4343
  331MPD2     H 5024   3.061   4.620  13.079 -2.1468  1.2226 -0.8496
  331MPD2    H1 5025   2.790   4.438  13.362 -1.3298 -0.1034 -1.2651
  331MPD2    H2 5026   2.921   0.092  13.426  0.9226  1.6545 -3.0074
  331MPD2    H3 5027   2.797   4.623  13.491  1.0007 -1.7909  0.9117
  331MPD2     N 5028   2.941   4.389  13.144  0.5531  0.5493 -0.6017
  331MPD2    H5 5029   2.991   4.395  13.056 -1.9917 -1.0650 -2.1782
  331MPD2    N1 5030   3.069   0.106  13.188  0.0135  0.3322 -0.0957
  331MPD2    H7 5031   3.117   0.092  13.100  0.9278 -1.9122  0.7633
  332TMC3    C1 5032   2.927   4.156  13.090  0.1870  0.1407  0.3732
  332TMC3    C2 5033   2.964   4.182  12.963  0.5335  0.6393 -0.0359
  332TMC3    C3 5034   3.036   4.093  12.892 -0.1337  0.2595 -0.5190
  332TMC3    C4 5035   2.940   4.032  13.145  0.9215  0.8077 -0.3433
  332TMC3    C5 5036   3.008   3.944  13.072  0.0390 -0.1459 -0.6639
  332TMC3    C6 5037   3.073   3.975  12.955  0.0919 -0.8519  0.1752
  332TMC3     C 5038   2.897   4.264  13.188 -0.3158 -0.2742 -0.1542
  332TMC3     O 5039   2.854   4.225  13.295  0.1086 -0.0277 -0.0729
  332TMC3     H 5040   2.935   4.278  12.921 -2.0170  0.1676  0.6895
  332TMC3    H1 5041   2.908   4.008  13.246  0.3423  2.8708 -0.0364
  332TMC3    H2 5042   3.132   3.903  12.899 -0.1325  0.3412 -1.6023
  332TMC3    C7 5043   3.046   3.822  13.148  0.8189 -1.1790  0.2423
  332TMC3    C8 5044   3.062   4.111  12.752 -0.1208 -0.4519  0.3906
  332TMC3    O1 5045   2.965   3.783  13.231 -0.1387 -0.2355 -0.5116
  332TMC3    O2 5046   3.153   4.050  12.699 -0.3105 -0.2223 -0.2125
  333MPD2     C 5047   3.328   0.125  11.603  0.5538 -0.8439  1.0040
  333MPD2    C1 5048   3.391   0.066  11.491  0.8197  0.0430  1.1520
  333MPD2    C2 5049   3.388   4.662  11.483  0.2277  0.6717  0.4116
  333MPD2    C3 5050   3.321   4.596  11.581 -0.0241  1.1276 -0.5445
  333MPD2    C4 5051   3.268   4.653  11.698  0.3326  0.0325 -0.8099
  333MPD2    C5 5052   3.266   0.052  11.701 -0.1968  0.2128  0.4317
  333MPD2     H 5053   3.430   4.606  11.401 -0.3339 -2.7817  2.4696
  333MPD2    H1 5054   3.220   4.591  11.773 -1.0536  1.7246 -0.2834
  333MPD2    H2 5055   3.345   0.230  11.624  0.3065 -0.8132  1.0440
  333MPD2    H3 5056   3.234   0.111  11.786 -2.4013 -0.6868  0.2175
  333MPD2     N 5057   3.321   4.455  11.557 -0.3132  0.0373  0.2655
  333MPD2    H5 5058   3.380   4.430  11.479  0.6374  2.4273  0.2016
  333MPD2    N1 5059   3.454   0.156  11.399 -0.1824 -0.3084 -0.9391
  333MPD2    H7 5060   3.453   0.254  11.426 -0.1762 -0.1665 -1.4447
  334TMC3    C1 5061   3.601   0.233  11.237 -0.0152  0.3373 -0.0982
  334TMC3    C2 5062   3.720   0.199  11.175  0.2636 -0.2899  0.2101
  334TMC3    C3 5063   3.785   0.300  11.111 -0.4538  1.0174  0.0307
  334TMC3    C4 5064   3.558   0.362  11.257 -0.2256 -0.1072  0.0074
  334TMC3    C5 5065   3.646   0.458  11.212  0.4939 -0.8938 -0.4117
  334TMC3    C6 5066   3.747   0.431  11.130  0.3169  0.0077  0.2963
  334TMC3     C 5067   3.535   0.121  11.296  0.5743  0.7016  0.1541
  334TMC3     O 5068   3.544   0.011  11.240  0.1084  0.8251  0.1336
  334TMC3     H 5069   3.749   0.096  11.157  0.9491 -0.4237  2.0719
  334TMC3    H1 5070   3.465   0.374  11.311  0.3767  0.0444  1.0098
  334TMC3    H2 5071   3.800   0.511  11.080 -0.1331  0.3074  0.2987
  334TMC3    C7 5072   3.586   0.587  11.187 -0.1399 -1.3628 -0.1903
  334TMC3    C8 5073   3.828   0.277  10.977 -0.9442 -0.0275 -0.3596
  334TMC3    O1 5074   3.656   0.687  11.175  0.0781  0.3182 -0.2156
  334TMC3    O2 5075   3.760   0.196  10.919 -0.5533 -0.1064 -0.3378
  335TMC3    C1 5076   2.656   1.677   0.241  0.1206  0.7821 -0.0358
  335TMC3    C2 5077   2.632   1.654   0.109  0.2203 -0.1269  0.0248
  335TMC3    C3 5078   2.711   1.697   0.013  0.9792 -0.2511  0.1520
  335TMC3    C4 5079   2.772   1.736   0.279  0.5482  0.6219  0.2024
  335TMC3    C5 5080   2.867   1.752   0.178  0.1392 -0.4896  0.6205
  335TMC3    C6 5081   2.837   1.740   0.045  0.1482  0.0413  0.4182
  335TMC3     C 5082   2.553   1.639   0.337  0.1411  0.3476  0.7244
  335TMC3     O 5083   2.492   1.536   0.303  0.3691 -0.0010  0.6214
  335TMC3     H 5084   2.539   1.601   0.092  0.9812 -1.0556 -1.1499
  335TMC3    H1 5085   2.794   1.752   0.383  0.2795  2.6229 -0.0508
  335TMC3    H2 5086   2.900   1.789  17.718 -0.3810  2.7881  1.7962
  335TMC3    C7 5087   3.009   1.766   0.202 -0.9831  0.2671 -0.4776
  335TMC3    C8 5088   2.693   1.666  17.614 -0.2400 -0.3272  0.6926
  335TMC3    O1 5089   3.049   1.799   0.313  0.1173  0.2390  0.3846
  335TMC3    O2 5090   2.785   1.697  17.539 -0.0124  0.6085 -0.2983
  336MPD2     C 5091   2.164   4.000  16.565 -0.5301 -0.2785  0.3584
  336MPD2    C1 5092   2.255   3.972  16.470  0.1399  0.4040 -0.0900
  336MPD2    C2 5093   2.344   3.866  16.480 -0.0577  0.4466 -0.0129
  336MPD2    C3 5094   2.339   3.782  16.593  0.1934  0.2519 -0.2007
  336MPD2    C4 5095   2.257   3.814  16.693 -0.0953  0.1757  0.1651
  336MPD2    C5 5096   2.168   3.916  16.678 -0.7250 -0.4831 -0.1476
  336MPD2     H 5097   2.424   3.857  16.407 -1.4710 -0.3118 -1.4754
  336MPD2    H1 5098   2.249   3.759  16.787 -0.2532  0.0359  0.0717
  336MPD2    H2 5099   2.098   4.086  16.560  0.4654  0.5237  0.9245
  336MPD2    H3 5100   2.097   3.939  16.756 -0.0191 -0.2220  0.4273
  336MPD2     N 5101   2.428   3.668  16.614  0.0872 -0.0940  0.4421
  336MPD2    H5 5102   2.421   3.633  16.709  0.1740 -0.8174  0.1766
  336MPD2    N1 5103   2.274   4.052  16.355 -0.1355  0.3351  0.1450
  336MPD2    H7 5104   2.358   4.033  16.301 -0.5502 -0.0579 -0.3579
  337TMC3    C1 5105   2.241   4.207  16.197  0.3508 -0.0833 -0.3122
  337TMC3    C2 5106   2.155   4.269  16.111  0.0423  0.2856  0.1441
  337TMC3    C3 5107   2.214   4.361  16.034 -0.6178  1.1751 -0.2149
  337TMC3    C4 5108   2.382   4.237  16.206  0.1131  1.0289  0.2135
  337TMC3    C5 5109   2.423   4.342  16.133 -0.0071  0.5632 -0.0913
  337TMC3    C6 5110   2.338   4.404  16.045 -0.6230 -0.0557  0.2722
  337TMC3     C 5111   2.186   4.141  16.311 -0.1762 -0.5288  0.1180
  337TMC3     O 5112   2.081   4.183  16.356  0.0999 -0.1704 -0.0124
  337TMC3     H 5113   2.051   4.238  16.105  0.0627  0.5809 -1.9249
  337TMC3    H1 5114   2.453   4.184  16.268 -0.9017  1.4079  1.7208
  337TMC3    H2 5115   2.379   4.476  15.975 -1.4262  2.6792  2.6007
  337TMC3    C7 5116   2.562   4.363  16.121 -0.1636 -0.5789  0.4206
  337TMC3    C8 5117   2.125   4.433  15.949  0.4607 -0.3041  0.4478
  337TMC3    O1 5118   2.626   4.260  16.119 -0.1429  0.2512  0.2494
  337TMC3    O2 5119   2.143   4.557  15.942 -0.0813  0.0487  0.2942
  338MPD2     C 5120   3.247   3.900   1.042 -0.8951  0.5161  0.2837
  338MPD2    C1 5121   3.138   3.857   0.976 -0.5309  1.0186  0.6419
  338MPD2    C2 5122   3.014   3.918   0.989 -0.5552  0.2278  0.1744
  338MPD2    C3 5123   2.993   4.024   1.066  0.4508  0.2573  0.7253
  338MPD2    C4 5124   3.105   4.074   1.136 -0.3421  0.3627 -0.5494
  338MPD2    C5 5125   3.225   4.011   1.119 -0.7203  0.6063  0.3121
  338MPD2     H 5126   2.925   3.881   0.940 -1.0369  1.4531  0.1201
  338MPD2    H1 5127   3.098   4.155   1.208  1.3393  0.3230 -0.3540
  338MPD2    H2 5128   3.345   3.853   1.044  0.3446  3.0792  0.4933
  338MPD2    H3 5129   3.305   4.060   1.173 -0.3407 -0.4734  0.7227
  338MPD2     N 5130   2.862   4.068   1.073  0.1685  0.5133 -0.3224
  338MPD2    H5 5131   2.801   4.040   0.997  1.8547 -0.3668 -1.3349
  338MPD2    N1 5132   3.144   3.732   0.902  0.4737  0.5993  0.2326
  338MPD2    H7 5133   3.058   3.719   0.850 -0.3703 -1.3141  2.0750
  339TMC3    C1 5134   2.670   4.158   1.165  0.3899 -0.4528 -0.9902
  339TMC3    C2 5135   2.611   4.161   1.290 -0.0678  0.0161  0.2556
  339TMC3    C3 5136   2.488   4.100   1.296 -0.8247 -0.7355 -0.0686
  339TMC3    C4 5137   2.611   4.102   1.062  0.4972  0.2718 -0.2174
  339TMC3    C5 5138   2.490   4.039   1.073  0.7854 -0.2222  0.2611
  339TMC3    C6 5139   2.417   4.032   1.194 -0.3673 -0.1050  0.1835
  339TMC3     C 5140   2.810   4.154   1.167 -0.2037  0.5916 -0.4506
  339TMC3     O 5141   2.859   4.184   1.275  0.2386 -0.1661 -0.2449
  339TMC3     H 5142   2.665   4.202   1.375 -1.8332  1.1096  0.8508
  339TMC3    H1 5143   2.647   4.121   0.961  2.1715  0.6443  0.4462
  339TMC3    H2 5144   2.310   4.014   1.195 -0.7746  2.3699  2.5997
  339TMC3    C7 5145   2.454   3.951   0.973  0.0950 -0.3403  0.3746
  339TMC3    C8 5146   2.415   4.123   1.425 -0.1229 -0.3619 -0.5756
  339TMC3    O1 5147   2.506   3.979   0.864  0.1687  0.3014  0.4281
  339TMC3    O2 5148   2.446   4.220   1.491  0.1631 -0.4050  0.1830
  340MPD2     C 5149   3.035   1.318  10.614  0.7169  0.5741  0.3886
  340MPD2    C1 5150   3.141   1.331  10.529  0.8596 -0.6890 -0.0069
  340MPD2    C2 5151   3.241   1.428  10.554  0.7961 -0.3710  0.4172
  340MPD2    C3 5152   3.235   1.516  10.658  0.1057  0.3470  0.7133
  340MPD2    C4 5153   3.132   1.490  10.745 -0.9646  0.5554 -0.1717
  340MPD2    C5 5154   3.035   1.397  10.719 -0.7612 -0.1009  0.3291
  340MPD2     H 5155   3.321   1.450  10.483  0.6500 -2.8621 -0.5239
  340MPD2    H1 5156   3.123   1.545  10.838  2.7684  0.7983  0.0316
  340MPD2    H2 5157   2.950   1.252  10.597  0.3305  0.8523  1.2667
  340MPD2    H3 5158   2.955   1.396  10.791 -2.2182 -1.2780 -1.3116
  340MPD2     N 5159   3.329   1.608  10.693 -0.2784  0.1824  0.6446
  340MPD2    H5 5160   3.309   1.663  10.776  0.9158  1.4830  0.0896
  340MPD2    N1 5161   3.141   1.250  10.411  0.0818 -0.1232  0.3574
  340MPD2    H7 5162   3.067   1.182  10.402  0.7164 -0.3851 -2.9881
  341TMC3    C1 5163   3.189   1.156  10.205  0.0512 -0.6735  0.7230
  341TMC3    C2 5164   3.091   1.066  10.220 -0.2973  0.3885  0.2663
  341TMC3    C3 5165   3.064   0.992  10.108 -0.8206  0.0441  0.7025
  341TMC3    C4 5166   3.262   1.181  10.089  0.0421  0.6829 -0.3574
  341TMC3    C5 5167   3.227   1.107   9.982 -0.3966 -0.3930  0.1395
  341TMC3    C6 5168   3.124   1.012   9.982  0.1659 -0.4326 -0.5110
  341TMC3     C 5169   3.224   1.258  10.303  0.2257  0.3855 -0.0164
  341TMC3     O 5170   3.294   1.353  10.272 -0.1495 -0.0115  0.1937
  341TMC3     H 5171   3.037   1.051  10.313 -1.2782 -0.6891 -0.4680
  341TMC3    H1 5172   3.344   1.252  10.085 -0.3029  1.1433  1.0625
  341TMC3    H2 5173   3.095   0.954   9.895 -0.8144 -1.3628  0.4343
  341TMC3    C7 5174   3.305   1.133   9.862 -0.1351 -0.9671 -0.0027
  341TMC3    C8 5175   2.968   0.888  10.118 -0.5392 -0.0508 -0.7555
  341TMC3    O1 5176   3.401   1.207   9.879 -0.2098  0.1021  0.3337
  341TMC3    O2 5177   2.948   0.837  10.224  0.0175  0.2840  0.1360
  342MPD2     C 5178   0.362   4.402  16.901 -0.0778  0.3034 -0.1998
  342MPD2    C1 5179   0.468   4.400  16.987  0.0604 -0.0773 -0.8818
  342MPD2    C2 5180   0.502   4.504  17.070  0.9945 -0.4869 -0.4224
  342MPD2    C3 5181   0.431   4.627  17.056  0.3421 -0.1166 -0.0835
  342MPD2    C4 5182   0.326   4.634  16.966  0.1070  0.0015 -0.2793
  342MPD2    C5 5183   0.297   4.519  16.892  0.3099 -0.1298  0.6248
  342MPD2     H 5184   0.594   4.510  17.127  1.2722 -2.2448 -0.7062
  342MPD2    H1 5185   0.255   4.715  16.957  0.5449  0.2777 -1.1954
  342MPD2    H2 5186   0.332   4.321  16.834  1.1382  0.0316 -0.4047
  342MPD2    H3 5187   0.220   4.523  16.816  2.3738  2.2973 -1.3677
  342MPD2     N 5188   0.459   0.018  17.122 -0.1381  0.0242 -0.2854
  342MPD2    H5 5189   0.386   0.088  17.118 -0.5892 -0.3582  1.4916
  342MPD2    N1 5190   0.541   4.278  16.987 -0.4880  0.3063 -0.3844
  342MPD2    H7 5191   0.525   4.212  16.911  0.7519  0.8459 -1.1206
  343TMC3    C1 5192   0.675   4.102  17.070  0.8916 -0.4195  0.5657
  343TMC3    C2 5193   0.701   4.053  16.943 -0.5709 -0.3846 -0.3360
  343TMC3    C3 5194   0.739   3.924  16.931 -0.3758  1.0851  0.2449
  343TMC3    C4 5195   0.689   4.023  17.182 -0.0908 -0.5987  0.0519
  343TMC3    C5 5196   0.730   3.892  17.163 -0.7930 -0.2602 -0.3162
  343TMC3    C6 5197   0.751   3.840  17.036  0.2740  0.3163 -0.0204
  343TMC3     C 5198   0.617   4.233  17.092  0.1526 -0.1537  0.3651
  343TMC3     O 5199   0.623   4.280  17.205  0.2008 -0.5856  0.3931
  343TMC3     H 5200   0.698   4.118  16.857 -0.1633 -0.0696 -0.1091
  343TMC3    H1 5201   0.642   4.060  17.272 -0.0433 -2.3827  0.8241
  343TMC3    H2 5202   0.765   3.733  17.024 -1.5702 -0.0385  0.9909
  343TMC3    C7 5203   0.674   3.793  17.251 -0.1058 -0.9430  0.0800
  343TMC3    C8 5204   0.859   3.929  16.854  0.5625  0.5745  0.3616
  343TMC3    O1 5205   0.624   3.692  17.204  0.6408 -0.6002 -0.0154
  343TMC3    O2 5206   0.867   4.011  16.763  0.1608 -0.6214 -0.2743
  344MPD2     C 5207   1.854   4.121  11.394 -0.0386 -0.1979 -0.1204
  344MPD2    C1 5208   1.753   4.140  11.298  0.6933  0.9137 -0.3387
  344MPD2    C2 5209   1.742   4.258  11.228  0.5533 -0.7234 -0.3563
  344MPD2    C3 5210   1.836   4.357  11.254  0.3641 -0.1578  0.4947
  344MPD2    C4 5211   1.932   4.339  11.349 -0.1871  0.5589  1.4401
  344MPD2    C5 5212   1.942   4.222  11.420  0.1316 -1.5070  0.2631
  344MPD2     H 5213   1.657   4.280  11.165 -0.7610  1.9793  2.3604
  344MPD2    H1 5214   1.996   4.422  11.376 -1.6051  2.9560 -2.6030
  344MPD2    H2 5215   1.878   4.026  11.439  0.2956  0.2615  0.6835
  344MPD2    H3 5216   2.020   4.215  11.496  0.2721  1.4330  0.3894
  344MPD2     N 5217   1.853   4.478  11.175  0.2006  0.1360 -0.6633
  344MPD2    H5 5218   1.931   4.535  11.205 -0.5394  0.5071  0.5828
  344MPD2    N1 5219   1.660   4.041  11.268 -0.6882 -0.8929  0.2914
  344MPD2    H7 5220   1.598   4.049  11.188 -1.0152  1.5136  0.8009
  345TMC3    C1 5221   1.854   4.605  10.983 -0.5060  0.2241  0.2154
  345TMC3    C2 5222   1.988   4.628  11.010  0.3279  0.4032 -0.3417
  345TMC3    C3 5223   2.055   4.716  10.934 -0.1714 -0.1314 -0.2394
  345TMC3    C4 5224   1.785   4.669  10.884  0.2074 -0.3458 -0.3385
  345TMC3    C5 5225   1.856   0.031  10.812  0.2053  0.2262  0.8523
  345TMC3    C6 5226   1.987   0.058  10.842 -0.4091  0.7052 -0.3413
  345TMC3     C 5227   1.780   4.506  11.065 -0.3079  0.8240 -0.4677
  345TMC3     O 5228   1.688   4.451  11.004  0.2748  0.7745  0.1829
  345TMC3     H 5229   2.047   4.559  11.069 -0.5616 -0.2376 -0.2141
  345TMC3    H1 5230   1.679   4.651  10.870  0.0938  2.1206 -2.6740
  345TMC3    H2 5231   2.035   0.141  10.791 -0.7559  0.6358 -0.7851
  345TMC3    C7 5232   1.784   0.132  10.742  0.1667  0.1746 -0.2283
  345TMC3    C8 5233   2.197   4.729  10.949 -0.2230 -0.3008  0.2209
  345TMC3    O1 5234   1.839   0.245  10.746  0.4317  0.0325 -0.3702
  345TMC3    O2 5235   2.261   4.646  11.013 -0.1353  0.5425  0.4275
  346MPD2     C 5236   1.674   0.660  14.589 -0.3191  1.0732  0.8020
  346MPD2    C1 5237   1.767   0.763  14.574  0.5259 -0.6625 -0.1965
  346MPD2    C2 5238   1.800   0.845  14.676  0.3207 -0.1537 -0.7922
  346MPD2    C3 5239   1.744   0.825  14.800 -0.0163  0.2975 -0.4240
  346MPD2    C4 5240   1.636   0.737  14.820 -0.6141 -0.4034  0.4911
  346MPD2    C5 5241   1.603   0.663  14.709 -0.2540 -0.1351  0.0433
  346MPD2     H 5242   1.872   0.924  14.661  1.1373 -0.9147 -0.8631
  346MPD2    H1 5243   1.583   0.724  14.914 -1.2016  1.3774  0.4026
  346MPD2    H2 5244   1.631   0.607  14.505  1.9952 -0.1809  0.4338
  346MPD2    H3 5245   1.514   0.601  14.718 -1.0873  1.2011  1.1786
  346MPD2     N 5246   1.807   0.896  14.902  0.6845  0.7704  0.0247
  346MPD2    H5 5247   1.896   0.944  14.887  1.5092 -0.9131 -0.4735
  346MPD2    N1 5248   1.829   0.797  14.455  0.0992 -0.2037  0.0197
  346MPD2    H7 5249   1.877   0.886  14.458 -0.4812  0.0640  1.2376
  347TMC3    C1 5250   1.867   0.952  15.115  0.5333  0.4274  0.9649
  347TMC3    C2 5251   1.944   1.045  15.062 -0.3435  0.4076 -0.0985
  347TMC3    C3 5252   2.040   1.106  15.140  0.2215  0.1794 -1.0410
  347TMC3    C4 5253   1.887   0.907  15.245 -0.0889 -0.3602 -0.0523
  347TMC3    C5 5254   1.991   0.960  15.322  0.2529 -0.3184 -0.1619
  347TMC3    C6 5255   2.067   1.062  15.268 -0.4822 -0.4397 -0.5801
  347TMC3     C 5256   1.771   0.892  15.029 -0.1299  0.3383  0.0126
  347TMC3     O 5257   1.669   0.843  15.080 -0.3905  0.0689  0.1107
  347TMC3     H 5258   1.931   1.100  14.970  0.3599  0.2306 -0.3059
  347TMC3    H1 5259   1.824   0.828  15.285 -0.3731  0.5029  1.2348
  347TMC3    H2 5260   2.150   1.093  15.330 -0.3719 -1.0941 -0.4072
  347TMC3    C7 5261   2.029   0.889  15.439 -0.5869  0.0676 -0.1224
  347TMC3    C8 5262   2.151   1.180  15.076 -0.1414  0.2982 -0.3633
  347TMC3    O1 5263   2.012   0.772  15.445 -0.0222 -0.0191 -0.1407
  347TMC3    O2 5264   2.152   1.193  14.956  0.6527  0.1398 -0.1769
  348MPD2     C 5265   0.821   0.684  12.088  1.0187  0.0579 -0.2333
  348MPD2    C1 5266   0.714   0.676  12.001 -0.2791 -0.0059 -0.1976
  348MPD2    C2 5267   0.712   0.753  11.880  0.1013  0.6276 -0.3662
  348MPD2    C3 5268   0.822   0.834  11.857 -0.5612 -0.7787 -0.1969
  348MPD2    C4 5269   0.910   0.864  11.959 -0.4095 -0.2687 -0.3890
  348MPD2    C5 5270   0.908   0.782  12.071  0.4057  0.0927 -0.4323
  348MPD2     H 5271   0.629   0.745  11.811 -0.9106 -3.6085  1.3743
  348MPD2    H1 5272   0.967   0.956  11.951 -2.2685  0.9092 -0.1744
  348MPD2    H2 5273   0.833   0.628  12.181 -2.3447 -1.5917 -0.7949
  348MPD2    H3 5274   0.988   0.800  12.143  2.0538  2.1010 -2.7354
  348MPD2     N 5275   0.821   0.901  11.732  0.2768 -0.6487  0.1708
  348MPD2    H5 5276   0.746   0.880  11.668 -1.3391  0.0912  1.8037
  348MPD2    N1 5277   0.611   0.583  12.043  0.2605  0.0475  0.1218
  348MPD2    H7 5278   0.614   0.526  12.127  0.5989  1.3476  0.9939
  349TMC3    C1 5279   0.401   0.477  12.048  0.8301 -0.1214 -0.6030
  349TMC3    C2 5280   0.439   0.379  12.135  0.0788  0.2887  0.9185
  349TMC3    C3 5281   0.340   0.306  12.200 -0.1681 -0.5212 -1.0356
  349TMC3    C4 5282   0.265   0.498  12.017  0.0987 -0.3298  0.1379
  349TMC3    C5 5283   0.167   0.424  12.085 -0.1421  0.4341  0.1951
  349TMC3    C6 5284   0.207   0.326  12.176 -0.2903 -0.4552  0.0322
  349TMC3     C 5285   0.493   0.577  11.988 -0.2480  0.3785 -0.1285
  349TMC3     O 5286   0.451   0.637  11.886  0.4026  0.1041  0.4128
  349TMC3     H 5287   0.543   0.353  12.148  0.3794  0.6637 -0.7641
  349TMC3    H1 5288   0.238   0.572  11.942 -1.0511 -1.3929 -0.4857
  349TMC3    H2 5289   0.128   0.291  12.242 -0.0095 -0.4046  0.3995
  349TMC3    C7 5290   0.026   0.425  12.040  0.4294 -0.8690  0.1686
  349TMC3    C8 5291   0.382   0.192  12.284  0.0721 -0.1104  0.2222
  349TMC3    O1 5292   4.697   0.340  12.095 -0.2809 -0.7168 -0.2656
  349TMC3    O2 5293   0.503   0.186  12.309 -0.5544 -0.4557 -0.4977
  350MPD2     C 5294   0.087   4.104  10.904 -0.0399 -0.1891  0.1047
  350MPD2    C1 5295   0.077   3.971  10.949  0.9445 -0.5124 -0.2818
  350MPD2    C2 5296   0.082   3.951  11.086  0.4176 -0.1361 -0.1416
  350MPD2    C3 5297   0.110   4.053  11.178 -0.2877 -0.1980  0.2588
  350MPD2    C4 5298   0.130   4.177  11.126  0.2743 -0.6057  1.5653
  350MPD2    C5 5299   0.116   4.202  10.997 -0.5730 -0.7214 -0.2753
  350MPD2     H 5300   0.059   3.852  11.124 -2.8689  0.0853 -1.5740
  350MPD2    H1 5301   0.149   4.269  11.181 -2.5272  2.0130 -1.8585
  350MPD2    H2 5302   0.059   4.127  10.802  1.2189  0.5487 -0.0659
  350MPD2    H3 5303   0.130   4.304  10.961  0.9617 -0.4311  1.1708
  350MPD2     N 5304   0.119   4.024  11.316 -0.3343 -0.6644  0.0690
  350MPD2    H5 5305   0.081   3.931  11.333 -2.8024  0.8184  2.7069
  350MPD2    N1 5306   0.061   3.857  10.858 -0.5157 -0.6478 -0.1230
  350MPD2    H7 5307   0.087   3.766  10.894  0.6632 -0.3226 -0.1611
  351TMC3    C1 5308   0.047   3.724  10.675 -0.0843 -0.3088  0.0867
  351TMC3    C2 5309   0.110   3.703  10.557  0.3644 -0.3993  0.3069
  351TMC3    C3 5310   0.088   3.588  10.489 -0.2404 -0.3090  0.5554
  351TMC3    C4 5311   4.708   3.618  10.727 -0.3060 -0.4870 -0.2609
  351TMC3    C5 5312   4.678   3.504  10.651 -0.0835 -0.1135 -0.0408
  351TMC3    C6 5313   0.004   3.487  10.530  0.4090  0.0693 -0.4816
  351TMC3     C 5314   0.031   3.860  10.722  0.5806  0.1259 -0.3435
  351TMC3     O 5315   0.030   3.951  10.643 -0.1399 -0.0906 -0.4354
  351TMC3     H 5316   0.179   3.778  10.520 -1.0875 -0.2963 -2.2367
  351TMC3    H1 5317   4.648   3.643  10.813 -0.0101 -0.6074 -0.0227
  351TMC3    H2 5318   0.011   3.393  10.476 -2.4971  0.0349 -0.8237
  351TMC3    C7 5319   4.585   3.409  10.718 -0.2481 -0.4421 -0.4170
  351TMC3    C8 5320   0.184   3.559  10.390 -0.0742 -0.8318 -0.3260
  351TMC3    O1 5321   4.555   3.425  10.835  0.0763 -0.3562 -0.4326
  351TMC3    O2 5322   0.145   3.504  10.289  0.7862 -0.1638 -0.4094
  352MPD2     C 5323   2.318   1.455   1.171  0.5210  0.6141  0.1670
  352MPD2    C1 5324   2.248   1.376   1.086  0.1639 -0.1869  0.1776
  352MPD2    C2 5325   2.296   1.249   1.065  0.5667  0.1772 -1.0590
  352MPD2    C3 5326   2.405   1.195   1.131 -0.3531 -0.3590 -0.4813
  352MPD2    C4 5327   2.485   1.282   1.194 -0.3629  0.0802  0.3719
  352MPD2    C5 5328   2.441   1.409   1.213 -0.2127 -0.9212 -0.3841
  352MPD2     H 5329   2.243   1.183   0.997  1.6736 -1.1481 -0.6225
  352MPD2    H1 5330   2.589   1.259   1.218  0.3088  1.9385 -0.7499
  352MPD2    H2 5331   2.290   1.556   1.199 -1.1338 -0.0511  0.9282
  352MPD2    H3 5332   2.507   1.475   1.269 -1.2100 -0.5297  0.3123
  352MPD2     N 5333   2.448   1.054   1.118  0.1772  0.3595 -0.0600
  352MPD2    H5 5334   2.541   1.029   1.152  0.1607  1.1511  0.5695
  352MPD2    N1 5335   2.134   1.427   1.034  0.2512 -0.3125 -0.9427
  352MPD2    H7 5336   2.114   1.523   1.060  3.5518 -0.6170  2.7387
  353TMC3    C1 5337   2.474   0.842   1.011  0.8911 -0.4066  0.5917
  353TMC3    C2 5338   2.603   0.871   0.972 -0.0080 -0.3310 -0.4607
  353TMC3    C3 5339   2.649   0.787   0.873  0.0462  0.1073 -0.0557
  353TMC3    C4 5340   2.407   0.734   0.969 -0.0868 -0.5660 -0.1570
  353TMC3    C5 5341   2.469   0.650   0.884 -0.4338  0.0668 -0.0958
  353TMC3    C6 5342   2.591   0.669   0.833 -0.0781  0.4979  0.5925
  353TMC3     C 5343   2.388   0.955   1.042 -0.1208 -0.7716  0.3173
  353TMC3     O 5344   2.284   0.964   0.975 -0.0643 -0.3864 -0.1242
  353TMC3     H 5345   2.651   0.967   0.985  0.6868 -0.9326  1.4673
  353TMC3    H1 5346   2.306   0.715   1.002 -0.0958 -3.5731 -1.8952
  353TMC3    H2 5347   2.633   0.618   0.747  1.1115  0.4540  1.1857
  353TMC3    C7 5348   2.414   0.518   0.848 -0.1077 -0.8114  0.1285
  353TMC3    C8 5349   2.794   0.769   0.888 -0.0879 -0.5013 -0.2255
  353TMC3    O1 5350   2.450   0.458   0.751  0.3078  0.2156  0.0664
  353TMC3    O2 5351   2.863   0.867   0.909 -0.0765 -0.0495  0.1148
  354TMC3    C1 5352   4.561   1.603  13.673  0.1832  0.8580  0.3022
  354TMC3    C2 5353   4.529   1.714  13.598 -0.3476  0.0516 -0.4429
  354TMC3    C3 5354   4.570   1.717  13.466  0.6555 -0.2506 -0.4675
  354TMC3    C4 5355   4.606   1.488  13.607 -0.0088 -0.3443 -0.1577
  354TMC3    C5 5356   4.636   1.493  13.469 -0.5122  0.5123  0.0401
  354TMC3    C6 5357   4.619   1.604  13.398 -0.4046 -0.4336 -0.1617
  354TMC3     C 5358   4.552   1.604  13.818 -0.2635  0.3107  0.3407
  354TMC3     O 5359   4.589   1.501  13.875 -0.2924  0.6468  0.6063
  354TMC3     H 5360   4.507   1.809  13.645  0.9304  0.0678  0.1012
  354TMC3    H1 5361   4.598   1.389  13.650  0.4776 -1.4169 -2.5421
  354TMC3    H2 5362   4.645   1.599  13.293 -1.4418  1.5122 -0.5119
  354TMC3    C7 5363   4.708   1.377  13.415  0.5373  0.4104 -0.1690
  354TMC3    C8 5364   4.571   1.843  13.381  0.1815  0.1605 -0.7261
  354TMC3    O1 5365   4.713   1.270  13.475 -0.2317  0.4041  0.5505
  354TMC3    O2 5366   4.621   1.841  13.269 -0.4196  0.0910  0.2915
  355MPD2     C 5367   0.095   2.627  12.114  0.3161  0.0506 -0.8343
  355MPD2    C1 5368   0.185   2.621  12.007 -0.0429 -0.1550 -0.2363
  355MPD2    C2 5369   0.259   2.508  11.985  0.0654 -0.5431  0.3167
  355MPD2    C3 5370   0.257   2.408  12.082 -0.5256  0.2099  0.0056
  355MPD2    C4 5371   0.167   2.409  12.182 -0.2906  1.0792  0.5631
  355MPD2    C5 5372   0.079   2.519  12.198  0.0488 -0.0219 -0.2130
  355MPD2     H 5373   0.322   2.502  11.897  1.0797  1.9745  0.8563
  355MPD2    H1 5374   0.156   2.333  12.259 -0.1772  2.4660  1.9455
  355MPD2    H2 5375   0.032   2.714  12.127  0.8101  0.2672  0.1314
  355MPD2    H3 5376   0.014   2.525  12.284  0.2823 -1.9751  0.0954
  355MPD2     N 5377   0.347   2.300  12.083  0.7779  0.2191  0.0492
  355MPD2    H5 5378   0.316   2.210  12.117  0.9330 -0.1300 -0.7340
  355MPD2    N1 5379   0.192   2.740  11.926 -0.0570  0.2717 -0.2290
  355MPD2    H7 5380   0.144   2.822  11.962  0.5238  1.4062 -2.0398
  356TMC3    C1 5381   0.552   2.420  12.045  0.2212 -0.3574  0.2763
  356TMC3    C2 5382   0.605   2.501  11.952 -0.2227  0.0653  0.0274
  356TMC3    C3 5383   0.643   2.630  11.982 -0.1194  0.4760 -0.5456
  356TMC3    C4 5384   0.552   2.469  12.179  0.2831  0.5124 -0.5352
  356TMC3    C5 5385   0.604   2.594  12.209 -1.2700 -1.0429  0.0355
  356TMC3    C6 5386   0.642   2.675  12.111  0.6252 -0.0694  0.0747
  356TMC3     C 5387   0.462   2.310  12.007  0.0115 -0.2541  0.5269
  356TMC3     O 5388   0.516   2.218  11.951  0.7863 -0.6791 -0.1416
  356TMC3     H 5389   0.602   2.463  11.851  0.8150  1.1315 -0.4030
  356TMC3    H1 5390   0.512   2.405  12.258  1.8672  2.4672  1.8543
  356TMC3    H2 5391   0.701   2.766  12.119  0.3511  0.0224  1.0833
  356TMC3    C7 5392   0.612   2.626  12.352 -0.0747 -0.5985 -0.7464
  356TMC3    C8 5393   0.677   2.722  11.878 -0.8405 -0.1239  0.1086
  356TMC3    O1 5394   0.579   2.541  12.432 -0.4581 -0.0144 -0.2498
  356TMC3    O2 5395   0.689   2.670  11.768 -0.4172  0.0564 -0.5601
  357MPD2     C 5396   3.625   3.056   1.775 -0.7447 -0.3772 -0.3606
  357MPD2    C1 5397   3.644   2.935   1.716 -0.1014  0.3872  0.5275
  357MPD2    C2 5398   3.534   2.868   1.665 -0.0832 -0.8670 -0.2574
  357MPD2    C3 5399   3.417   2.927   1.667  0.4266 -0.2848 -0.4720
  357MPD2    C4 5400   3.400   3.048   1.731  0.9374  0.3811 -0.6803
  357MPD2    C5 5401   3.505   3.115   1.780 -0.0985  0.6338 -0.0820
  357MPD2     H 5402   3.547   2.765   1.635  0.9020 -0.6658 -0.5271
  357MPD2    H1 5403   3.301   3.092   1.734  1.1267  0.6400  1.8063
  357MPD2    H2 5404   3.715   3.101   1.816 -1.4004  0.2497  0.3756
  357MPD2    H3 5405   3.483   3.213   1.822 -1.8107 -0.0373  0.5540
  357MPD2     N 5406   3.301   2.871   1.603 -0.8940 -0.8365 -0.6272
  357MPD2    H5 5407   3.220   2.930   1.594  0.3516  1.2278  1.7491
  357MPD2    N1 5408   3.776   2.881   1.712 -0.7515  0.1158  0.2196
  357MPD2    H7 5409   3.853   2.925   1.761  1.2027 -1.9857 -0.8942
  358TMC3    C1 5410   3.963   2.749   1.659  0.5855  0.0990  0.8284
  358TMC3    C2 5411   4.015   2.659   1.566 -0.6696 -0.4724  0.3790
  358TMC3    C3 5412   4.114   2.568   1.607  0.1579 -0.3176 -0.5543
  358TMC3    C4 5413   4.007   2.737   1.788 -0.4805  0.6122  0.2263
  358TMC3    C5 5414   4.102   2.644   1.820 -0.4369 -0.2425  0.2735
  358TMC3    C6 5415   4.168   2.563   1.732 -0.2442 -0.5637 -0.6391
  358TMC3     C 5416   3.818   2.777   1.640  0.6127 -0.0910  0.3676
  358TMC3     O 5417   3.758   2.712   1.556 -0.8327 -0.4297  0.5140
  358TMC3     H 5418   3.980   2.651   1.464 -1.3273 -0.7884  0.6268
  358TMC3    H1 5419   3.961   2.788   1.872  0.3933  1.7929 -0.0173
  358TMC3    H2 5420   4.231   2.482   1.767 -1.2198 -0.9690  0.1804
  358TMC3    C7 5421   4.118   2.615   1.960  0.3118 -0.3063 -0.0851
  358TMC3    C8 5422   4.168   2.492   1.497  0.1144  0.4529 -0.1334
  358TMC3    O1 5423   4.029   2.646   2.037  0.2296  0.1081  0.4165
  358TMC3    O2 5424   4.113   2.506   1.384 -0.5547  0.0928  0.0027
  359MPD2     C 5425   4.486   0.983  11.832 -0.2029  1.0777 -0.2986
  359MPD2    C1 5426   4.547   1.088  11.900  0.0841  0.3595 -0.5867
  359MPD2    C2 5427   4.479   1.151  12.006 -0.0895 -1.1267 -0.1357
  359MPD2    C3 5428   4.359   1.097  12.049 -0.6310  0.6256 -0.6521
  359MPD2    C4 5429   4.302   0.988  11.980  0.4237 -0.1544 -0.5207
  359MPD2    C5 5430   4.359   0.944  11.867  0.8077  0.0704  0.0615
  359MPD2     H 5431   4.527   1.234  12.056 -1.5633  0.3615 -1.1642
  359MPD2    H1 5432   4.203   0.953  12.008  1.2105 -1.6730  0.3259
  359MPD2    H2 5433   4.533   0.931  11.749 -1.0501 -2.1544  1.2432
  359MPD2    H3 5434   4.317   0.879  11.791  3.2206 -1.9900  0.5110
  359MPD2     N 5435   4.275   1.144  12.156 -0.1401 -0.6423  0.3301
  359MPD2    H5 5436   4.189   1.093  12.174  1.3779 -3.0665  0.6346
  359MPD2    N1 5437   4.676   1.133  11.879 -0.4881 -0.2503  0.3643
  359MPD2    H7 5438   4.715   1.197  11.947 -0.1383  0.3151 -0.3781
  360TMC3    C1 5439   0.149   1.172  11.773  0.2678  0.8285 -0.5656
  360TMC3    C2 5440   0.213   1.195  11.885 -0.0139  0.5645 -0.5733
  360TMC3    C3 5441   0.329   1.260  11.864 -0.6590  0.2935 -0.1139
  360TMC3    C4 5442   0.188   1.207  11.647 -0.0323  0.8204 -0.2458
  360TMC3    C5 5443   0.307   1.267  11.634 -0.5582 -0.0548  0.7249
  360TMC3    C6 5444   0.382   1.298  11.744 -0.2323  0.0114 -0.7464
  360TMC3     C 5445   0.026   1.098  11.772 -0.1883  0.2950  0.3339
  360TMC3     O 5446   0.013   1.017  11.682 -0.3488 -0.0921 -0.0785
  360TMC3     H 5447   0.175   1.151  11.977  0.0655  0.1095 -0.7594
  360TMC3    H1 5448   0.130   1.166  11.565  0.1273  1.0753 -0.4897
  360TMC3    H2 5449   0.466   1.365  11.732 -0.2799  0.5226  1.8468
  360TMC3    C7 5450   0.346   1.336  11.509  0.7626 -0.3116 -0.4057
  360TMC3    C8 5451   0.433   1.239  11.969  1.3608 -0.1999  0.1441
  360TMC3    O1 5452   0.446   1.402  11.514  0.2112 -0.2272 -0.0165
  360TMC3    O2 5453   0.389   1.191  12.074 -0.5250 -0.6020  0.3418
  361MPD2     C 5454   1.578   4.543  16.857  0.8136  1.1765  0.8011
  361MPD2    C1 5455   1.569   4.621  16.973  0.4571  0.0935  0.4432
  361MPD2    C2 5456   1.658   4.595  17.075  0.5659  0.0996 -0.6630
  361MPD2    C3 5457   1.746   4.488  17.071 -0.2263 -0.2342 -0.2995
  361MPD2    C4 5458   1.748   4.408  16.960  0.4260 -0.6941  0.2949
  361MPD2    C5 5459   1.671   4.443  16.850 -0.1509 -0.5678  0.4275
  361MPD2     H 5460   1.643   4.642  17.171  1.1653 -0.7894 -0.1350
  361MPD2    H1 5461   1.807   4.316  16.959  1.3912 -0.0741  0.0583
  361MPD2    H2 5462   1.513   4.557  16.772  0.8521 -2.2881  0.2227
  361MPD2    H3 5463   1.672   4.383  16.760  1.2138 -1.8959  1.3421
  361MPD2     N 5464   1.829   4.450  17.181 -0.6028 -0.5223 -0.2273
  361MPD2    H5 5465   1.894   4.373  17.174 -2.9540 -2.6944  1.6507
  361MPD2    N1 5466   1.469   4.717  16.979 -0.0077  0.7032 -0.0568
  361MPD2    H7 5467   1.404   4.724  16.901 -1.3554  1.7256  1.1603
  362TMC3    C1 5468   1.342   0.158  17.040 -0.0610  0.9895 -0.2435
  362TMC3    C2 5469   1.299   0.240  17.143  0.4598 -0.2279  0.1735
  362TMC3    C3 5470   1.206   0.338  17.108  0.5116  0.1116 -0.1643
  362TMC3    C4 5471   1.305   0.168  16.907 -0.5923 -0.1522 -0.6544
  362TMC3    C5 5472   1.210   0.267  16.886 -0.7157  0.2797  0.1858
  362TMC3    C6 5473   1.161   0.347  16.983  0.1173  0.1771 -0.2829
  362TMC3     C 5474   1.463   0.079  17.069  0.1069 -0.0232  0.2968
  362TMC3     O 5475   1.509   0.088  17.183 -0.2399 -0.1642 -0.1427
  362TMC3     H 5476   1.339   0.228  17.243 -0.9912  0.8377  0.8848
  362TMC3    H1 5477   1.352   0.116  16.825  2.2178 -1.9547  2.1282
  362TMC3    H2 5478   1.093   0.426  16.953 -0.3941  0.2853  1.1162
  362TMC3    C7 5479   1.197   0.316  16.746 -0.0243 -0.1342  0.4330
  362TMC3    C8 5480   1.155   0.437  17.204 -0.5119  0.5981 -0.0924
  362TMC3    O1 5481   1.210   0.434  16.724 -0.2848 -0.5656  0.9594
  362TMC3    O2 5482   1.225   0.464  17.306 -0.1250  0.1973  0.5078
  363TMC3    C1 5483   0.903   3.227   9.598 -0.3528 -0.0239  0.4676
  363TMC3    C2 5484   1.014   3.161   9.644  0.2906 -0.3220 -0.0061
  363TMC3    C3 5485   1.071   3.205   9.764  0.4157  0.4641  0.1290
  363TMC3    C4 5486   0.837   3.333   9.660 -0.2824  0.3465 -1.2233
  363TMC3    C5 5487   0.898   3.379   9.777 -0.2430  0.5343 -0.2082
  363TMC3    C6 5488   1.021   3.329   9.824  0.1888  0.5663 -0.7347
  363TMC3     C 5489   0.837   3.153   9.485 -0.9636  0.8300 -0.7060
  363TMC3     O 5490   0.872   3.037   9.463  0.0347 -0.4994  0.5329
  363TMC3     H 5491   1.064   3.084   9.587  0.5299  0.1420 -0.4185
  363TMC3    H1 5492   0.740   3.369   9.628 -1.1619  0.9428  2.1424
  363TMC3    H2 5493   1.082   3.383   9.896  0.2753  0.3635 -0.6547
  363TMC3    C7 5494   0.830   3.497   9.832 -0.4580  0.3052  0.0093
  363TMC3    C8 5495   1.194   3.154   9.812 -0.1763  0.1117  0.5753
  363TMC3    O1 5496   0.722   3.527   9.779 -0.3141  0.2748  0.6063
  363TMC3    O2 5497   1.243   3.216   9.902 -0.0905  0.0631 -0.2139
  364MPD2     C 5498   4.357   2.483  10.984  0.5812  0.5099  0.0575
  364MPD2    C1 5499   4.450   2.508  10.880 -1.2916 -0.2203  0.1130
  364MPD2    C2 5500   4.478   2.402  10.793 -0.0284 -0.4018  0.1800
  364MPD2    C3 5501   4.427   2.277  10.805 -0.2030 -0.0264  0.4398
  364MPD2    C4 5502   4.323   2.257  10.893  0.1530 -0.0832  0.0514
  364MPD2    C5 5503   4.290   2.355  10.984 -0.6581 -0.8404  0.4643
  364MPD2     H 5504   4.545   2.421  10.710 -0.0460  2.3063  0.7892
  364MPD2    H1 5505   4.269   2.164  10.895 -0.6102  0.4217  2.3623
  364MPD2    H2 5506   4.323   2.559  11.054 -0.7271  1.3324 -1.4644
  364MPD2    H3 5507   4.214   2.344  11.060 -0.3370  0.2968  0.9524
  364MPD2     N 5508   4.461   2.165  10.726 -0.6443 -0.3103  0.7428
  364MPD2    H5 5509   4.422   2.076  10.754 -1.8366 -1.0399 -3.3032
  364MPD2    N1 5510   4.501   2.640  10.875  0.0866  0.7173 -0.0630
  364MPD2    H7 5511   4.468   2.708  10.942 -1.9485 -1.6774  1.3653
  365TMC3    C1 5512   4.649   2.818  10.806  0.2296 -0.2527 -0.5697
  365TMC3    C2 5513   4.714   2.862  10.703 -0.6245  0.6325  0.5358
  365TMC3    C3 5514   0.049   2.980  10.731 -0.5452 -0.2154  0.7746
  365TMC3    C4 5515   4.656   2.863  10.932  0.5842 -0.2018 -0.0472
  365TMC3    C5 5516   4.699   2.996  10.949  0.1365 -0.1934  0.3857
  365TMC3    C6 5517   0.033   3.054  10.845  0.9817  0.1761  0.1832
  365TMC3     C 5518   4.606   2.675  10.794 -0.6963 -0.2171  0.9049
  365TMC3     O 5519   4.679   2.607  10.719  0.2676  0.0464 -0.5068
  365TMC3     H 5520   4.686   2.814  10.610 -1.3881  1.2958  0.4248
  365TMC3    H1 5521   4.605   2.808  11.011  0.2700  0.4359  0.1934
  365TMC3    H2 5522   0.085   3.146  10.865 -0.2043  1.4161 -2.4659
  365TMC3    C7 5523   4.666   3.077  11.068  0.3243  0.0213 -0.1991
  365TMC3    C8 5524   0.088   3.066  10.614  0.2197 -0.0555 -0.0416
  365TMC3    O1 5525   4.695   3.200  11.066  0.2097 -0.0710  0.7671
  365TMC3    O2 5526   0.102   3.186  10.628  0.1029 -0.3162 -0.1277
  366MPD2     C 5527   2.494   2.841  15.319  0.0729 -0.3088  0.1503
  366MPD2    C1 5528   2.520   2.937  15.413 -0.4337  0.2820  0.3560
  366MPD2    C2 5529   2.656   2.977  15.428 -0.2320  0.4807  0.2572
  366MPD2    C3 5530   2.761   2.922  15.349 -0.1588 -0.4160 -0.0385
  366MPD2    C4 5531   2.725   2.810  15.267  0.0169 -0.2810 -0.3792
  366MPD2    C5 5532   2.594   2.787  15.245 -0.5595  0.2784 -0.0690
  366MPD2     H 5533   2.681   3.033  15.518  0.6698  0.1687  0.1972
  366MPD2    H1 5534   2.805   2.760  15.214  0.2743 -0.1974 -0.0721
  366MPD2    H2 5535   2.395   2.804  15.298 -0.5395  1.5065 -0.0650
  366MPD2    H3 5536   2.560   2.723  15.165  1.4309  0.0939 -0.7630
  366MPD2     N 5537   2.897   2.958  15.342  0.4588  0.0893  0.1283
  366MPD2    H5 5538   2.956   2.887  15.301  0.0247  0.2011 -0.7021
  366MPD2    N1 5539   2.416   3.002  15.489 -0.0366  0.4509 -0.6332
  366MPD2    H7 5540   2.441   3.073  15.557  2.6951  1.0405 -2.2666
  367TMC3    C1 5541   2.226   3.097  15.555  0.7326 -0.2725 -0.5736
  367TMC3    C2 5542   2.314   3.171  15.631 -0.3864  0.3143 -0.1042
  367TMC3    C3 5543   2.286   3.303  15.646  0.6431 -0.3165 -0.0334
  367TMC3    C4 5544   2.129   3.155  15.478 -0.6211  0.6690 -0.2072
  367TMC3    C5 5545   2.106   3.287  15.502  0.3383 -0.2656 -0.1184
  367TMC3    C6 5546   2.183   3.365  15.578  0.2801 -0.7152  0.0267
  367TMC3     C 5547   2.283   2.983  15.484  0.5889 -0.0697 -0.2751
  367TMC3     O 5548   2.213   2.907  15.422 -0.0920 -0.2553  0.6591
  367TMC3     H 5549   2.393   3.126  15.691  0.4358 -2.6983 -3.4792
  367TMC3    H1 5550   2.075   3.099  15.403  2.4395 -3.7574  0.9039
  367TMC3    H2 5551   2.148   3.463  15.609  1.5438 -0.4219  0.5300
  367TMC3    C7 5552   1.986   3.355  15.448 -0.2358 -0.4649  0.4037
  367TMC3    C8 5553   2.389   3.388  15.706  0.4388 -0.4280 -0.7411
  367TMC3    O1 5554   1.990   3.476  15.450 -0.7462  0.2587  0.4305
  367TMC3    O2 5555   2.473   3.330  15.773 -0.0223 -0.2090  0.0719
  368MPD2     C 5556   3.401   0.397  13.383 -0.3130 -0.2822  0.0519
  368MPD2    C1 5557   3.408   0.473  13.268  0.2667  0.4283 -0.6423
  368MPD2    C2 5558   3.510   0.458  13.180 -0.1445  0.7283  0.6692
  368MPD2    C3 5559   3.614   0.371  13.211 -0.2077 -0.3549  0.1203
  368MPD2    C4 5560   3.610   0.305  13.329  0.1584 -0.6343  0.0695
  368MPD2    C5 5561   3.509   0.327  13.423 -0.5617 -0.3094 -0.1240
  368MPD2     H 5562   3.509   0.514  13.087 -1.8099  0.0056  0.2602
  368MPD2    H1 5563   3.682   0.226  13.344  0.1715 -0.5889  0.2374
  368MPD2    H2 5564   3.325   0.423  13.456  1.9601  0.5712  2.1079
  368MPD2    H3 5565   3.505   0.272  13.516  0.7201 -0.7214 -0.3107
  368MPD2     N 5566   3.726   0.354  13.125 -0.1926 -0.0419 -0.9397
  368MPD2    H5 5567   3.807   0.305  13.161 -1.3716  1.9893  4.3898
  368MPD2    N1 5568   3.307   0.575  13.255 -0.0939 -0.4660 -0.6645
  368MPD2    H7 5569   3.238   0.582  13.329 -0.4247  1.2007 -1.1272
  369TMC3    C1 5570   3.160   0.736  13.164  0.2061  0.4778 -0.7392
  369TMC3    C2 5571   3.154   0.846  13.085  0.0307  0.2481 -0.9517
  369TMC3    C3 5572   3.033   0.918  13.077 -0.0903  0.4314 -0.0434
  369TMC3    C4 5573   3.051   0.687  13.217 -0.0533  0.0869  0.2344
  369TMC3    C5 5574   2.939   0.758  13.218 -0.6554 -0.2428  0.3136
  369TMC3    C6 5575   2.925   0.879  13.146  0.0172 -0.2812  0.2704
  369TMC3     C 5576   3.277   0.653  13.145  0.0098  0.1313  0.7186
  369TMC3     O 5577   3.334   0.657  13.038  0.2435  0.7246  0.5247
  369TMC3     H 5578   3.237   0.885  13.026 -0.9389  0.1018 -2.4009
  369TMC3    H1 5579   3.053   0.597  13.277 -0.8097 -1.3545 -1.9084
  369TMC3    H2 5580   2.832   0.929  13.123  0.7159  1.3221  0.9391
  369TMC3    C7 5581   2.833   0.717  13.310 -0.3830  0.0312 -0.1688
  369TMC3    C8 5582   3.036   1.034  12.996  0.1017 -0.8444 -0.3607
  369TMC3    O1 5583   2.878   0.652  13.403  0.0912 -0.3177 -0.3717
  369TMC3    O2 5584   2.942   1.076  12.930  0.1490  0.8031  0.1802
  370TMC3    C1 5585   2.958   1.254  16.415 -0.2465  0.8011  0.2388
  370TMC3    C2 5586   2.889   1.184  16.496  0.1686  0.2970  0.3269
  370TMC3    C3 5587   2.864   1.054  16.459 -0.3824  0.5540  0.1252
  370TMC3    C4 5588   3.016   1.207  16.299  0.1116  0.1044 -0.0452
  370TMC3    C5 5589   3.001   1.071  16.266  0.1512  0.3056 -0.2765
  370TMC3    C6 5590   2.924   0.997  16.347 -0.4787  0.4646  0.1947
  370TMC3     C 5591   2.917   1.397  16.421  0.4255  0.1232  0.4211
  370TMC3     O 5592   2.811   1.423  16.481 -0.3196  0.0749  0.0852
  370TMC3     H 5593   2.837   1.226  16.581  0.3511  1.5995 -0.1922
  370TMC3    H1 5594   3.066   1.281  16.238 -0.6627  1.2282  0.6841
  370TMC3    H2 5595   2.872   0.908  16.311  0.4643 -0.4295  1.0450
  370TMC3    C7 5596   3.065   1.008  16.148  0.6336  0.1921 -0.2219
  370TMC3    C8 5597   2.786   0.963  16.548 -0.1882  0.2132  0.8858
  370TMC3    O1 5598   3.080   1.060  16.038  0.2175  0.0785 -0.3014
  370TMC3    O2 5599   2.783   0.844  16.521  0.3701  0.5013  0.2196
  371TMC3    C1 5600   4.041   4.026  15.687  0.5339  0.1239  0.6986
  371TMC3    C2 5601   4.015   4.046  15.824 -0.2788  0.5169 -0.4222
  371TMC3    C3 5602   3.985   4.167  15.863 -0.5774  0.0487  0.3576
  371TMC3    C4 5603   4.057   4.140  15.608 -0.5684  0.1104  0.3526
  371TMC3    C5 5604   4.016   4.262  15.650 -0.4262  0.2157  0.2082
  371TMC3    C6 5605   3.974   4.275  15.777 -0.3705 -0.0207 -0.7371
  371TMC3     C 5606   4.138   3.927  15.644 -0.9855 -0.3118 -1.1286
  371TMC3     O 5607   4.216   3.966  15.558 -0.0647 -0.1759 -0.7623
  371TMC3     H 5608   4.023   3.965  15.896 -1.0845  1.3071  0.5526
  371TMC3    H1 5609   4.075   4.126  15.502 -0.2893 -2.3323  0.7260
  371TMC3    H2 5610   3.937   4.364  15.826 -3.0084 -1.1060 -0.7199
  371TMC3    C7 5611   4.099   4.369  15.604 -0.2790  0.4783  0.2440
  371TMC3    C8 5612   3.972   4.177  16.010  0.2024  1.0738  0.0608
  371TMC3    O1 5613   4.058   4.484  15.616  0.3189 -0.2160  0.3490
  371TMC3    O2 5614   4.045   4.115  16.090  0.1958 -0.0660  0.0762
  372MPD2     C 5615   3.235   0.507  13.679 -0.0284 -0.0600  0.6637
  372MPD2    C1 5616   3.358   0.471  13.731  0.2040 -0.0842  0.4778
  372MPD2    C2 5617   3.367   0.378  13.826 -0.0348  0.4412 -0.3686
  372MPD2    C3 5618   3.253   0.309  13.864 -0.2261  1.0442 -0.1516
  372MPD2    C4 5619   3.129   0.354  13.823 -0.6912 -0.4239 -0.3147
  372MPD2    C5 5620   3.121   0.447  13.725 -0.1982  0.1366 -0.0320
  372MPD2     H 5621   3.459   0.355  13.877 -0.5186  0.0702  0.3291
  372MPD2    H1 5622   3.040   0.312  13.866 -1.5049  0.9753 -0.6076
  372MPD2    H2 5623   3.228   0.580  13.599 -0.6859 -0.7208  0.1078
  372MPD2    H3 5624   3.028   0.471  13.674 -0.7178 -1.3285  0.2208
  372MPD2     N 5625   3.267   0.210  13.964 -0.0400  0.2474  0.6239
  372MPD2    H5 5626   3.360   0.206  14.006 -0.6512 -0.1806  1.9281
  372MPD2    N1 5627   3.485   0.523  13.693  0.0601  0.3998 -0.3110
  372MPD2    H7 5628   3.571   0.476  13.721 -0.6346 -0.1382  0.9808
  373TMC3    C1 5629   3.232   0.029  14.098  0.1758  0.3781 -0.0044
  373TMC3    C2 5630   3.287   0.085  14.211  0.0022 -0.0626 -0.9438
  373TMC3    C3 5631   3.365   0.002  14.291  0.5072 -0.9577  0.6544
  373TMC3    C4 5632   3.256   4.636  14.060  0.1976  0.0140 -0.8804
  373TMC3    C5 5633   3.337   4.567  14.144 -0.0006  0.2885 -0.1710
  373TMC3    C6 5634   3.390   4.616  14.260  0.7418 -0.6439 -0.1243
  373TMC3     C 5635   3.177   0.112  13.988 -0.2721  0.5019 -0.2365
  373TMC3     O 5636   3.085   0.078  13.912 -0.2387  0.1745 -0.1454
  373TMC3     H 5637   3.260   0.186  14.237 -0.2269 -0.8175  1.7578
  373TMC3    H1 5638   3.210   4.591  13.973 -3.9016  0.6643  0.9706
  373TMC3    H2 5639   3.455   4.550  14.317  0.3472  0.5800  1.7315
  373TMC3    C7 5640   3.386   4.442  14.084  0.5221 -0.9977 -0.0047
  373TMC3    C8 5641   3.443   0.063  14.399 -1.0940 -0.5210  0.0496
  373TMC3    O1 5642   3.392   4.443  13.963  0.2124  0.6470 -0.4208
  373TMC3    O2 5643   3.436   0.185  14.400 -0.0200 -0.1612 -0.1885
  374TMC3    C1 5644   4.343   1.102   9.853  0.1909  0.7868 -0.1676
  374TMC3    C2 5645   4.451   1.174   9.894  0.7733 -0.4532 -0.3086
  374TMC3    C3 5646   4.524   1.232   9.794 -0.8272 -0.4200  0.5335
  374TMC3    C4 5647   4.309   1.072   9.724  1.2269  0.0800  0.1300
  374TMC3    C5 5648   4.386   1.141   9.624  0.0527  0.4688 -0.8073
  374TMC3    C6 5649   4.488   1.226   9.661 -0.3377 -0.0636 -0.0758
  374TMC3     C 5650   4.278   1.027   9.962 -0.1030 -0.5967  0.5757
  374TMC3     O 5651   4.345   0.980  10.053 -0.6350 -0.3863  0.0019
  374TMC3     H 5652   4.477   1.169   9.999 -1.4177 -1.5245  0.1729
  374TMC3    H1 5653   4.236   0.996   9.699 -2.7573  3.9683  0.0117
  374TMC3    H2 5654   4.556   1.274   9.591 -0.9397 -0.4410 -0.9214
  374TMC3    C7 5655   4.359   1.113   9.481  0.0159  0.4600  0.3293
  374TMC3    C8 5656   4.649   1.294   9.823  0.4719  0.2495 -0.6892
  374TMC3    O1 5657   4.274   1.026   9.461 -0.2289 -0.3609 -0.0392
  374TMC3    O2 5658   4.693   1.367   9.737 -0.2332 -0.0049 -0.5141
  375MPD2     C 5659   3.759   0.802  17.338  0.7807 -0.2266 -0.3118
  375MPD2    C1 5660   3.790   0.897  17.243  0.7248  0.4193 -0.3900
  375MPD2    C2 5661   3.880   0.862  17.144 -0.4121  0.3800 -0.2005
  375MPD2    C3 5662   3.926   0.734  17.126  0.0284  0.6126 -0.1037
  375MPD2    C4 5663   3.878   0.637  17.216 -0.0029  0.2596 -0.1279
  375MPD2    C5 5664   3.805   0.669  17.322  0.7044  0.1059 -0.0192
  375MPD2     H 5665   3.910   0.943  17.079  0.0006  0.8265  0.5513
  375MPD2    H1 5666   3.888   0.531  17.195  0.8485  0.0991  1.1251
  375MPD2    H2 5667   3.685   0.817  17.416  1.1374  1.4196 -0.2984
  375MPD2    H3 5668   3.773   0.592  17.392  0.9555  1.0634  1.1662
  375MPD2     N 5669   4.002   0.697  17.008  0.7648  0.4767 -0.0645
  375MPD2    H5 5670   4.018   0.597  16.999 -1.3419  0.0898  0.4374
  375MPD2    N1 5671   3.745   1.033  17.249  0.3203  0.0535  0.3097
  375MPD2    H7 5672   3.771   1.093  17.172 -0.1955  0.1737  0.2291
  376TMC3    C1 5673   4.118   0.706  16.798 -0.2305  0.1986 -0.4548
  376TMC3    C2 5674   4.195   0.600  16.834 -0.3019  0.1328 -0.1377
  376TMC3    C3 5675   4.284   0.550  16.740  0.1669 -0.6637 -0.8021
  376TMC3    C4 5676   4.136   0.779  16.684 -0.5150  0.0139  0.0973
  376TMC3    C5 5677   4.235   0.732  16.597 -0.3233 -0.2993 -0.9187
  376TMC3    C6 5678   4.291   0.606  16.618 -0.4563  0.4920  0.4075
  376TMC3     C 5679   4.031   0.775  16.897  0.2016 -0.3794  0.6372
  376TMC3     O 5680   3.996   0.892  16.865 -0.0371 -0.0176 -0.1609
  376TMC3     H 5681   4.193   0.555  16.932 -0.2349 -0.9089 -0.6070
  376TMC3    H1 5682   4.083   0.871  16.662  0.0047  0.1041 -0.7576
  376TMC3    H2 5683   4.380   0.581  16.561 -1.4329  1.0921 -1.3893
  376TMC3    C7 5684   4.275   0.815  16.494 -0.6199 -0.3251  0.2669
  376TMC3    C8 5685   4.409   0.547  16.795 -0.0797 -0.5555 -0.2342
  376TMC3    O1 5686   4.248   0.932  16.505  0.1413 -0.3590 -0.4274
  376TMC3    O2 5687   4.446   0.629  16.880  0.0458  0.1868  0.1337
  377MPD2     C 5688   2.245   0.713  12.885  0.3219  0.3815  0.5013
  377MPD2    C1 5689   2.374   0.709  12.930  0.5323  0.6443 -0.1764
  377MPD2    C2 5690   2.408   0.608  13.023  0.0106 -0.1439  0.0133
  377MPD2    C3 5691   2.303   0.528  13.079  1.0865  0.5717  0.5883
  377MPD2    C4 5692   2.174   0.545  13.034  0.1558  0.8940  0.0483
  377MPD2    C5 5693   2.143   0.636  12.937 -0.1562  0.4207 -0.4912
  377MPD2     H 5694   2.511   0.577  13.035  0.1321  0.5912  0.8768
  377MPD2    H1 5695   2.093   0.481  13.063 -0.0623  0.9202 -0.5064
  377MPD2    H2 5696   2.224   0.782  12.805 -2.8932  0.7401  1.6459
  377MPD2    H3 5697   2.051   0.629  12.880 -0.8393 -0.8758  0.7611
  377MPD2     N 5698   2.315   0.422  13.171 -0.0584 -0.0609  0.4971
  377MPD2    H5 5699   2.235   0.383  13.220  0.1903 -1.3010 -0.0555
  377MPD2    N1 5700   2.473   0.777  12.854 -0.1215 -0.0472  1.0430
  377MPD2    H7 5701   2.443   0.837  12.778 -2.3645 -1.5237  0.7770
  378TMC3    C1 5702   2.727   0.888  12.568  0.0050  0.4610  0.7261
  378TMC3    C2 5703   2.644   0.865  12.672 -0.0228  0.1930  0.7380
  378TMC3    C3 5704   2.696   0.807  12.783 -0.4005 -0.1405  0.7786
  378TMC3    C4 5705   2.866   0.884  12.580 -0.1544 -0.1031 -0.0426
  378TMC3    C5 5706   2.909   0.838  12.703  0.1261 -0.5726 -0.6871
  378TMC3    C6 5707   2.829   0.799  12.805  0.4082 -0.0854 -1.1463
  378TMC3     C 5708   2.668   0.898  12.436  0.6967  0.2545  0.0086
  378TMC3     O 5709   2.552   0.937  12.432  0.5510 -0.1469 -0.4029
  378TMC3     H 5710   2.537   0.879  12.656  0.4609  1.0004 -1.7847
  378TMC3    H1 5711   2.938   0.905  12.502  1.6047 -0.1836  1.5436
  378TMC3    H2 5712   2.859   0.764  12.903 -1.3061 -0.2744 -0.6879
  378TMC3    C7 5713   3.048   0.826  12.725 -0.0997  0.5029  0.6485
  378TMC3    C8 5714   2.608   0.773  12.892  0.2905 -0.1172  0.1287
  378TMC3    O1 5715   3.088   0.728  12.779 -0.2946  0.2846 -0.2018
  378TMC3    O2 5716   2.653   0.765  13.006  0.3892 -0.3257  0.2178
  379MPD2     C 5717   3.369   3.965  16.289 -0.0519  0.0132  0.1177
  379MPD2    C1 5718   3.316   3.870  16.374 -0.5921 -0.1920  0.8380
  379MPD2    C2 5719   3.386   3.835  16.492 -0.2776 -0.1629  0.0340
  379MPD2    C3 5720   3.514   3.894  16.514  0.0985 -0.4685  0.5182
  379MPD2    C4 5721   3.571   3.982  16.423  0.2295  0.2828 -0.6773
  379MPD2    C5 5722   3.490   4.022  16.317  0.5511 -0.1583  0.1652
  379MPD2     H 5723   3.341   3.760  16.556  0.0247  0.0120  0.4481
  379MPD2    H1 5724   3.665   4.033  16.439  0.5386 -1.3838  2.7074
  379MPD2    H2 5725   3.306   4.005  16.210 -0.1538  0.5955  0.4979
  379MPD2    H3 5726   3.526   4.101  16.252  0.4978 -0.5774 -0.3745
  379MPD2     N 5727   3.591   3.877  16.630 -0.0155 -0.2229 -0.2057
  379MPD2    H5 5728   3.689   3.903  16.625 -0.3700  1.4994  1.9103
  379MPD2    N1 5729   3.186   3.814  16.341  0.3259 -0.0352  0.0756
  379MPD2    H7 5730   3.156   3.816  16.244  1.8698  1.4327 -0.3829
  380TMC3    C1 5731   3.022   3.655  16.330  0.2103  0.0742 -0.3764
  380TMC3    C2 5732   3.083   3.554  16.273 -0.0788 -0.2239 -0.0998
  380TMC3    C3 5733   3.031   3.494  16.160 -0.9536 -0.6511  0.3606
  380TMC3    C4 5734   2.920   3.723  16.272  0.4320  0.1603  0.5621
  380TMC3    C5 5735   2.865   3.662  16.165  0.0585  0.6316  0.0142
  380TMC3    C6 5736   2.912   3.545  16.109 -0.0678 -0.9254  0.2815
  380TMC3     C 5737   3.118   3.722  16.414 -0.3784 -0.0740 -0.4628
  380TMC3     O 5738   3.126   3.681  16.531 -0.4329 -0.0068 -0.0110
  380TMC3     H 5739   3.176   3.527  16.322 -0.8346 -0.2140  1.3324
  380TMC3    H1 5740   2.893   3.821  16.307 -1.4638 -0.8224  1.8772
  380TMC3    H2 5741   2.871   3.496  16.021  0.7295 -2.3042  0.6733
  380TMC3    C7 5742   2.793   3.750  16.076 -1.0650  0.4071  0.4982
  380TMC3    C8 5743   3.126   3.451  16.067  0.4272  0.0379 -0.1885
  380TMC3    O1 5744   2.778   3.869  16.107 -0.3129 -0.1764  0.1215
  380TMC3    O2 5745   3.088   3.480  15.952  0.0797 -0.2701  1.1770
  381TMC3    C1 5746   2.715   0.400  16.262 -0.4448  0.1178  0.4433
  381TMC3    C2 5747   2.831   0.461  16.294  0.0959  0.1255 -0.2067
  381TMC3    C3 5748   2.837   0.526  16.413 -0.5746 -0.2310 -0.2248
  381TMC3    C4 5749   2.614   0.396  16.350 -0.1611  0.6880  0.0420
  381TMC3    C5 5750   2.623   0.457  16.473 -0.1050  0.0550 -0.0678
  381TMC3    C6 5751   2.744   0.513  16.507 -0.3193  0.5781 -0.2199
  381TMC3     C 5752   2.708   0.343  16.128  0.4160 -0.7840  0.6620
  381TMC3     O 5753   2.818   0.318  16.077 -0.7084 -0.8892  0.3781
  381TMC3     H 5754   2.911   0.463  16.221  0.1646 -4.4584 -0.2500
  381TMC3    H1 5755   2.526   0.336  16.328  0.4799 -0.0396 -0.5335
  381TMC3    H2 5756   2.761   0.557  16.605  0.6281 -0.1130 -0.0666
  381TMC3    C7 5757   2.553   0.394  16.576  0.0771  0.5572 -0.3167
  381TMC3    C8 5758   2.975   0.545  16.464 -0.3101 -0.1220 -0.5798
  381TMC3    O1 5759   2.547   0.273  16.576 -0.2533  0.5454  0.8201
  381TMC3    O2 5760   3.061   0.460  16.439  0.0854 -0.7251 -0.1749
  382MPD2     C 5761   2.392   1.989  17.373  0.4148 -0.5636 -0.1076
  382MPD2    C1 5762   2.276   2.046  17.430  0.2498  0.2759  0.9060
  382MPD2    C2 5763   2.164   1.967  17.438 -0.4530 -0.1403 -0.4831
  382MPD2    C3 5764   2.159   1.832  17.398  0.4134  0.5419 -0.4675
  382MPD2    C4 5765   2.265   1.785  17.325  0.2604  0.0121 -0.1458
  382MPD2    C5 5766   2.383   1.861  17.320 -0.3310  0.2327  0.2627
  382MPD2     H 5767   2.081   2.016  17.488 -1.2025 -0.0949 -1.7897
  382MPD2    H1 5768   2.262   1.686  17.280  1.2620  1.0707 -2.4966
  382MPD2    H2 5769   2.480   2.052  17.373  0.6617 -0.9271  2.0761
  382MPD2    H3 5770   2.468   1.813  17.274 -0.4604 -1.1436  1.4469
  382MPD2     N 5771   2.055   1.738  17.418 -0.1527  0.1150  0.0704
  382MPD2    H5 5772   2.051   1.661  17.351 -0.1365  1.0481 -1.0053
  382MPD2    N1 5773   2.282   2.175  17.491  0.9617 -0.5897  0.2611
  382MPD2    H7 5774   2.191   2.213  17.517  1.8772  0.9203  1.2516
  383TMC3    C1 5775   1.847   1.659  17.496 -0.1384 -0.5143 -0.2672
  383TMC3    C2 5776   1.806   1.620  17.375 -0.7297 -0.0889 -0.0600
  383TMC3    C3 5777   1.718   1.521  17.369  0.0103 -0.6872  0.0840
  383TMC3    C4 5778   1.809   1.592  17.612 -0.4934 -0.6694  0.8394
  383TMC3    C5 5779   1.712   1.498  17.600 -0.2459  0.2648 -0.1230
  383TMC3    C6 5780   1.667   1.461  17.478 -0.2170 -0.1718 -0.1375
  383TMC3     C 5781   1.951   1.761  17.502  0.0349 -0.0638 -0.4302
  383TMC3     O 5782   1.933   1.851  17.588 -0.0625 -0.4093 -0.1867
  383TMC3     H 5783   1.831   1.676  17.285  1.5723  1.3833  1.5036
  383TMC3    H1 5784   1.846   1.631  17.706 -0.4414  2.8612 -0.6376
  383TMC3    H2 5785   1.577   1.401  17.470 -0.0950 -0.2749 -0.7814
  383TMC3    C7 5786   1.652   1.438  17.717  0.7448 -0.9325 -0.5522
  383TMC3    C8 5787   1.675   1.488  17.236  0.2576 -0.2389 -0.0114
  383TMC3    O1 5788   1.557   1.362  17.706 -0.1527  0.7088  0.1163
  383TMC3    O2 5789   1.655   1.580  17.163 -0.6232 -0.1008 -0.0779
  384MPD2     C 5790   4.013   3.584  12.654  0.4846 -0.4874  0.3237
  384MPD2    C1 5791   3.961   3.498  12.750 -0.0696  0.1600  0.2865
  384MPD2    C2 5792   4.027   3.380  12.772  0.2447 -0.0526  0.4218
  384MPD2    C3 5793   4.145   3.348  12.707  0.3901  0.0942  0.1275
  384MPD2    C4 5794   4.199   3.439  12.622 -0.1108  0.2470 -0.6391
  384MPD2    C5 5795   4.130   3.555  12.596  0.4439  0.0707  0.0332
  384MPD2     H 5796   3.989   3.310  12.845  2.8895 -1.4685  0.4294
  384MPD2    H1 5797   4.288   3.414  12.566 -0.3514 -0.8002 -0.5538
  384MPD2    H2 5798   3.960   3.677  12.635 -0.4493 -1.6589 -2.7728
  384MPD2    H3 5799   4.166   3.628  12.524 -1.0412  0.4827 -0.2830
  384MPD2     N 5800   4.198   3.223  12.739 -0.3065 -0.5427  0.3850
  384MPD2    H5 5801   4.143   3.160  12.798 -1.1531  0.2955  0.4957
  384MPD2    N1 5802   3.834   3.504  12.817  0.1040  0.2166  0.1216
  384MPD2    H7 5803   3.806   3.426  12.875 -0.8808 -1.6718 -2.8817
  385TMC3    C1 5804   4.335   3.048  12.759  0.1889 -0.2275  0.2360
  385TMC3    C2 5805   4.331   2.931  12.688 -0.2222 -0.2587  0.6282
  385TMC3    C3 5806   4.271   2.817  12.739 -0.3640  0.4084  0.1053
  385TMC3    C4 5807   4.285   3.047  12.885  0.0500 -0.4039 -0.2418
  385TMC3    C5 5808   4.216   2.940  12.930 -0.7267  0.5679  0.3619
  385TMC3    C6 5809   4.200   2.826  12.855  0.5323  0.3527 -0.6727
  385TMC3     C 5810   4.319   3.174  12.699  0.3261  0.4701 -0.6076
  385TMC3     O 5811   4.409   3.219  12.626 -0.0523 -0.0818 -0.2555
  385TMC3     H 5812   4.381   2.920  12.593 -0.0777  2.0935  0.4366
  385TMC3    H1 5813   4.290   3.132  12.952 -0.4662  0.4319 -1.2681
  385TMC3    H2 5814   4.133   2.744  12.881  0.2550  0.9514  0.5031
  385TMC3    C7 5815   4.099   2.994  12.989 -0.2011  0.1035 -0.3523
  385TMC3    C8 5816   4.261   2.690  12.670  1.5647 -0.3536  0.1939
  385TMC3    O1 5817   4.041   3.066  12.906  0.5628  0.0658 -0.2189
  385TMC3    O2 5818   4.264   2.588  12.735 -0.0647  0.0989  0.1773
  386TMC3    C1 5819   4.184   1.479  11.831 -0.0281  0.5662  0.1397
  386TMC3    C2 5820   4.209   1.575  11.737  0.0122  0.5340  0.0559
  386TMC3    C3 5821   4.112   1.668  11.715 -0.5958 -0.1652  0.4575
  386TMC3    C4 5822   4.085   1.487  11.913 -0.3178 -0.5019  0.4896
  386TMC3    C5 5823   3.999   1.596  11.907  0.4860  0.0156 -0.1148
  386TMC3    C6 5824   4.019   1.687  11.808  0.0372 -0.8477  0.6232
  386TMC3     C 5825   4.221   1.355  11.773 -0.1329 -0.7891 -0.9331
  386TMC3     O 5826   4.308   1.356  11.686  0.2667  0.0761 -0.0593
  386TMC3     H 5827   4.299   1.580  11.677 -0.1381  1.4307 -0.0853
  386TMC3    H1 5828   4.057   1.408  11.981 -1.4094  0.3105  0.9921
  386TMC3    H2 5829   3.963   1.779  11.796 -1.0271 -1.6185 -0.2929
  386TMC3    C7 5830   3.862   1.559  11.934 -0.2183 -0.4774 -0.0104
  386TMC3    C8 5831   4.040   1.635  11.595  0.6159 -0.4747 -0.0880
  386TMC3    O1 5832   3.846   1.498  12.037  0.1877 -0.5673  0.0030
  386TMC3    O2 5833   3.922   1.672  11.592 -0.6765 -0.0234 -0.4775
  387MPD2     C 5834   1.880   1.474  10.098 -0.3763 -0.3134  0.2398
  387MPD2    C1 5835   1.948   1.410  10.195 -0.5764 -0.4750  0.3505
  387MPD2    C2 5836   1.913   1.279  10.237  0.4394  0.3272  0.9282
  387MPD2    C3 5837   1.822   1.208  10.166  0.1333  0.5737  0.3365
  387MPD2    C4 5838   1.753   1.271  10.066 -0.7409 -0.2128 -0.8719
  387MPD2    C5 5839   1.777   1.406  10.039  0.6605  0.6343  0.2226
  387MPD2     H 5840   1.971   1.228  10.312  0.8959 -0.5251 -0.0128
  387MPD2    H1 5841   1.677   1.225  10.004  0.1909 -0.2186 -2.0175
  387MPD2    H2 5842   1.907   1.575  10.068  1.2467 -0.0439  2.5608
  387MPD2    H3 5843   1.723   1.457   9.961 -1.3260 -0.6358  0.7642
  387MPD2     N 5844   1.798   1.073  10.199  0.4118 -0.6377 -0.1096
  387MPD2    H5 5845   1.865   1.036  10.266  0.5287 -0.1875  0.0285
  387MPD2    N1 5846   2.066   1.455  10.255  0.2134 -0.3520 -0.4275
  387MPD2    H7 5847   2.117   1.400  10.323  1.5168  1.6001  0.1625
  388TMC3    C1 5848   2.275   1.547  10.268 -0.3297 -0.0354  0.5101
  388TMC3    C2 5849   2.346   1.653  10.303  0.0912 -0.8706  0.4641
  388TMC3    C3 5850   2.465   1.625  10.364 -0.7198  0.0204  0.7006
  388TMC3    C4 5851   2.330   1.428  10.241  0.0378  0.0923 -0.4271
  388TMC3    C5 5852   2.466   1.418  10.262 -0.4727 -0.2904 -0.2734
  388TMC3    C6 5853   2.537   1.510  10.331  0.1253  0.3408 -0.8606
  388TMC3     C 5854   2.133   1.572  10.235  0.0918 -0.2581  0.5155
  388TMC3     O 5855   2.088   1.680  10.210  0.0444  0.3566 -0.6117
  388TMC3     H 5856   2.296   1.748  10.319 -0.9103 -1.0245 -1.7643
  388TMC3    H1 5857   2.271   1.360  10.181  0.6887  1.6990 -2.8914
  388TMC3    H2 5858   2.640   1.493  10.361  0.5987  0.4190 -2.4324
  388TMC3    C7 5859   2.514   1.283  10.277  0.7666 -0.4660 -0.6021
  388TMC3    C8 5860   2.535   1.741  10.416 -0.1129  0.5650 -0.0851
  388TMC3    O1 5861   2.637   1.268  10.286 -0.1420  0.1866  0.6653
  388TMC3    O2 5862   2.650   1.751  10.370  0.1514 -0.3623 -0.5343
  389MPD2     C 5863   1.170   4.559  11.612  0.1415 -0.4174  0.2580
  389MPD2    C1 5864   1.056   4.485  11.577 -0.2656  0.2210 -0.4135
  389MPD2    C2 5865   1.033   4.361  11.631 -0.2389  0.3432 -0.2262
  389MPD2    C3 5866   1.111   4.320  11.743  0.2270 -0.3996  0.1391
  389MPD2    C4 5867   1.218   4.398  11.778  0.8327  0.3638 -0.2013
  389MPD2    C5 5868   1.258   4.509  11.708 -0.5139  0.0252 -0.3169
  389MPD2     H 5869   0.952   4.292  11.608 -1.4969  1.7387  0.0183
  389MPD2    H1 5870   1.294   4.372  11.851  1.8254 -1.3576 -1.8529
  389MPD2    H2 5871   1.194   4.652  11.562  1.1614 -1.2563 -0.8162
  389MPD2    H3 5872   1.346   4.558  11.749  0.3382 -0.1921 -1.8893
  389MPD2     N 5873   1.090   4.198  11.818 -0.2370  0.1645  0.4004
  389MPD2    H5 5874   1.168   4.180  11.880 -0.3923  1.7095  1.0373
  389MPD2    N1 5875   0.991   4.542  11.471 -0.6549 -0.1595 -0.2787
  389MPD2    H7 5876   1.020   4.633  11.437 -3.7165  0.4062 -1.3964
  390TMC3    C1 5877   0.991   4.002  11.903  0.3903  0.0139  0.1947
  390TMC3    C2 5878   0.919   3.893  11.863  0.7628 -0.3470  0.8997
  390TMC3    C3 5879   0.900   3.792  11.950  0.3499  0.0674  0.4114
  390TMC3    C4 5880   1.037   4.020  12.032 -0.8897  0.5019  0.4540
  390TMC3    C5 5881   1.026   3.913  12.118 -0.1624 -0.1287 -0.0850
  390TMC3    C6 5882   0.964   3.800  12.074 -0.3533 -0.6631  1.0045
  390TMC3     C 5883   0.978   4.116  11.817  0.2508  0.6046 -0.5964
  390TMC3     O 5884   0.874   4.128  11.745 -0.2126  0.2373  0.1188
  390TMC3     H 5885   0.890   3.889  11.759  0.3606  0.1787  0.9934
  390TMC3    H1 5886   1.074   4.113  12.074  0.4556  0.7959 -1.3632
  390TMC3    H2 5887   0.974   3.703  12.120 -1.1836 -1.7285 -1.0588
  390TMC3    C7 5888   1.034   3.941  12.264  0.4560 -0.1020 -0.3493
  390TMC3    C8 5889   0.791   3.697  11.934  0.6383  0.5829  0.3666
  390TMC3    O1 5890   1.042   4.052  12.302 -0.5856  0.1522  0.6413
  390TMC3    O2 5891   0.774   3.644  11.825  0.1636 -0.0712 -0.0423
  391MPD2     C 5892   0.268   0.949  11.313 -0.0016  0.0214 -0.0084
  391MPD2    C1 5893   0.393   1.004  11.275 -0.1254 -0.1597 -0.1342
  391MPD2    C2 5894   0.424   1.010  11.138 -0.1977  0.8593  0.0511
  391MPD2    C3 5895   0.339   0.973  11.041  0.1984 -0.2026  0.1099
  391MPD2    C4 5896   0.214   0.928  11.082 -0.1011  0.5459 -0.0588
  391MPD2    C5 5897   0.176   0.928  11.211  0.3640  0.3031 -0.2880
  391MPD2     H 5898   0.524   1.042  11.112 -0.3418 -0.2572 -1.9394
  391MPD2    H1 5899   0.134   0.896  11.017 -1.2983  2.4219  0.4862
  391MPD2    H2 5900   0.235   0.942  11.416  0.5050  1.7663  0.2697
  391MPD2    H3 5901   0.075   0.894  11.232  1.5057 -2.3837  0.8697
  391MPD2     N 5902   0.380   0.977  10.907  0.7104  0.5511  0.0215
  391MPD2    H5 5903   0.478   1.000  10.888  0.9151 -1.1028 -0.8851
  391MPD2    N1 5904   0.483   1.046  11.381 -0.1367  0.3550 -0.2898
  391MPD2    H7 5905   0.459   1.019  11.476  1.8554  2.2508  0.7773
  392TMC3    C1 5906   0.378   0.969  10.665  0.7199  0.8825  0.2677
  392TMC3    C2 5907   0.299   0.994  10.559  0.1636 -1.0493 -0.3368
  392TMC3    C3 5908   0.360   1.026  10.439  0.8247 -0.3028 -0.2177
  392TMC3    C4 5909   0.514   0.969  10.661  0.4933  0.2576 -0.0440
  392TMC3    C5 5910   0.576   1.000  10.544 -0.2016 -0.4010  0.5950
  392TMC3    C6 5911   0.501   1.035  10.435  0.4554 -0.1168  0.4276
  392TMC3     C 5912   0.303   0.963  10.794  0.0251  0.5508 -0.0141
  392TMC3     O 5913   0.183   0.960  10.785  0.3299  0.4062 -0.1290
  392TMC3     H 5914   0.190   0.998  10.564  0.2379  0.8934 -0.2767
  392TMC3    H1 5915   0.575   0.980  10.750  0.0339 -0.7256  0.3857
  392TMC3    H2 5916   0.563   1.061  10.350  0.1323 -1.1416 -0.1355
  392TMC3    C7 5917   0.701   1.076  10.558  0.5000 -0.6027 -0.0721
  392TMC3    C8 5918   0.273   1.071  10.335  0.1949 -0.0089 -0.1226
  392TMC3    O1 5919   0.714   1.150  10.655  0.0697 -0.3623  0.9808
  392TMC3    O2 5920   0.167   1.014  10.327  0.1378  0.4206 -0.0206
  393TMC3    C1 5921   4.098   3.837  11.010 -0.0662 -0.1027 -0.6395
  393TMC3    C2 5922   4.013   3.741  10.948 -0.5304  0.2948  1.3532
  393TMC3    C3 5923   3.986   3.620  11.007 -0.1859  0.0937  0.7606
  393TMC3    C4 5924   4.159   3.804  11.130  0.1414 -0.2985  0.1282
  393TMC3    C5 5925   4.135   3.678  11.181  0.5212  0.4561 -0.0136
  393TMC3    C6 5926   4.038   3.594  11.131  0.2582  0.6535 -0.1282
  393TMC3     C 5927   4.108   3.968  10.939 -0.8507 -0.1958 -0.0742
  393TMC3     O 5928   4.093   3.962  10.817 -0.3472 -0.1949  0.4280
  393TMC3     H 5929   3.966   3.770  10.854  0.3641 -1.9509  0.2141
  393TMC3    H1 5930   4.235   3.871  11.169 -0.1856 -1.0029  1.9919
  393TMC3    H2 5931   4.001   3.505  11.182  1.9130 -0.3138 -0.6268
  393TMC3    C7 5932   4.148   3.667  11.321 -0.6366 -0.1455 -0.1569
  393TMC3    C8 5933   3.872   3.542  10.974  1.0920 -0.6727 -1.0461
  393TMC3    O1 5934   4.061   3.604  11.381  0.5527 -0.4385  0.2152
  393TMC3    O2 5935   3.814   3.474  11.058  0.0889  0.1107  0.5152
  394TMC3    C1 5936   0.830   4.596  11.309  0.6053 -0.7887 -0.5961
  394TMC3    C2 5937   0.705   4.596  11.260 -0.3149 -0.2673 -0.7066
  394TMC3    C3 5938   0.670   4.660  11.141 -0.1011 -0.6986  0.5819
  394TMC3    C4 5939   0.925   4.676  11.243  0.4982 -0.6828 -0.4383
  394TMC3    C5 5940   0.896   4.734  11.118  0.2964  0.8646 -0.2056
  394TMC3    C6 5941   0.767   4.727  11.076 -0.0644 -0.8683  0.1433
  394TMC3     C 5942   0.874   4.503  11.414  0.1575  0.4929 -0.5168
  394TMC3     O 5943   0.798   4.412  11.447  0.0450 -0.1731  0.0241
  394TMC3     H 5944   0.623   4.536  11.297  0.2349  0.4305  1.6176
  394TMC3    H1 5945   1.018   4.690  11.297 -0.7798 -1.0026  1.8725
  394TMC3    H2 5946   0.745   0.021  10.975 -0.4765  0.2070  0.5653
  394TMC3    C7 5947   1.006   0.051  11.037  0.6118  0.4645 -0.3406
  394TMC3    C8 5948   0.604   4.568  11.052  0.6199 -0.7660  0.1691
  394TMC3    O1 5949   0.968   0.124  10.947  0.0849  0.4276  0.0668
  394TMC3    O2 5950   0.657   4.460  11.024  0.0084 -0.1890  0.1088
  395TMC3    C1 5951   0.121   1.472  14.604  0.9516  0.0335  0.5032
  395TMC3    C2 5952   0.083   1.583  14.531  0.7961  0.1710 -0.3311
  395TMC3    C3 5953   0.133   1.701  14.570 -0.2200  0.0780 -0.1120
  395TMC3    C4 5954   0.232   1.477  14.690 -0.5362  0.1134  0.2720
  395TMC3    C5 5955   0.273   1.601  14.728 -0.0968 -0.5265  0.0981
  395TMC3    C6 5956   0.226   1.712  14.673  0.1940  0.5711  0.2387
  395TMC3     C 5957   0.064   1.343  14.568  0.5483  0.7910 -0.1260
  395TMC3     O 5958   0.028   1.333  14.453 -0.2350  0.1554 -0.1697
  395TMC3     H 5959   0.013   1.578  14.449  1.0248 -1.1561 -0.4349
  395TMC3    H1 5960   0.280   1.399  14.747  0.2367  0.8084  0.5645
  395TMC3    H2 5961   0.265   1.811  14.696  1.5836 -0.4802  2.3602
  395TMC3    C7 5962   0.408   1.613  14.769  0.2438  0.0640  0.0556
  395TMC3    C8 5963   0.115   1.817  14.490  0.3599  0.2652  0.2808
  395TMC3    O1 5964   0.444   1.719  14.818  0.1220 -0.0963 -0.2257
  395TMC3    O2 5965   0.141   1.922  14.545  0.0239 -0.1316  0.1101
  396MPD2     C 5966   0.116   2.244  17.161  0.3422  0.3571  0.0084
  396MPD2    C1 5967   0.250   2.225  17.173 -0.0002 -0.0982 -0.0538
  396MPD2    C2 5968   0.336   2.309  17.106 -0.6358 -1.0389  0.7106
  396MPD2    C3 5969   0.289   2.408  17.025 -0.4076 -0.5680  0.0089
  396MPD2    C4 5970   0.151   2.423  17.000 -0.2260  0.1771  0.3146
  396MPD2    C5 5971   0.067   2.340  17.067 -0.0940 -0.1248 -0.0221
  396MPD2     H 5972   0.444   2.299  17.110 -0.4307  0.2483 -1.5316
  396MPD2    H1 5973   0.106   2.491  16.929  2.0175  1.9559  0.5850
  396MPD2    H2 5974   0.040   2.198  17.223  1.3778 -0.1553  0.8948
  396MPD2    H3 5975   4.698   2.361  17.062 -0.0639  0.1748  0.5889
  396MPD2     N 5976   0.388   2.466  16.947 -0.0333 -0.2331  0.0023
  396MPD2    H5 5977   0.486   2.459  16.975 -0.0527 -0.5103 -0.0016
  396MPD2    N1 5978   0.296   2.115  17.247  0.4676  0.4134 -0.0119
  396MPD2    H7 5979   0.223   2.068  17.298  0.1086  0.1399 -0.7781
  397TMC3    C1 5980   0.430   1.913  17.287  0.8819  0.2488  0.2402
  397TMC3    C2 5981   0.538   1.841  17.239 -0.3874  0.3053 -0.0615
  397TMC3    C3 5982   0.526   1.725  17.182  0.5983  0.5568 -0.1300
  397TMC3    C4 5983   0.304   1.851  17.280  0.1182  0.7008  0.0046
  397TMC3    C5 5984   0.302   1.722  17.248 -0.5232  0.4559  0.1336
  397TMC3    C6 5985   0.406   1.667  17.182  0.0389  0.0162  0.1025
  397TMC3     C 5986   0.419   2.053  17.240 -0.2960  0.2554 -1.4279
  397TMC3     O 5987   0.517   2.087  17.179  0.5940  0.3265 -0.2801
  397TMC3     H 5988   0.629   1.897  17.218 -1.4326  1.3817 -1.7169
  397TMC3    H1 5989   0.211   1.900  17.307  0.0451  1.0140 -0.8236
  397TMC3    H2 5990   0.403   1.561  17.158  2.7121  0.0560 -0.3321
  397TMC3    C7 5991   0.188   1.638  17.289  0.3206  0.0523 -0.0938
  397TMC3    C8 5992   0.634   1.630  17.188 -0.1531  0.4028 -0.2464
  397TMC3    O1 5993   0.170   1.527  17.234  0.0877 -0.3671 -0.5459
  397TMC3    O2 5994   0.605   1.522  17.246 -0.0199  0.3950 -0.5079
  398MPD2     C 5995   3.329   3.767   0.376  0.5351 -0.3311 -0.1868
  398MPD2    C1 5996   3.441   3.693   0.408  0.2284 -0.2480  0.7565
  398MPD2    C2 5997   3.557   3.754   0.440 -0.2381 -0.1614  0.3812
  398MPD2    C3 5998   3.576   3.891   0.422  0.0832 -0.3856 -0.2613
  398MPD2    C4 5999   3.469   3.961   0.384  0.7201  0.0742 -0.3301
  398MPD2    C5 6000   3.343   3.901   0.363 -0.5638  0.0744 -0.0735
  398MPD2     H 6001   3.638   3.698   0.485 -0.1409  0.6470  1.2134
  398MPD2    H1 6002   3.474   4.067   0.362  2.5231  0.6348  2.7833
  398MPD2    H2 6003   3.231   3.720   0.366  0.0979  1.0568 -2.4524
  398MPD2    H3 6004   3.252   3.951   0.333 -1.7066 -1.6568  0.5317
  398MPD2     N 6005   3.702   3.944   0.447  0.1377  0.2637  0.1685
  398MPD2    H5 6006   3.763   3.881   0.498 -0.6167 -0.5243  0.0836
  398MPD2    N1 6007   3.435   3.553   0.423 -0.1940 -0.2452  0.0458
  398MPD2    H7 6008   3.525   3.510   0.442  0.0672  0.1241 -0.3741
  399TMC3    C1 6009   3.367   3.326   0.382  1.2833  0.3906  0.3482
  399TMC3    C2 6010   3.482   3.290   0.452 -0.1754  0.4789 -0.2306
  399TMC3    C3 6011   3.500   3.157   0.489  0.0159  0.4482  0.1159
  399TMC3    C4 6012   3.278   3.228   0.342  0.2183  0.0904 -0.0827
  399TMC3    C5 6013   3.298   3.099   0.380  0.0054 -0.4761 -0.2196
  399TMC3    C6 6014   3.406   3.063   0.465  0.4517  0.2505  0.0886
  399TMC3     C 6015   3.333   3.464   0.376  0.1955 -0.2563 -0.1983
  399TMC3     O 6016   3.221   3.486   0.333 -0.2284  0.1781 -0.0712
  399TMC3     H 6017   3.535   3.366   0.507 -0.6268  0.7929 -0.2260
  399TMC3    H1 6018   3.181   3.258   0.304 -0.6187 -2.4239  0.1272
  399TMC3    H2 6019   3.422   2.957   0.486 -1.1980  0.1678  0.9035
  399TMC3    C7 6020   3.188   3.008   0.370 -0.1067 -0.5369  0.1338
  399TMC3    C8 6021   3.627   3.133   0.562  0.1948  0.4346 -0.4112
  399TMC3    O1 6022   3.174   2.916   0.450 -0.2906  0.2027  0.7392
  399TMC3    O2 6023   3.688   3.230   0.612  0.2700 -0.1073 -0.2714
  400TMC3    C1 6024   2.043   1.254  16.948  0.1941 -0.2152  0.0557
  400TMC3    C2 6025   1.951   1.224  16.856 -0.2990  0.3680 -0.3552
  400TMC3    C3 6026   1.895   1.331  16.785 -0.0223  0.8248 -0.2929
  400TMC3    C4 6027   2.071   1.381  16.987 -0.3463  0.9238  0.2786
  400TMC3    C5 6028   1.998   1.484  16.930  0.9587 -0.1549 -0.9060
  400TMC3    C6 6029   1.909   1.461  16.835  0.0787  0.3815 -0.3970
  400TMC3     C 6030   2.049   1.168  17.064  0.3922 -0.6131  0.0331
  400TMC3     O 6031   2.050   1.047  17.039  0.0192  0.4021  0.1460
  400TMC3     H 6032   1.926   1.119  16.844 -0.4848  0.3410  0.2697
  400TMC3    H1 6033   2.163   1.402  17.039  0.1761  2.6935 -1.3411
  400TMC3    H2 6034   1.870   1.537  16.767 -1.4327 -2.0500 -2.2248
  400TMC3    C7 6035   1.986   1.593  17.015 -0.6233 -0.2621 -0.0157
  400TMC3    C8 6036   1.790   1.310  16.692  0.1554 -0.0544  0.2641
  400TMC3    O1 6037   2.055   1.588  17.117 -0.2743 -0.3611 -0.2125
  400TMC3    O2 6038   1.723   1.406  16.648  0.4394 -0.2674 -0.2231
  401MPD2     C 6039   4.210   0.852  17.246 -0.4784 -0.7756 -0.3463
  401MPD2    C1 6040   4.184   0.807  17.374 -0.5002 -0.2632  0.4806
  401MPD2    C2 6041   4.229   0.682  17.408  0.0246  0.1898 -0.2864
  401MPD2    C3 6042   4.308   0.606  17.326 -0.0009  0.2398 -0.0062
  401MPD2    C4 6043   4.340   0.650  17.197 -0.1624  0.2120 -0.1664
  401MPD2    C5 6044   4.298   0.778  17.167 -1.0324  0.4694  0.2252
  401MPD2     H 6045   4.206   0.643  17.507  1.5107  2.8621  1.0810
  401MPD2    H1 6046   4.397   0.598  17.121  0.3567  3.7248 -2.1900
  401MPD2    H2 6047   4.156   0.937  17.207  0.0249 -0.7484 -0.9928
  401MPD2    H3 6048   4.307   0.812  17.064  1.1299 -1.6604 -0.2976
  401MPD2     N 6049   4.343   0.480  17.376 -0.2437  0.0406 -0.4854
  401MPD2    H5 6050   4.321   0.466  17.474  1.4633  1.7474  0.1275
  401MPD2    N1 6051   4.105   0.872  17.468 -0.5716 -0.1976  0.0415
  401MPD2    H7 6052   4.073   0.825  17.553 -0.2073 -0.0273  0.2736
  402TMC3    C1 6053   4.413   0.256  17.381 -0.5154 -0.2150 -0.7345
  402TMC3    C2 6054   4.387   0.264  17.513 -0.2450  0.0669  0.2744
  402TMC3    C3 6055   4.461   0.193  17.597 -0.0776  0.5553 -0.2226
  402TMC3    C4 6056   4.515   0.176  17.335  0.5533  0.7313 -0.2013
  402TMC3    C5 6057   4.589   0.109  17.428  0.4387 -0.0584 -0.5618
  402TMC3    C6 6058   4.568   0.124  17.564 -0.1983  0.2059  1.0471
  402TMC3     C 6059   4.387   0.375  17.300  0.5799  0.4515 -0.2733
  402TMC3     O 6060   4.414   0.369  17.182 -0.3159  0.3374 -0.5928
  402TMC3     H 6061   4.293   0.304  17.549  0.3213  1.4007  0.2946
  402TMC3    H1 6062   4.545   0.173  17.231 -0.9044  0.7803 -0.6297
  402TMC3    H2 6063   4.607   0.050  17.633  1.8958  0.4095  0.0930
  402TMC3    C7 6064   4.679   0.007  17.383  0.7325  0.4442 -0.5248
  402TMC3    C8 6065   4.427   0.200  17.739 -0.7923  0.8460  0.3974
  402TMC3    O1 6066   4.641   4.674  17.290  1.2375  0.1499  0.4684
  402TMC3    O2 6067   4.325   0.260   0.031  0.1250  0.5604  0.2294
  403MPD2     C 6068   3.304   3.321  13.708  0.0159  0.2731  0.5891
  403MPD2    C1 6069   3.340   3.197  13.762  0.6290 -0.5470 -0.2819
  403MPD2    C2 6070   3.439   3.189  13.856 -0.3832  0.2934  0.5051
  403MPD2    C3 6071   3.511   3.301  13.886  0.2557  0.1845 -0.5903
  403MPD2    C4 6072   3.474   3.423  13.837  0.2832  0.3776  0.2121
  403MPD2    C5 6073   3.385   3.433  13.740  0.0064 -0.3326  0.5121
  403MPD2     H 6074   3.460   3.095  13.905 -0.4585  0.2168  0.3904
  403MPD2    H1 6075   3.530   3.514  13.857  0.4835  0.4111 -0.4820
  403MPD2    H2 6076   3.233   3.338  13.629  0.7397 -3.7441 -0.9011
  403MPD2    H3 6077   3.357   3.523  13.688 -0.6664 -2.7600 -3.3541
  403MPD2     N 6078   3.609   3.306  13.983 -0.1644 -0.0113 -0.2587
  403MPD2    H5 6079   3.640   3.392  14.026 -0.1610  0.5501 -1.3988
  403MPD2    N1 6080   3.263   3.083  13.729  0.1556  0.3568 -0.0156
  403MPD2    H7 6081   3.302   2.996  13.764 -0.7165 -0.0040  0.0703
  404TMC3    C1 6082   3.097   2.941  13.642 -0.3474  0.2356 -0.1867
  404TMC3    C2 6083   3.110   2.874  13.758 -0.2763  0.2366  0.2026
  404TMC3    C3 6084   3.089   2.743  13.748 -0.4354 -0.8673 -0.4082
  404TMC3    C4 6085   3.047   2.895  13.521  0.6666 -0.7335 -0.2807
  404TMC3    C5 6086   3.025   2.758  13.517  0.6659 -0.3477  0.0590
  404TMC3    C6 6087   3.053   2.687  13.632 -0.0714  0.8645  0.4930
  404TMC3     C 6088   3.150   3.077  13.648 -0.6502 -0.2544  0.2063
  404TMC3     O 6089   3.092   3.159  13.575  0.6338  0.3259  0.4737
  404TMC3     H 6090   3.134   2.927  13.849  1.2541 -2.6568  1.4771
  404TMC3    H1 6091   3.021   2.964  13.441  2.7703 -0.8241 -1.0410
  404TMC3    H2 6092   3.054   2.579  13.628 -0.5405  0.8912 -0.3325
  404TMC3    C7 6093   2.942   2.697  13.420 -0.1821  0.0416  0.4146
  404TMC3    C8 6094   3.129   2.652  13.854 -0.1443 -0.3157 -0.5595
  404TMC3    O1 6095   2.915   2.581  13.444  0.1580  0.3174  0.8602
  404TMC3    O2 6096   3.149   2.531  13.823  0.3812  0.2880  0.5718
  405MPD2     C 6097   3.626   4.212  15.165 -0.3257 -0.2067 -0.0871
  405MPD2    C1 6098   3.586   4.109  15.078 -0.0212 -0.0296 -0.4014
  405MPD2    C2 6099   3.465   4.125  15.028  0.3158  0.7364 -0.3035
  405MPD2    C3 6100   3.382   4.225  15.054 -0.2547  0.3235  0.2449
  405MPD2    C4 6101   3.423   4.332  15.132 -0.3820 -0.1117  0.1998
  405MPD2    C5 6102   3.546   4.327  15.184 -0.0787 -0.4632 -0.6055
  405MPD2     H 6103   3.431   4.042  14.967 -0.6019  0.0714  1.1217
  405MPD2    H1 6104   3.373   4.425  15.155  1.1426  0.4613  1.2268
  405MPD2    H2 6105   3.725   4.207  15.210  0.0186 -0.2848 -0.8503
  405MPD2    H3 6106   3.586   4.407  15.245 -0.0622 -1.3090  0.4885
  405MPD2     N 6107   3.258   4.234  14.986 -0.2250 -0.1509  0.1688
  405MPD2    H5 6108   3.235   4.160  14.920  2.0297 -0.5300 -0.1622
  405MPD2    N1 6109   3.663   3.990  15.070  0.2032  0.1396  0.6029
  405MPD2    H7 6110   3.757   3.983  15.107  0.7502 -0.9775 -0.9697
  406TMC3    C1 6111   2.855   4.332  14.795  0.0360 -0.1260 -0.6819
  406TMC3    C2 6112   2.830   4.196  14.772  0.0006  0.1520  0.1907
  406TMC3    C3 6113   2.902   4.108  14.857  0.4465  0.0703 -0.2500
  406TMC3    C4 6114   2.963   4.381  14.873  0.1587 -0.5486  0.2073
  406TMC3    C5 6115   3.043   4.288  14.933 -0.3797 -1.4050  0.4745
  406TMC3    C6 6116   3.021   4.153  14.923  0.1929 -0.0613 -0.3261
  406TMC3     C 6117   2.785   4.425  14.702 -0.0023 -0.2245  1.5200
  406TMC3     O 6118   2.767   4.542  14.732 -0.4020 -0.3473  0.0777
  406TMC3     H 6119   2.745   4.158  14.716 -1.4920  0.6199  2.1110
  406TMC3    H1 6120   2.990   4.486  14.866  1.8386 -1.0943 -1.6143
  406TMC3    H2 6121   3.053   4.088  15.004  1.7774  1.1874  0.0449
  406TMC3    C7 6122   3.164   4.332  14.999 -0.3698 -0.5537 -0.1204
  406TMC3    C8 6123   2.898   3.963  14.833 -0.4417  0.5131  0.2701
  406TMC3    O1 6124   3.165   4.438  15.061  0.0694  0.7354  0.3237
  406TMC3    O2 6125   2.799   3.906  14.792  0.0582 -0.5659 -0.1999
  407MPD2     C 6126   1.215   1.180   9.927 -0.3037 -0.1407  0.8414
  407MPD2    C1 6127   1.321   1.119   9.996 -0.9202 -0.2682 -0.5973
  407MPD2    C2 6128   1.392   1.201  10.085 -0.6875 -0.0748 -0.3925
  407MPD2    C3 6129   1.350   1.330  10.112  0.6563  0.0309 -0.4070
  407MPD2    C4 6130   1.241   1.383  10.059 -0.3379  0.1310  0.6730
  407MPD2    C5 6131   1.175   1.306   9.968  0.5806 -0.2091  0.2619
  407MPD2     H 6132   1.484   1.169  10.132 -0.4550  0.8265 -0.2436
  407MPD2    H1 6133   1.219   1.487  10.080 -0.3941  0.0085  1.2104
  407MPD2    H2 6134   1.166   1.124   9.849  0.2795  0.8008 -0.1939
  407MPD2    H3 6135   1.091   1.355   9.919  1.7901 -0.4287 -2.0470
  407MPD2     N 6136   1.432   1.415  10.190 -0.0574  0.6250 -0.0310
  407MPD2    H5 6137   1.397   1.509  10.185 -2.3947 -0.1854  1.3254
  407MPD2    N1 6138   1.378   0.996   9.969 -0.3211 -0.6012  0.1204
  407MPD2    H7 6139   1.470   0.983  10.010 -0.7615 -0.4459  1.1638
  408TMC3    C1 6140   1.423   0.797   9.867 -0.1013  0.1466  1.0616
  408TMC3    C2 6141   1.549   0.826   9.833  0.0598 -0.4816 -0.8031
  408TMC3    C3 6142   1.644   0.728   9.809  0.4930  0.4206 -0.2785
  408TMC3    C4 6143   1.384   0.661   9.870  0.0636 -0.0511  0.1973
  408TMC3    C5 6144   1.476   0.567   9.844 -0.1286  0.0062  0.8196
  408TMC3    C6 6145   1.606   0.596   9.815 -0.1583 -0.3669 -0.0316
  408TMC3     C 6146   1.325   0.900   9.892 -0.4755 -0.8308  0.9809
  408TMC3     O 6147   1.215   0.887   9.844  0.2610  0.3153  0.3856
  408TMC3     H 6148   1.582   0.929   9.830 -1.5721  0.0384 -0.5774
  408TMC3    H1 6149   1.283   0.636   9.899 -0.5757  1.8635 -0.3713
  408TMC3    H2 6150   1.677   0.516   9.795  0.2889 -0.6520  2.5666
  408TMC3    C7 6151   1.444   0.428   9.870  0.3494  0.4619 -0.0665
  408TMC3    C8 6152   1.782   0.747   9.840  0.2812  0.2991 -0.0567
  408TMC3    O1 6153   1.525   0.339   9.844  0.8390  0.0723  0.0366
  408TMC3    O2 6154   1.848   0.652   9.875 -0.1256  0.2279 -0.1161
  409MPD2     C 6155   0.338   1.316  16.925  0.5727 -0.1292 -0.5661
  409MPD2    C1 6156   0.441   1.222  16.922  0.2890 -0.0861 -0.6564
  409MPD2    C2 6157   0.571   1.266  16.903 -0.0700 -0.1644  0.2717
  409MPD2    C3 6158   0.602   1.403  16.890 -0.1581 -0.5818  0.1915
  409MPD2    C4 6159   0.497   1.489  16.891 -0.0819  0.5224 -0.3823
  409MPD2    C5 6160   0.368   1.448  16.914 -0.1284 -0.1035 -0.5332
  409MPD2     H 6161   0.642   1.186  16.910 -0.0177 -0.2402 -1.0436
  409MPD2    H1 6162   0.508   1.596  16.881 -0.1712  0.5865  0.2342
  409MPD2    H2 6163   0.236   1.283  16.917  0.1869  0.9925 -0.3121
  409MPD2    H3 6164   0.293   1.526  16.918  1.6902  1.5201  1.8034
  409MPD2     N 6165   0.731   1.460  16.860 -0.4699  0.3481  0.5612
  409MPD2    H5 6166   0.721   1.559  16.839 -0.5581 -0.0662 -1.3459
  409MPD2    N1 6167   0.419   1.079  16.937 -0.4037 -0.3159 -0.0300
  409MPD2    H7 6168   0.501   1.021  16.950 -1.1493 -1.7368 -1.7168
  410TMC3    C1 6169   0.973   1.480  16.853  0.0458 -0.6065  0.0566
  410TMC3    C2 6170   1.095   1.424  16.849  0.2451  0.1928  0.2032
  410TMC3    C3 6171   1.194   1.497  16.794  0.5552  0.0282 -1.0376
  410TMC3    C4 6172   0.951   1.596  16.779  0.2751 -0.1918 -0.2605
  410TMC3    C5 6173   1.052   1.655  16.714  0.9286 -0.3803 -0.5702
  410TMC3    C6 6174   1.183   1.615  16.736 -0.6816  0.1262  0.0878
  410TMC3     C 6175   0.852   1.399  16.874 -0.0123 -0.6058 -0.5098
  410TMC3     O 6176   0.877   1.289  16.922 -0.4033 -0.5589  0.4729
  410TMC3     H 6177   1.111   1.333  16.904 -1.2020  0.5183  1.1792
  410TMC3    H1 6178   0.855   1.636  16.750  0.1262  0.2408  0.8355
  410TMC3    H2 6179   1.268   1.659  16.685 -0.3889  1.3354  1.6044
  410TMC3    C7 6180   1.014   1.681  16.577  0.0273 -0.8233 -0.1274
  410TMC3    C8 6181   1.337   1.463  16.821  0.1310  0.2379  0.1576
  410TMC3    O1 6182   0.909   1.631  16.539 -0.2519 -0.1143  0.2008
  410TMC3    O2 6183   1.416   1.559  16.820 -0.0880  0.6564 -0.1303
  411MPD2     C 6184   1.181   2.060  14.814  0.8869 -0.0643 -0.2257
  411MPD2    C1 6185   1.044   2.058  14.850  0.4506 -0.2306  0.4067
  411MPD2    C2 6186   0.951   1.991  14.774  0.0129 -0.6281 -1.2198
  411MPD2    C3 6187   0.990   1.926  14.664  0.5648  0.6459  0.6171
  411MPD2    C4 6188   1.130   1.914  14.636  0.0102 -0.0086 -0.1076
  411MPD2    C5 6189   1.221   1.985  14.709 -0.1400  0.4604  0.4971
  411MPD2     H 6190   0.847   1.992  14.804  0.3624  1.2280 -0.0388
  411MPD2    H1 6191   1.170   1.870  14.545 -0.9449  0.1700 -0.6117
  411MPD2    H2 6192   1.248   2.125  14.868  0.8244  0.4417 -0.7538
  411MPD2    H3 6193   1.323   1.982  14.675  0.4861  1.0267  2.3077
  411MPD2     N 6194   0.897   1.871  14.576 -0.4397 -0.0863  0.2574
  411MPD2    H5 6195   0.940   1.839  14.489  1.9583  3.9410 -0.0261
  411MPD2    N1 6196   1.009   2.139  14.962 -0.6910 -0.3504  0.4811
  411MPD2    H7 6197   1.069   2.213  14.997 -2.6128  0.6249  1.7325
  412TMC3    C1 6198   0.708   1.841  14.455  0.1116 -0.0774  0.2761
  412TMC3    C2 6199   0.758   1.900  14.343  0.2619 -0.3158  0.4126
  412TMC3    C3 6200   0.691   1.866  14.228  0.8742  0.7147  0.1650
  412TMC3    C4 6201   0.586   1.775  14.465 -0.9919  0.3170 -0.0974
  412TMC3    C5 6202   0.516   1.752  14.345  0.1748  0.2994  0.6321
  412TMC3    C6 6203   0.570   1.792  14.231 -0.0679 -0.6722  0.1709
  412TMC3     C 6204   0.759   1.885  14.581 -0.0066 -0.2340  0.1805
  412TMC3     O 6205   0.674   1.909  14.671 -0.4062  0.1484 -0.3312
  412TMC3     H 6206   0.837   1.973  14.351  1.5255 -1.2156 -4.0807
  412TMC3    H1 6207   0.554   1.731  14.558  4.1378 -2.3621  0.3797
  412TMC3    H2 6208   0.512   1.777  14.140  3.4830 -0.6087 -2.1219
  412TMC3    C7 6209   0.499   1.605  14.338  0.7823  0.4621  0.1772
  412TMC3    C8 6210   0.777   1.819  14.119  0.3991  0.7773 -0.0818
  412TMC3    O1 6211   0.444   1.545  14.427 -0.7262 -0.5807  0.0537
  412TMC3    O2 6212   0.752   1.709  14.079  0.2465  0.2526 -0.2500
  413MPD2     C 6213   2.942   0.763  15.555 -0.5994 -0.3681 -0.6081
  413MPD2    C1 6214   2.874   0.650  15.515 -0.0495  0.4238 -0.5590
  413MPD2    C2 6215   2.938   0.554  15.444  0.2896 -0.1303  0.3416
  413MPD2    C3 6216   3.073   0.569  15.423 -0.7970 -0.3079  0.8594
  413MPD2    C4 6217   3.139   0.674  15.475 -0.6181 -0.0186  0.5340
  413MPD2    C5 6218   3.070   0.771  15.545 -0.1706  0.2485  0.4365
  413MPD2     H 6219   2.889   0.463  15.409 -0.5407  0.3199  0.3453
  413MPD2    H1 6220   3.244   0.688  15.451 -0.3876 -1.2406  0.8405
  413MPD2    H2 6221   2.892   0.846  15.603 -0.4416  0.2004 -1.4248
  413MPD2    H3 6222   3.120   0.862  15.576  2.7882 -0.9070 -0.8504
  413MPD2     N 6223   3.134   0.461  15.365 -0.2703 -0.2362  0.1804
  413MPD2    H5 6224   3.073   0.389  15.329  0.2591  0.0777 -1.3681
  413MPD2    N1 6225   2.735   0.652  15.533 -0.4257  0.3031 -0.0349
  413MPD2    H7 6226   2.697   0.690  15.620  0.7098  0.6364  0.3192
  414TMC3    C1 6227   3.297   0.305  15.311  0.3147  0.1168  0.2734
  414TMC3    C2 6228   3.354   0.205  15.390  0.4442  0.5766 -0.3062
  414TMC3    C3 6229   3.323   0.079  15.347  0.8417  0.9451 -0.0471
  414TMC3    C4 6230   3.230   0.283  15.195  0.4482  0.0367  0.0828
  414TMC3    C5 6231   3.209   0.154  15.151  0.0473 -0.4027  0.7735
  414TMC3    C6 6232   3.261   0.049  15.227 -0.2564 -0.3858 -0.6375
  414TMC3     C 6233   3.263   0.423  15.380 -0.0468 -0.4652 -0.7254
  414TMC3     O 6234   3.353   0.475  15.449  0.2497  0.6337 -0.2679
  414TMC3     H 6235   3.388   0.229  15.490 -1.6363 -1.6419  0.9493
  414TMC3    H1 6236   3.195   0.369  15.138  1.7514 -1.0915 -2.4214
  414TMC3    H2 6237   3.255   4.688  15.180 -0.0557 -0.3044 -0.8298
  414TMC3    C7 6238   3.138   0.137  15.024  0.4650  0.0414 -0.2910
  414TMC3    C8 6239   3.362   4.702  15.416 -0.5642  0.3244 -0.1116
  414TMC3    O1 6240   3.049   0.221  15.001  0.3113  0.7393 -0.5941
  414TMC3    O2 6241   3.301   4.604  15.369 -0.6562 -0.1548  0.1390
  415TMC3    C1 6242   4.023   3.235  10.692 -0.3541  0.1770  0.0688
  415TMC3    C2 6243   4.113   3.315  10.632 -0.1601  0.1072  0.3978
  415TMC3    C3 6244   4.104   3.325  10.499 -0.1766  0.2865 -0.2812
  415TMC3    C4 6245   3.942   3.160  10.618  0.5777  0.1276  0.4572
  415TMC3    C5 6246   3.936   3.172  10.483  0.2620  0.1005 -0.2571
  415TMC3    C6 6247   4.009   3.259  10.423 -0.1193  0.5055  0.0377
  415TMC3     C 6248   4.013   3.213  10.837 -0.1456 -0.0043  0.4732
  415TMC3     O 6249   3.944   3.119  10.869 -0.0988  0.3462  0.1066
  415TMC3     H 6250   4.197   3.351  10.690  1.1363  0.5661 -1.8208
  415TMC3    H1 6251   3.881   3.086  10.668 -1.9185  1.7112 -0.2673
  415TMC3    H2 6252   4.001   3.285  10.318  0.6036  0.4070 -0.0427
  415TMC3    C7 6253   3.814   3.129  10.419 -0.8051  0.2391  0.2189
  415TMC3    C8 6254   4.215   3.373  10.421  0.7922 -0.4127 -0.0786
  415TMC3    O1 6255   3.788   3.196  10.321 -0.1475 -0.1428  0.6077
  415TMC3    O2 6256   4.230   3.321  10.309 -0.2325  0.3940  0.3549
  416MPD2     C 6257   0.629   2.324  11.514 -0.1112 -0.5097 -0.7633
  416MPD2    C1 6258   0.590   2.195  11.544 -0.1055 -0.3840  0.2533
  416MPD2    C2 6259   0.630   2.091  11.456  0.1038 -0.2939  0.5485
  416MPD2    C3 6260   0.685   2.115  11.331 -0.1365 -0.4780  0.4815
  416MPD2    C4 6261   0.715   2.251  11.297 -0.3727  0.3499  0.3158
  416MPD2    C5 6262   0.699   2.341  11.396  0.1956  0.1520  0.2682
  416MPD2     H 6263   0.586   1.993  11.473 -0.4614 -0.9102 -4.5883
  416MPD2    H1 6264   0.772   2.283  11.211 -1.3729 -0.6601 -0.7052
  416MPD2    H2 6265   0.603   2.405  11.580  0.9664  0.0040 -0.9748
  416MPD2    H3 6266   0.719   2.443  11.365 -0.3200  0.3612  0.6330
  416MPD2     N 6267   0.692   2.006  11.234 -0.0850  0.3407  0.3752
  416MPD2    H5 6268   0.655   1.918  11.267  2.1995 -0.4322  0.8704
  416MPD2    N1 6269   0.511   2.175  11.653 -0.4643  0.1543  0.2297
  416MPD2    H7 6270   0.450   2.253  11.675  0.6199  0.8030  0.9656
  417TMC3    C1 6271   0.317   2.063  11.724 -0.6688 -0.1468  0.2925
  417TMC3    C2 6272   0.277   1.981  11.827  0.0067  0.4588  0.0104
  417TMC3    C3 6273   0.146   1.995  11.866 -0.0546 -0.0392 -0.1071
  417TMC3    C4 6274   0.228   2.132  11.643 -0.1203  0.2119 -0.6954
  417TMC3    C5 6275   0.096   2.129  11.689 -0.6242  0.5558  0.3581
  417TMC3    C6 6276   0.060   2.072  11.808 -0.6613 -0.6540  0.2635
  417TMC3     C 6277   0.456   2.054  11.687 -0.0549 -0.1876 -0.1451
  417TMC3     O 6278   0.497   1.943  11.691  0.1324 -0.0062  0.1167
  417TMC3     H 6279   0.357   1.948  11.893 -0.0699  0.3084  0.0275
  417TMC3    H1 6280   0.257   2.196  11.561  1.3445  2.4305  1.5662
  417TMC3    H2 6281   4.696   2.086  11.846 -0.5332 -3.5864  1.7349
  417TMC3    C7 6282   0.043   2.261  11.679 -0.3860  0.2383  0.4291
  417TMC3    C8 6283   0.135   2.015  12.010  0.2078 -0.5190  0.1700
  417TMC3    O1 6284   0.045   2.312  11.566  0.0871 -0.5389  0.4502
  417TMC3    O2 6285   0.058   2.106  12.045 -0.7189 -0.1978  0.6825
  418TMC3    C1 6286   4.093   4.110   0.326 -0.1058  0.0065  0.3370
  418TMC3    C2 6287   3.958   4.113   0.313  0.5441  0.4813 -0.0738
  418TMC3    C3 6288   3.888   4.070   0.423  0.1544  0.6490  0.3706
  418TMC3    C4 6289   4.156   4.049   0.426 -0.3720 -0.0601 -0.6629
  418TMC3    C5 6290   4.084   4.002   0.530 -0.7421 -0.9041  0.1322
  418TMC3    C6 6291   3.949   4.008   0.535 -0.1329 -0.2191 -0.4631
  418TMC3     C 6292   4.170   4.131   0.201  0.4716  0.0973 -0.1627
  418TMC3     O 6293   4.188   4.240   0.150  0.1391  0.3158 -0.1382
  418TMC3     H 6294   3.905   4.140   0.222  2.2832 -1.7155 -1.7609
  418TMC3    H1 6295   4.264   4.048   0.424 -0.3566  0.7964 -0.2177
  418TMC3    H2 6296   3.891   3.991   0.625  0.6689 -0.1854  0.0613
  418TMC3    C7 6297   4.144   3.921   0.628 -0.6820 -0.5835  0.6046
  418TMC3    C8 6298   3.742   4.071   0.409 -0.4678 -0.0568 -0.7758
  418TMC3    O1 6299   4.062   3.855   0.681  0.2600  0.3988  0.3681
  418TMC3    O2 6300   3.691   4.147   0.326  0.1407 -0.2579 -0.2339
  419MPD2     C 6301   2.246   1.663  12.516 -0.1654  0.5475 -0.2714
  419MPD2    C1 6302   2.246   1.798  12.543  0.5204  0.2653  0.2512
  419MPD2    C2 6303   2.175   1.860  12.645 -0.1144 -0.2746  1.0409
  419MPD2    C3 6304   2.108   1.773  12.734  0.2397 -0.3089 -0.1376
  419MPD2    C4 6305   2.103   1.639  12.712  0.3636  0.5924  0.4148
  419MPD2    C5 6306   2.165   1.590  12.601  0.1081  0.0685  0.5058
  419MPD2     H 6307   2.163   1.966  12.660 -1.5251 -0.1652 -0.8379
  419MPD2    H1 6308   2.051   1.564  12.770  0.6793 -0.3220 -0.4658
  419MPD2    H2 6309   2.297   1.606  12.439  2.2258  2.3393 -0.0172
  419MPD2    H3 6310   2.157   1.484  12.581  0.4086  0.3617 -1.1792
  419MPD2     N 6311   2.024   1.839  12.830 -0.4123  0.4585  0.6553
  419MPD2    H5 6312   2.033   1.940  12.824 -1.0170  0.5086  0.5663
  419MPD2    N1 6313   2.325   1.882  12.469  0.6180 -1.0990 -0.8098
  419MPD2    H7 6314   2.331   1.979  12.497  1.9107 -0.9537 -1.5991
  420TMC3    C1 6315   1.934   1.866  13.044  0.3219  0.0156  0.0214
  420TMC3    C2 6316   1.861   1.973  13.007  0.5684 -0.0781 -0.3487
  420TMC3    C3 6317   1.839   2.073  13.102 -0.1541  0.4059 -0.5004
  420TMC3    C4 6318   1.985   1.858  13.170 -0.1274 -0.0030  0.1147
  420TMC3    C5 6319   1.971   1.968  13.253  0.2224  0.7055  0.7606
  420TMC3    C6 6320   1.889   2.073  13.231 -0.0586  0.4328  0.4257
  420TMC3     C 6321   1.985   1.771  12.944  0.4277 -1.0574 -0.4652
  420TMC3     O 6322   2.004   1.657  12.980  0.6002  0.2238  0.0931
  420TMC3     H 6323   1.822   1.981  12.906  2.4674 -0.0011 -1.0784
  420TMC3    H1 6324   2.043   1.770  13.196  0.7775  0.8385  0.9543
  420TMC3    H2 6325   1.857   2.141  13.310  1.4149 -0.4674  1.7898
  420TMC3    C7 6326   2.060   1.983  13.362  0.9071 -0.1909 -0.1002
  420TMC3    C8 6327   1.750   2.180  13.057  0.1922 -0.2306 -0.2133
  420TMC3    O1 6328   2.093   1.877  13.418  0.3484 -0.7344 -0.0772
  420TMC3    O2 6329   1.697   2.159  12.952  0.6745 -0.3432 -0.5665
  421TMC3    C1 6330   3.732   3.210  14.178 -0.4948  0.3378 -0.2553
  421TMC3    C2 6331   3.696   3.324  14.248  0.8115  0.3630 -0.0688
  421TMC3    C3 6332   3.737   3.342  14.376  0.7541  1.0385 -0.5245
  421TMC3    C4 6333   3.802   3.114  14.244  0.4956 -0.0402  0.2337
  421TMC3    C5 6334   3.851   3.140  14.372 -0.2879  0.0602  0.0843
  421TMC3    C6 6335   3.816   3.258  14.435  0.4061  0.6548  0.3020
  421TMC3     C 6336   3.657   3.191  14.047 -0.1133  0.1586  0.2491
  421TMC3     O 6337   3.667   3.075  14.005  0.0943  0.4156 -0.9601
  421TMC3     H 6338   3.655   3.412  14.200 -1.5210 -1.0622 -0.6723
  421TMC3    H1 6339   3.813   3.021  14.189 -0.6658  0.2127 -0.4247
  421TMC3    H2 6340   3.857   3.275  14.534  0.8827 -2.0506  0.5723
  421TMC3    C7 6341   3.982   3.090  14.408 -0.0312 -0.1939 -0.8042
  421TMC3    C8 6342   3.697   3.467  14.454 -0.4463 -0.0304 -0.6134
  421TMC3    O1 6343   4.039   3.148  14.502 -0.3566 -0.4892 -0.4439
  421TMC3    O2 6344   3.782   3.499  14.536 -0.2568  0.3630 -0.3833
  422TMC3    C1 6345   1.049   0.234  12.854  0.2965  0.2091 -0.2867
  422TMC3    C2 6346   1.122   0.350  12.844  0.7046 -0.1132  0.2844
  422TMC3    C3 6347   1.062   0.461  12.788  1.0957  0.1981  0.9420
  422TMC3    C4 6348   0.923   0.226  12.794  0.2418  0.6412 -0.1881
  422TMC3    C5 6349   0.871   0.337  12.733 -0.1270 -0.6026  0.3927
  422TMC3    C6 6350   0.934   0.457  12.736 -0.9166  0.3420 -0.6092
  422TMC3     C 6351   1.129   0.116  12.872  0.3925  0.2756  0.7032
  422TMC3     O 6352   1.141   0.037  12.779 -0.3124  0.1746  0.2058
  422TMC3     H 6353   1.225   0.347  12.877  0.8059 -2.0796 -0.2233
  422TMC3    H1 6354   0.880   0.127  12.785  0.0313  0.8266 -1.2793
  422TMC3    H2 6355   0.888   0.541  12.684  0.6080  0.7204 -1.3335
  422TMC3    C7 6356   0.727   0.337  12.700 -0.1509 -0.2296 -0.0633
  422TMC3    C8 6357   1.138   0.587  12.780  0.8872 -0.5317  0.1438
  422TMC3    O1 6358   0.676   0.431  12.633 -0.3896  0.3709 -0.4086
  422TMC3    O2 6359   1.217   0.609  12.871  0.0689 -0.0637  0.2782
  423MPD2     C 6360   1.593   0.993   0.682 -0.4189 -0.6357  0.6399
  423MPD2    C1 6361   1.723   1.044   0.681  0.4353 -0.5809  0.7077
  423MPD2    C2 6362   1.820   0.982   0.602  0.9858  0.1935  0.1420
  423MPD2    C3 6363   1.796   0.873   0.516 -0.6642 -0.0560  0.5225
  423MPD2    C4 6364   1.669   0.824   0.522 -0.4612 -0.0229 -0.6003
  423MPD2    C5 6365   1.570   0.878   0.602 -0.3372  0.5730  0.5952
  423MPD2     H 6366   1.919   1.025   0.607 -0.2860  3.2336 -0.4725
  423MPD2    H1 6367   1.647   0.733   0.467  1.3022  0.1640 -1.5951
  423MPD2    H2 6368   1.511   1.022   0.746 -0.4102  2.1475 -0.5989
  423MPD2    H3 6369   1.476   0.824   0.607 -0.7063  1.0892 -0.8224
  423MPD2     N 6370   1.889   0.803   0.436  0.0688  0.5915 -0.6296
  423MPD2    H5 6371   1.864   0.717   0.388 -1.2911 -0.7716  2.4961
  423MPD2    N1 6372   1.760   1.163   0.748 -0.1026  0.2351  0.5577
  423MPD2    H7 6373   1.854   1.202   0.746  1.4069 -3.3805  0.8078
  424TMC3    C1 6374   1.734   1.360   0.873 -0.7482  0.4181 -0.6204
  424TMC3    C2 6375   1.856   1.392   0.831  0.2495 -0.0446 -0.4863
  424TMC3    C3 6376   1.931   1.450   0.932  0.1059 -0.6795 -0.1939
  424TMC3    C4 6377   1.677   1.408   0.988  0.2864 -0.1452 -1.1293
  424TMC3    C5 6378   1.748   1.490   1.068  0.2663 -0.4596 -0.3671
  424TMC3    C6 6379   1.876   1.502   1.046  0.2847 -0.4082  0.2804
  424TMC3     C 6380   1.673   1.241   0.816 -0.7098  0.4294 -0.1035
  424TMC3     O 6381   1.551   1.240   0.822  0.0574 -0.7044  0.3572
  424TMC3     H 6382   1.899   1.348   0.742  1.4206 -0.8337  0.4731
  424TMC3    H1 6383   1.584   1.355   1.005  0.5471 -0.3925 -0.4420
  424TMC3    H2 6384   1.939   1.549   1.121 -1.5995 -0.1326  1.6685
  424TMC3    C7 6385   1.693   1.563   1.175 -0.4534  0.3255 -0.2360
  424TMC3    C8 6386   2.040   1.363   0.955  0.2319 -0.3783  0.4661
  424TMC3    O1 6387   1.769   1.591   1.266  0.2109  0.3402 -0.3380
  424TMC3    O2 6388   2.033   1.245   0.919 -0.3432  0.0290  0.4106
  425MPD2     C 6389   1.238   0.142  17.650  0.0425 -0.2288  0.1504
  425MPD2    C1 6390   1.212   0.092  17.522  0.6508  0.3160 -0.4089
  425MPD2    C2 6391   1.107   0.141  17.452  0.3630  0.4248 -0.3089
  425MPD2    C3 6392   1.024   0.235  17.508  0.7548 -0.2029  0.0003
  425MPD2    C4 6393   1.059   0.291  17.631  0.1688 -0.6236 -0.5197
  425MPD2    C5 6394   1.166   0.243  17.701  0.6003 -0.0441 -0.7610
  425MPD2     H 6395   1.079   0.088  17.361 -0.9483 -0.0886  0.4003
  425MPD2    H1 6396   1.000   0.371  17.673 -1.0282 -0.0773 -3.2126
  425MPD2    H2 6397   1.328   0.105  17.698  0.8114  2.9615  1.1679
  425MPD2    H3 6398   1.194   0.308   0.037  0.3590  0.6127 -1.2005
  425MPD2     N 6399   0.912   0.274  17.433  0.1556  0.4417 -0.1456
  425MPD2    H5 6400   0.912   0.246  17.335 -0.0958 -1.7551  0.4753
  425MPD2    N1 6401   1.288   4.710  17.484 -0.0567 -1.3020  0.2082
  425MPD2    H7 6402   1.343   4.670  17.558 -0.0875  0.2320  1.0704
  426TMC3    C1 6403   1.353   4.522  17.368  0.3291 -0.2822 -0.0517
  426TMC3    C2 6404   1.384   4.463  17.250 -0.5724 -0.1904  0.3158
  426TMC3    C3 6405   1.415   4.330  17.252  0.4260  0.3951  0.1109
  426TMC3    C4 6406   1.340   4.447  17.494  0.5528  0.3413  0.4186
  426TMC3    C5 6407   1.372   4.310  17.482  0.3981 -0.0324  0.1868
  426TMC3    C6 6408   1.410   4.257  17.362 -0.3936 -0.1805  0.1257
  426TMC3     C 6409   1.287   4.649  17.363 -0.3832 -0.1610  0.3110
  426TMC3     O 6410   1.227   4.684  17.259 -0.1588  0.3060  0.0781
  426TMC3     H 6411   1.410   4.533  17.171  1.5624 -0.5192  0.7110
  426TMC3    H1 6412   1.296   4.488  17.583  0.0107  1.8709 -0.5491
  426TMC3    H2 6413   1.409   4.149  17.348 -0.5989 -0.3519  1.4382
  426TMC3    C7 6414   1.325   4.214  17.578 -0.1711  0.2328 -0.1807
  426TMC3    C8 6415   1.436   4.263  17.124 -0.0215  0.3939  0.0779
  426TMC3    O1 6416   1.374   4.100  17.580  0.3127 -0.0364  0.2565
  426TMC3    O2 6417   1.496   4.156  17.135 -0.1152 -0.0544  0.9136
  427MPD2     C 6418   0.262   1.891  15.107 -0.1004 -0.2233  0.3688
  427MPD2    C1 6419   0.204   1.835  15.218 -0.3580 -0.3565 -0.0005
  427MPD2    C2 6420   0.069   1.856  15.243 -0.2282  0.1485  0.0511
  427MPD2    C3 6421   4.727   1.945  15.161  0.0402 -0.0620 -0.0894
  427MPD2    C4 6422   0.052   1.995  15.048 -0.1870 -0.2222  0.1223
  427MPD2    C5 6423   0.182   1.961  15.022 -0.4999 -0.1901  0.3441
  427MPD2     H 6424   0.029   1.818  15.337 -0.1197  0.3268  0.1686
  427MPD2    H1 6425   0.002   2.063  14.980 -2.8595  0.2818  2.6291
  427MPD2    H2 6426   0.368   1.884  15.086  0.0978 -0.2384  1.3626
  427MPD2    H3 6427   0.213   2.007  14.929  1.1520 -1.2778  0.3654
  427MPD2     N 6428   4.596   1.987  15.182  0.2095  0.2585  0.4236
  427MPD2    H5 6429   4.561   2.047  15.108 -0.2803  0.6123  0.9401
  427MPD2    N1 6430   0.277   1.769  15.319  0.4302 -0.6041 -0.6447
  427MPD2    H7 6431   0.226   1.715  15.388  0.3482  1.1361  0.6819
  428TMC3    C1 6432   0.451   1.679  15.437  0.5072  0.0301 -0.3803
  428TMC3    C2 6433   0.379   1.570  15.459  0.4188  0.4178  0.0089
  428TMC3    C3 6434   0.403   1.493  15.572  0.2237 -0.9421 -0.3371
  428TMC3    C4 6435   0.546   1.730  15.530 -0.0265 -0.1383 -0.2075
  428TMC3    C5 6436   0.565   1.645  15.641  0.3831 -0.9974 -0.0010
  428TMC3    C6 6437   0.497   1.531  15.662 -0.2050 -0.2284  0.1605
  428TMC3     C 6438   0.414   1.773  15.332  0.4038 -0.0096  0.1118
  428TMC3     O 6439   0.501   1.822  15.257  0.7679  0.0572 -0.2738
  428TMC3     H 6440   0.330   1.526  15.373  2.8203  0.4312 -1.3432
  428TMC3    H1 6441   0.595   1.826  15.517  1.0296 -0.4801  1.3325
  428TMC3    H2 6442   0.522   1.477  15.753 -0.6186 -0.7314 -0.0263
  428TMC3    C7 6443   0.620   1.699  15.762  0.0237  0.3099 -0.5901
  428TMC3    C8 6444   0.340   1.365  15.582  0.3347 -0.6069  0.6333
  428TMC3    O1 6445   0.573   1.659  15.868  0.2426  0.2982  0.1641
  428TMC3    O2 6446   0.262   1.341  15.491  0.4834 -0.5576 -0.3782
  429MPD2     C 6447   0.753   1.845  17.536 -0.0841 -0.2685  0.5965
  429MPD2    C1 6448   0.839   1.755  17.475  0.0390  0.1559 -1.0286
  429MPD2    C2 6449   0.933   1.814  17.394  0.0751  0.0382  0.5880
  429MPD2    C3 6450   0.939   1.954  17.369 -0.5857 -0.1095 -0.2407
  429MPD2    C4 6451   0.850   2.031  17.442 -0.7123 -0.0362 -0.9006
  429MPD2    C5 6452   0.767   1.979  17.523  0.3151  0.2375 -0.1628
  429MPD2     H 6453   1.017   1.761  17.351 -0.3055 -0.7055  0.7565
  429MPD2    H1 6454   0.852   2.137  17.422  0.7871  0.0245 -0.4215
  429MPD2    H2 6455   0.668   1.805  17.591 -0.7755 -0.4391 -0.6040
  429MPD2    H3 6456   0.692   2.039  17.573 -0.0257 -0.8397  0.6381
  429MPD2     N 6457   1.037   2.017  17.286  0.7548 -0.4054  0.3613
  429MPD2    H5 6458   1.106   1.952  17.249  2.3892  0.8358  1.2545
  429MPD2    N1 6459   0.827   1.612  17.484 -0.7538 -0.9331  0.4615
  429MPD2    H7 6460   0.881   1.567  17.410 -2.5528  2.3563 -2.8217
  430TMC3    C1 6461   1.156   2.167  17.157  0.1293  0.1325  0.2833
  430TMC3    C2 6462   1.135   2.227  17.035  0.0650  0.4891 -0.2128
  430TMC3    C3 6463   1.247   2.253  16.965 -1.3918 -0.9027 -0.0881
  430TMC3    C4 6464   1.279   2.129  17.198 -0.4131  0.9140  0.8148
  430TMC3    C5 6465   1.385   2.139  17.113  0.0431 -0.1817  0.2373
  430TMC3    C6 6466   1.376   2.208  16.995  0.2446 -0.0827 -0.1364
  430TMC3     C 6467   1.037   2.146  17.240  0.0252  0.2595 -0.2593
  430TMC3     O 6468   0.953   2.232  17.253 -0.1214  0.5372  0.5523
  430TMC3     H 6469   1.044   2.279  17.008  0.1990  1.2658  0.8219
  430TMC3    H1 6470   1.294   2.085  17.297  0.0794 -1.5242 -0.3403
  430TMC3    H2 6471   1.466   2.217  16.935  1.0301  1.4996  1.2602
  430TMC3    C7 6472   1.514   2.117  17.163  0.5689 -0.0351  0.2626
  430TMC3    C8 6473   1.234   2.327  16.838 -0.6090  0.1850  0.3274
  430TMC3    O1 6474   1.551   2.151  17.277 -0.4232  0.4423 -0.3693
  430TMC3    O2 6475   1.155   2.301  16.749  0.2492 -0.0234  0.1471
  431MPD2     C 6476   2.178   2.708  12.438 -0.4062 -0.5916  0.7635
  431MPD2    C1 6477   2.312   2.693  12.453  0.3724 -0.3406 -0.3453
  431MPD2    C2 6478   2.368   2.568  12.421 -0.1373 -0.6255  0.2978
  431MPD2    C3 6479   2.283   2.469  12.380 -0.3032 -1.3221  0.0135
  431MPD2    C4 6480   2.149   2.480  12.400 -0.4271  0.4753  0.2690
  431MPD2    C5 6481   2.096   2.601  12.415  0.0189  0.1155 -0.3432
  431MPD2     H 6482   2.474   2.548  12.422 -0.6372 -3.3341 -0.7981
  431MPD2    H1 6483   2.089   2.393  12.377  1.1705 -0.7733  0.7809
  431MPD2    H2 6484   2.118   2.797  12.458  0.4785  0.1819 -0.0052
  431MPD2    H3 6485   1.988   2.608  12.417 -0.1488 -2.4162 -0.2252
  431MPD2     N 6486   2.332   2.343  12.341  0.8270  0.3454 -0.3048
  431MPD2    H5 6487   2.277   2.258  12.352 -0.8581  1.1284 -2.8260
  431MPD2    N1 6488   2.400   2.793  12.494  0.0502  0.0313 -0.9061
  431MPD2    H7 6489   2.498   2.766  12.504  0.2295  0.1612 -2.2903
  432TMC3    C1 6490   2.491   2.187  12.253 -0.0778  0.5338  0.4504
  432TMC3    C2 6491   2.586   2.174  12.162 -0.3374 -0.3632 -0.5507
  432TMC3    C3 6492   2.612   2.044  12.128 -0.4308 -0.1003  0.1913
  432TMC3    C4 6493   2.422   2.085  12.314  0.1759  0.3075  0.3514
  432TMC3    C5 6494   2.463   1.961  12.290 -0.0079 -0.2875  0.5479
  432TMC3    C6 6495   2.556   1.937  12.190 -0.4947 -0.2022  0.1056
  432TMC3     C 6496   2.457   2.322  12.287  0.7225 -0.6467 -0.9598
  432TMC3     O 6497   2.536   2.410  12.249 -0.2926 -0.1425 -0.0185
  432TMC3     H 6498   2.635   2.252  12.106 -0.4079  0.8415  1.0695
  432TMC3    H1 6499   2.349   2.104  12.392  0.7253  0.4526  0.8315
  432TMC3    H2 6500   2.573   1.838  12.149  1.3709  0.7093 -1.3723
  432TMC3    C7 6501   2.401   1.853  12.352  0.7854  0.8549  0.3507
  432TMC3    C8 6502   2.729   2.019  12.045 -0.3972 -0.0318 -0.0550
  432TMC3    O1 6503   2.420   1.746  12.300 -0.1616 -0.1768  0.3775
  432TMC3    O2 6504   2.727   1.916  11.978  0.0238  0.3481 -0.4024
  433MPD2     C 6505   1.399   1.564  10.948  0.0706 -0.2560 -0.3669
  433MPD2    C1 6506   1.372   1.432  10.970 -0.3885  0.1569 -1.0820
  433MPD2    C2 6507   1.338   1.395  11.098  0.4122 -0.6659 -0.3744
  433MPD2    C3 6508   1.356   1.481  11.202 -0.5073  0.2747 -0.0000
  433MPD2    C4 6509   1.393   1.609  11.181  0.4699 -0.1094 -0.8308
  433MPD2    C5 6510   1.409   1.655  11.054  0.2569 -0.1883  0.2098
  433MPD2     H 6511   1.301   1.294  11.111 -1.2451 -0.1954 -1.4042
  433MPD2    H1 6512   1.417   1.684  11.256 -0.3951 -0.4538 -0.2075
  433MPD2    H2 6513   1.429   1.601  10.851 -1.7411 -0.9667 -1.1938
  433MPD2    H3 6514   1.436   1.759  11.041 -2.5933  0.4157 -0.9063
  433MPD2     N 6515   1.336   1.433  11.335 -0.6750 -0.4134  0.7191
  433MPD2    H5 6516   1.301   1.338  11.340  0.5521 -0.8498  0.8585
  433MPD2    N1 6517   1.359   1.335  10.874 -0.6195 -0.1899 -1.0966
  433MPD2    H7 6518   1.337   1.243  10.910  0.1422 -0.0053 -0.1519
  434TMC3    C1 6519   1.417   1.198  10.699 -0.6629  0.0437  0.5744
  434TMC3    C2 6520   1.512   1.126  10.762  0.4123 -0.2279  0.1621
  434TMC3    C3 6521   1.482   0.996  10.787 -0.2457 -0.6738 -0.0217
  434TMC3    C4 6522   1.296   1.148  10.666  0.8355  0.5294 -0.2452
  434TMC3    C5 6523   1.272   1.016  10.684 -1.0379 -0.0185  0.2962
  434TMC3    C6 6524   1.365   0.933  10.742  0.4570  0.0187  0.2383
  434TMC3     C 6525   1.407   1.340  10.746 -0.3366  0.3733 -0.1973
  434TMC3     O 6526   1.468   1.432  10.690  0.0837  0.2410  0.0417
  434TMC3     H 6527   1.606   1.172  10.792  0.2789 -0.5773  1.1156
  434TMC3    H1 6528   1.218   1.208  10.622  0.8171  1.1758  0.6729
  434TMC3    H2 6529   1.349   0.829  10.768 -2.2118  0.5300  0.6005
  434TMC3    C7 6530   1.132   0.986  10.705 -0.2773  0.4296  0.3070
  434TMC3    C8 6531   1.562   0.920  10.885 -0.0558  0.5113 -0.3670
  434TMC3    O1 6532   1.078   1.005  10.811  0.1113  0.2972 -0.3200
  434TMC3    O2 6533   1.513   0.820  10.932  0.1941 -0.2803  0.1254
  435MPD2     C 6534   3.374   1.003  15.608  0.2093  0.2643 -0.3837
  435MPD2    C1 6535   3.314   1.018  15.732  0.7391  0.6390 -0.2305
  435MPD2    C2 6536   3.364   0.958  15.848 -0.6497  0.6514  0.6987
  435MPD2    C3 6537   3.478   0.875  15.841  0.2839  0.9927  0.2574
  435MPD2    C4 6538   3.533   0.859  15.716  0.5225 -0.1159 -0.3819
  435MPD2    C5 6539   3.482   0.921  15.605  0.3830 -0.5828 -0.0470
  435MPD2     H 6540   3.314   0.973  15.943 -0.6194 -0.6048  0.9124
  435MPD2    H1 6541   3.617   0.793  15.697 -0.0098 -1.1174  0.7376
  435MPD2    H2 6542   3.334   1.037  15.513 -2.2001 -1.9937 -0.1727
  435MPD2    H3 6543   3.521   0.896  15.507 -0.5709  3.4536 -1.4520
  435MPD2     N 6544   3.528   0.798  15.955  0.3146  0.1868 -0.2378
  435MPD2    H5 6545   3.469   0.827  16.033 -2.3043 -0.1857 -2.0636
  435MPD2    N1 6546   3.195   1.090  15.750 -0.3644 -0.1739 -0.1530
  435MPD2    H7 6547   3.139   1.079  15.834 -0.4706 -1.4643 -0.3889
  436TMC3    C1 6548   2.858   1.283  15.874  0.2333 -0.7494 -0.0892
  436TMC3    C2 6549   2.979   1.254  15.834  0.3052  1.0368 -0.2792
  436TMC3    C3 6550   2.999   1.207  15.701  0.0125  0.0649  0.0618
  436TMC3    C4 6551   2.749   1.272  15.790 -0.3794 -1.7451  0.0854
  436TMC3    C5 6552   2.767   1.221  15.660  0.3969  0.0664  0.0113
  436TMC3    C6 6553   2.891   1.185  15.616  0.6152 -0.2490  0.7361
  436TMC3     C 6554   2.846   1.379  15.983  0.4701  0.3691  0.6039
  436TMC3     O 6555   2.948   1.440  16.014  0.3950  0.6552  0.5492
  436TMC3     H 6556   3.059   1.261  15.908  0.7579 -0.0487 -0.6536
  436TMC3    H1 6557   2.653   1.309  15.824  0.0890 -0.4856  0.0012
  436TMC3    H2 6558   2.901   1.140  15.518  4.3491 -1.1922  1.5340
  436TMC3    C7 6559   2.647   1.184  15.589  0.0205  0.2297  0.3566
  436TMC3    C8 6560   3.119   1.140  15.650 -1.3588  0.5608  0.3893
  436TMC3    O1 6561   2.542   1.188  15.653  0.8133  0.3351 -0.2134
  436TMC3    O2 6562   3.127   1.126  15.530  0.8604 -0.3338  0.6198
  437TMC3    C1 6563   1.963   2.336  12.763  0.1971 -0.6145  0.0337
  437TMC3    C2 6564   1.841   2.276  12.731 -0.4029 -0.2385 -0.2031
  437TMC3    C3 6565   1.751   2.361  12.673 -0.7790  0.0353  0.5518
  437TMC3    C4 6566   1.989   2.475  12.755 -0.0612  0.6356  0.3610
  437TMC3    C5 6567   1.898   2.550  12.695  0.0169 -0.2347 -0.4643
  437TMC3    C6 6568   1.783   2.499  12.654  0.9508  0.5584  0.6659
  437TMC3     C 6569   2.064   2.249  12.824 -0.9021  0.6530  0.5218
  437TMC3     O 6570   2.055   2.132  12.791 -0.5837 -0.2231 -0.5039
  437TMC3     H 6571   1.832   2.169  12.748 -1.6309  0.0554  0.9145
  437TMC3    H1 6572   2.091   2.511  12.762  0.3511 -0.8568  1.7934
  437TMC3    H2 6573   1.708   2.564  12.610  0.7783 -0.7335 -0.9716
  437TMC3    C7 6574   1.911   2.698  12.662 -0.3318  0.3487 -0.0195
  437TMC3    C8 6575   1.632   2.310  12.621 -0.1340 -0.5209  0.0315
  437TMC3    O1 6576   1.836   2.752  12.580 -0.0565  0.2897  0.2730
  437TMC3    O2 6577   1.588   2.359  12.519  0.3604 -0.1919  0.1859
  438MPD2     C 6578   4.153   3.886  16.840 -0.0377 -0.6018 -0.3263
  438MPD2    C1 6579   4.237   3.794  16.902 -0.6613 -0.5448  0.0152
  438MPD2    C2 6580   4.253   3.802  17.041  0.0458 -0.1830 -0.3692
  438MPD2    C3 6581   4.169   3.877  17.121 -0.0732 -0.4753  0.4270
  438MPD2    C4 6582   4.081   3.963  17.059 -0.3699  0.3778  0.6775
  438MPD2    C5 6583   4.069   3.967  16.917  0.3245  0.2547  0.1060
  438MPD2     H 6584   4.332   3.739  17.079 -0.6537 -0.1341  1.1788
  438MPD2    H1 6585   4.007   4.024  17.108  0.8621  2.0762  0.4112
  438MPD2    H2 6586   4.118   3.872  16.738 -2.6427 -1.3287  0.6780
  438MPD2    H3 6587   3.988   4.028  16.878  0.7641  0.4910 -0.4363
  438MPD2     N 6588   4.173   3.881  17.265 -0.3062  0.5086 -0.1961
  438MPD2    H5 6589   4.102   3.945  17.300  0.7911  2.3809 -1.3850
  438MPD2    N1 6590   4.323   3.702  16.840  0.2006 -0.1942 -0.2962
  438MPD2    H7 6591   4.357   3.630  16.903 -0.8499  0.1870  0.6920
  439TMC3    C1 6592   4.389   3.561  16.666  0.1826 -0.4710  1.0313
  439TMC3    C2 6593   4.375   3.526  16.537  0.0348 -0.0282  0.1691
  439TMC3    C3 6594   4.410   3.397  16.507 -0.2213  0.7578 -0.1823
  439TMC3    C4 6595   4.439   3.480  16.765  0.1683 -0.1494 -0.3363
  439TMC3    C5 6596   4.491   3.362  16.721  0.5281  0.3602  0.3554
  439TMC3    C6 6597   4.473   3.316  16.597  0.4531 -0.6819  0.4555
  439TMC3     C 6598   4.321   3.686  16.706 -0.5557  0.0354 -0.2664
  439TMC3     O 6599   4.266   3.745  16.612 -0.2990  0.7506 -0.3218
  439TMC3     H 6600   4.332   3.587  16.459  1.4448  0.3907 -0.2652
  439TMC3    H1 6601   4.465   3.517  16.864  1.9129 -0.3005 -0.7427
  439TMC3    H2 6602   4.511   3.220  16.565 -0.1966 -0.2696 -1.5607
  439TMC3    C7 6603   4.578   3.286  16.811  0.4008 -0.0137 -0.5984
  439TMC3    C8 6604   4.433   3.363  16.368 -0.4257  0.6204  1.0035
  439TMC3    O1 6605   4.594   3.330  16.924  0.3675  0.1673 -0.4199
  439TMC3    O2 6606   4.479   3.252  16.342 -0.1081 -0.1778 -0.1481
  440MPD2     C 6607   2.738   4.144  15.163 -0.3117 -0.4344  0.9517
  440MPD2    C1 6608   2.833   4.218  15.224  0.3217  0.1278 -0.6907
  440MPD2    C2 6609   2.949   4.154  15.268  0.1775 -0.1335  0.2846
  440MPD2    C3 6610   2.968   4.017  15.263 -0.2910  0.4100 -0.1711
  440MPD2    C4 6611   2.868   3.940  15.192 -0.4020  0.3613  0.3489
  440MPD2    C5 6612   2.760   4.012  15.136  0.1527  0.2603  0.0512
  440MPD2     H 6613   3.006   4.221  15.330 -0.3612  0.7825 -0.2091
  440MPD2    H1 6614   2.872   3.834  15.171 -1.0116  0.4591 -0.2886
  440MPD2    H2 6615   2.640   4.176  15.128 -0.1487 -0.2634  0.6448
  440MPD2    H3 6616   2.676   3.959  15.091  0.5529 -1.0078  0.7898
  440MPD2     N 6617   3.079   3.952  15.317 -0.0555 -0.2908 -0.1581
  440MPD2    H5 6618   3.090   3.852  15.314  3.8033  0.2232 -2.4804
  440MPD2    N1 6619   2.836   4.361  15.221  0.5845 -0.5533 -0.4822
  440MPD2    H7 6620   2.915   4.410  15.262  0.9052 -1.1786 -0.3680
  441TMC3    C1 6621   3.304   3.946  15.398 -0.3672  0.0362 -0.2314
  441TMC3    C2 6622   3.405   4.028  15.423  0.2851 -0.1706  0.0838
  441TMC3    C3 6623   3.488   4.002  15.527 -0.0633 -0.2498  0.0215
  441TMC3    C4 6624   3.286   3.837  15.479 -0.3624 -0.2715 -0.2844
  441TMC3    C5 6625   3.377   3.806  15.578  0.0239 -0.0006 -0.1886
  441TMC3    C6 6626   3.482   3.886  15.598  0.3144 -0.1039  0.0814
  441TMC3     C 6627   3.180   4.026  15.385  0.4630  0.1115  0.2967
  441TMC3     O 6628   3.198   4.144  15.413  0.1547  0.5689 -0.2996
  441TMC3     H 6629   3.409   4.115  15.359 -2.4319 -2.3876 -3.1542
  441TMC3    H1 6630   3.192   3.783  15.478 -1.4078  1.5377 -0.5789
  441TMC3    H2 6631   3.555   3.859  15.673 -0.6246  1.8988  1.6971
  441TMC3    C7 6632   3.352   3.692  15.664  0.1829 -0.8200 -0.2099
  441TMC3    C8 6633   3.530   4.109  15.613 -0.4358  0.1453  0.2412
  441TMC3    O1 6634   3.238   3.649  15.664 -0.5826  0.8634 -0.1953
  441TMC3    O2 6635   3.592   4.090  15.715  0.2121 -0.0772 -0.1732
  442MPD2     C 6636   0.778   4.615  15.867  0.0237 -0.0246  0.7783
  442MPD2    C1 6637   0.707   4.499  15.883  1.0920  0.3997  0.7055
  442MPD2    C2 6638   0.751   4.420  15.984  0.0320 -0.0890  0.0782
  442MPD2    C3 6639   0.849   4.463  16.076 -0.4065  0.1199 -0.1423
  442MPD2    C4 6640   0.907   4.588  16.062  0.0778 -0.2331 -0.0992
  442MPD2    C5 6641   0.875   4.659  15.955  0.4906  0.1637 -0.4712
  442MPD2     H 6642   0.708   4.321  15.989 -0.3387 -0.0514 -2.2655
  442MPD2    H1 6643   0.979   4.624  16.134  0.7021  0.6746 -1.1886
  442MPD2    H2 6644   0.761   4.674  15.778  0.5257  0.6391  1.1210
  442MPD2    H3 6645   0.911   0.024  15.946  0.3998 -0.0141 -2.6839
  442MPD2     N 6646   0.897   4.377  16.174 -0.3388 -0.2219 -0.1521
  442MPD2    H5 6647   0.958   4.414  16.246 -1.1198  1.6479 -0.4421
  442MPD2    N1 6648   0.597   4.459  15.809 -0.2163 -0.5342 -0.5982
  442MPD2    H7 6649   0.553   4.375  15.846 -0.9737 -0.7084 -1.9029
  443TMC3    C1 6650   0.417   4.476  15.667  0.7490 -0.5808 -0.3582
  443TMC3    C2 6651   0.386   4.489  15.536 -1.3080 -0.2140 -0.3568
  443TMC3    C3 6652   0.290   4.411  15.477 -0.5794  0.4451  0.0480
  443TMC3    C4 6653   0.353   4.383  15.741  0.2065  0.0646  0.2395
  443TMC3    C5 6654   0.261   4.299  15.675  0.1694 -0.1415 -0.3973
  443TMC3    C6 6655   0.217   4.321  15.550 -0.2650 -0.5565  0.1428
  443TMC3     C 6656   0.540   4.528  15.710 -0.2259  0.0026 -0.4455
  443TMC3     O 6657   0.575   4.630  15.647 -0.0091 -0.4885 -0.0649
  443TMC3     H 6658   0.426   4.572  15.480 -1.5014  0.5844  0.6787
  443TMC3    H1 6659   0.385   4.362  15.843 -0.2731 -1.6150  0.0412
  443TMC3    H2 6660   0.147   4.248  15.510 -2.8066  0.0839  3.4529
  443TMC3    C7 6661   0.206   4.201  15.764  1.1455 -0.4656 -0.4057
  443TMC3    C8 6662   0.253   4.410  15.331 -0.1646 -0.3592  0.1319
  443TMC3    O1 6663   0.179   4.235  15.875  0.0251  0.6934  0.0850
  443TMC3    O2 6664   0.137   4.369  15.319  0.2749 -0.1406 -0.7479
  444MPD2     C 6665   1.152   3.910  16.748 -0.4422  0.0894  0.2324
  444MPD2    C1 6666   1.087   3.830  16.842  0.7131 -0.0862  0.0859
  444MPD2    C2 6667   1.162   3.719  16.890 -0.0714  0.6967 -0.1862
  444MPD2    C3 6668   1.297   3.718  16.863 -0.3470 -0.1175  0.3227
  444MPD2    C4 6669   1.360   3.798  16.772  0.2752  0.1249 -0.0025
  444MPD2    C5 6670   1.280   3.883  16.701  0.0043  0.8797  0.4507
  444MPD2     H 6671   1.123   3.652  16.967  2.7770 -1.2548 -0.4309
  444MPD2    H1 6672   1.460   3.787  16.734  0.7011 -0.4982  1.3195
  444MPD2    H2 6673   1.090   3.990  16.711  1.0535  1.1762  0.0675
  444MPD2    H3 6674   1.325   3.939  16.620  0.8352 -2.6803 -1.5498
  444MPD2     N 6675   1.374   3.620  16.929 -0.5601 -0.2056 -0.0442
  444MPD2    H5 6676   1.330   3.564  17.001 -1.0522 -0.5942 -0.6532
  444MPD2    N1 6677   0.950   3.842  16.891 -0.4668 -0.3188 -0.9949
  444MPD2    H7 6678   0.918   3.773  16.958  0.6252 -1.0639 -1.2300
  445TMC3    C1 6679   1.557   3.500  17.015 -0.2148  0.4147 -0.0913
  445TMC3    C2 6680   1.469   3.405  17.069 -1.0203  0.7086 -0.1873
  445TMC3    C3 6681   1.525   3.282  17.100 -0.0907  0.0219 -0.2266
  445TMC3    C4 6682   1.696   3.472  17.004 -0.1002  0.8642 -0.4001
  445TMC3    C5 6683   1.739   3.349  17.023 -0.2603 -0.9559  0.4577
  445TMC3    C6 6684   1.658   3.245  17.074  0.2364 -0.3811  0.2787
  445TMC3     C 6685   1.514   3.616  16.939 -0.2133 -0.0126  0.7944
  445TMC3     O 6686   1.596   3.692  16.887  0.1209  0.1353 -0.0845
  445TMC3     H 6687   1.362   3.417  17.082 -0.9822 -0.2876  1.0910
  445TMC3    H1 6688   1.772   3.542  16.969  0.3144  0.6255  0.0230
  445TMC3    H2 6689   1.690   3.142  17.084  0.5392 -0.2338  0.7948
  445TMC3    C7 6690   1.886   3.329  16.996  0.0562 -0.4301  0.0398
  445TMC3    C8 6691   1.442   3.190  17.180  0.4464 -0.0830  0.5958
  445TMC3    O1 6692   1.962   3.418  16.956  0.6316  0.1848 -0.2619
  445TMC3    O2 6693   1.326   3.223  17.202  0.4716 -0.0966  0.1148
  446MPD2     C 6694   1.096   0.599  11.459  0.1330 -0.0565 -0.1584
  446MPD2    C1 6695   1.049   0.712  11.395 -0.0516 -0.2954  0.2127
  446MPD2    C2 6696   1.140   0.798  11.340  0.9534 -0.2968 -0.1526
  446MPD2    C3 6697   1.280   0.769  11.336 -0.4497 -0.2447  0.1895
  446MPD2    C4 6698   1.318   0.651  11.397  0.5196 -0.2831 -0.4420
  446MPD2    C5 6699   1.231   0.571  11.464 -0.6159 -0.8035 -0.2450
  446MPD2     H 6700   1.102   0.887  11.291 -1.0567 -1.4455 -0.6920
  446MPD2    H1 6701   1.421   0.621  11.414 -0.1725 -2.8764 -0.8478
  446MPD2    H2 6702   1.036   0.517  11.497 -1.2323  0.6592 -0.7599
  446MPD2    H3 6703   1.275   0.483  11.511 -0.0258 -1.3198 -1.7800
  446MPD2     N 6704   1.372   0.868  11.298 -0.4780 -0.3174 -0.2428
  446MPD2    H5 6705   1.343   0.965  11.288  0.1972 -0.3752 -2.6128
  446MPD2    N1 6706   0.913   0.736  11.369 -0.4022 -0.3756 -0.4922
  446MPD2    H7 6707   0.890   0.809  11.302  0.3061  2.3510  2.2355
  447TMC3    C1 6708   1.598   0.953  11.286  0.2482 -0.2778  0.4767
  447TMC3    C2 6709   1.550   1.074  11.230 -0.0086 -0.3832 -0.2308
  447TMC3    C3 6710   1.629   1.183  11.259  0.6564 -0.2271 -0.4779
  447TMC3    C4 6711   1.719   0.948  11.360  0.2408  0.7337  0.7040
  447TMC3    C5 6712   1.791   1.062  11.382  0.6278 -0.0306 -0.0345
  447TMC3    C6 6713   1.740   1.182  11.346  0.2087  0.5882  0.3402
  447TMC3     C 6714   1.511   0.840  11.297 -0.3010 -0.0575 -0.3465
  447TMC3     O 6715   1.572   0.731  11.300  0.0993  0.6785 -0.4275
  447TMC3     H 6716   1.469   1.076  11.159  1.6771 -0.8131 -2.1736
  447TMC3    H1 6717   1.757   0.853  11.398 -1.5883 -0.5716 -0.6860
  447TMC3    H2 6718   1.790   1.273  11.377  1.6205  0.0479 -0.3724
  447TMC3    C7 6719   1.934   1.061  11.386 -0.2884 -0.7164 -0.2551
  447TMC3    C8 6720   1.662   1.247  11.137  0.2404  0.3205 -0.0691
  447TMC3    O1 6721   1.984   1.148  11.317 -0.1605 -0.1303 -0.4975
  447TMC3    O2 6722   1.596   1.220  11.037  0.4923  0.2216 -0.6433
  448TMC3    C1 6723   3.598   4.628  17.518  0.7287 -0.1138  0.6043
  448TMC3    C2 6724   3.662   4.544  17.436  0.0715 -0.7157  0.3834
  448TMC3    C3 6725   3.776   4.588  17.375  0.5874  0.5401 -0.4511
  448TMC3    C4 6726   3.645   0.018  17.539  0.5320 -0.2604 -0.6633
  448TMC3    C5 6727   3.758   0.067  17.483  0.1213  0.6782  0.5022
  448TMC3    C6 6728   3.822   4.715  17.390  0.6227  0.6036 -0.1026
  448TMC3     C 6729   3.512   4.572  17.620  0.0864 -0.2537 -0.1205
  448TMC3     O 6730   3.479   4.651  17.708  0.5300  0.1618 -0.2763
  448TMC3     H 6731   3.629   4.442  17.420  2.3518 -1.2539 -0.9225
  448TMC3    H1 6732   3.576   0.083  17.592  1.0962 -0.2039 -0.0056
  448TMC3    H2 6733   3.901   0.018  17.328  0.0463 -0.2008 -1.3695
  448TMC3    C7 6734   3.853   0.116  17.575  0.3453 -0.8808  0.0538
  448TMC3    C8 6735   3.844   4.503  17.282 -0.2708  0.2658  0.3359
  448TMC3    O1 6736   3.969   0.092  17.548  0.1918 -0.0707  0.3653
  448TMC3    O2 6737   3.872   4.388  17.310  0.1959  0.0248  0.0166
  449MPD2     C 6738   0.996   3.483  14.325  0.1147  0.4049  0.7531
  449MPD2    C1 6739   0.941   3.568  14.226 -0.0111  0.5235 -0.3496
  449MPD2    C2 6740   0.806   3.576  14.219  0.2113 -0.1254  0.2364
  449MPD2    C3 6741   0.720   3.505  14.305  0.0746  0.1374 -0.1054
  449MPD2    C4 6742   0.776   3.413  14.386 -0.2007  0.1088 -0.7757
  449MPD2    C5 6743   0.914   3.415  14.403  0.5991 -0.0677 -0.0044
  449MPD2     H 6744   0.764   3.639  14.142 -0.6869  0.9505  1.6086
  449MPD2    H1 6745   0.718   3.350  14.452 -1.2333  3.2339  1.2781
  449MPD2    H2 6746   1.102   3.483  14.347 -0.1419  0.3324  1.9853
  449MPD2    H3 6747   0.953   3.362  14.489  1.7853 -1.2828 -1.3087
  449MPD2     N 6748   0.586   3.540  14.298 -0.6213  1.0784 -0.6328
  449MPD2    H5 6749   0.565   3.606  14.224 -0.3639 -0.2532 -1.8691
  449MPD2    N1 6750   1.016   3.661  14.143  0.0735 -0.5262 -0.7091
  449MPD2    H7 6751   0.957   3.731  14.100  0.6726 -1.0333 -2.3480
  450TMC3    C1 6752   1.176   3.781  14.042  0.0139  0.4757  0.5070
  450TMC3    C2 6753   1.208   3.765  13.914  0.5375 -0.6279  0.1750
  450TMC3    C3 6754   1.155   3.851  13.823  0.6344  0.0507  0.3845
  450TMC3    C4 6755   1.106   3.889  14.088  0.6234  0.1294 -0.2981
  450TMC3    C5 6756   1.046   3.970  13.995 -0.4722  0.5417  0.2048
  450TMC3    C6 6757   1.071   3.949  13.860  0.6744  1.1539  1.0228
  450TMC3     C 6758   1.146   3.658  14.118 -1.0616  0.3131 -0.6941
  450TMC3     O 6759   1.227   3.567  14.131 -0.1042 -0.2067  0.8283
  450TMC3     H 6760   1.269   3.681  13.882  0.0746 -1.3013  1.0762
  450TMC3    H1 6761   1.085   3.889  14.194  0.1913 -0.1530 -0.3831
  450TMC3    H2 6762   1.032   4.026  13.794  0.6477  0.0297 -0.2722
  450TMC3    C7 6763   0.914   4.007  14.042  0.0724  0.0152 -0.2810
  450TMC3    C8 6764   1.161   3.828  13.681  0.0289  0.0034 -0.0354
  450TMC3    O1 6765   0.864   3.942  14.134  0.3197  0.1809  0.3719
  450TMC3    O2 6766   1.109   3.905  13.604  0.1074  0.1858  0.7067
  451MPD2     C 6767   1.786   2.102   1.382  0.6267  0.2233 -0.1494
  451MPD2    C1 6768   1.816   2.194   1.280 -0.4943 -0.5269  0.3537
  451MPD2    C2 6769   1.854   2.141   1.161  0.3274  0.8235  0.0114
  451MPD2    C3 6770   1.871   2.003   1.148  0.0234 -0.1928 -0.5819
  451MPD2    C4 6771   1.853   1.913   1.252  0.0679  0.4070  0.4951
  451MPD2    C5 6772   1.800   1.968   1.363  0.6447  0.9026  0.4122
  451MPD2     H 6773   1.874   2.207   1.077 -1.6945  0.4077 -0.7981
  451MPD2    H1 6774   1.879   1.808   1.243 -1.6972  0.0002  0.1846
  451MPD2    H2 6775   1.762   2.139   1.481 -1.3528  0.1563 -0.6082
  451MPD2    H3 6776   1.763   1.898   1.437  0.4727 -0.6628 -1.1499
  451MPD2     N 6777   1.923   1.951   1.029  0.4532 -0.4756  0.5998
  451MPD2    H5 6778   1.922   1.850   1.020 -0.2791 -0.4994  0.9377
  451MPD2    N1 6779   1.799   2.331   1.312 -0.2915 -0.0240  0.9349
  451MPD2    H7 6780   1.761   2.355   1.404 -1.6966  0.5601  0.2062
  452TMC3    C1 6781   1.998   1.929   0.814  0.5069 -0.2776  0.1701
  452TMC3    C2 6782   1.893   1.842   0.781  0.1560 -0.0819 -0.4006
  452TMC3    C3 6783   1.889   1.797   0.653  0.1962 -0.4589 -0.1092
  452TMC3    C4 6784   2.096   1.968   0.723 -0.1822  0.1119 -0.1211
  452TMC3    C5 6785   2.076   1.925   0.595 -1.0644 -0.2268  0.3959
  452TMC3    C6 6786   1.977   1.840   0.559  0.4670  0.4536 -0.4705
  452TMC3     C 6787   1.981   2.017   0.928  0.5068 -0.5101 -0.0430
  452TMC3     O 6788   2.028   2.132   0.924  0.9820 -0.7809 -0.3200
  452TMC3     H 6789   1.827   1.804   0.858  0.3644  2.2965  0.9823
  452TMC3    H1 6790   2.177   2.032   0.753 -0.5655 -0.7534  2.7980
  452TMC3    H2 6791   1.963   1.802   0.459 -0.4275 -0.9436  0.1867
  452TMC3    C7 6792   2.178   1.959   0.500 -0.0884  0.0058  0.2249
  452TMC3    C8 6793   1.765   1.734   0.619 -0.2253 -0.3791  0.3358
  452TMC3    O1 6794   2.266   2.034   0.544 -0.1474  0.1880 -0.0770
  452TMC3    O2 6795   1.717   1.657   0.705 -0.1828 -0.1785 -0.1504
  453TMC3    C1 6796   3.401   4.072  12.261  0.0334  0.0747 -0.4783
  453TMC3    C2 6797   3.353   3.979  12.349  0.4371 -0.0351  0.4719
  453TMC3    C3 6798   3.228   3.929  12.325 -0.7684 -0.5351 -0.7705
  453TMC3    C4 6799   3.327   4.119  12.160 -0.1976  0.0412 -0.3537
  453TMC3    C5 6800   3.200   4.076  12.145  0.1865  0.0024 -0.4587
  453TMC3    C6 6801   3.148   3.976  12.225 -0.0508  0.0561  0.8348
  453TMC3     C 6802   3.531   4.119  12.295  0.2042  0.0055 -0.6249
  453TMC3     O 6803   3.546   4.234  12.334 -0.1160 -0.1553  0.5098
  453TMC3     H 6804   3.402   3.943  12.439  0.3928 -3.0322 -0.6973
  453TMC3    H1 6805   3.366   4.192  12.091  2.7710 -0.2269  1.0434
  453TMC3    H2 6806   3.052   3.929  12.206 -1.1238  1.8525  1.7279
  453TMC3    C7 6807   3.120   4.138  12.045  0.3970 -0.4428  0.1859
  453TMC3    C8 6808   3.208   3.794  12.373  0.1111 -0.4939 -0.0453
  453TMC3    O1 6809   3.179   4.183  11.945 -0.1202 -0.0628  0.1096
  453TMC3    O2 6810   3.097   3.755  12.412  0.2033 -0.5938 -0.4069
  454MPD2     C 6811   2.060   3.346  16.389 -0.1859 -0.7418 -0.2323
  454MPD2    C1 6812   2.034   3.484  16.379  0.6333  0.6546 -0.7826
  454MPD2    C2 6813   2.013   3.570  16.490  0.3361 -0.5242 -0.1157
  454MPD2    C3 6814   1.991   3.507  16.611 -0.1433 -0.1979 -0.7931
  454MPD2    C4 6815   2.030   3.372  16.619 -0.1022 -0.3077 -0.6096
  454MPD2    C5 6816   2.064   3.294  16.514  0.0613 -0.1871 -0.2352
  454MPD2     H 6817   1.982   3.672  16.469 -0.6168 -1.2175 -2.1161
  454MPD2    H1 6818   2.027   3.324  16.716  1.4749 -0.1452 -0.4697
  454MPD2    H2 6819   2.076   3.289  16.297 -0.1193 -0.9250 -0.1070
  454MPD2    H3 6820   2.087   3.188  16.528  0.7386 -0.4234 -3.0027
  454MPD2     N 6821   1.953   3.571  16.730  0.2219 -0.2557  0.5947
  454MPD2    H5 6822   1.987   3.537  16.820  0.9848 -1.0591  0.0050
  454MPD2    N1 6823   2.016   3.551  16.254 -0.5010  0.0194 -0.1136
  454MPD2    H7 6824   2.001   3.650  16.266  2.5548  0.2293  1.9059
  455TMC3    C1 6825   1.809   3.732  16.636  0.0507 -0.1939  0.6056
  455TMC3    C2 6826   1.784   3.863  16.619  0.0568 -0.1937 -0.1150
  455TMC3    C3 6827   1.693   3.901  16.520 -0.8316  0.4892 -0.0602
  455TMC3    C4 6828   1.730   3.636  16.578  0.4753  0.7291 -0.2150
  455TMC3    C5 6829   1.652   3.674  16.471 -0.0259 -0.3954 -0.5588
  455TMC3    C6 6830   1.640   3.807  16.435  0.4945 -0.0580 -0.5953
  455TMC3     C 6831   1.899   3.699  16.739  0.6276  0.6213 -0.1134
  455TMC3     O 6832   1.903   3.780  16.832 -0.9032  0.2279 -0.5199
  455TMC3     H 6833   1.851   3.935  16.664 -2.1433  1.2852  0.7637
  455TMC3    H1 6834   1.749   3.534  16.611  0.9187  0.1676 -2.1993
  455TMC3    H2 6835   1.563   3.825  16.361 -0.5487 -0.0214  0.4969
  455TMC3    C7 6836   1.625   3.572  16.369 -0.6427  0.1928 -0.8999
  455TMC3    C8 6837   1.616   4.026  16.534  0.3113  0.0389  0.1458
  455TMC3    O1 6838   1.576   3.609  16.266 -0.0627 -0.2893  0.3940
  455TMC3    O2 6839   1.555   4.052  16.435  0.5359  0.3864 -0.1849
  456MPD2     C 6840   4.682   3.617  16.418 -0.2489 -0.1977  0.3128
  456MPD2    C1 6841   0.020   3.598  16.528  0.6590  0.3416 -0.1542
  456MPD2    C2 6842   4.728   3.678  16.639  0.3051  0.1169 -0.2745
  456MPD2    C3 6843   4.651   3.795  16.629  0.3648  0.3186  0.0354
  456MPD2    C4 6844   4.592   3.818  16.508 -0.0774  0.1942 -0.0998
  456MPD2    C5 6845   4.597   3.728  16.402  0.0727 -0.4340 -0.6976
  456MPD2     H 6846   0.033   3.644  16.733 -1.0429  0.3166  0.3942
  456MPD2    H1 6847   4.515   3.891  16.486  0.1352  0.1692 -0.9118
  456MPD2    H2 6848   4.675   3.543  16.338 -5.2048  1.7115 -1.0738
  456MPD2    H3 6849   4.563   3.745  16.301 -1.1201  0.5552 -0.1380
  456MPD2     N 6850   4.605   3.863  16.743  0.1122 -0.8035  0.6271
  456MPD2    H5 6851   4.615   3.811  16.830  0.8590 -2.2061 -0.2913
  456MPD2    N1 6852   0.114   3.495  16.505 -0.2011  0.7567  0.6505
  456MPD2    H7 6853   0.101   3.443  16.419 -0.3284  0.8477  0.6145
  457TMC3    C1 6854   4.514   4.035  16.879 -0.0097 -0.0950 -0.4037
  457TMC3    C2 6855   4.410   4.125  16.891  0.6629 -0.1963  0.1367
  457TMC3    C3 6856   4.382   4.153  17.022 -0.4958  0.2918  0.0369
  457TMC3    C4 6857   4.574   3.980  16.987 -0.0890  0.7879 -0.3292
  457TMC3    C5 6858   4.534   4.010  17.112 -0.3305 -0.6775 -0.1658
  457TMC3    C6 6859   4.432   4.085  17.133 -0.1696  0.4261 -0.3049
  457TMC3     C 6860   4.537   3.981  16.745  0.2119  0.3018 -0.1601
  457TMC3     O 6861   4.490   4.051  16.658  0.3604 -0.9975 -0.2191
  457TMC3     H 6862   4.371   4.172  16.802  0.7052  1.0746  0.7803
  457TMC3    H1 6863   4.668   3.929  16.968  0.7287  1.7818  0.9919
  457TMC3    H2 6864   4.393   4.104  17.232  0.7110 -1.0557  0.3326
  457TMC3    C7 6865   4.625   3.994  17.222  0.6470 -0.1009 -0.8774
  457TMC3    C8 6866   4.273   4.249  17.056 -0.3777  0.6904 -0.3195
  457TMC3    O1 6867   4.682   3.886  17.223  0.7225 -0.0492  0.3693
  457TMC3    O2 6868   4.234   4.249  17.172  0.2015 -0.3931  0.6291
  458MPD2     C 6869   2.128   3.155  12.724  0.2074  0.3777  0.2797
  458MPD2    C1 6870   2.210   3.067  12.797 -0.0163  0.3843  0.4769
  458MPD2    C2 6871   2.164   2.931  12.803 -0.2728  0.3707 -0.6544
  458MPD2    C3 6872   2.045   2.895  12.735  0.4254 -0.3533  0.0723
  458MPD2    C4 6873   1.971   2.990  12.669 -0.4335  0.5591 -0.0329
  458MPD2    C5 6874   2.016   3.115  12.661  0.0334 -0.4174 -0.7309
  458MPD2     H 6875   2.225   2.857  12.854 -1.0748  0.9641  1.1540
  458MPD2    H1 6876   1.883   2.967  12.609 -0.4714  2.2782 -0.6223
  458MPD2    H2 6877   2.163   3.256  12.713 -0.3870  0.6475  0.8777
  458MPD2    H3 6878   1.965   3.179  12.590 -2.7311 -0.0615  1.5420
  458MPD2     N 6879   2.007   2.756  12.739  0.0629  0.0871  0.0182
  458MPD2    H5 6880   2.061   2.693  12.797  0.7661  0.6940  0.0130
  458MPD2    N1 6881   2.325   3.119  12.860 -0.2762 -0.1121 -0.8179
  458MPD2    H7 6882   2.341   3.217  12.838 -1.1626  0.3638  0.6652
  459TMC3    C1 6883   2.468   3.138  13.051 -0.6997  0.6612  0.2601
  459TMC3    C2 6884   2.543   3.242  12.997  0.2280 -0.2426 -0.0169
  459TMC3    C3 6885   2.640   3.291  13.080  0.6748 -0.2016 -0.3436
  459TMC3    C4 6886   2.491   3.086  13.176  0.4521 -0.6472  0.3027
  459TMC3    C5 6887   2.584   3.144  13.258 -0.3989  0.3124  0.2855
  459TMC3    C6 6888   2.670   3.239  13.207  0.0704 -0.1851 -0.0519
  459TMC3     C 6889   2.390   3.050  12.961 -0.4106  0.2839  0.0450
  459TMC3     O 6890   2.394   2.931  12.992 -0.3103  0.1365  0.0663
  459TMC3     H 6891   2.553   3.255  12.890 -0.2927  0.6898  0.0416
  459TMC3    H1 6892   2.420   3.012  13.213  0.3404  0.0896  1.5507
  459TMC3    H2 6893   2.752   3.279  13.266 -0.2800 -0.3068  0.5214
  459TMC3    C7 6894   2.614   3.052  13.361  0.8449 -0.3079  0.4538
  459TMC3    C8 6895   2.759   3.334  13.013 -0.5185 -0.0331  0.2304
  459TMC3    O1 6896   2.580   2.936  13.343  0.0919  0.0345  0.8746
  459TMC3    O2 6897   2.863   3.280  13.049  0.5300  0.1290 -0.3784
  460MPD2     C 6898   2.003   1.343  11.033 -0.1114  0.2592  0.0653
  460MPD2    C1 6899   1.863   1.344  11.034  1.2479  0.0944  0.0725
  460MPD2    C2 6900   1.792   1.400  10.922 -0.3853  0.7707 -1.2180
  460MPD2    C3 6901   1.868   1.440  10.813 -0.3934  1.0907  0.2047
  460MPD2    C4 6902   2.004   1.424  10.811 -0.1364 -0.5458  0.1203
  460MPD2    C5 6903   2.074   1.383  10.927 -0.0304  0.2507  0.7186
  460MPD2     H 6904   1.685   1.414  10.932 -0.1737  1.7828 -0.3624
  460MPD2    H1 6905   2.060   1.441  10.720 -1.3450 -1.6566 -0.8165
  460MPD2    H2 6906   2.053   1.307  11.122  1.2916  0.1647 -0.7667
  460MPD2    H3 6907   2.181   1.375  10.915 -0.1148  0.1047  0.0931
  460MPD2     N 6908   1.796   1.486  10.704  0.0934 -0.5957 -0.1012
  460MPD2    H5 6909   1.695   1.477  10.712  0.2362 -1.4051  0.7953
  460MPD2    N1 6910   1.798   1.285  11.140  0.1858 -0.5181  0.0658
  460MPD2    H7 6911   1.854   1.262  11.222  1.5524  0.3854 -0.6092
  461TMC3    C1 6912   1.760   1.565  10.485  0.3846 -0.0105 -0.5193
  461TMC3    C2 6913   1.657   1.477  10.459 -0.5588 -0.2936 -0.6267
  461TMC3    C3 6914   1.589   1.494  10.341 -0.3276 -0.6074  0.0495
  461TMC3    C4 6915   1.797   1.663  10.404 -0.1317  0.7087 -0.1024
  461TMC3    C5 6916   1.721   1.687  10.290 -0.3493 -0.2277 -0.4801
  461TMC3    C6 6917   1.612   1.607  10.264 -0.3613  0.3981  0.1356
  461TMC3     C 6918   1.853   1.548  10.594 -0.8227 -0.1980 -0.3967
  461TMC3     O 6919   1.969   1.587  10.576  0.0108 -0.1417  0.4041
  461TMC3     H 6920   1.641   1.384  10.511 -1.6171  1.8077  2.8512
  461TMC3    H1 6921   1.897   1.704  10.413 -0.9886  2.4283  1.7392
  461TMC3    H2 6922   1.564   1.622  10.168 -1.5696 -1.5351  0.4583
  461TMC3    C7 6923   1.743   1.795  10.199  0.5381  0.4370 -0.1572
  461TMC3    C8 6924   1.519   1.377  10.287 -0.7381 -0.1207 -0.4210
  461TMC3    O1 6925   1.676   1.801  10.095 -0.1398  0.0099 -0.0040
  461TMC3    O2 6926   1.529   1.272  10.342  0.2047  0.1989  0.2587
  462TMC3    C1 6927   1.092   1.842  17.722 -0.3377 -0.5184 -0.4137
  462TMC3    C2 6928   1.184   1.777  17.644  0.3173 -0.5086  0.1810
  462TMC3    C3 6929   1.191   1.643  17.639 -0.2065  0.3090  0.4645
  462TMC3    C4 6930   0.996   1.768   0.047 -0.4958 -0.5832  0.5466
  462TMC3    C5 6931   1.009   1.625   0.044 -0.2141  0.2742 -0.0011
  462TMC3    C6 6932   1.108   1.562  17.717 -0.3148 -0.8635 -0.1552
  462TMC3     C 6933   1.077   1.990  17.711 -0.1862 -0.6630  0.0555
  462TMC3     O 6934   1.149   2.043  17.625  0.0200  0.1126  0.2978
  462TMC3     H 6935   1.250   1.833  17.578  0.1647 -0.3471  0.1647
  462TMC3    H1 6936   0.909   1.819   0.086  0.7427  1.4793  0.5949
  462TMC3    H2 6937   1.092   1.459  17.687 -1.3844 -0.5153 -0.7841
  462TMC3    C7 6938   0.906   1.534   0.097  0.3360 -0.9089 -0.2690
  462TMC3    C8 6939   1.245   1.591  17.513  0.0392  0.1538  0.1772
  462TMC3    O1 6940   0.899   1.417   0.075 -0.3459 -0.3464 -0.1374
  462TMC3    O2 6941   1.270   1.670  17.423 -0.2791 -0.0823 -0.2326
  463MPD2     C 6942   2.220   1.237   1.568 -0.4361  0.3823 -0.2243
  463MPD2    C1 6943   2.157   1.306   1.468  0.7090  0.3505  0.0443
  463MPD2    C2 6944   2.163   1.441   1.460  0.2029  0.0050 -0.2060
  463MPD2    C3 6945   2.255   1.507   1.538 -0.1857  0.2174 -0.0762
  463MPD2    C4 6946   2.329   1.440   1.630 -0.2778 -0.0598  0.3369
  463MPD2    C5 6947   2.307   1.307   1.649 -0.1652 -0.2372  0.0996
  463MPD2     H 6948   2.112   1.493   1.379 -1.7754  0.4961  1.3464
  463MPD2    H1 6949   2.394   1.498   1.695 -1.6368  1.4882  0.3173
  463MPD2    H2 6950   2.211   1.131   1.586  2.4510 -0.0961 -1.4961
  463MPD2    H3 6951   2.354   1.263   1.736  1.3162  2.8353  0.8272
  463MPD2     N 6952   2.271   1.644   1.536 -0.2944  0.5510  0.1257
  463MPD2    H5 6953   2.354   1.679   1.581  1.6996  0.5090 -3.5621
  463MPD2    N1 6954   2.067   1.243   1.379  0.4427 -0.8429 -0.6026
  463MPD2    H7 6955   1.982   1.285   1.342  0.8581  1.0951  0.6886
  464TMC3    C1 6956   2.000   1.081   1.227 -1.4759  0.3180  0.2766
  464TMC3    C2 6957   1.868   1.122   1.233 -0.2864 -0.0651  0.7630
  464TMC3    C3 6958   1.780   1.081   1.137 -0.4213  0.2629  0.1510
  464TMC3    C4 6959   2.035   0.990   1.133  0.3869  0.8570  0.7749
  464TMC3    C5 6960   1.946   0.952   1.042 -0.4341  0.1561 -0.6046
  464TMC3    C6 6961   1.825   1.005   1.033  0.1060  0.6415  0.4258
  464TMC3     C 6962   2.085   1.112   1.338 -0.2533 -0.4865 -0.0340
  464TMC3     O 6963   2.168   1.027   1.367  0.5375  0.0480  0.5120
  464TMC3     H 6964   1.842   1.178   1.322  1.8339  1.3526  0.4828
  464TMC3    H1 6965   2.129   0.938   1.145  0.3269  0.5161 -0.2271
  464TMC3    H2 6966   1.760   0.986   0.949 -0.5351  0.8343  0.8742
  464TMC3    C7 6967   1.978   0.827   0.969 -0.0290  0.4314  0.8266
  464TMC3    C8 6968   1.635   1.089   1.160  0.3576 -0.5568 -0.2266
  464TMC3    O1 6969   2.084   0.774   0.994  0.1108  0.0157 -0.6284
  464TMC3    O2 6970   1.562   1.036   1.082 -0.4926 -0.1098  0.3906
  465MPD2     C 6971   3.749   4.101  17.183  0.7266  1.2911  0.4585
  465MPD2    C1 6972   3.629   4.036  17.167 -0.5693  0.1172  0.2046
  465MPD2    C2 6973   3.561   4.058  17.046  0.2606 -0.0660  0.1205
  465MPD2    C3 6974   3.612   4.139  16.946 -0.1894  0.0070 -0.0655
  465MPD2    C4 6975   3.737   4.192  16.952 -0.0791 -0.3371 -0.2258
  465MPD2    C5 6976   3.799   4.177  17.074 -0.2859 -0.1738  0.4709
  465MPD2     H 6977   3.466   4.006  17.034 -0.6043  1.4362  0.4791
  465MPD2    H1 6978   3.780   4.249  16.870  0.9137 -3.3332 -1.7607
  465MPD2    H2 6979   3.812   4.094  17.271  0.0541  1.8264  0.9797
  465MPD2    H3 6980   3.898   4.221  17.077 -0.3178 -0.1561  1.3397
  465MPD2     N 6981   3.530   4.164  16.828  0.1199 -0.0751  0.7370
  465MPD2    H5 6982   3.437   4.125  16.825  0.6102 -1.1688 -0.0790
  465MPD2    N1 6983   3.567   3.964  17.268  0.7282  0.0631 -0.1141
  465MPD2    H7 6984   3.482   3.916  17.239 -0.8567  1.5419  2.0599
  466TMC3    C1 6985   3.242   4.162  16.540  0.1396 -0.4824  0.0316
  466TMC3    C2 6986   3.235   4.265  16.445  0.3490  0.5627  0.3135
  466TMC3    C3 6987   3.343   4.354  16.443 -0.1651  0.2834 -0.2449
  466TMC3    C4 6988   3.349   4.143  16.619  0.2651  0.1776 -0.6756
  466TMC3    C5 6989   3.451   4.238  16.617 -0.0903 -0.1224  0.1992
  466TMC3    C6 6990   3.450   4.342  16.529  0.1612 -0.1583  0.5830
  466TMC3     C 6991   3.127   4.075  16.562 -0.1871  0.0906 -0.7954
  466TMC3     O 6992   3.128   3.985  16.646  0.3344  0.0645 -0.4454
  466TMC3     H 6993   3.145   4.282  16.387  1.5002 -1.1472 -1.9859
  466TMC3    H1 6994   3.353   4.056  16.683  1.6604 -0.7438 -2.0007
  466TMC3    H2 6995   3.526   4.419  16.527 -1.2793  1.2705  0.2356
  466TMC3    C7 6996   3.558   4.238  16.722 -0.2859  0.3829  0.3476
  466TMC3    C8 6997   3.291   4.484  16.470 -0.3228 -0.1324  0.2085
  466TMC3    O1 6998   3.662   4.303  16.696  0.2891  0.0951 -0.5023
  466TMC3    O2 6999   3.322   4.544  16.573  0.0340 -0.7051  0.5291
  467TMC3    C1 7000   4.576   2.600  14.001  0.3714  0.1278 -0.7222
  467TMC3    C2 7001   4.554   2.718  14.065 -0.2790 -0.0603 -0.4127
  467TMC3    C3 7002   4.434   2.779  14.067  0.1718 -0.3998  1.3776
  467TMC3    C4 7003   4.478   2.529  13.938 -0.1024  0.4387 -0.4351
  467TMC3    C5 7004   4.359   2.597  13.928  0.0755 -0.8942  0.2381
  467TMC3    C6 7005   4.333   2.717  13.995  0.0317  0.2578  0.4529
  467TMC3     C 7006   4.720   2.566  13.990  0.3466 -0.5477 -0.2794
  467TMC3     O 7007   0.052   2.609  14.081  0.2353 -0.4951  0.6846
  467TMC3     H 7008   4.635   2.759  14.123 -1.5756  0.4986  0.9988
  467TMC3    H1 7009   4.489   2.427  13.904 -0.2604  0.1225  0.4733
  467TMC3    H2 7010   4.242   2.772  13.973  0.1145  0.6573  1.1035
  467TMC3    C7 7011   4.248   2.501  13.930 -0.6165  0.1324 -0.5003
  467TMC3    C8 7012   4.449   2.924  14.070 -0.5393  0.2288 -0.7105
  467TMC3    O1 7013   4.251   2.415  13.841  0.1137 -0.0118 -0.5053
  467TMC3    O2 7014   4.564   2.961  14.068 -0.4490  0.7082 -0.5921
  468MPD2     C 7015   3.165   0.876  11.214  0.2693  0.5025 -0.2771
  468MPD2    C1 7016   3.297   0.920  11.212 -0.1160  0.4816 -0.2297
  468MPD2    C2 7017   3.395   0.825  11.204 -0.2229 -1.1952  0.2422
  468MPD2    C3 7018   3.358   0.689  11.189 -0.3525 -0.3125 -0.2123
  468MPD2    C4 7019   3.228   0.656  11.212  0.4610  0.2748  0.0930
  468MPD2    C5 7020   3.123   0.746  11.225  0.2533  0.0914  0.3599
  468MPD2     H 7021   3.497   0.858  11.190 -0.3135 -0.5496  1.0601
  468MPD2    H1 7022   3.200   0.552  11.222  1.2065  0.2863  2.3190
  468MPD2    H2 7023   3.090   0.950  11.189 -0.4988 -0.3993 -0.6529
  468MPD2    H3 7024   3.021   0.711  11.233 -0.6732  2.3249 -2.0560
  468MPD2     N 7025   3.445   0.582  11.175 -0.2080  0.3350 -0.5268
  468MPD2    H5 7026   3.407   0.492  11.149 -0.4680  0.0712  0.7712
  468MPD2    N1 7027   3.336   1.057  11.205  0.5508 -0.1306 -0.0935
  468MPD2    H7 7028   3.429   1.088  11.180  0.1993 -1.1614 -2.5925
  469TMC3    C1 7029   3.308   1.288  11.211  0.1159 -0.3300 -0.4244
  469TMC3    C2 7030   3.447   1.301  11.231 -0.2769 -0.1767  0.0573
  469TMC3    C3 7031   3.481   1.426  11.246 -0.7239 -0.1562 -0.3238
  469TMC3    C4 7032   3.220   1.389  11.205 -0.4254 -0.6166  0.2694
  469TMC3    C5 7033   3.262   1.515  11.213  0.0583  0.1214 -0.0836
  469TMC3    C6 7034   3.397   1.535  11.231  0.4828  0.3083  0.1313
  469TMC3     C 7035   3.247   1.161  11.215 -0.2136 -0.3690  0.3467
  469TMC3     O 7036   3.126   1.165  11.236 -0.2592  0.0249 -0.0868
  469TMC3     H 7037   3.505   1.221  11.274  1.4882  0.9071 -0.2929
  469TMC3    H1 7038   3.114   1.380  11.184  0.1886 -0.7058 -2.7241
  469TMC3    H2 7039   3.429   1.637  11.246  1.1029  0.1706 -0.2756
  469TMC3    C7 7040   3.192   1.622  11.267  0.2075  0.3147 -0.6872
  469TMC3    C8 7041   3.609   1.460  11.297 -0.3574 -0.4613  0.9185
  469TMC3    O1 7042   3.195   1.725  11.208  0.3192  0.5384  0.0869
  469TMC3    O2 7043   3.622   1.572  11.343  0.1405  0.0809  0.0246
  470TMC3    C1 7044   0.291   1.529   0.702 -0.4428 -0.2992 -1.4174
  470TMC3    C2 7045   0.415   1.569   0.752 -1.2045  0.9183  0.3557
  470TMC3    C3 7046   0.439   1.599   0.878 -0.7601  0.0373 -0.0761
  470TMC3    C4 7047   0.182   1.532   0.776  0.2606 -0.2934  0.9997
  470TMC3    C5 7048   0.206   1.573   0.908 -0.8678 -0.1112 -0.2572
  470TMC3    C6 7049   0.328   1.613   0.961  0.1576  0.0346 -0.2116
  470TMC3     C 7050   0.276   1.548   0.565  0.1174  0.4895  0.0940
  470TMC3     O 7051   0.367   1.607   0.508  0.3869  0.9255 -0.3287
  470TMC3     H 7052   0.497   1.572   0.681 -1.9236  1.1065 -0.4746
  470TMC3    H1 7053   0.083   1.504   0.741 -0.5563  0.8009  2.4064
  470TMC3    H2 7054   0.327   1.659   1.060 -1.0482 -0.6194  0.0901
  470TMC3    C7 7055   0.081   1.626   0.973 -0.7113  0.4759  0.1404
  470TMC3    C8 7056   0.543   1.691   0.899 -0.4032 -0.0317  0.3646
  470TMC3    O1 7057   4.734   1.668   0.892  0.2159  0.2278 -0.0788
  470TMC3    O2 7058   0.531   1.775   0.986 -0.1067  0.5775 -0.2450
  471MPD2     C 7059   1.504   2.646  16.546 -0.2509 -0.3628 -0.0340
  471MPD2    C1 7060   1.403   2.558  16.517 -0.8598  0.3410 -0.4482
  471MPD2    C2 7061   1.335   2.489  16.613 -0.4307 -0.0070  0.6579
  471MPD2    C3 7062   1.374   2.510  16.747  0.5265 -0.1266  0.6499
  471MPD2    C4 7063   1.473   2.603  16.777 -0.1712 -0.1708 -0.7576
  471MPD2    C5 7064   1.537   2.678  16.679  0.2432  0.5006  0.1338
  471MPD2     H 7065   1.253   2.424  16.585  0.1382 -0.1948 -0.5825
  471MPD2    H1 7066   1.484   2.628  16.882 -2.6574 -0.3280 -0.4503
  471MPD2    H2 7067   1.561   2.686  16.463 -1.8617 -1.9710 -1.9112
  471MPD2    H3 7068   1.613   2.751  16.706  1.1601 -1.0689  1.7637
  471MPD2     N 7069   1.319   2.434  16.850  0.3479 -0.0747  0.2486
  471MPD2    H5 7070   1.350   2.452  16.945  0.8055  0.2905  0.0321
  471MPD2    N1 7071   1.371   2.514  16.383  0.2924 -0.0389 -0.2865
  471MPD2    H7 7072   1.321   2.426  16.375  1.9778 -0.8975 -1.4436
  472TMC3    C1 7073   1.397   2.485  16.151 -0.6447  0.0547 -0.2597
  472TMC3    C2 7074   1.305   2.525  16.062 -0.5849  0.0169  0.1694
  472TMC3    C3 7075   1.204   2.432  16.020  0.7999 -0.1774 -0.7835
  472TMC3    C4 7076   1.400   2.355  16.194 -1.0396 -0.0682  0.2185
  472TMC3    C5 7077   1.317   2.266  16.135 -0.0393 -1.0032  0.0212
  472TMC3    C6 7078   1.216   2.301  16.046  0.7907  0.2826 -0.2711
  472TMC3     C 7079   1.413   2.580  16.266 -0.2987  0.2508  0.0683
  472TMC3     O 7080   1.443   2.696  16.242 -0.0042  0.0116  0.6509
  472TMC3     H 7081   1.289   2.632  16.047  1.2593  0.4337  1.2032
  472TMC3    H1 7082   1.483   2.319  16.254  0.3460 -0.2246 -1.8094
  472TMC3    H2 7083   1.144   2.226  16.015  2.1052 -0.5646 -1.2907
  472TMC3    C7 7084   1.314   2.127  16.191  0.0783  0.6024 -0.0045
  472TMC3    C8 7085   1.070   2.485  15.990 -0.0199  0.2901 -0.7460
  472TMC3    O1 7086   1.375   2.109  16.295 -0.5418  0.7663  0.3902
  472TMC3    O2 7087   1.062   2.588  15.924 -0.3787  0.5048  0.1429
  473MPD2     C 7088   1.124   4.632  13.834 -0.7812 -1.3557  0.2055
  473MPD2    C1 7089   1.047   4.725  13.759  0.2294  0.4362 -0.0784
  473MPD2    C2 7090   1.056   0.118  13.802  0.1720  0.5394  0.5202
  473MPD2    C3 7091   1.133   0.160  13.913 -0.2600  0.2155  0.4060
  473MPD2    C4 7092   1.199   0.062  13.990 -0.0383 -0.2444 -0.1874
  473MPD2    C5 7093   1.204   4.668  13.942  0.1995 -0.1770  0.2295
  473MPD2     H 7094   1.013   0.200  13.746 -0.1351  0.0975  0.0986
  473MPD2    H1 7095   1.248   0.092  14.082 -0.6734  2.6771 -0.8026
  473MPD2    H2 7096   1.120   4.525  13.817 -1.9934 -1.0283 -1.6533
  473MPD2    H3 7097   1.261   4.599  14.003 -2.0360 -1.5704  0.7701
  473MPD2     N 7098   1.154   0.291  13.954 -0.1212  0.6469 -0.2569
  473MPD2    H5 7099   1.212   0.296  14.037 -0.0921  0.9540 -0.2957
  473MPD2    N1 7100   0.968   4.690  13.650 -0.1521 -0.3523  0.3003
  473MPD2    H7 7101   0.913   0.027  13.608  1.0136  0.9738  1.0982
  474TMC3    C1 7102   1.164   0.517  13.965 -0.6060  0.4896 -1.0177
  474TMC3    C2 7103   1.194   0.632  13.912 -0.0588 -0.1652  0.4064
  474TMC3    C3 7104   1.245   0.732  13.991  0.6028 -0.0081 -0.4525
  474TMC3    C4 7105   1.183   0.499  14.106  0.2290 -0.0392  1.0006
  474TMC3    C5 7106   1.230   0.604  14.180  0.2001  0.0065  0.9146
  474TMC3    C6 7107   1.267   0.722  14.129  0.2587  0.4405 -0.0858
  474TMC3     C 7108   1.123   0.408  13.884 -0.5883  1.1471 -0.1965
  474TMC3     O 7109   1.081   0.434  13.770 -0.1647 -0.0407 -0.0841
  474TMC3     H 7110   1.189   0.646  13.804  2.3428  1.8291  0.5537
  474TMC3    H1 7111   1.142   0.418  14.165 -1.0604 -0.7305 -0.8727
  474TMC3    H2 7112   1.302   0.799  14.196 -1.0356  1.3426 -0.4359
  474TMC3    C7 7113   1.189   0.598  14.321 -0.1133  0.4323  0.0566
  474TMC3    C8 7114   1.332   0.833  13.925 -0.6147  0.1012  0.5573
  474TMC3    O1 7115   1.096   0.523  14.341  0.2359 -0.2607 -0.9774
  474TMC3    O2 7116   1.372   0.803  13.814 -0.1868  0.4738 -0.0728
  475MPD2     C 7117   4.462   3.579  11.717 -0.1408  0.7664  0.2951
  475MPD2    C1 7118   4.534   3.645  11.620  0.1433 -0.7631  0.0814
  475MPD2    C2 7119   4.472   3.673  11.502  0.3434 -0.5485  0.0631
  475MPD2    C3 7120   4.336   3.637  11.480 -0.4631 -0.1373 -0.1137
  475MPD2    C4 7121   4.269   3.557  11.566  0.1525  0.4841 -0.0906
  475MPD2    C5 7122   4.333   3.538  11.684 -0.0509 -0.2158  0.0706
  475MPD2     H 7123   4.518   3.740  11.430 -1.4215 -0.0743 -0.6261
  475MPD2    H1 7124   4.164   3.529  11.563  0.1758  0.2181  1.6053
  475MPD2    H2 7125   4.522   3.537  11.797 -0.8346  1.0708  0.9853
  475MPD2    H3 7126   4.280   3.493  11.766 -1.7179 -1.2944 -1.5948
  475MPD2     N 7127   4.272   3.693  11.365  0.5826  0.1991 -0.2379
  475MPD2    H5 7128   4.335   3.741  11.300  0.9540  1.6629  1.1923
  475MPD2    N1 7129   4.661   3.690  11.658  0.1968  0.3251  0.5416
  475MPD2    H7 7130   4.682   3.697  11.757 -1.7725 -0.5524  1.0269
  476TMC3    C1 7131   0.101   3.838  11.638  0.0983  0.6290  0.1048
  476TMC3    C2 7132   0.164   3.905  11.538 -0.0229  0.2860  0.2932
  476TMC3    C3 7133   0.158   4.039  11.542 -0.8375 -0.1883  0.1610
  476TMC3    C4 7134   0.054   3.903  11.747  0.0598 -0.6645  0.2571
  476TMC3    C5 7135   0.061   4.040  11.758 -0.8061 -0.2887 -0.0691
  476TMC3    C6 7136   0.124   4.112  11.652  0.1582 -0.0029 -0.5765
  476TMC3     C 7137   0.012   3.746  11.564 -0.4344 -0.0293 -0.6042
  476TMC3     O 7138   0.013   3.736  11.438 -0.1262  0.1956 -0.2801
  476TMC3     H 7139   0.200   3.850  11.452  0.2674  1.8849 -0.6108
  476TMC3    H1 7140   4.734   3.843  11.818  1.5106 -1.1130  1.0522
  476TMC3    H2 7141   0.143   4.218  11.653 -2.2468  0.4172  0.8261
  476TMC3    C7 7142   4.683   4.097  11.831  0.1228 -0.1908  0.1132
  476TMC3    C8 7143   0.163   4.109  11.419 -0.2985 -0.0654  0.7081
  476TMC3    O1 7144   4.607   4.014  11.879  0.2327 -0.2066 -0.0906
  476TMC3    O2 7145   0.182   4.230  11.411  0.6476 -0.4510 -0.3772
  477MPD2     C 7146   2.342   0.122  11.607  0.0523  0.1212 -0.0821
  477MPD2    C1 7147   2.208   0.088  11.623  0.0971 -0.7560 -0.7813
  477MPD2    C2 7148   2.179   4.701  11.671  0.2072 -0.7424 -0.1428
  477MPD2    C3 7149   2.283   4.617  11.702  0.0091  0.6264 -0.8016
  477MPD2    C4 7150   2.414   4.648  11.678  0.3099 -0.3432 -0.2533
  477MPD2    C5 7151   2.445   0.035  11.634 -0.1450  0.3170 -0.0287
  477MPD2     H 7152   2.075   4.672  11.688 -0.8974  3.0502 -0.3734
  477MPD2    H1 7153   2.498   4.583  11.700 -0.3454 -0.6668  1.2890
  477MPD2    H2 7154   2.376   0.221  11.579 -0.6662  0.7225  1.1657
  477MPD2    H3 7155   2.548   0.070  11.633 -0.1465  0.3180 -0.1107
  477MPD2     N 7156   2.246   4.487  11.744 -0.2164  0.0209  0.0869
  477MPD2    H5 7157   2.145   4.478  11.755  0.0901 -2.6889  0.6603
  477MPD2    N1 7158   2.119   0.188  11.575 -0.1792 -0.7893 -0.2830
  477MPD2    H7 7159   2.158   0.276  11.543  0.4296 -0.2386  2.0370
  478TMC3    C1 7160   1.912   0.291  11.521  0.8401  0.4502  0.0290
  478TMC3    C2 7161   1.788   0.314  11.576  0.7421 -0.2502 -0.3273
  478TMC3    C3 7162   1.720   0.429  11.542  0.4218  0.5953  0.6305
  478TMC3    C4 7163   1.978   0.384  11.436 -0.1080 -0.5492  0.1365
  478TMC3    C5 7164   1.903   0.494  11.401  0.2192 -0.3677  0.0154
  478TMC3    C6 7165   1.778   0.523  11.457  0.0112  0.0346  0.2158
  478TMC3     C 7166   1.986   0.168  11.561  0.1062  0.1755 -0.5451
  478TMC3     O 7167   1.916   0.077  11.608 -1.3059  0.0333  0.6002
  478TMC3     H 7168   1.747   0.242  11.646 -0.2770 -1.6201 -2.3303
  478TMC3    H1 7169   2.077   0.370  11.395 -0.2687 -0.2862 -0.3454
  478TMC3    H2 7170   1.728   0.618  11.441  0.7851  0.1107 -1.7620
  478TMC3    C7 7171   1.958   0.569  11.287  0.4008 -0.6667  0.4569
  478TMC3    C8 7172   1.600   0.460  11.619 -0.4749  0.4181 -0.3214
  478TMC3    O1 7173   2.079   0.554  11.267 -0.6033  0.4361 -0.0545
  478TMC3    O2 7174   1.526   0.368  11.637 -0.1222  0.0297 -0.0141
  479MPD2     C 7175   0.854   1.977  15.799  0.3137 -0.0797  0.2687
  479MPD2    C1 7176   0.763   1.884  15.844  0.3370  0.2214  0.6744
  479MPD2    C2 7177   0.727   1.881  15.978 -0.2163  0.4346 -0.7419
  479MPD2    C3 7178   0.761   1.978  16.072  0.4767  0.1164  0.2411
  479MPD2    C4 7179   0.851   2.070  16.025  0.1577  0.1793  0.0807
  479MPD2    C5 7180   0.895   2.065  15.892  0.5316 -0.9215  0.2783
  479MPD2     H 7181   0.662   1.802  16.015  0.9746 -0.4561 -0.5778
  479MPD2    H1 7182   0.891   2.153  16.081 -1.0472  1.2250 -0.6102
  479MPD2    H2 7183   0.891   1.978  15.697  1.1552 -3.2304  0.5662
  479MPD2    H3 7184   0.969   2.141  15.873 -0.3096 -0.7127 -2.1297
  479MPD2     N 7185   0.715   1.988  16.208  0.2629  0.6186 -0.0030
  479MPD2    H5 7186   0.770   2.057  16.258 -0.6518  1.8946 -0.7396
  479MPD2    N1 7187   0.712   1.801  15.745 -0.6048 -0.7426  0.2659
  479MPD2    H7 7188   0.747   1.821  15.652 -0.1503  1.0116  0.8135
  480TMC3    C1 7189   0.383   1.663  16.185 -0.2363  0.0040 -0.5896
  480TMC3    C2 7190   0.312   1.729  16.091  0.4426  0.6761  0.2688
  480TMC3    C3 7191   0.346   1.858  16.050 -0.2091  0.5418 -0.0562
  480TMC3    C4 7192   0.486   1.727  16.243  0.1355 -0.3938  0.7669
  480TMC3    C5 7193   0.522   1.853  16.198 -0.1736  0.0863  0.3957
  480TMC3    C6 7194   0.457   1.927  16.099 -0.7885 -0.1507  0.3179
  480TMC3     C 7195   0.336   1.531  16.228 -0.0774  0.4609  0.7852
  480TMC3     O 7196   0.404   1.492  16.320  0.0017 -0.6337 -0.3658
  480TMC3     H 7197   0.231   1.683  16.035  1.0581 -1.4342  1.1132
  480TMC3    H1 7198   0.551   1.680  16.316  0.4287 -0.1154  0.6819
  480TMC3    H2 7199   0.476   2.032  16.078 -0.2723 -0.6288 -1.6255
  480TMC3    C7 7200   0.635   1.903  16.273  0.8124 -0.1390 -0.0337
  480TMC3    C8 7201   0.276   1.902  15.928 -0.5011  0.1901  0.1641
  480TMC3    O1 7202   0.630   1.887  16.396 -0.2084  0.3576  0.1584
  480TMC3    O2 7203   0.160   1.870  15.916 -0.0379 -0.0072  0.1289
  481MPD2     C 7204   2.908   1.781  14.493 -0.3013  0.1883 -0.6285
  481MPD2    C1 7205   2.783   1.817  14.472 -0.7758  0.5069  0.8609
  481MPD2    C2 7206   2.703   1.855  14.577 -0.4833  0.3383  0.5149
  481MPD2    C3 7207   2.756   1.847  14.706  0.5985  0.3302 -0.7725
  481MPD2    C4 7208   2.891   1.815  14.723 -0.3371  0.6783 -0.1769
  481MPD2    C5 7209   2.970   1.788  14.612  0.0372  0.4405  0.3637
  481MPD2     H 7210   2.595   1.856  14.565 -0.5317 -1.9474  0.8304
  481MPD2    H1 7211   2.937   1.797  14.819 -0.2379  1.5262 -0.0604
  481MPD2    H2 7212   2.960   1.745  14.405 -2.8239 -0.7597 -1.7445
  481MPD2    H3 7213   3.076   1.764  14.614 -0.2956 -1.0970 -0.2335
  481MPD2     N 7214   2.674   1.868  14.818  0.0549 -0.5491  0.1085
  481MPD2    H5 7215   2.711   1.839  14.907 -2.3237 -0.7302  1.0427
  481MPD2    N1 7216   2.722   1.799  14.349  0.0050 -0.1555 -0.4459
  481MPD2    H7 7217   2.764   1.730  14.288 -0.4798 -0.3418 -0.5740
  482TMC3    C1 7218   2.588   1.842  14.158 -0.6949  0.3768  0.1930
  482TMC3    C2 7219   2.508   1.734  14.164 -0.3195  0.2171  0.2868
  482TMC3    C3 7220   2.389   1.733  14.093  0.5898  0.3511 -0.4851
  482TMC3    C4 7221   2.560   1.948  14.080  0.2090 -0.5018 -0.3590
  482TMC3    C5 7222   2.441   1.936  14.007  0.0179  0.4727 -0.1959
  482TMC3    C6 7223   2.352   1.827  14.006  0.6513  0.6957 -0.0365
  482TMC3     C 7224   2.629   1.881  14.294  0.0628  0.2806 -0.0087
  482TMC3     O 7225   2.564   1.971  14.348 -0.5277 -0.5990  0.2893
  482TMC3     H 7226   2.531   1.666  14.246 -0.6552 -1.7030 -1.1983
  482TMC3    H1 7227   2.602   2.043  14.111 -1.2282 -0.4840  1.5653
  482TMC3    H2 7228   2.252   1.840  13.966 -0.3969  1.0631  2.7215
  482TMC3    C7 7229   2.424   2.043  13.911  0.0348 -0.2267 -0.4588
  482TMC3    C8 7230   2.305   1.622  14.120  0.0548  0.5438  0.5929
  482TMC3    O1 7231   2.504   2.132  13.925 -0.5583 -0.0717 -0.4213
  482TMC3    O2 7232   2.354   1.520  14.169 -0.1328 -0.8119  0.9372
  483TMC3    C1 7233   3.980   1.034  17.574 -0.1031 -0.1174 -0.4569
  483TMC3    C2 7234   4.025   1.134  17.655 -0.4377 -0.6355  0.1736
  483TMC3    C3 7235   3.989   1.141   0.040 -0.4933  0.6170 -0.0964
  483TMC3    C4 7236   3.910   0.927  17.625 -0.2509  0.3124 -0.5798
  483TMC3    C5 7237   3.880   0.930   0.009  0.3626  0.0929  0.1157
  483TMC3    C6 7238   3.911   1.042   0.081  0.0889  1.0896  1.0459
  483TMC3     C 7239   4.058   1.001  17.456 -0.3150  0.4273 -1.4951
  483TMC3     O 7240   4.104   1.086  17.382  0.1539  0.1981 -0.3962
  483TMC3     H 7241   4.064   1.221  17.602 -0.9699  0.0800  0.9637
  483TMC3    H1 7242   3.880   0.837  17.572 -0.0387  0.1607 -0.4459
  483TMC3    H2 7243   3.880   1.047   0.185 -1.3570 -2.8346  0.8235
  483TMC3    C7 7244   3.953   0.818   0.071  0.5138 -0.2284 -0.3227
  483TMC3    C8 7245   4.118   1.142   0.100  0.3918  0.7501 -0.4111
  483TMC3    O1 7246   4.042   0.765   0.004  0.2980  0.0267 -0.5103
  483TMC3    O2 7247   4.217   1.165   0.030 -0.1421 -0.5053 -0.1127
  484MPD2     C 7248   2.815   3.610  12.764 -0.0900  0.0373  0.2392
  484MPD2    C1 7249   2.846   3.514  12.856 -0.8441  0.0219  0.8361
  484MPD2    C2 7250   2.985   3.505  12.883 -0.1228 -0.2103  0.1915
  484MPD2    C3 7251   3.084   3.580  12.825  0.0466 -0.7002  0.5794
  484MPD2    C4 7252   3.037   3.672  12.733  0.7292 -0.1004  0.3351
  484MPD2    C5 7253   2.909   3.695  12.707  0.5909  0.1242 -0.1700
  484MPD2     H 7254   3.002   3.436  12.965 -2.3990 -1.0787 -0.0708
  484MPD2    H1 7255   3.100   3.740  12.677 -0.9913  0.7209 -0.5939
  484MPD2    H2 7256   2.710   3.630  12.746 -0.3072 -2.1507 -0.9387
  484MPD2    H3 7257   2.887   3.769  12.631  1.5098 -0.3485 -0.9029
  484MPD2     N 7258   3.220   3.584  12.855 -0.2835  0.2423 -0.0092
  484MPD2    H5 7259   3.270   3.657  12.805 -1.2023 -0.5246 -2.0505
  484MPD2    N1 7260   2.742   3.442  12.926 -0.2612 -0.8450 -0.1929
  484MPD2    H7 7261   2.647   3.461  12.898  0.1866  0.8539 -0.5937
  485TMC3    C1 7262   3.426   3.489  12.930  0.2791  0.6954  0.4506
  485TMC3    C2 7263   3.479   3.415  13.043  0.6234 -0.7364 -0.4668
  485TMC3    C3 7264   3.610   3.437  13.081  0.0029  0.0537 -0.0088
  485TMC3    C4 7265   3.507   3.573  12.856 -0.5797 -0.2214 -0.8991
  485TMC3    C5 7266   3.636   3.578  12.900 -0.8629 -0.8046 -0.1881
  485TMC3    C6 7267   3.688   3.530  13.018  0.5425 -0.2460 -0.8383
  485TMC3     C 7268   3.284   3.489  12.924 -0.2038 -0.1588  0.0978
  485TMC3     O 7269   3.225   3.398  12.979 -0.5305 -0.4323  0.3042
  485TMC3     H 7270   3.423   3.342  13.099 -0.2445  0.0345 -0.3286
  485TMC3    H1 7271   3.484   3.595  12.752 -2.6663 -0.1483 -0.4259
  485TMC3    H2 7272   3.794   3.520  13.037  0.2137  0.9554  1.6993
  485TMC3    C7 7273   3.744   3.603  12.807 -0.1120 -0.1279  1.0447
  485TMC3    C8 7274   3.688   3.316  13.089  0.1685 -0.9884 -0.2257
  485TMC3    O1 7275   3.747   3.671  12.710 -0.0567 -0.5245  0.0368
  485TMC3    O2 7276   3.744   3.283  12.982 -0.7302  0.4675 -0.2657
  486MPD2     C 7277   0.803   2.127  13.184 -0.3297 -0.7200 -0.4271
  486MPD2    C1 7278   0.700   2.075  13.109 -0.0752 -0.1649 -0.0351
  486MPD2    C2 7279   0.571   2.133  13.108 -0.4465 -0.4058 -0.7374
  486MPD2    C3 7280   0.553   2.241  13.188  0.0179 -0.4634 -0.1212
  486MPD2    C4 7281   0.653   2.291  13.264  0.4992 -0.3949  0.1417
  486MPD2    C5 7282   0.779   2.235  13.266 -0.0619  0.2540  0.6207
  486MPD2     H 7283   0.485   2.091  13.057  0.0365 -1.3560 -0.7644
  486MPD2    H1 7284   0.630   2.368  13.336 -0.9602  1.3983 -2.2151
  486MPD2    H2 7285   0.902   2.082  13.181 -0.4124 -1.1373  2.7152
  486MPD2    H3 7286   0.853   2.277  13.333  0.3559 -1.0047  0.9517
  486MPD2     N 7287   0.425   2.295  13.188  0.4373 -0.4914  0.2384
  486MPD2    H5 7288   0.356   2.245  13.133  1.9747 -0.6277 -1.5343
  486MPD2    N1 7289   0.732   1.965  13.032 -0.5377 -0.3973 -0.4191
  486MPD2    H7 7290   0.819   1.918  13.056 -1.3735 -1.7446 -0.0406
  487TMC3    C1 7291   0.668   1.765  12.916  1.0738  0.6958  0.3539
  487TMC3    C2 7292   0.558   1.695  12.880  0.0152  0.0683  0.2456
  487TMC3    C3 7293   0.556   1.561  12.896  0.3520 -0.1201  0.3477
  487TMC3    C4 7294   0.782   1.700  12.956  0.0073  0.8437  0.2644
  487TMC3    C5 7295   0.780   1.560  12.952 -0.3607 -0.7034  0.0340
  487TMC3    C6 7296   0.667   1.488  12.918 -0.1067 -0.2938 -0.3721
  487TMC3     C 7297   0.643   1.906  12.941  0.6908 -0.4533 -0.6742
  487TMC3     O 7298   0.539   1.951  12.897  0.0661 -0.1121 -0.2258
  487TMC3     H 7299   0.462   1.745  12.870 -0.3299 -0.7838 -0.7065
  487TMC3    H1 7300   0.861   1.758  13.002 -1.0297  1.7450  0.9301
  487TMC3    H2 7301   0.651   1.396  12.973 -0.4527  1.2812  2.1902
  487TMC3    C7 7302   0.871   1.496  13.048 -0.4461 -0.0781 -0.3318
  487TMC3    C8 7303   0.430   1.515  12.964 -0.0993 -0.5027  0.1102
  487TMC3    O1 7304   0.917   1.572  13.132 -0.2484  0.1246 -0.1203
  487TMC3    O2 7305   0.363   1.607  13.015 -0.0726 -0.6334  0.0656
  488MPD2     C 7306   0.936   3.810  16.017  0.0943 -0.3818  0.4636
  488MPD2    C1 7307   0.838   3.901  16.007 -0.3500 -0.1709  0.8747
  488MPD2    C2 7308   0.727   3.887  16.085 -0.1085  0.0367 -0.0725
  488MPD2    C3 7309   0.704   3.776  16.160 -0.2725  0.1085 -0.5041
  488MPD2    C4 7310   0.800   3.679  16.165  0.5095 -0.4171  0.1959
  488MPD2    C5 7311   0.915   3.698  16.096  0.1553 -0.1503  0.7561
  488MPD2     H 7312   0.650   3.964  16.081  0.8199  1.0472  1.6787
  488MPD2    H1 7313   0.789   3.582  16.212 -1.2444 -0.0843  0.4657
  488MPD2    H2 7314   1.034   3.813  15.970 -0.0669 -0.4688  0.1218
  488MPD2    H3 7315   0.989   3.619  16.097  0.8676  0.4734 -1.5228
  488MPD2     N 7316   0.591   3.780  16.251 -0.5602  0.0870  0.4741
  488MPD2    H5 7317   0.530   3.861  16.252  1.1573  1.4077 -3.1280
  488MPD2    N1 7318   0.848   4.019  15.925  0.3008  0.4126 -0.1547
  488MPD2    H7 7319   0.764   4.072  15.903 -0.7029 -1.0143  0.2074
  489TMC3    C1 7320   0.416   3.700  16.369 -0.1850  0.1758  0.1257
  489TMC3    C2 7321   0.345   3.750  16.264 -0.2707  0.6418 -0.6029
  489TMC3    C3 7322   0.235   3.823  16.293  0.5442  0.5545  0.2724
  489TMC3    C4 7323   0.377   3.731  16.496 -0.1155  0.2044  0.4287
  489TMC3    C5 7324   0.264   3.812  16.522  0.8799 -0.2155  0.5695
  489TMC3    C6 7325   0.192   3.863  16.420  0.1637  0.0666  0.2048
  489TMC3     C 7326   0.556   3.680  16.336 -0.2339 -0.0579 -0.6983
  489TMC3     O 7327   0.612   3.572  16.365 -0.4016  0.2646  0.7369
  489TMC3     H 7328   0.364   3.725  16.161  1.9860 -1.9555  0.4402
  489TMC3    H1 7329   0.451   3.724  16.575 -1.7544  0.8136  2.0155
  489TMC3    H2 7330   0.099   3.917  16.436  0.0264 -0.0406 -0.2248
  489TMC3    C7 7331   0.251   3.885  16.645 -0.1807  0.2387  0.1570
  489TMC3    C8 7332   0.164   3.874  16.176  0.0157 -0.2612  0.9140
  489TMC3    O1 7333   0.190   3.993  16.640 -0.7258  0.2032  0.6103
  489TMC3    O2 7334   0.106   3.985  16.185  0.1065  0.4689  0.5020
  490MPD2     C 7335   1.276   3.784  17.197 -0.7553  0.4945  0.6482
  490MPD2    C1 7336   1.293   3.676  17.270  0.0969  0.2928 -0.3620
  490MPD2    C2 7337   1.421   3.643  17.318 -0.8619  0.2885 -0.0099
  490MPD2    C3 7338   1.525   3.738  17.292 -0.3461 -0.1824 -0.7513
  490MPD2    C4 7339   1.497   3.859  17.225 -0.9624  0.2291 -0.3775
  490MPD2    C5 7340   1.372   3.875  17.173 -0.3661  0.3991  0.6352
  490MPD2     H 7341   1.443   3.558  17.382 -1.9984 -1.4954 -2.0058
  490MPD2    H1 7342   1.561   3.945  17.207 -0.9639  0.6911  1.8092
  490MPD2    H2 7343   1.176   3.817  17.170 -0.8392 -1.8754 -1.9492
  490MPD2    H3 7344   1.336   3.955  17.111 -1.0807  0.2054  0.7960
  490MPD2     N 7345   1.661   3.719  17.336 -0.1556 -0.0253  0.0349
  490MPD2    H5 7346   1.724   3.798  17.344  0.6941 -0.4078 -2.6697
  490MPD2    N1 7347   1.184   3.599  17.317 -0.0178 -0.0233  0.1667
  490MPD2    H7 7348   1.201   3.514  17.370 -1.5371 -0.1053  0.5215
  491TMC3    C1 7349   0.970   3.533  17.377 -0.0425 -0.1933  0.2896
  491TMC3    C2 7350   1.032   3.465  17.479 -0.5725 -0.3035  0.2534
  491TMC3    C3 7351   0.955   3.369  17.540  0.1752  0.5040 -0.3608
  491TMC3    C4 7352   0.855   3.487  17.320  0.2177 -0.3933 -0.1398
  491TMC3    C5 7353   0.791   3.379  17.378  0.5347  0.5237  0.5250
  491TMC3    C6 7354   0.837   3.323  17.491  0.5541  0.0629 -1.2024
  491TMC3     C 7355   1.052   3.631  17.310 -0.0164  0.7660 -0.4502
  491TMC3     O 7356   0.993   3.719  17.248 -0.1223  0.1158 -0.2247
  491TMC3     H 7357   1.119   3.506  17.530  0.2315 -0.5080 -0.9357
  491TMC3    H1 7358   0.829   3.533  17.225  1.3723  1.0887  0.2642
  491TMC3    H2 7359   0.790   3.232  17.526 -1.0427  1.9615  1.6283
  491TMC3    C7 7360   0.716   3.299  17.282 -0.5498  0.4225 -0.1274
  491TMC3    C8 7361   1.009   3.293  17.658  0.4005  0.1173  0.7693
  491TMC3    O1 7362   0.743   3.180  17.290  0.0684  0.0068 -0.1913
  491TMC3    O2 7363   0.927   3.223  17.720  0.2628 -0.1928 -0.1800
  492MPD2     C 7364   1.550   3.418  11.725  0.2426 -0.4827 -0.2706
  492MPD2    C1 7365   1.444   3.424  11.636 -0.6288  0.0601 -0.2693
  492MPD2    C2 7366   1.343   3.324  11.638 -0.1280  0.0811  0.1677
  492MPD2    C3 7367   1.344   3.231  11.741  0.1165 -0.6018 -0.3196
  492MPD2    C4 7368   1.436   3.240  11.837 -0.0131  0.2052  0.6045
  492MPD2    C5 7369   1.547   3.318  11.821 -0.2344 -0.3479  0.0543
  492MPD2     H 7370   1.263   3.330  11.565  0.2132 -0.8094 -0.2702
  492MPD2    H1 7371   1.432   3.174  11.923 -0.5278  1.8123  1.8152
  492MPD2    H2 7372   1.635   3.486  11.720 -0.0252  0.0050  2.0082
  492MPD2    H3 7373   1.633   3.317  11.888  0.1831  2.0525 -0.4404
  492MPD2     N 7374   1.263   3.119  11.751  0.2777 -0.4437  0.4020
  492MPD2    H5 7375   1.268   3.065  11.837 -0.4604 -0.3167  0.5212
  492MPD2    N1 7376   1.451   3.527  11.536  0.8492 -1.0535  0.2588
  492MPD2    H7 7377   1.531   3.590  11.540  0.0944 -0.0538 -0.7287
  493TMC3    C1 7378   1.389   3.656  11.340 -0.3404  0.2422 -0.0619
  493TMC3    C2 7379   1.504   3.731  11.357 -0.7322  0.4272  0.0480
  493TMC3    C3 7380   1.517   3.852  11.306 -0.6783 -0.2206 -0.3188
  493TMC3    C4 7381   1.294   3.703  11.254 -0.8703 -0.1946 -0.3666
  493TMC3    C5 7382   1.311   3.827  11.198 -0.0744 -0.1640 -0.0563
  493TMC3    C6 7383   1.414   3.912  11.229  0.3009 -0.8660 -1.2452
  493TMC3     C 7384   1.370   3.540  11.419 -0.1476 -0.3819  0.4369
  493TMC3     O 7385   1.276   3.476  11.382 -0.2036  0.7789 -0.0060
  493TMC3     H 7386   1.587   3.690  11.413  0.6959  0.5710 -1.9833
  493TMC3    H1 7387   1.201   3.648  11.242 -0.2612 -1.1758 -0.6081
  493TMC3    H2 7388   1.428   4.009  11.183 -0.8804  0.9354  2.2217
  493TMC3    C7 7389   1.225   3.853  11.079  0.1498  0.9972 -0.6094
  493TMC3    C8 7390   1.642   3.920  11.339 -0.9053 -0.9829  0.9314
  493TMC3    O1 7391   1.121   3.789  11.070  0.0551  0.3026  0.4018
  493TMC3    O2 7392   1.713   3.874  11.426 -0.3948  0.1757  0.6818
  494TMC3    C1 7393   1.333   0.726   0.284 -0.1786 -0.0665  0.5917
  494TMC3    C2 7394   1.308   0.598   0.243 -0.3916 -0.6554  0.0567
  494TMC3    C3 7395   1.367   0.558   0.126  0.2487 -0.2758  0.0801
  494TMC3    C4 7396   1.422   0.813   0.231  0.1514 -0.7510  0.3820
  494TMC3    C5 7397   1.463   0.771   0.103  0.7537 -0.7701  0.6562
  494TMC3    C6 7398   1.434   0.652   0.053 -0.3451 -0.2290  0.6495
  494TMC3     C 7399   1.239   0.783   0.376  0.2616 -0.3501 -0.0048
  494TMC3     O 7400   1.268   0.869   0.456  0.7599  0.1379  0.5673
  494TMC3     H 7401   1.248   0.525   0.296 -0.7685 -0.0582  0.4432
  494TMC3    H1 7402   1.438   0.910   0.278  1.3632 -0.9011  0.2767
  494TMC3    H2 7403   1.494   0.618  17.715  1.6106  0.4722  1.7551
  494TMC3    C7 7404   1.569   0.843   0.045  0.0955 -0.9657 -0.0538
  494TMC3    C8 7405   1.443   0.432   0.133 -0.8196 -0.1374  0.3081
  494TMC3    O1 7406   1.594   0.835  17.673  0.4166  0.1805  0.1234
  494TMC3    O2 7407   1.489   0.391   0.243 -0.7541  0.6312 -0.8817
  495TMC3    C1 7408   0.893   2.207  15.158  0.0447  0.6189  0.0405
  495TMC3    C2 7409   0.854   2.329  15.108  0.1214 -0.0452 -0.2698
  495TMC3    C3 7410   0.750   2.386  15.179 -0.1419  1.2090 -0.8056
  495TMC3    C4 7411   0.825   2.157  15.265 -0.1410 -0.2765  0.1288
  495TMC3    C5 7412   0.704   2.203  15.314 -0.3668 -0.4755 -0.0334
  495TMC3    C6 7413   0.669   2.323  15.270  0.3364 -0.9829  0.2143
  495TMC3     C 7414   0.906   2.112  15.049 -0.9535 -0.0331  0.2648
  495TMC3     O 7415   0.840   2.008  15.045  0.3331  0.0975  0.0079
  495TMC3     H 7416   0.918   2.377  15.035 -1.2835 -1.9434 -2.7557
  495TMC3    H1 7417   0.848   2.054  15.290 -2.1559 -0.7751 -0.0714
  495TMC3    H2 7418   0.584   2.375  15.314  1.4746  0.3721  0.7920
  495TMC3    C7 7419   0.632   2.137  15.419 -0.5303 -0.0019  0.0033
  495TMC3    C8 7420   0.681   2.495  15.113 -0.1989 -0.1293  0.1569
  495TMC3    O1 7421   0.695   2.059  15.492  0.6484  0.0174  0.3981
  495TMC3    O2 7422   0.562   2.511  15.139 -0.3803  0.2844  0.2374
  496MPD2     C 7423   2.750   2.888  15.743 -0.4431 -0.3851  0.2789
  496MPD2    C1 7424   2.740   2.758  15.688 -0.3633 -0.7610  0.2950
  496MPD2    C2 7425   2.615   2.695  15.685  0.7664 -0.0347 -0.1312
  496MPD2    C3 7426   2.505   2.768  15.735  0.1182  0.3240  0.2627
  496MPD2    C4 7427   2.512   2.897  15.785 -0.0002  0.5463 -0.2146
  496MPD2    C5 7428   2.633   2.958  15.782  0.7392  0.7615 -0.4593
  496MPD2     H 7429   2.598   2.596  15.644 -0.2027 -1.4628  3.6932
  496MPD2    H1 7430   2.422   2.955  15.799 -0.3954 -0.5023  1.6304
  496MPD2    H2 7431   2.846   2.937  15.750 -1.0443  0.8257  0.0905
  496MPD2    H3 7432   2.644   3.060  15.817  0.5129  1.3000 -1.9290
  496MPD2     N 7433   2.380   2.701  15.734  0.4218 -0.2431 -0.3361
  496MPD2    H5 7434   2.367   2.624  15.668  0.1532 -1.3979  1.0655
  496MPD2    N1 7435   2.858   2.689  15.652  0.2238 -0.4653 -0.2874
  496MPD2    H7 7436   2.943   2.729  15.693  0.3178 -2.1459  1.1792
  497TMC3    C1 7437   2.182   2.618  15.826 -0.7693  0.0821 -0.0239
  497TMC3    C2 7438   2.161   2.539  15.716  0.4756 -0.2487  0.4182
  497TMC3    C3 7439   2.089   2.429  15.728  0.0753 -0.2418 -0.4944
  497TMC3    C4 7440   2.143   2.576  15.954  0.1723 -0.3362  0.1804
  497TMC3    C5 7441   2.086   2.451  15.959 -0.1089  0.3319 -0.1079
  497TMC3    C6 7442   2.061   2.379  15.848  0.2520 -0.2875 -0.7733
  497TMC3     C 7443   2.289   2.714  15.834  0.4638  0.7867  0.4734
  497TMC3     O 7444   2.293   2.785  15.933  0.2588  0.4929 -0.5765
  497TMC3     H 7445   2.178   2.578  15.616  1.6063  0.4019  0.8729
  497TMC3    H1 7446   2.190   2.625  16.039 -1.6341  2.0115 -0.1853
  497TMC3    H2 7447   2.037   2.273  15.857  2.1077 -0.5469  1.0836
  497TMC3    C7 7448   2.072   2.382  16.086 -0.0602 -0.5110 -0.3839
  497TMC3    C8 7449   2.049   2.339  15.619 -0.4335 -0.2689  0.7914
  497TMC3    O1 7450   1.985   2.299  16.095  0.0973  0.6449  1.3383
  497TMC3    O2 7451   1.968   2.256  15.645 -0.8398  0.5149 -0.4374
  498MPD2     C 7452   4.570   3.722  10.289 -0.1711  0.4355  0.1582
  498MPD2    C1 7453   4.488   3.767  10.387 -0.2859  0.6442 -0.6020
  498MPD2    C2 7454   4.399   3.680  10.443  0.4346  0.3056  0.4274
  498MPD2    C3 7455   4.388   3.553  10.402  0.2777  0.0149  0.5302
  498MPD2    C4 7456   4.463   3.504  10.294  0.6739 -0.1750  0.0014
  498MPD2    C5 7457   4.554   3.592  10.242 -0.2968 -1.1681  0.3071
  498MPD2     H 7458   4.338   3.720  10.523  0.9380  2.7873 -0.4559
  498MPD2    H1 7459   4.453   3.406  10.247  0.7770 -0.3519  0.3479
  498MPD2    H2 7460   4.629   3.786  10.223  1.0902  0.1670  1.0219
  498MPD2    H3 7461   4.610   3.570  10.152  0.5741 -0.7282  0.7396
  498MPD2     N 7462   4.284   3.484  10.470 -0.7619  0.5540 -0.0130
  498MPD2    H5 7463   4.258   3.525  10.559 -0.3671  1.0973 -0.1451
  498MPD2    N1 7464   4.494   3.893  10.424 -0.1220  0.4308 -0.0349
  498MPD2    H7 7465   4.433   3.920  10.501 -0.1770 -2.6805  1.0260
  499TMC3    C1 7466   4.529   4.129  10.398  0.2246 -0.5944 -0.3213
  499TMC3    C2 7467   4.509   4.147  10.529  0.4669  0.5345 -0.2655
  499TMC3    C3 7468   4.474   4.272  10.576  0.6321 -0.1927  0.5331
  499TMC3    C4 7469   4.492   4.225  10.308 -0.6961  0.3271  0.8984
  499TMC3    C5 7470   4.450   4.347  10.352 -1.1031 -0.4596 -0.3822
  499TMC3    C6 7471   4.446   4.375  10.485 -0.9082  0.5113  0.0248
  499TMC3     C 7472   4.554   3.995  10.351  0.7590  0.2851  0.2345
  499TMC3     O 7473   4.613   3.996  10.244  0.1358  0.2984 -0.0094
  499TMC3     H 7474   4.525   4.061  10.593  0.3985  0.1353 -0.7879
  499TMC3    H1 7475   4.492   4.198  10.203 -0.6595 -2.3620  1.5832
  499TMC3    H2 7476   4.423   4.475  10.519 -1.7808  0.2757  0.1133
  499TMC3    C7 7477   4.380   4.425  10.255 -0.1621  0.2545  0.0618
  499TMC3    C8 7478   4.495   4.296  10.723  0.0061 -0.2342  0.0857
  499TMC3    O1 7479   4.383   4.545  10.268  0.4758  0.2571  0.1080
  499TMC3    O2 7480   4.517   4.196  10.789 -0.0851  0.3098  0.1619
  500MPD2     C 7481   0.455   0.254  11.294 -0.6579  0.2737 -0.2698
  500MPD2    C1 7482   0.520   0.284  11.182  0.0151 -0.4139  0.9035
  500MPD2    C2 7483   0.457   0.269  11.056 -0.7978  0.6563  0.0072
  500MPD2    C3 7484   0.325   0.250  11.047 -0.8218  0.1781 -0.2426
  500MPD2    C4 7485   0.256   0.244  11.166 -0.3205 -0.2132  0.0859
  500MPD2    C5 7486   0.314   0.238  11.291  0.2286 -0.0461 -0.0691
  500MPD2     H 7487   0.509   0.271  10.961  1.6937 -0.6833  1.3317
  500MPD2    H1 7488   0.148   0.243  11.159 -0.3425  2.1610  0.1534
  500MPD2    H2 7489   0.499   0.263  11.393 -1.4563  1.2350 -0.0007
  500MPD2    H3 7490   0.255   0.233  11.382 -0.9607  0.5765 -0.7916
  500MPD2     N 7491   0.247   0.249  10.926  0.5032  0.9950 -0.0249
  500MPD2    H5 7492   0.145   0.248  10.931  0.3870  0.8450 -2.4359
  500MPD2    N1 7493   0.662   0.306  11.170 -0.1993  0.8361  0.0685
  500MPD2    H7 7494   0.697   0.328  11.077  0.3258 -0.5378 -0.0618
  501TMC3    C1 7495   0.889   0.344  11.235 -0.2114 -0.1565 -0.2153
  501TMC3    C2 7496   0.904   0.422  11.120 -0.5737  0.8650  0.1625
  501TMC3    C3 7497   1.033   0.436  11.076 -0.4286 -0.2797 -0.1460
  501TMC3    C4 7498   0.991   0.301  11.314  0.1984  0.6615  0.3249
  501TMC3    C5 7499   1.115   0.325  11.262 -0.3251  0.1775 -0.2473
  501TMC3    C6 7500   1.138   0.394  11.146  0.0518  0.7633  0.3719
  501TMC3     C 7501   0.751   0.312  11.276  0.0958 -0.2679 -0.1588
  501TMC3     O 7502   0.729   0.283  11.394 -0.0232  0.3902 -0.0955
  501TMC3     H 7503   0.818   0.466  11.071 -0.1909  2.3398  0.8135
  501TMC3    H1 7504   0.975   0.238  11.401 -1.4202 -0.5330 -0.8598
  501TMC3    H2 7505   1.235   0.407  11.100 -0.0502 -1.8310 -0.5683
  501TMC3    C7 7506   1.225   0.246  11.314  0.4391 -0.2975 -0.3682
  501TMC3    C8 7507   1.061   0.511  10.953 -0.3247  0.0517 -0.5275
  501TMC3    O1 7508   1.197   0.139  11.364 -0.8248 -0.0853  0.4869
  501TMC3    O2 7509   1.164   0.574  10.958 -0.2070  0.1664 -0.1078
  502TMC3    C1 7510   0.011   3.145  14.905 -0.6333 -0.1897  0.0015
  502TMC3    C2 7511   0.059   3.267  14.869  0.6428 -0.0147 -0.7012
  502TMC3    C3 7512   4.734   3.382  14.895  0.6239 -0.5596  0.9357
  502TMC3    C4 7513   4.632   3.139  14.973 -0.4199  0.2252 -0.6577
  502TMC3    C5 7514   4.556   3.255  14.982  0.1167 -1.1510 -0.6213
  502TMC3    C6 7515   4.608   3.380  14.944  0.0946  0.1798  0.4637
  502TMC3     C 7516   0.112   3.047  14.938 -0.0453  0.5929  0.5300
  502TMC3     O 7517   0.207   3.042  14.864 -0.2847 -0.7563 -0.2709
  502TMC3     H 7518   0.151   3.260  14.811 -0.0597 -2.2226 -1.5674
  502TMC3    H1 7519   4.590   3.039  14.974 -1.4466  0.6191 -2.5590
  502TMC3    H2 7520   4.560   3.475  14.965 -2.2255 -0.7578 -0.5947
  502TMC3    C7 7521   4.461   3.260  15.090  0.2518  0.0188  0.1424
  502TMC3    C8 7522   0.079   3.494  14.907 -0.7214  0.0917  0.3307
  502TMC3    O1 7523   4.429   3.372  15.130 -0.1892 -0.4358  0.3561
  502TMC3    O2 7524   0.036   3.605  14.877  0.7288  1.0979 -0.1677
  503MPD2     C 7525   2.311   3.961  17.141  0.4288 -0.6327 -0.3125
  503MPD2    C1 7526   2.333   3.997  17.272  0.2245  0.6019  0.0604
  503MPD2    C2 7527   2.435   3.922  17.339  0.1582 -0.7467  0.4097
  503MPD2    C3 7528   2.497   3.814  17.278 -0.0873  0.3797 -0.6244
  503MPD2    C4 7529   2.477   3.794  17.141 -0.0480 -0.5039  0.2849
  503MPD2    C5 7530   2.391   3.869  17.074 -0.1057 -0.6633 -0.0194
  503MPD2     H 7531   2.454   3.939  17.444 -2.0673  2.7336  0.2308
  503MPD2    H1 7532   2.533   3.724  17.081 -0.6418 -1.6601  1.0827
  503MPD2    H2 7533   2.235   4.008  17.080  0.2064 -1.0850 -0.3818
  503MPD2    H3 7534   2.367   3.849  16.970  0.4755 -0.5821 -0.1717
  503MPD2     N 7535   2.590   3.738  17.350  0.0535  0.5248  0.6732
  503MPD2    H5 7536   2.612   3.766  17.445 -0.7897 -2.8379  1.8669
  503MPD2    N1 7537   2.263   4.105  17.333 -0.1385  0.2506  0.3671
  503MPD2    H7 7538   2.293   4.144  17.422  3.0831 -0.8547 -0.2457
  504TMC3    C1 7539   2.779   3.609  17.380  0.5179 -0.5835 -0.0935
  504TMC3    C2 7540   2.734   3.549  17.492 -0.0716  0.1913  0.1625
  504TMC3    C3 7541   2.829   3.501  17.584 -0.2266 -0.1473 -0.2736
  504TMC3    C4 7542   2.906   3.624  17.342  0.8507  0.3180  0.3451
  504TMC3    C5 7543   2.995   3.570  17.437 -0.8054  0.1572  0.1177
  504TMC3    C6 7544   2.961   3.508  17.554  0.6443 -0.1450  0.2053
  504TMC3     C 7545   2.681   3.656  17.288 -0.2270  0.0820 -0.4827
  504TMC3     O 7546   2.700   3.621  17.169  0.0548  0.1609  0.2081
  504TMC3     H 7547   2.627   3.548  17.509 -0.3279 -0.6590 -1.5142
  504TMC3    H1 7548   2.943   3.654  17.244  0.7658 -0.7806 -0.0172
  504TMC3    H2 7549   3.037   3.457  17.613  1.8567 -1.7600 -2.7425
  504TMC3    C7 7550   3.139   3.568  17.390  0.7261  0.3810 -0.3926
  504TMC3    C8 7551   2.773   3.413  17.682  0.4931  0.6268 -0.0578
  504TMC3    O1 7552   3.147   3.612  17.273  0.7896  0.2900  0.1369
  504TMC3    O2 7553   2.657   3.381  17.670 -0.6751  0.2449  0.2208
  505MPD2     C 7554   3.226   2.802  11.316 -0.2804  0.2137 -0.0512
  505MPD2    C1 7555   3.312   2.708  11.269  0.0854 -0.0883 -0.5268
  505MPD2    C2 7556   3.432   2.692  11.336 -0.2690 -0.9801  0.2867
  505MPD2    C3 7557   3.454   2.761  11.452 -0.4492 -0.2277  0.6822
  505MPD2    C4 7558   3.352   2.838  11.509  0.1504 -0.5186 -0.8539
  505MPD2    C5 7559   3.241   2.863  11.436 -0.2711 -0.5262 -0.7383
  505MPD2     H 7560   3.516   2.634  11.299  0.1395  1.6325 -2.8991
  505MPD2    H1 7561   3.356   2.888  11.605 -0.4506 -0.9044 -0.6289
  505MPD2    H2 7562   3.137   2.827  11.261 -0.4039 -0.9848 -0.3969
  505MPD2    H3 7563   3.155   2.919  11.471  0.8360  0.5421  0.2670
  505MPD2     N 7564   3.581   2.744  11.518 -0.5742  0.0353  0.1475
  505MPD2    H5 7565   3.644   2.676  11.476 -1.3519 -2.5968  3.2834
  505MPD2    N1 7566   3.275   2.647  11.146  0.3858 -0.1487  0.2114
  505MPD2    H7 7567   3.184   2.672  11.111  1.5370 -0.5737 -3.0794
  506TMC3    C1 7568   3.306   2.488  10.964 -0.3825 -0.0266 -0.3913
  506TMC3    C2 7569   3.266   2.583  10.868  0.2621 -0.5728 -0.9769
  506TMC3    C3 7570   3.321   2.567  10.742 -0.1347 -0.4669 -0.2738
  506TMC3    C4 7571   3.391   2.390  10.929 -0.5653  0.3528 -0.1437
  506TMC3    C5 7572   3.449   2.380  10.806 -0.3587 -0.0567 -0.0501
  506TMC3    C6 7573   3.411   2.469  10.705 -0.4379 -0.3485 -0.2150
  506TMC3     C 7574   3.352   2.544  11.092 -0.5531  1.0135  0.3273
  506TMC3     O 7575   3.466   2.513  11.113  0.3114  0.3857 -0.0641
  506TMC3     H 7576   3.195   2.661  10.894  0.1152 -0.7147 -0.9524
  506TMC3    H1 7577   3.433   2.329  11.008  0.2495  0.7990 -0.2310
  506TMC3    H2 7578   3.462   2.460  10.609  0.1265  1.2189 -0.0568
  506TMC3    C7 7579   3.589   2.362  10.804  0.6955  0.2351  0.5264
  506TMC3    C8 7580   3.303   2.673  10.644 -0.1684 -0.3590  0.2759
  506TMC3    O1 7581   3.646   2.325  10.703 -0.0116 -0.0985 -0.1339
  506TMC3    O2 7582   3.189   2.726  10.634  0.4366 -0.1782 -0.2696
  507TMC3    C1 7583   3.613   3.591  15.145 -0.3116  0.4223  0.1452
  507TMC3    C2 7584   3.602   3.506  15.041  0.2520 -0.5864 -0.7305
  507TMC3    C3 7585   3.625   3.557  14.912  0.5086 -0.7853  0.4963
  507TMC3    C4 7586   3.679   3.710  15.134 -0.2044 -0.2813 -0.7092
  507TMC3    C5 7587   3.707   3.762  15.009 -0.3980  0.6090  1.0459
  507TMC3    C6 7588   3.677   3.682  14.896 -0.3922  0.1175  0.3122
  507TMC3     C 7589   3.499   3.587  15.236 -0.1907 -0.3070 -0.0499
  507TMC3     O 7590   3.519   3.620  15.350 -0.4277 -0.0277 -0.2234
  507TMC3     H 7591   3.564   3.406  15.055 -0.5871 -0.3234 -1.1229
  507TMC3    H1 7592   3.682   3.779  15.217  0.5588 -2.3742  0.9889
  507TMC3    H2 7593   3.701   3.719  14.798  0.6337  0.0370  0.5315
  507TMC3    C7 7594   3.633   3.882  14.987 -0.9114 -0.0745 -0.6557
  507TMC3    C8 7595   3.506   3.529  14.831 -0.2572  0.3568 -0.4477
  507TMC3    O1 7596   3.560   3.877  14.887  0.4597 -0.2009 -0.5920
  507TMC3    O2 7597   3.481   3.411  14.805  0.3052  0.1968 -0.1294
  508MPD2     C 7598   4.455   0.735  16.187 -0.9460  0.2055 -0.2845
  508MPD2    C1 7599   4.424   0.814  16.296 -0.6426 -0.6221  0.5045
  508MPD2    C2 7600   4.457   0.947  16.289 -0.3961 -0.6677  0.6921
  508MPD2    C3 7601   4.516   0.996  16.173  0.2186 -0.2089 -0.0130
  508MPD2    C4 7602   4.555   0.912  16.072 -0.6678 -0.3214  0.2044
  508MPD2    C5 7603   4.527   0.777  16.078  0.4693  0.3314 -0.0069
  508MPD2     H 7604   4.412   1.011  16.363 -0.0094  0.1515  0.2205
  508MPD2    H1 7605   4.609   0.953  15.987 -0.3839 -1.5169 -0.1842
  508MPD2    H2 7606   4.432   0.629  16.194 -1.2169  0.3765  1.5214
  508MPD2    H3 7607   4.554   0.706  16.001 -1.2259  1.2434 -1.4513
  508MPD2     N 7608   4.546   1.132  16.181 -0.0150  0.3210 -0.1483
  508MPD2    H5 7609   4.541   1.181  16.270 -2.8736  0.4874 -0.4014
  508MPD2    N1 7610   4.357   0.752  16.403 -0.3677  0.1782  0.1286
  508MPD2    H7 7611   4.359   0.650  16.406 -0.7255  0.1563 -0.4002
  509TMC3    C1 7612   4.406   1.533  16.116  0.0336  0.0404 -0.8182
  509TMC3    C2 7613   4.472   1.579  16.227 -0.0030 -0.2201 -0.0871
  509TMC3    C3 7614   4.581   1.509  16.272 -0.1473 -0.3025 -0.2174
  509TMC3    C4 7615   4.434   1.414  16.062  0.3715 -0.2316  0.7593
  509TMC3    C5 7616   4.549   1.350  16.103  0.6736  0.0070  0.1066
  509TMC3    C6 7617   4.619   1.393  16.212 -0.2692 -0.3376 -0.8054
  509TMC3     C 7618   4.280   1.595  16.086 -0.1087 -0.0634  0.1131
  509TMC3     O 7619   4.222   1.650  16.180  0.5003  0.0517 -0.5884
  509TMC3     H 7620   4.443   1.665  16.285  0.6796 -0.3564  0.4626
  509TMC3    H1 7621   4.374   1.387  15.976 -0.5325  0.2676  1.2422
  509TMC3    H2 7622   4.718   1.360  16.240 -0.0478 -0.0050 -1.1969
  509TMC3    C7 7623   4.562   1.209  16.066  0.0780 -0.6220  0.0531
  509TMC3    C8 7624   4.685   1.593  16.332  0.6109  0.9869  0.3106
  509TMC3    O1 7625   4.520   1.183  15.955  0.0797 -0.3484 -0.0024
  509TMC3    O2 7626   0.022   1.544  16.412 -0.0895 -0.2314  0.1137
  510MPD2     C 7627   2.426   3.012  14.863 -1.0717  0.2970  0.0838
  510MPD2    C1 7628   2.457   2.880  14.914  0.8044 -0.1996  0.1139
  510MPD2    C2 7629   2.588   2.835  14.911  0.3543  0.2568  0.0722
  510MPD2    C3 7630   2.687   2.907  14.846  0.8580  1.0786  0.5517
  510MPD2    C4 7631   2.659   3.034  14.808 -0.1996 -0.2306 -0.6421
  510MPD2    C5 7632   2.529   3.077  14.808  0.6786 -0.5672 -0.5856
  510MPD2     H 7633   2.615   2.738  14.952  1.8003  0.2266 -0.9501
  510MPD2    H1 7634   2.738   3.100  14.772  0.7530  0.0103  1.8938
  510MPD2    H2 7635   2.325   3.050  14.857 -1.4061 -1.2442 -4.1985
  510MPD2    H3 7636   2.507   3.177  14.773 -0.1839 -0.4380  0.3216
  510MPD2     N 7637   2.819   2.859  14.841 -0.7477 -0.7486  0.3487
  510MPD2    H5 7638   2.824   2.763  14.872 -0.7315 -0.9964 -0.4240
  510MPD2    N1 7639   2.340   2.800  14.945 -0.5579  0.1662  0.0093
  510MPD2    H7 7640   2.254   2.853  14.944  0.1217  1.2457 -0.3505
  511TMC3    C1 7641   2.204   2.608  14.975  0.1879  0.3157  0.2350
  511TMC3    C2 7642   2.108   2.651  15.065  0.2530  0.7145  0.2751
  511TMC3    C3 7643   2.003   2.562  15.087  0.2318  0.8028  0.1097
  511TMC3    C4 7644   2.190   2.485  14.917  0.1002  0.5011 -0.0245
  511TMC3    C5 7645   2.075   2.412  14.929 -0.1892 -0.5577 -0.4632
  511TMC3    C6 7646   1.974   2.452  15.012  0.2044  0.1197  0.3749
  511TMC3     C 7647   2.332   2.675  14.993  0.3171  0.5013 -0.4119
  511TMC3     O 7648   2.426   2.597  15.005 -0.1908 -0.4250  0.2235
  511TMC3     H 7649   2.131   2.732  15.133  0.5445  1.6018 -0.8750
  511TMC3    H1 7650   2.276   2.450  14.861  0.8634  2.2795  0.0307
  511TMC3    H2 7651   1.876   2.406  15.019  0.7014 -1.0099 -0.1318
  511TMC3    C7 7652   2.068   2.278  14.870  0.4266 -0.1496 -0.5619
  511TMC3    C8 7653   1.907   2.625  15.175  0.0217 -0.2458 -0.7511
  511TMC3    O1 7654   2.138   2.261  14.771 -0.3010 -0.7961 -0.1411
  511TMC3    O2 7655   1.938   2.725  15.236 -0.1855  0.0547 -0.1773
  512TMC3    C1 7656   1.364   2.517  13.249  0.2017 -0.0337  0.5207
  512TMC3    C2 7657   1.485   2.491  13.308  0.5692  0.5389  0.4978
  512TMC3    C3 7658   1.501   2.356  13.330  0.2582  0.0613  0.1820
  512TMC3    C4 7659   1.260   2.433  13.222  0.2251 -0.0513 -0.1348
  512TMC3    C5 7660   1.288   2.299  13.249 -0.1921 -0.2122  0.1686
  512TMC3    C6 7661   1.410   2.260  13.296 -0.0010 -0.5399 -0.9564
  512TMC3     C 7662   1.356   2.654  13.202  0.2932 -0.0260 -0.3405
  512TMC3     O 7663   1.421   2.744  13.256  0.3213 -0.5959  0.2523
  512TMC3     H 7664   1.544   2.572  13.348  1.4818  0.6423 -1.0440
  512TMC3    H1 7665   1.157   2.456  13.202  0.4077  0.8915  0.0289
  512TMC3    H2 7666   1.422   2.161  13.341 -1.1301 -0.0039  0.5168
  512TMC3    C7 7667   1.196   2.206  13.184  0.6474  0.7522 -0.5401
  512TMC3    C8 7668   1.608   2.312  13.415 -0.3345  0.0836 -0.2386
  512TMC3    O1 7669   1.096   2.258  13.140  0.3667 -0.4485 -0.3802
  512TMC3    O2 7670   1.635   2.195  13.415  0.2400  0.2370 -0.2293
  513MPD2     C 7671   3.403   2.540  13.626  0.0580  0.3784  0.2606
  513MPD2    C1 7672   3.344   2.436  13.557 -0.4729 -0.2144  0.5408
  513MPD2    C2 7673   3.374   2.308  13.606 -0.2987  0.0026  0.5185
  513MPD2    C3 7674   3.453   2.281  13.718 -0.2205 -0.2962  0.7937
  513MPD2    C4 7675   3.516   2.393  13.780 -0.1585 -0.1028 -0.6415
  513MPD2    C5 7676   3.493   2.519  13.734  0.5676  0.2839 -0.6901
  513MPD2     H 7677   3.324   2.221  13.565  1.0166 -0.0856 -0.9139
  513MPD2    H1 7678   3.580   2.385  13.867  0.2802  0.6498 -0.8900
  513MPD2    H2 7679   3.398   2.645  13.602 -0.8596 -0.0229 -1.3122
  513MPD2    H3 7680   3.544   2.599  13.786 -1.6834  2.4491 -1.7756
  513MPD2     N 7681   3.473   2.140  13.746 -0.0047 -0.2342 -0.3123
  513MPD2    H5 7682   3.417   2.077  13.689 -1.2349  1.0233 -0.4822
  513MPD2    N1 7683   3.270   2.465  13.443 -0.3237 -0.0546  0.2303
  513MPD2    H7 7684   3.285   2.557  13.403  0.1328 -0.2566 -0.0592
  514TMC3    C1 7685   3.161   2.407  13.241 -0.4635  0.2369  0.0782
  514TMC3    C2 7686   3.233   2.501  13.175  0.7739  0.4373  0.6369
  514TMC3    C3 7687   3.239   2.490  13.040  0.0997 -0.8100 -0.0115
  514TMC3    C4 7688   3.117   2.295  13.180  0.1353 -0.1721 -0.4248
  514TMC3    C5 7689   3.137   2.265  13.051  0.4932 -0.2098 -0.2929
  514TMC3    C6 7690   3.198   2.370  12.985 -0.4997  0.0368 -0.0113
  514TMC3     C 7691   3.196   2.370  13.376 -0.2472 -0.4432  0.5118
  514TMC3     O 7692   3.156   2.260  13.412 -0.2446  0.2516 -0.8688
  514TMC3     H 7693   3.271   2.588  13.228 -1.7612  1.0075  1.4937
  514TMC3    H1 7694   3.036   2.242  13.229 -1.1090  1.6802 -0.4628
  514TMC3    H2 7695   3.227   2.350  12.882  0.5858  0.0122  0.2926
  514TMC3    C7 7696   3.210   2.142  13.031  0.5641 -0.6877 -0.2998
  514TMC3    C8 7697   3.307   2.603  12.971 -0.2018 -0.1115  0.3881
  514TMC3    O1 7698   3.239   2.113  12.914 -0.7167 -0.7494  0.4849
  514TMC3    O2 7699   3.355   2.696  13.033 -0.2237  0.1384 -0.3545
  515MPD2     C 7700   1.105   4.200  14.749  0.2579 -0.5151  0.2456
  515MPD2    C1 7701   1.110   4.071  14.789 -0.3494  1.0037  0.3150
  515MPD2    C2 7702   1.166   4.054  14.914  0.4727 -0.2297 -0.1770
  515MPD2    C3 7703   1.205   4.157  14.994 -1.0055  0.0980  0.7556
  515MPD2    C4 7704   1.187   4.286  14.956  0.0074 -0.0441  0.1779
  515MPD2    C5 7705   1.139   4.307  14.832 -0.6703 -0.6501  0.2742
  515MPD2     H 7706   1.171   3.953  14.954  1.2232  0.0631  0.4602
  515MPD2    H1 7707   1.224   4.368  15.016  0.7420 -0.7809  0.7286
  515MPD2    H2 7708   1.069   4.222  14.649  3.1133  0.5429 -0.5555
  515MPD2    H3 7709   1.139   4.408  14.793  1.1366 -0.1407  1.5643
  515MPD2     N 7710   1.279   4.141  15.116  0.3549  0.8044 -0.1437
  515MPD2    H5 7711   1.331   4.218  15.158 -0.4760  1.8549 -1.0544
  515MPD2    N1 7712   1.059   3.956  14.719 -0.0035  0.0109  0.1924
  515MPD2    H7 7713   1.051   3.864  14.762 -0.7695  0.1694  0.3865
  516TMC3    C1 7714   0.962   3.846  14.542 -0.2213  0.0204  0.1364
  516TMC3    C2 7715   0.862   3.873  14.455 -0.6809 -0.0785  0.2116
  516TMC3    C3 7716   0.742   3.809  14.481  0.0526 -0.4570  0.8598
  516TMC3    C4 7717   0.942   3.746  14.639 -0.0574  0.2136  0.0423
  516TMC3    C5 7718   0.829   3.676  14.640  0.5253  0.0861  0.7602
  516TMC3    C6 7719   0.719   3.710  14.567  0.0366  0.0529 -0.2682
  516TMC3     C 7720   1.028   3.962  14.593  0.5906 -0.3467  0.7339
  516TMC3     O 7721   1.030   4.054  14.510 -0.2814  0.5284 -0.1160
  516TMC3     H 7722   0.870   3.960  14.392 -0.4041  0.3893  0.8898
  516TMC3    H1 7723   1.025   3.714  14.701  2.6435  1.3981 -2.9561
  516TMC3    H2 7724   0.619   3.668  14.582  0.6356 -1.9180 -1.7303
  516TMC3    C7 7725   0.818   3.557  14.721  0.8907  0.1682 -0.7314
  516TMC3    C8 7726   0.622   3.891  14.438  0.0407  0.3252  0.1144
  516TMC3    O1 7727   0.920   3.527  14.780  0.2104 -0.3496 -0.4136
  516TMC3    O2 7728   0.515   3.867  14.494  0.0847 -0.5483 -0.1521
  517MPD2     C 7729   0.065   0.524  17.501  0.7137  0.0370  0.4197
  517MPD2    C1 7730   0.192   0.543  17.548 -0.1867 -0.3119 -0.5248
  517MPD2    C2 7731   0.206   0.646  17.640  0.1804 -0.2904  0.1796
  517MPD2    C3 7732   0.095   0.730  17.680  0.3322  0.2249 -0.1172
  517MPD2    C4 7733   4.711   0.696  17.628 -0.0578 -0.8695 -0.4451
  517MPD2    C5 7734   4.695   0.599  17.539  0.6296  0.4508 -0.4751
  517MPD2     H 7735   0.305   0.646  17.683  0.1601 -0.9574  0.2302
  517MPD2    H1 7736   4.624   0.752  17.661  0.0825  0.5337 -2.4270
  517MPD2    H2 7737   0.038   0.465  17.414 -0.4439  0.2488  0.6446
  517MPD2    H3 7738   4.593   0.572  17.513 -0.4548  1.6686  2.5073
  517MPD2     N 7739   0.106   0.835   0.029 -0.1408 -0.5836  0.4465
  517MPD2    H5 7740   0.021   0.890   0.038  0.4056  0.3669 -0.1594
  517MPD2    N1 7741   0.307   0.468  17.513 -0.3684 -0.8181  0.2195
  517MPD2    H7 7742   0.394   0.500  17.555 -1.6201 -0.2107  2.3273
  518TMC3    C1 7743   0.453   0.331  17.386  1.0300 -0.0768  0.6243
  518TMC3    C2 7744   0.452   0.225  17.299 -0.4800 -0.1372 -0.3740
  518TMC3    C3 7745   0.570   0.178  17.253  0.0253 -0.1173 -0.3298
  518TMC3    C4 7746   0.575   0.384  17.436 -0.2502  0.0710  0.2124
  518TMC3    C5 7747   0.694   0.326  17.391  0.0561  0.9942 -1.2770
  518TMC3    C6 7748   0.697   0.222  17.301  0.0289 -0.4257  0.2439
  518TMC3     C 7749   0.314   0.366  17.422  0.1049 -0.2789  0.2870
  518TMC3     O 7750   0.215   0.323  17.364  0.1367 -0.2704 -0.3535
  518TMC3     H 7751   0.359   0.187  17.257 -1.2256  0.3129  0.8624
  518TMC3    H1 7752   0.586   0.468  17.504  1.5232  0.0590 -0.0534
  518TMC3    H2 7753   0.789   0.186  17.256  0.0012 -0.5059  0.2519
  518TMC3    C7 7754   0.806   0.339  17.485  0.4226  0.0260 -0.3332
  518TMC3    C8 7755   0.575   0.044  17.196 -0.9414  0.2405  0.6318
  518TMC3    O1 7756   0.802   0.401  17.589  0.3428 -0.1491 -0.1177
  518TMC3    O2 7757   0.682   4.720  17.202 -0.2052  0.4205 -0.2566
  519MPD2     C 7758   2.369   3.633  14.866 -0.1586 -0.6899  0.4883
  519MPD2    C1 7759   2.334   3.659  14.736 -0.5068  0.7467 -0.2690
  519MPD2    C2 7760   2.396   3.592  14.635 -0.5244  0.1677 -0.0282
  519MPD2    C3 7761   2.497   3.503  14.671  0.4088 -0.2886 -0.5271
  519MPD2    C4 7762   2.535   3.480  14.807  0.3797 -0.1235  0.2691
  519MPD2    C5 7763   2.459   3.538  14.905 -0.5783 -0.1239 -0.1371
  519MPD2     H 7764   2.373   3.604  14.530  2.1559 -0.1162 -0.6468
  519MPD2    H1 7765   2.623   3.420  14.829 -0.3677 -0.3007  2.7621
  519MPD2    H2 7766   2.327   3.680  14.955  1.2081 -0.5758  1.0819
  519MPD2    H3 7767   2.485   3.524  15.010  0.3214  0.2146 -0.3148
  519MPD2     N 7768   2.586   3.453  14.570  0.0555  0.3833 -0.7831
  519MPD2    H5 7769   2.553   3.479  14.478  1.4109  0.1948 -1.3324
  519MPD2    N1 7770   2.228   3.753  14.720 -0.0589  0.5278 -1.0501
  519MPD2    H7 7771   2.182   3.793  14.801 -1.2220 -0.1078 -1.3900
  520TMC3    C1 7772   2.763   3.359  14.445  0.5466  0.0170 -0.7994
  520TMC3    C2 7773   2.709   3.396  14.322 -0.7020  0.5923  0.5613
  520TMC3    C3 7774   2.798   3.394  14.218  0.7353  0.0200 -0.1901
  520TMC3    C4 7775   2.899   3.341  14.449  1.1160 -0.0829  0.7026
  520TMC3    C5 7776   2.985   3.365  14.347 -0.2306 -0.4840  0.2172
  520TMC3    C6 7777   2.929   3.384  14.229 -0.3983 -0.4271 -0.1484
  520TMC3     C 7778   2.704   3.379  14.578 -0.4416  0.5401  0.0204
  520TMC3     O 7779   2.771   3.365  14.677  0.6012  0.6206  0.6182
  520TMC3     H 7780   2.604   3.416  14.310 -0.2119  1.4288 -2.3283
  520TMC3    H1 7781   2.946   3.321  14.545 -0.0949 -0.7500  1.1583
  520TMC3    H2 7782   2.993   3.397  14.143 -1.9858  1.8233 -0.9975
  520TMC3    C7 7783   3.116   3.295  14.370  0.0274 -0.5399  0.6921
  520TMC3    C8 7784   2.761   3.430  14.081  0.1710  0.2689  0.1999
  520TMC3    O1 7785   3.148   3.292  14.492  0.4082  0.1682  0.2324
  520TMC3    O2 7786   2.841   3.498  14.013  0.1284 -0.0737 -0.2901
  521MPD2     C 7787   3.305   1.760   0.183  0.4598 -0.6317  0.1850
  521MPD2    C1 7788   3.220   1.702   0.085  0.1648 -0.8022  0.0944
  521MPD2    C2 7789   3.265   1.645  17.712 -0.6199  0.6271  0.5110
  521MPD2    C3 7790   3.398   1.636  17.693 -0.2959 -1.1400 -0.5566
  521MPD2    C4 7791   3.482   1.688   0.043 -0.5661 -0.0969 -0.0668
  521MPD2    C5 7792   3.436   1.741   0.162  0.0755  0.1997  0.4620
  521MPD2     H 7793   3.201   1.599  17.638  2.3544  1.5512 -2.6586
  521MPD2    H1 7794   3.588   1.680   0.024  0.1928 -1.1084  4.6742
  521MPD2    H2 7795   3.272   1.818   0.268  0.0386 -1.3070  0.4796
  521MPD2    H3 7796   3.507   1.776   0.236  1.4117  0.8076 -1.0930
  521MPD2     N 7797   3.445   1.582  17.574  0.0844  0.2579 -0.3952
  521MPD2    H5 7798   3.380   1.583  17.496  1.1616  2.0794 -1.2561
  521MPD2    N1 7799   3.078   1.706   0.091  0.6631  0.1547 -0.0782
  521MPD2    H7 7800   3.024   1.669   0.013  0.4894  1.1717 -0.4295
  522TMC3    C1 7801   3.591   1.445  17.430 -0.0275  0.7812  0.0728
  522TMC3    C2 7802   3.662   1.327  17.439  0.7284  0.8016 -0.4841
  522TMC3    C3 7803   3.658   1.236  17.336  0.4675 -0.2446  0.0528
  522TMC3    C4 7804   3.521   1.481  17.312 -0.1522  0.0606  0.1641
  522TMC3    C5 7805   3.541   1.396  17.212 -0.4928  0.9605 -0.3938
  522TMC3    C6 7806   3.608   1.271  17.211 -0.6900 -0.0459 -0.5614
  522TMC3     C 7807   3.562   1.515  17.564 -0.3390  0.1428 -0.5425
  522TMC3     O 7808   3.646   1.486  17.650 -0.2400  0.2799 -0.3762
  522TMC3     H 7809   3.700   1.292  17.534  1.3452  1.4533 -0.4910
  522TMC3    H1 7810   3.465   1.572  17.300  0.0265  0.3596  1.7050
  522TMC3    H2 7811   3.599   1.202  17.128  0.8595 -2.0526  0.9313
  522TMC3    C7 7812   3.493   1.435  17.079 -0.2305 -0.1314  0.1315
  522TMC3    C8 7813   3.689   1.093  17.361  0.6262 -0.2284 -0.8494
  522TMC3    O1 7814   3.557   1.391  16.983  0.1793  0.3412 -0.0917
  522TMC3    O2 7815   3.665   1.054  17.473 -0.0238 -0.2329 -0.1803
  523MPD2     C 7816   2.036   2.014  10.198 -0.3810 -0.5379  0.1717
  523MPD2    C1 7817   1.907   1.975  10.167  0.0445 -0.2875 -0.3411
  523MPD2    C2 7818   1.830   2.050  10.082  0.0905  0.2143 -0.8492
  523MPD2    C3 7819   1.878   2.173  10.026 -0.6293  0.2952 -0.5728
  523MPD2    C4 7820   2.014   2.207  10.054 -0.7386  0.6254 -0.2985
  523MPD2    C5 7821   2.086   2.131  10.147  0.1872  0.0847 -0.5735
  523MPD2     H 7822   1.730   2.015  10.057 -0.1594 -0.6912  1.4431
  523MPD2    H1 7823   2.056   2.296  10.010 -0.5118  1.2246  1.1362
  523MPD2    H2 7824   2.096   1.960  10.270  1.5046  1.2109 -0.0856
  523MPD2    H3 7825   2.189   2.148  10.177  0.6630 -1.8244 -1.0708
  523MPD2     N 7826   1.805   2.250   9.934 -0.1691  0.1019  0.2095
  523MPD2    H5 7827   1.862   2.318   9.883  0.2433 -1.1473 -1.0174
  523MPD2    N1 7828   1.860   1.853  10.225 -0.0510 -0.0395 -0.2516
  523MPD2    H7 7829   1.934   1.805  10.277 -0.9305  0.3475  1.3654
  524TMC3    C1 7830   1.626   2.312   9.779  0.7323  0.3349  0.5200
  524TMC3    C2 7831   1.515   2.270   9.719 -0.1303  0.2886 -0.1329
  524TMC3    C3 7832   1.470   2.349   9.615  0.3285 -0.1562  0.4332
  524TMC3    C4 7833   1.707   2.422   9.737  0.4545  0.3510 -0.3147
  524TMC3    C5 7834   1.656   2.487   9.628  0.0857 -0.4081 -0.4375
  524TMC3    C6 7835   1.544   2.451   9.560 -0.0418 -0.2066 -0.0008
  524TMC3     C 7836   1.672   2.232   9.893 -0.1604  0.6034  0.2781
  524TMC3     O 7837   1.590   2.146   9.926  0.1745  0.4653 -0.7320
  524TMC3     H 7838   1.436   2.213   9.765 -0.5849  2.7799  2.1796
  524TMC3    H1 7839   1.792   2.462   9.790 -0.7935 -0.4831  2.3200
  524TMC3    H2 7840   1.509   2.505   9.473  0.8780  1.1105  0.4430
  524TMC3    C7 7841   1.673   2.632   9.628 -0.1601  0.0994  0.7313
  524TMC3    C8 7842   1.339   2.334   9.556  0.2584 -0.4183 -0.5845
  524TMC3    O1 7843   1.787   2.674   9.645 -0.0232  0.3452  0.3029
  524TMC3    O2 7844   1.297   2.442   9.520  0.0807  0.0514  0.2814
  525MPD2     C 7845   3.862   3.175  14.871  0.2781 -0.1154 -0.2182
  525MPD2    C1 7846   3.987   3.176  14.930  0.0530  0.3645 -0.3383
  525MPD2    C2 7847   4.071   3.275  14.894  0.1280 -0.3658 -0.1836
  525MPD2    C3 7848   4.017   3.394  14.836 -1.2614 -0.5226 -0.2772
  525MPD2    C4 7849   3.891   3.397  14.801  0.2391  0.2071  0.0474
  525MPD2    C5 7850   3.818   3.289  14.811 -0.6171  0.1684 -0.7436
  525MPD2     H 7851   4.176   3.265  14.919  0.2408  1.9159  0.2138
  525MPD2    H1 7852   3.850   3.485  14.752 -0.9655 -0.6427 -0.4569
  525MPD2    H2 7853   3.790   3.095  14.882 -0.9084  0.9353 -0.2381
  525MPD2    H3 7854   3.714   3.287  14.779 -0.6839 -0.8952 -0.4518
  525MPD2     N 7855   4.089   3.517  14.821  0.7253 -0.1931 -0.1788
  525MPD2    H5 7856   4.029   3.582  14.772 -0.8392 -1.3331  0.1996
  525MPD2    N1 7857   4.034   3.068  15.010 -0.8787 -0.4337  0.0852
  525MPD2    H7 7858   4.132   3.058  15.036 -0.6519  1.6188 -0.0053
  526TMC3    C1 7859   3.997   2.895  15.176 -0.8095  0.0910  0.5305
  526TMC3    C2 7860   3.915   2.859  15.277  0.6378 -0.4215 -0.0250
  526TMC3    C3 7861   3.928   2.739  15.341 -0.1316 -0.7432 -0.2271
  526TMC3    C4 7862   4.105   2.814  15.145  0.0875  0.0665  0.1334
  526TMC3    C5 7863   4.126   2.694  15.212 -0.2012 -0.2240 -0.1200
  526TMC3    C6 7864   4.041   2.667  15.314 -0.1332 -0.5778  0.2695
  526TMC3     C 7865   3.944   2.998  15.085  0.0348 -0.7701 -1.2520
  526TMC3     O 7866   3.829   3.033  15.108 -0.2024 -0.3716  0.3790
  526TMC3     H 7867   3.832   2.923  15.304  0.7148  0.7053 -2.4786
  526TMC3    H1 7868   4.169   2.835  15.060  2.1469 -2.0089  1.1859
  526TMC3    H2 7869   4.055   2.575  15.369 -0.7142 -0.8514 -0.0454
  526TMC3    C7 7870   4.256   2.630  15.225 -0.8338 -0.5466 -0.0931
  526TMC3    C8 7871   3.910   2.744  15.483 -0.1825 -0.9549 -0.0889
  526TMC3    O1 7872   4.284   2.582  15.333  0.0063  0.1470  0.9743
  526TMC3    O2 7873   3.991   2.687  15.557 -0.3216 -0.2674  0.3744
  527MPD2     C 7874   1.331   1.788   1.459 -0.5617 -0.4536 -0.0631
  527MPD2    C1 7875   1.272   1.728   1.346  0.5292  0.1879  0.2474
  527MPD2    C2 7876   1.352   1.672   1.250  0.1000 -0.7448  0.0584
  527MPD2    C3 7877   1.482   1.647   1.265  0.2151 -0.1694 -0.2813
  527MPD2    C4 7878   1.537   1.691   1.386  0.1311  0.1504 -0.2913
  527MPD2    C5 7879   1.469   1.780   1.469 -0.3542 -0.8765  0.5309
  527MPD2     H 7880   1.298   1.651   1.159  0.0160  0.9883 -0.2877
  527MPD2    H1 7881   1.643   1.690   1.411  0.5356  0.8886 -2.0088
  527MPD2    H2 7882   1.270   1.827   1.539 -0.9935  1.0402 -1.1231
  527MPD2    H3 7883   1.520   1.831   1.549  0.5591 -1.0426  0.0505
  527MPD2     N 7884   1.560   1.597   1.159 -0.6682 -0.3786 -0.6932
  527MPD2    H5 7885   1.509   1.569   1.075  0.6402 -1.3923 -1.1486
  527MPD2    N1 7886   1.134   1.724   1.321 -0.1322  0.4838 -0.3329
  527MPD2    H7 7887   1.096   1.675   1.241 -0.0609 -0.9280  0.4844
  528TMC3    C1 7888   0.912   1.747   1.354 -0.0354 -0.2092  0.4445
  528TMC3    C2 7889   0.891   1.624   1.300 -0.1729 -0.5865 -0.1962
  528TMC3    C3 7890   0.765   1.591   1.259  0.1889 -0.3400  0.2960
  528TMC3    C4 7891   0.807   1.835   1.364  1.1388  0.0190 -0.1758
  528TMC3    C5 7892   0.692   1.807   1.294 -0.2569  0.4678 -0.3029
  528TMC3    C6 7893   0.662   1.684   1.255 -0.5132  0.0171 -0.3363
  528TMC3     C 7894   1.042   1.786   1.396 -0.2016 -0.2639  0.3215
  528TMC3     O 7895   1.041   1.852   1.503  0.2894  0.2984  0.2317
  528TMC3     H 7896   0.974   1.554   1.294 -0.1028 -0.6372  1.4162
  528TMC3    H1 7897   0.827   1.935   1.402 -0.5701 -0.2075  1.3185
  528TMC3    H2 7898   0.566   1.658   1.210 -0.0785 -0.8226 -0.7775
  528TMC3    C7 7899   0.583   1.887   1.339  0.5198 -0.0098 -0.4519
  528TMC3    C8 7900   0.774   1.499   1.142 -0.2985  0.1074 -0.6415
  528TMC3    O1 7901   0.579   1.934   1.451 -0.1224 -0.4575  0.2479
  528TMC3    O2 7902   0.887   1.491   1.097 -0.0258 -0.7718  0.1473
  529MPD2     C 7903   3.635   3.849   0.875  0.3116 -0.2401 -0.3196
  529MPD2    C1 7904   3.740   3.935   0.899  0.0735 -0.5541  0.4059
  529MPD2    C2 7905   3.724   4.070   0.865  0.4517  0.3564  0.3763
  529MPD2    C3 7906   3.603   4.118   0.822 -0.0587  0.0499 -0.8886
  529MPD2    C4 7907   3.500   4.026   0.802 -0.5768 -0.6362  0.3728
  529MPD2    C5 7908   3.523   3.896   0.817  0.1323 -0.1099 -0.6639
  529MPD2     H 7909   3.806   4.136   0.890 -0.1644 -0.3712  4.3131
  529MPD2    H1 7910   3.405   4.057   0.761  0.1908 -1.5724 -2.1225
  529MPD2    H2 7911   3.643   3.746   0.906 -1.4532 -0.6299 -1.1450
  529MPD2    H3 7912   3.435   3.836   0.799 -0.8284  1.6027 -1.7060
  529MPD2     N 7913   3.573   4.253   0.794  0.8222 -0.1645 -0.3352
  529MPD2    H5 7914   3.478   4.272   0.765  1.0713 -0.2093 -1.1615
  529MPD2    N1 7915   3.869   3.893   0.943  0.6259  0.4372  0.0683
  529MPD2    H7 7916   3.937   3.967   0.936  1.0185  0.1826  1.2847
  530TMC3    C1 7917   4.038   3.771   1.046 -0.7610 -0.1595 -0.5239
  530TMC3    C2 7918   4.135   3.855   1.001  0.4396  0.2930 -0.2709
  530TMC3    C3 7919   4.261   3.852   1.056 -0.6427  0.3439 -0.6740
  530TMC3    C4 7920   4.074   3.678   1.144  0.2626  0.3952  0.6638
  530TMC3    C5 7921   4.192   3.689   1.202 -0.3556 -0.2280  0.4913
  530TMC3    C6 7922   4.289   3.773   1.162  0.3062  0.5104  0.3542
  530TMC3     C 7923   3.902   3.769   0.991 -0.1946  0.0978  0.1126
  530TMC3     O 7924   3.829   3.677   1.019 -0.5540  0.5651 -0.4530
  530TMC3     H 7925   4.119   3.912   0.911 -0.2095  1.4722  0.5898
  530TMC3    H1 7926   3.996   3.610   1.179  0.7598 -1.1309 -1.1798
  530TMC3    H2 7927   4.369   3.800   1.230 -0.1483  0.6048  0.8555
  530TMC3    C7 7928   4.208   3.677   1.341 -0.7930  0.1087 -0.5370
  530TMC3    C8 7929   4.337   3.981   1.049 -0.8305 -0.5230  0.0829
  530TMC3    O1 7930   4.311   3.628   1.386 -0.2604 -0.2630 -0.4329
  530TMC3    O2 7931   4.263   4.076   1.039 -0.4655 -0.0890  0.3365
  531MPD2     C 7932   3.522   1.774  13.216 -0.2515  0.1087  0.0043
  531MPD2    C1 7933   3.470   1.841  13.321 -0.6022  0.2014 -0.4259
  531MPD2    C2 7934   3.392   1.954  13.294 -0.3205  0.8837  0.1770
  531MPD2    C3 7935   3.351   1.987  13.161 -0.7193  0.1389 -0.4043
  531MPD2    C4 7936   3.399   1.908  13.057  0.3377  0.3199 -0.1597
  531MPD2    C5 7937   3.486   1.805  13.089  0.2110 -0.6870  0.1997
  531MPD2     H 7938   3.360   2.023  13.371 -0.8961  0.7898  0.0240
  531MPD2    H1 7939   3.384   1.940  12.955 -1.6935 -0.5636 -0.1417
  531MPD2    H2 7940   3.586   1.692  13.246  1.7495  1.0760 -1.6508
  531MPD2    H3 7941   3.523   1.752  13.001  0.5588  1.0070 -0.6860
  531MPD2     N 7942   3.251   2.086  13.145  0.9544  0.6284  0.3511
  531MPD2    H5 7943   3.220   2.129  13.232  0.1201  1.7584 -0.5118
  531MPD2    N1 7944   3.501   1.798  13.452  0.2836  0.3232  0.4416
  531MPD2    H7 7945   3.567   1.723  13.469 -0.4335 -0.5595 -0.6381
  532TMC3    C1 7946   3.492   1.791  13.691  0.0174 -0.4326  0.1833
  532TMC3    C2 7947   3.449   1.883  13.790 -0.4246  0.1117  0.0882
  532TMC3    C3 7948   3.549   1.946  13.863 -0.4600  0.4485  0.3948
  532TMC3    C4 7949   3.615   1.736  13.683  0.1570 -0.3899  0.3827
  532TMC3    C5 7950   3.707   1.787  13.773 -0.3910  0.1160  0.2011
  532TMC3    C6 7951   3.680   1.895  13.857 -0.0423 -0.2343  0.5837
  532TMC3     C 7952   3.430   1.832  13.564  0.4819 -0.5126 -1.2493
  532TMC3     O 7953   3.347   1.925  13.572  0.3762  0.1602  0.1178
  532TMC3     H 7954   3.343   1.902  13.800 -0.3828 -0.0667  0.8619
  532TMC3    H1 7955   3.639   1.656  13.614  0.9352 -1.1998  1.5851
  532TMC3    H2 7956   3.763   1.944  13.907  1.8394 -1.6262 -1.1571
  532TMC3    C7 7957   3.839   1.737  13.778 -0.5440 -0.6618  0.4060
  532TMC3    C8 7958   3.545   2.096  13.848 -0.4104 -0.6370  0.0821
  532TMC3    O1 7959   3.915   1.790  13.858 -0.3684 -0.0615 -0.1747
  532TMC3    O2 7960   3.600   2.159  13.939  0.0351  0.0481 -0.3980
  533TMC3    C1 7961   4.235   3.695  14.840 -0.2454 -0.4700  0.2761
  533TMC3    C2 7962   4.349   3.760  14.798  0.0825  0.3735 -0.2841
  533TMC3    C3 7963   4.351   3.894  14.799  0.2289 -0.2965 -0.3852
  533TMC3    C4 7964   4.131   3.767  14.891 -0.1189  0.2087 -0.5356
  533TMC3    C5 7965   4.135   3.907  14.892 -0.0162  0.5028  0.0966
  533TMC3    C6 7966   4.244   3.968  14.830 -0.0991  0.4800 -0.3281
  533TMC3     C 7967   4.221   3.550  14.852  0.9298  0.0849  0.1339
  533TMC3     O 7968   4.318   3.473  14.860 -0.1800 -0.0023  0.0301
  533TMC3     H 7969   4.434   3.700  14.768  1.1065  2.0344 -0.6900
  533TMC3    H1 7970   4.052   3.711  14.940 -0.8215  2.3817  0.8506
  533TMC3    H2 7971   4.276   4.066  14.863  2.4923 -0.3911 -0.2852
  533TMC3    C7 7972   4.070   3.967  15.005  0.6316 -1.1581  0.1676
  533TMC3    C8 7973   4.472   3.958  14.765  0.4835  0.3379 -0.2164
  533TMC3    O1 7974   4.040   4.085  14.999  0.2767 -0.1378  0.1500
  533TMC3    O2 7975   4.570   3.898  14.804 -0.9332 -0.2798  0.0222
  534MPD2     C 7976   2.014   0.660   0.742  0.4473 -0.3595 -1.4262
  534MPD2    C1 7977   1.886   0.684   0.790  0.5139 -0.6213 -0.4267
  534MPD2    C2 7978   1.779   0.622   0.730 -0.3892  0.3903 -0.1609
  534MPD2    C3 7979   1.793   0.516   0.642 -0.2750  0.3352 -0.1853
  534MPD2    C4 7980   1.930   0.485   0.607  0.1498  0.1870  0.8316
  534MPD2    C5 7981   2.034   0.555   0.660  0.2158 -0.0351  0.4278
  534MPD2     H 7982   1.677   0.645   0.760 -0.7630 -0.7642 -0.5414
  534MPD2    H1 7983   1.949   0.396   0.548 -1.9258  0.3491 -0.1094
  534MPD2    H2 7984   2.101   0.707   0.787 -0.7657 -1.2365  1.8674
  534MPD2    H3 7985   2.133   0.532   0.621 -0.4687  1.4575 -2.2167
  534MPD2     N 7986   1.688   0.440   0.588 -0.2164  0.5636  0.2723
  534MPD2    H5 7987   1.707   0.368   0.519 -0.5120  0.8559 -0.1098
  534MPD2    N1 7988   1.871   0.780   0.890 -0.0191  0.6415 -0.2498
  534MPD2    H7 7989   1.778   0.811   0.915  0.2936  2.3280 -1.1762
  535TMC3    C1 7990   1.471   0.354   0.565 -0.1758  0.1734 -0.3821
  535TMC3    C2 7991   1.338   0.391   0.548 -0.6432  0.4123  1.0170
  535TMC3    C3 7992   1.253   0.293   0.497  0.6887  0.4343 -0.9782
  535TMC3    C4 7993   1.524   0.229   0.520 -0.2589  0.2115 -0.2524
  535TMC3    C5 7994   1.429   0.143   0.462  0.0786  0.5293  0.7744
  535TMC3    C6 7995   1.300   0.179   0.442  0.4741  0.2513  0.2853
  535TMC3     C 7996   1.553   0.453   0.619 -0.2106  0.2358 -0.0326
  535TMC3     O 7997   1.486   0.540   0.672  0.6263 -0.1025  0.2380
  535TMC3     H 7998   1.304   0.494   0.554 -1.0395  0.2158  2.0543
  535TMC3    H1 7999   1.627   0.202   0.537  0.4090  2.7855 -0.2222
  535TMC3    H2 8000   1.236   0.111   0.387  0.9528  1.1457 -1.3897
  535TMC3    C7 8001   1.491   0.029   0.397 -0.4824  0.7551  0.4458
  535TMC3    C8 8002   1.113   0.301   0.516  0.5427  0.1040  0.7114
  535TMC3    O1 8003   1.614   0.022   0.382  0.2020  0.4835 -0.0048
  535TMC3    O2 8004   1.048   0.232   0.442  0.4964  0.2648 -0.2479
  536MPD2     C 8005   0.751   2.928  16.221  0.3814 -0.2448  0.5356
  536MPD2    C1 8006   0.650   2.851  16.279 -0.4392 -0.2163 -0.2635
  536MPD2    C2 8007   0.544   2.835  16.195 -0.1038 -0.1625 -0.0695
  536MPD2    C3 8008   0.537   2.887  16.070 -0.4185 -0.2554  0.5934
  536MPD2    C4 8009   0.644   2.952  16.016 -0.2437 -0.1613  0.3038
  536MPD2    C5 8010   0.752   2.971  16.096  0.1310 -0.3742 -0.0176
  536MPD2     H 8011   0.459   2.776  16.230 -1.7031  1.8967 -0.4969
  536MPD2    H1 8012   0.652   2.996  15.917  1.4193  2.8468  1.7790
  536MPD2    H2 8013   0.838   2.944  16.285  0.4351 -0.7758  0.5968
  536MPD2    H3 8014   0.840   3.017  16.051  2.2487 -3.8146  0.5836
  536MPD2     N 8015   0.428   2.867  15.977 -0.1333 -0.8129 -0.6807
  536MPD2    H5 8016   0.443   2.909  15.886 -0.3298 -0.7670 -0.6928
  536MPD2    N1 8017   0.650   2.811  16.411  0.3704  0.6348 -0.7688
  536MPD2    H7 8018   0.734   2.834  16.463 -0.6465  2.1124  0.2108
  537TMC3    C1 8019   0.576   2.713  16.601 -0.3717  0.1332  0.5099
  537TMC3    C2 8020   0.630   2.816  16.671  0.5529  0.4811  0.4447
  537TMC3    C3 8021   0.603   2.809  16.808  0.1924 -0.4679 -0.0788
  537TMC3    C4 8022   0.509   2.602  16.649 -0.2880  0.2121  0.7890
  537TMC3    C5 8023   0.493   2.604  16.787 -0.1552 -0.4370 -0.9632
  537TMC3    C6 8024   0.533   2.708  16.866 -0.2855  0.2261  0.7035
  537TMC3     C 8025   0.557   2.725  16.462 -0.4464  0.1439 -0.2513
  537TMC3     O 8026   0.468   2.660  16.412  0.1247 -0.7017  0.9042
  537TMC3     H 8027   0.687   2.899  16.630  0.3609 -0.6378 -2.0651
  537TMC3    H1 8028   0.461   2.520  16.597 -3.4743  2.2440  0.5156
  537TMC3    H2 8029   0.494   2.715  16.967  0.5724  0.3579  1.0244
  537TMC3    C7 8030   0.370   2.544  16.835  0.0276  0.1379  0.4339
  537TMC3    C8 8031   0.625   2.932  16.879 -0.4328  0.1107  0.0261
  537TMC3    O1 8032   0.274   2.577  16.767 -0.2200 -0.3366  0.5790
  537TMC3    O2 8033   0.729   2.944  16.941 -0.7645 -0.3576  0.0294
  538TMC3    C1 8034   2.060   1.642  11.244  0.5505  0.6965  0.3122
  538TMC3    C2 8035   2.179   1.582  11.239 -0.6341 -0.2086 -0.0259
  538TMC3    C3 8036   2.265   1.613  11.137 -0.7214  0.2934 -0.3304
  538TMC3    C4 8037   2.017   1.740  11.161 -0.3707 -0.6703  0.3969
  538TMC3    C5 8038   2.096   1.765  11.055 -0.5855  0.1369 -1.1333
  538TMC3    C6 8039   2.223   1.709  11.047  0.0074 -0.1490  0.5762
  538TMC3     C 8040   1.978   1.630  11.359 -0.2414  0.4133 -0.0757
  538TMC3     O 8041   1.893   1.714  11.380 -0.1453  0.4906  0.3211
  538TMC3     H 8042   2.205   1.510  11.315 -1.5021  3.5127  3.7940
  538TMC3    H1 8043   1.928   1.798  11.180  1.0954  1.4149  0.8502
  538TMC3    H2 8044   2.277   1.734  10.957 -1.3461  1.0712  0.0956
  538TMC3    C7 8045   2.039   1.811  10.927 -0.1297 -0.1522  0.8487
  538TMC3    C8 8046   2.365   1.516  11.089  0.0613  1.2190  0.3937
  538TMC3    O1 8047   2.123   1.828  10.837 -0.1789 -0.4908 -0.9277
  538TMC3    O2 8048   2.329   1.399  11.103  0.4812 -0.4615  0.4082
  539MPD2     C 8049   1.376   0.577  11.776 -0.4773  1.9528  0.2560
  539MPD2    C1 8050   1.470   0.657  11.709  0.4195 -0.1520  0.2454
  539MPD2    C2 8051   1.446   0.796  11.691 -0.3130 -0.0976 -0.0694
  539MPD2    C3 8052   1.334   0.858  11.741  0.0054 -0.3534  0.3236
  539MPD2    C4 8053   1.242   0.776  11.807 -0.3851 -0.3676  0.2842
  539MPD2    C5 8054   1.260   0.636  11.821  0.1960 -0.0101 -0.3843
  539MPD2     H 8055   1.523   0.849  11.638  1.2471 -0.0126  2.2569
  539MPD2    H1 8056   1.156   0.818  11.857  0.9049  0.4845  1.7695
  539MPD2    H2 8057   1.388   0.471  11.791 -2.3105  1.9433  1.7606
  539MPD2    H3 8058   1.188   0.579  11.880 -1.5195  0.2622 -2.2145
  539MPD2     N 8059   1.307   1.000  11.730  0.0499  0.8476  0.4738
  539MPD2    H5 8060   1.213   1.021  11.761 -0.3986  0.1110 -0.3831
  539MPD2    N1 8061   1.583   0.595  11.647  0.1922  0.1487 -0.0003
  539MPD2    H7 8062   1.658   0.660  11.623 -1.0338  1.3629 -0.5145
  540TMC3    C1 8063   1.327   1.226  11.669  0.3454  0.7707 -0.1109
  540TMC3    C2 8064   1.367   1.308  11.566  0.9020  0.2111  0.4375
  540TMC3    C3 8065   1.297   1.424  11.556 -0.1926 -0.9743 -0.8440
  540TMC3    C4 8066   1.252   1.264  11.775  0.0529 -0.5030  0.7084
  540TMC3    C5 8067   1.193   1.385  11.757 -0.3053  0.3474  0.5490
  540TMC3    C6 8068   1.220   1.469  11.655 -0.8956 -0.3453 -0.3952
  540TMC3     C 8069   1.391   1.094  11.674 -0.1886 -1.0712  0.7506
  540TMC3     O 8070   1.496   1.076  11.616  0.4193  0.0241 -0.1690
  540TMC3     H 8071   1.429   1.272  11.485  1.1114  0.5453  0.4464
  540TMC3    H1 8072   1.233   1.203  11.862 -2.4954  1.4188  1.4955
  540TMC3    H2 8073   1.164   1.561  11.646  2.6601  2.0199  1.5478
  540TMC3    C7 8074   1.062   1.405  11.822  0.0686  0.5457  0.4556
  540TMC3    C8 8075   1.316   1.507  11.444 -0.7563  0.0395  0.4414
  540TMC3    O1 8076   0.979   1.466  11.758  0.8825  0.4236 -0.2708
  540TMC3    O2 8077   1.320   1.630  11.458  0.0013  0.5584 -0.8243
  541MPD2     C 8078   4.405   2.177  13.447  0.4975 -0.0102  0.5999
  541MPD2    C1 8079   4.488   2.087  13.378 -0.5203  0.2016  0.2775
  541MPD2    C2 8080   4.538   2.127  13.253 -0.2206 -0.1747 -0.0221
  541MPD2    C3 8081   4.499   2.252  13.200 -0.6607  0.0221  0.2393
  541MPD2    C4 8082   4.422   2.335  13.272 -0.1009  0.3260 -0.1754
  541MPD2    C5 8083   4.377   2.299  13.397 -0.3417  0.2284 -0.1201
  541MPD2     H 8084   4.564   2.050  13.182 -2.5040  0.1636 -1.2250
  541MPD2    H1 8085   4.392   2.430  13.228 -0.1153  0.7724  0.7951
  541MPD2    H2 8086   4.364   2.158  13.545  0.1005 -2.0084  0.0475
  541MPD2    H3 8087   4.320   2.374  13.451 -0.1483  0.2319  0.0818
  541MPD2     N 8088   4.531   2.281  13.064  0.6167  0.2130  0.1836
  541MPD2    H5 8089   4.490   2.362  13.017 -1.1697  0.2399  1.7828
  541MPD2    N1 8090   4.512   1.957  13.434 -0.0505  0.6036  0.0633
  541MPD2    H7 8091   4.462   1.943  13.521  0.3324  0.4220  0.2526
  542TMC3    C1 8092   4.639   2.258  12.853 -0.2202 -0.4109 -0.1318
  542TMC3    C2 8093   4.719   2.188  12.767 -0.0428 -0.5550 -0.2122
  542TMC3    C3 8094   0.018   2.246  12.647 -0.0916  0.7456 -0.1616
  542TMC3    C4 8095   4.584   2.380  12.812  0.5013  0.1404 -0.2012
  542TMC3    C5 8096   4.614   2.423  12.687  0.5649  0.1004  0.4177
  542TMC3    C6 8097   4.701   2.363  12.606  0.2621  0.7940 -0.0898
  542TMC3     C 8098   4.610   2.200  12.982  0.2065  0.4778 -0.2028
  542TMC3     O 8099   4.671   2.093  13.001 -0.1752  0.3234  0.4931
  542TMC3     H 8100   0.029   2.092  12.787  0.0869 -0.3397  0.5130
  542TMC3    H1 8101   4.526   2.443  12.877  0.9882 -0.8618  1.1956
  542TMC3    H2 8102   4.731   2.414  12.515 -2.1920 -0.2950 -1.5100
  542TMC3    C7 8103   4.618   2.567  12.670  0.3517 -0.0106 -0.2886
  542TMC3    C8 8104   0.043   2.169  12.528  0.1648  0.1364  0.5056
  542TMC3    O1 8105   4.610   2.631  12.770 -0.3381  0.2686 -0.4611
  542TMC3    O2 8106   4.717   2.203  12.427 -0.2179  0.3807 -0.3926
  543TMC3    C1 8107   4.146   3.761  17.469 -0.6917 -0.3168  0.4210
  543TMC3    C2 8108   4.147   3.629  17.511  0.1483  0.4340 -0.2592
  543TMC3    C3 8109   4.075   3.607  17.621 -0.7639 -0.1492 -0.1481
  543TMC3    C4 8110   4.080   3.867  17.523 -0.2759 -0.0447  0.2750
  543TMC3    C5 8111   4.013   3.842  17.638  0.3466  0.2233  0.3728
  543TMC3    C6 8112   4.013   3.715  17.690  0.1256  0.8332  0.0087
  543TMC3     C 8113   4.221   3.780  17.345  0.1373  0.0198  0.0954
  543TMC3     O 8114   4.299   3.689  17.314 -0.1702  0.1396 -0.3613
  543TMC3     H 8115   4.194   3.542  17.468  1.4167  0.9387  0.1125
  543TMC3    H1 8116   4.109   3.963  17.481  2.8571 -0.6510  1.0929
  543TMC3    H2 8117   3.943   3.696   0.024  0.3137 -1.3978 -0.3377
  543TMC3    C7 8118   3.924   3.942  17.696 -0.2929 -0.0705 -0.1325
  543TMC3    C8 8119   4.033   3.476  17.656 -0.6029 -0.2823 -0.5975
  543TMC3    O1 8120   3.849   3.906   0.043 -0.4342 -0.4913  0.6523
  543TMC3    O2 8121   3.994   3.407  17.563  0.4089  0.0618 -0.1302
  544MPD2     C 8122   4.003   3.071   0.220  0.7469 -0.1798  0.0457
  544MPD2    C1 8123   3.941   3.100   0.101  1.4978  0.8480  0.0911
  544MPD2    C2 8124   3.953   3.219   0.033  0.7481  0.2215 -0.7092
  544MPD2    C3 8125   4.036   3.318   0.093  0.5332  0.1632 -0.2731
  544MPD2    C4 8126   4.096   3.292   0.211 -0.1925 -0.3961 -0.6940
  544MPD2    C5 8127   4.078   3.171   0.271 -0.0282  0.3681 -1.0396
  544MPD2     H 8128   3.890   3.238  17.694 -0.3816 -1.2454 -0.1996
  544MPD2    H1 8129   4.165   3.358   0.260 -1.0435 -0.1574  0.1752
  544MPD2    H2 8130   3.998   2.972   0.264  0.8508 -0.8139 -1.3672
  544MPD2    H3 8131   4.131   3.167   0.366  0.5854 -1.8629 -1.4790
  544MPD2     N 8132   4.062   3.445   0.039 -0.7046  0.5978  0.1191
  544MPD2    H5 8133   4.103   3.519   0.096 -1.1684  0.8259  0.1603
  544MPD2    N1 8134   3.881   2.983   0.045 -0.0268  0.6218  0.3063
  544MPD2    H7 8135   3.903   2.892   0.084 -0.5170  0.1319 -0.5403
  545TMC3    C1 8136   3.739   2.853  17.650  0.8633 -0.0412 -0.1573
  545TMC3    C2 8137   3.673   2.849  17.530 -0.0432  0.4350 -0.5522
  545TMC3    C3 8138   3.624   2.734  17.482  0.6323 -0.0719 -0.3697
  545TMC3    C4 8139   3.741   2.755  17.740  0.4134  0.2479  0.0212
  545TMC3    C5 8140   3.697   2.635  17.690  0.1101 -0.0835  0.8152
  545TMC3    C6 8141   3.645   2.618  17.562  0.0800  0.0611 -0.2136
  545TMC3     C 8142   3.787   2.984  17.690  0.3988 -0.2094  0.8335
  545TMC3     O 8143   3.756   3.080  17.625  0.5310  0.0942 -0.1243
  545TMC3     H 8144   3.656   2.942  17.477 -2.5210 -0.5056 -1.3750
  545TMC3    H1 8145   3.767   2.776   0.097 -0.2569  3.1430 -0.4023
  545TMC3    H2 8146   3.616   2.522  17.522 -2.7152  0.1132  1.6950
  545TMC3    C7 8147   3.649   2.537   0.049 -0.0914 -0.0658  0.5494
  545TMC3    C8 8148   3.500   2.752  17.406  0.3508 -0.2486  1.0677
  545TMC3    O1 8149   3.549   2.479   0.013 -0.2636 -0.0157 -0.2723
  545TMC3    O2 8150   3.482   2.863  17.355 -0.1490 -0.0224  0.6778
  546MPD2     C 8151   0.612   3.594  17.714  0.2751 -0.1983  0.0515
  546MPD2    C1 8152   0.544   3.562  17.599  0.1064 -0.0630  0.3005
  546MPD2    C2 8153   0.577   3.644  17.494 -0.1593 -1.1126  0.3393
  546MPD2    C3 8154   0.678   3.737  17.491  0.0801  0.0378  0.4241
  546MPD2    C4 8155   0.738   3.773  17.616  0.0987 -0.2824  0.6391
  546MPD2    C5 8156   0.700   3.697  17.721  0.5211 -0.1564 -0.7589
  546MPD2     H 8157   0.521   3.621  17.404 -0.4377 -1.7911  0.6841
  546MPD2    H1 8158   0.812   3.851  17.631 -0.8541  0.4187  1.7614
  546MPD2    H2 8159   0.606   3.534   0.058  0.0147  0.0418  0.1925
  546MPD2    H3 8160   0.739   3.725   0.072 -1.5760  0.0511  0.0199
  546MPD2     N 8161   0.711   3.816  17.379  0.1678  0.1681  0.0876
  546MPD2    H5 8162   0.780   3.890  17.392  2.1681 -2.0235  1.8416
  546MPD2    N1 8163   0.479   3.433  17.589 -0.1180  0.1034  0.0642
  546MPD2    H7 8164   0.476   3.377  17.674 -0.8824  0.7564  0.4621
  547TMC3    C1 8165   0.356   3.254  17.485 -0.2009  0.6155 -0.5379
  547TMC3    C2 8166   0.259   3.240  17.389 -0.3727 -0.2290 -0.2383
  547TMC3    C3 8167   0.233   3.122  17.336 -0.4919  0.1155  0.1620
  547TMC3    C4 8168   0.439   3.151  17.525 -0.2376 -0.4404  0.2341
  547TMC3    C5 8169   0.404   3.027  17.469  0.3502 -0.0797  0.2113
  547TMC3    C6 8170   0.301   3.015  17.375 -0.4108 -0.4988  0.6329
  547TMC3     C 8171   0.409   3.394  17.479 -0.3726  0.5398 -0.4822
  547TMC3     O 8172   0.405   3.456  17.375  0.1855 -0.0552  0.0303
  547TMC3     H 8173   0.209   3.332  17.359 -0.8516 -0.2543  0.4859
  547TMC3    H1 8174   0.523   3.168  17.592  0.9803 -0.7745 -1.2295
  547TMC3    H2 8175   0.264   2.917  17.348  1.0010 -0.7111 -0.5088
  547TMC3    C7 8176   0.474   2.915  17.538 -0.0642 -0.4958 -0.4506
  547TMC3    C8 8177   0.156   3.130  17.209  0.1821 -0.2909  0.0897
  547TMC3    O1 8178   0.527   2.944  17.645 -0.5376 -0.7652  0.4027
  547TMC3    O2 8179   0.081   3.222  17.204  0.5258  0.2251 -0.0192
  548MPD2     C 8180   0.720   3.768  13.119  0.0197 -0.1342  0.3175
  548MPD2    C1 8181   0.648   3.669  13.060  0.3296  0.0270 -0.0164
  548MPD2    C2 8182   0.729   3.576  12.984  0.4373  0.8035 -0.2683
  548MPD2    C3 8183   0.864   3.586  12.976 -0.2253  0.4959 -0.0511
  548MPD2    C4 8184   0.931   3.687  13.045  0.0112 -0.4945 -0.9140
  548MPD2    C5 8185   0.855   3.778  13.113 -0.5757 -0.6376  0.0064
  548MPD2     H 8186   0.690   3.490  12.931  2.2327 -0.8866  1.1882
  548MPD2    H1 8187   1.038   3.704  13.039 -0.1724  0.5156 -1.2070
  548MPD2    H2 8188   0.672   3.850  13.172  1.3504  0.6274  0.3405
  548MPD2    H3 8189   0.906   3.866  13.151 -0.8477  0.1987 -1.5644
  548MPD2     N 8190   0.924   3.508  12.882 -0.3784 -0.5361 -0.3128
  548MPD2    H5 8191   0.867   3.425  12.865 -0.6582 -0.1580 -1.2343
  548MPD2    N1 8192   0.510   3.680  13.056  0.5051  0.2790 -0.2196
  548MPD2    H7 8193   0.464   3.753  13.110  1.3227  0.6034  0.0460
  549TMC3    C1 8194   0.291   3.621  13.040 -0.7464  1.1580 -0.7085
  549TMC3    C2 8195   0.244   3.746  13.011  0.5834  0.1314  1.0276
  549TMC3    C3 8196   0.116   3.772  13.051  0.0066 -0.1053 -0.3447
  549TMC3    C4 8197   0.218   3.519  13.087 -0.0240  0.1629  0.3074
  549TMC3    C5 8198   0.094   3.554  13.136  0.5376 -0.8722  0.4670
  549TMC3    C6 8199   0.040   3.684  13.118 -0.2895  0.9557 -0.2505
  549TMC3     C 8200   0.422   3.586  12.998 -0.4685  0.1525 -0.2130
  549TMC3     O 8201   0.439   3.474  12.966  0.2698 -0.4047 -0.0503
  549TMC3     H 8202   0.314   3.812  12.961 -0.9772  2.5387  2.0541
  549TMC3    H1 8203   0.265   3.423  13.103 -1.3021 -0.8974 -2.2457
  549TMC3    H2 8204   4.677   3.706  13.154 -0.3604  0.7541 -0.3222
  549TMC3    C7 8205   0.013   3.458  13.208  0.5140 -0.0948  0.1568
  549TMC3    C8 8206   0.046   3.882  12.981 -0.3200 -0.1662  0.2631
  549TMC3    O1 8207   4.639   3.493  13.249 -0.2199 -0.0541 -0.3839
  549TMC3    O2 8208   4.674   3.922  13.023 -0.4977 -0.2960  0.3304
  550TMC3    C1 8209   3.973   1.601  12.950 -0.1322  0.0457 -0.2240
  550TMC3    C2 8210   3.936   1.644  13.074 -0.0724  0.4927  0.2021
  550TMC3    C3 8211   3.913   1.776  13.100 -0.0895  0.7222 -0.0563
  550TMC3    C4 8212   4.009   1.698  12.864 -0.2926  0.2266 -0.2789
  550TMC3    C5 8213   3.979   1.827  12.889 -0.2320 -0.1889  0.2486
  550TMC3    C6 8214   3.928   1.872  13.005  0.1323  0.1493 -0.3604
  550TMC3     C 8215   3.890   1.495  12.886  0.8295 -0.0720  0.4642
  550TMC3     O 8216   3.864   1.387  12.941  0.3292  0.0907  0.0959
  550TMC3     H 8217   3.904   1.564  13.141  0.6303  0.7364  0.8309
  550TMC3    H1 8218   4.048   1.663  12.769  0.4688 -2.0834  0.8915
  550TMC3    H2 8219   3.936   1.975  13.038 -2.1847  0.0341  0.5479
  550TMC3    C7 8220   3.981   1.915  12.769  0.4861  0.6786 -0.4659
  550TMC3    C8 8221   3.886   1.811  13.235 -0.0546 -0.3307  0.5400
  550TMC3    O1 8222   3.907   2.013  12.783 -0.4359 -0.0805  0.3062
  550TMC3    O2 8223   3.939   1.744  13.319  0.0918 -0.4381 -0.4466
  551TMC3    C1 8224   1.439   4.597  13.591 -0.1575  0.3092  0.1224
  551TMC3    C2 8225   1.517   4.479  13.585 -0.0437 -0.6345  0.1142
  551TMC3    C3 8226   1.597   4.446  13.691  0.1382  0.1168 -0.1775
  551TMC3    C4 8227   1.440   4.682  13.699  0.5272  0.2057 -0.4087
  551TMC3    C5 8228   1.536   4.647  13.797 -0.9388 -0.4788 -0.3089
  551TMC3    C6 8229   1.612   4.530  13.799  0.2388  0.1339  0.0554
  551TMC3     C 8230   1.324   4.599  13.495  0.1305 -0.4407  0.3896
  551TMC3     O 8231   1.322   4.512  13.412  0.2427 -0.0535  0.3310
  551TMC3     H 8232   1.519   4.417  13.497 -1.2759  0.9135 -1.0022
  551TMC3    H1 8233   1.376   0.030  13.718 -0.9778 -1.0140 -0.0215
  551TMC3    H2 8234   1.685   4.511  13.877  1.4158  0.3107 -1.0125
  551TMC3    C7 8235   1.569   0.001  13.903 -0.9269 -0.0356 -0.1075
  551TMC3    C8 8236   1.721   4.383  13.663 -0.0516 -0.4753  0.0703
  551TMC3    O1 8237   1.620   4.689  14.004  0.6703 -0.2667  0.6479
  551TMC3    O2 8238   1.727   4.265  13.686 -0.2185  0.1333 -0.0662
  552MPD2     C 8239   3.333   1.781  14.200  0.4363 -0.5776  0.3409
  552MPD2    C1 8240   3.473   1.766  14.179  0.3762 -0.7885  0.5196
  552MPD2    C2 8241   3.560   1.839  14.258  0.0883  0.6723  0.9308
  552MPD2    C3 8242   3.504   1.920  14.358  0.1056 -0.4644  0.5152
  552MPD2    C4 8243   3.374   1.908  14.396 -0.3196  0.1025 -0.0622
  552MPD2    C5 8244   3.287   1.843  14.310  0.8538  0.6060  0.2412
  552MPD2     H 8245   3.666   1.841  14.235 -0.7549  0.8477 -3.0159
  552MPD2    H1 8246   3.341   1.961  14.484 -0.5639 -0.9903  0.5108
  552MPD2    H2 8247   3.257   1.730  14.143 -1.2174 -0.8994  2.8356
  552MPD2    H3 8248   3.180   1.843  14.327  0.7182  2.2408 -0.6815
  552MPD2     N 8249   3.593   1.990  14.446  0.2037  0.1721  0.2601
  552MPD2    H5 8250   3.565   2.017  14.540 -3.1950  1.4440 -1.1340
  552MPD2    N1 8251   3.528   1.683  14.079  0.0976  0.1897  0.3849
  552MPD2    H7 8252   3.628   1.669  14.091  0.1884  0.7921  0.3343
  553TMC3    C1 8253   3.543   1.487  13.949 -0.4774  0.3405 -0.5885
  553TMC3    C2 8254   3.530   1.429  13.823 -0.6194 -0.1305 -0.6609
  553TMC3    C3 8255   3.615   1.326  13.795  0.0545  1.0397  0.3349
  553TMC3    C4 8256   3.629   1.433  14.043 -0.1815  0.0958  0.3146
  553TMC3    C5 8257   3.704   1.322  14.009 -0.0066 -0.0085 -0.1950
  553TMC3    C6 8258   3.694   1.269  13.883 -0.2338 -0.4115  0.3581
  553TMC3     C 8259   3.464   1.605  13.989  0.0547  0.2186  0.1090
  553TMC3     O 8260   3.348   1.603  13.948  0.8072  0.4359  0.1500
  553TMC3     H 8261   3.465   1.476  13.750 -1.5677 -1.0962 -0.4196
  553TMC3    H1 8262   3.641   1.474  14.143 -1.7621 -0.8648  0.9087
  553TMC3    H2 8263   3.752   1.183  13.850  0.9171 -0.0375  1.4094
  553TMC3    C7 8264   3.798   1.287  14.109 -0.0209  0.6692 -0.2880
  553TMC3    C8 8265   3.662   1.318  13.659 -0.0362 -0.0938 -0.4026
  553TMC3    O1 8266   3.836   1.383  14.181 -0.4262  0.1122 -0.1474
  553TMC3    O2 8267   3.774   1.280  13.636 -0.5760  0.2992  0.0003
  554TMC3    C1 8268   0.878   1.060  11.574 -0.3681  0.6772  0.3850
  554TMC3    C2 8269   0.745   1.048  11.540 -0.2178  0.1818  0.3361
  554TMC3    C3 8270   0.679   1.154  11.478 -0.6091  0.2345  0.4503
  554TMC3    C4 8271   0.949   1.170  11.550  0.0461  0.1811  0.0703
  554TMC3    C5 8272   0.883   1.274  11.493 -0.5697 -0.0626 -0.0176
  554TMC3    C6 8273   0.754   1.266  11.458  0.0599 -0.0238  0.9048
  554TMC3     C 8274   0.927   0.982  11.684 -0.6687  0.0063  0.0525
  554TMC3     O 8275   1.031   1.020  11.737 -0.2933 -0.1469 -0.3129
  554TMC3     H 8276   0.690   0.955  11.535 -0.1674  0.0978  1.5343
  554TMC3    H1 8277   1.040   1.200  11.602 -0.4518  0.6138  0.7038
  554TMC3    H2 8278   0.711   1.344  11.397  0.8276  0.1188  0.5527
  554TMC3    C7 8279   0.961   1.365  11.421  0.1412 -0.8226 -0.2556
  554TMC3    C8 8280   0.604   1.120  11.365 -0.2752 -0.4986 -0.7035
  554TMC3    O1 8281   1.059   1.317  11.370 -0.3120  0.3693 -0.5186
  554TMC3    O2 8282   0.664   1.153  11.264  0.2110 -0.2636  0.2879
  555TMC3    C1 8283   4.468   0.354  15.136 -0.1306 -0.2501  0.5367
  555TMC3    C2 8284   4.452   0.439  15.238  0.4249  0.8149  0.6318
  555TMC3    C3 8285   4.455   0.393  15.367  0.1473  0.1199 -0.2002
  555TMC3    C4 8286   4.510   0.226  15.159  0.4475  0.3383  0.4538
  555TMC3    C5 8287   4.506   0.182  15.292 -0.3533  0.0064  1.1866
  555TMC3    C6 8288   4.483   0.267  15.396 -0.5080  0.1300 -0.4814
  555TMC3     C 8289   4.481   0.389  14.993 -0.8743  0.1900  0.0022
  555TMC3     O 8290   4.549   0.315  14.920  0.3100 -0.6992  0.4278
  555TMC3     H 8291   4.441   0.543  15.209  1.8503  0.6546 -0.4711
  555TMC3    H1 8292   4.516   0.159  15.074 -1.3064  2.2321 -1.1432
  555TMC3    H2 8293   4.485   0.224  15.495  4.3597  2.8141  0.6020
  555TMC3    C7 8294   4.524   0.044  15.308 -0.3779  0.1871  1.0381
  555TMC3    C8 8295   4.491   0.494  15.468  0.2175 -0.4264  0.3020
  555TMC3    O1 8296   4.571   4.722  15.209 -0.1443 -0.2985  0.1250
  555TMC3    O2 8297   4.462   0.608  15.435 -0.4728  0.3707  0.1787
  556MPD2     C 8298   2.924   2.585  10.944 -0.1698  0.2293  0.2467
  556MPD2    C1 8299   2.938   2.465  11.015 -0.0626 -0.0598 -0.0931
  556MPD2    C2 8300   2.968   2.350  10.945  0.3946 -0.3520 -0.5500
  556MPD2    C3 8301   2.980   2.347  10.814 -0.2170  0.1120 -0.3175
  556MPD2    C4 8302   2.978   2.465  10.742 -0.0980  0.1271 -0.2481
  556MPD2    C5 8303   2.938   2.575  10.809 -0.4337  0.1375  0.7522
  556MPD2     H 8304   2.968   2.260  11.005  1.0636 -0.1459 -0.2424
  556MPD2    H1 8305   2.982   2.471  10.634  2.5085 -0.0835 -0.1555
  556MPD2    H2 8306   2.902   2.684  10.981  0.3456  0.2521  0.4947
  556MPD2    H3 8307   2.918   2.662  10.747  1.6481  1.3229  1.7180
  556MPD2     N 8308   3.007   2.222  10.756  0.3375  0.5301 -0.6275
  556MPD2    H5 8309   2.999   2.139  10.814 -2.2460  1.4202  0.2787
  556MPD2    N1 8310   2.922   2.451  11.154  0.0601  0.4125 -0.7313
  556MPD2    H7 8311   2.916   2.356  11.187  1.7352  0.2495 -0.9161
  557TMC3    C1 8312   3.034   2.064  10.589 -0.1661  0.8734  0.0961
  557TMC3    C2 8313   3.061   2.029  10.456  0.6784  0.3460 -0.2444
  557TMC3    C3 8314   3.011   1.907  10.406 -0.5277 -0.8626 -0.8473
  557TMC3    C4 8315   2.975   1.972  10.668 -0.1973  1.0214  0.2833
  557TMC3    C5 8316   2.911   1.861  10.614  0.0341  0.3940 -0.4575
  557TMC3    C6 8317   2.931   1.826  10.482  0.3133  0.1446 -0.4096
  557TMC3     C 8318   3.032   2.203  10.621 -0.5670 -0.4558  0.1359
  557TMC3     O 8319   3.063   2.288  10.536 -0.0606  0.0909  0.2386
  557TMC3     H 8320   3.122   2.090  10.390  0.9437 -0.5334 -0.8223
  557TMC3    H1 8321   2.958   1.992  10.773 -1.1361  0.4056  0.2542
  557TMC3    H2 8322   2.890   1.737  10.436  0.3319 -0.6783  1.1817
  557TMC3    C7 8323   2.819   1.789  10.697 -0.1842  0.4056  0.1241
  557TMC3    C8 8324   3.006   1.888  10.261 -0.4216 -0.2371 -1.1943
  557TMC3    O1 8325   2.808   1.827  10.807  0.2956 -0.0180 -0.5115
  557TMC3    O2 8326   3.084   1.952  10.196 -0.2011 -0.6586 -0.0685
  558TMC3    C1 8327   0.190   0.262  10.700 -0.1611  0.0813  0.0312
  558TMC3    C2 8328   0.059   0.240  10.727 -0.5603  0.8363  0.3810
  558TMC3    C3 8329   4.708   0.250  10.627 -0.3784  0.2812 -1.0494
  558TMC3    C4 8330   0.234   0.278  10.572 -0.1251 -0.8162  0.3385
  558TMC3    C5 8331   0.136   0.272  10.470 -0.5466 -0.3525  0.0168
  558TMC3    C6 8332   0.008   0.264  10.494 -0.5880 -0.6659  0.2956
  558TMC3     C 8333   0.295   0.248  10.797  0.1359  0.6385  0.2058
  558TMC3     O 8334   0.405   0.227  10.757 -0.5484  0.0290 -0.2338
  558TMC3     H 8335   0.035   0.203  10.826  1.4312 -0.5118  0.3557
  558TMC3    H1 8336   0.337   0.291  10.543  0.2472 -0.5369  1.7859
  558TMC3    H2 8337   4.666   0.269  10.419  0.4375  2.1312 -0.5903
  558TMC3    C7 8338   0.175   0.315  10.338  0.4848  0.3458  0.0312
  558TMC3    C8 8339   4.565   0.257  10.651 -0.2631 -0.2895  0.2997
  558TMC3    O1 8340   0.269   0.393  10.322  0.5150  0.5934  0.7185
  558TMC3    O2 8341   4.487   0.234  10.560 -0.1355 -0.2040  0.0152
  559MPD2     C 8342   0.334   0.624  10.580 -0.2056  0.2554 -0.4897
  559MPD2    C1 8343   0.241   0.650  10.683  0.1648  0.0015 -0.2382
  559MPD2    C2 8344   0.282   0.647  10.813  0.0045  1.0186  0.4748
  559MPD2    C3 8345   0.412   0.632  10.847 -0.4431 -0.1721 -0.3909
  559MPD2    C4 8346   0.508   0.624  10.742  0.7635  0.2998  0.6147
  559MPD2    C5 8347   0.466   0.615  10.608 -0.3399  0.2229  1.3390
  559MPD2     H 8348   0.209   0.668  10.891 -0.1100 -1.9192  1.1673
  559MPD2    H1 8349   0.615   0.618  10.753  1.0702  1.8620 -1.5569
  559MPD2    H2 8350   0.306   0.629  10.475 -0.7443  0.3669 -0.3411
  559MPD2    H3 8351   0.533   0.604  10.524 -2.3053  1.0089 -0.3450
  559MPD2     N 8352   0.451   0.632  10.982  0.3378 -0.1173  0.0810
  559MPD2    H5 8353   0.380   0.638  11.055  3.5464  2.8317  2.9823
  559MPD2    N1 8354   0.105   0.688  10.642  0.2883 -0.7747  0.1738
  559MPD2    H7 8355   0.094   0.702  10.542  0.6770 -0.6510  0.1481
  560TMC3    C1 8356   0.575   0.650  11.184 -0.1785  0.1123 -0.3087
  560TMC3    C2 8357   0.457   0.616  11.254 -0.6171 -0.2262  0.3399
  560TMC3    C3 8358   0.466   0.602  11.387 -0.0188 -0.4087 -0.0921
  560TMC3    C4 8359   0.691   0.676  11.243  0.2621  0.5185 -0.0934
  560TMC3    C5 8360   0.688   0.679  11.384  0.7155  0.2296  0.4611
  560TMC3    C6 8361   0.576   0.644  11.454  0.2261  0.2326  0.5418
  560TMC3     C 8362   0.577   0.632  11.041 -0.2934  0.4213 -0.1390
  560TMC3     O 8363   0.684   0.642  10.979 -0.5275  0.0026 -0.5161
  560TMC3     H 8364   0.365   0.585  11.208 -0.6670  2.8337 -1.5901
  560TMC3    H1 8365   0.776   0.707  11.182 -0.0163 -0.1688 -0.8301
  560TMC3    H2 8366   0.578   0.650  11.562 -0.6409 -0.8912  0.6295
  560TMC3    C7 8367   0.817   0.682  11.448  0.4700  0.0362  0.1772
  560TMC3    C8 8368   0.350   0.549  11.461 -0.1543 -0.2223 -0.7827
  560TMC3    O1 8369   0.826   0.631  11.558 -0.0060  0.5341 -0.0274
  560TMC3    O2 8370   0.234   0.568  11.424  0.0913 -0.2984  0.0798
  561TMC3    C1 8371   3.371   4.058  11.499  0.4264 -1.2309 -1.1086
  561TMC3    C2 8372   3.298   3.966  11.571  0.1515 -0.8001  0.4791
  561TMC3    C3 8373   3.189   4.010  11.634 -0.0961  0.5772 -0.0812
  561TMC3    C4 8374   3.343   4.192  11.491  0.0831  0.4204 -0.0250
  561TMC3    C5 8375   3.236   4.235  11.562  0.5054  0.1173  0.6100
  561TMC3    C6 8376   3.160   4.145  11.630  0.4612 -0.4643 -0.1456
  561TMC3     C 8377   3.498   4.013  11.440 -0.0052 -0.8637  0.5060
  561TMC3     O 8378   3.555   3.921  11.497 -0.3081 -0.5005 -0.6361
  561TMC3     H 8379   3.329   3.864  11.591 -0.1307 -0.9316  0.2439
  561TMC3    H1 8380   3.405   4.264  11.437 -0.5127  0.7676 -0.2478
  561TMC3    H2 8381   3.073   4.184  11.681  1.8429  2.0559  0.2795
  561TMC3    C7 8382   3.227   4.371  11.611 -0.6271 -0.5535  0.3471
  561TMC3    C8 8383   3.114   3.923  11.724  0.0222  0.0888 -0.0527
  561TMC3    O1 8384   3.134   4.408  11.677  0.1750  0.1429  0.3073
  561TMC3    O2 8385   3.164   3.819  11.764  0.1963 -0.2363 -0.4590
  562TMC3    C1 8386   3.999   0.859  16.191 -0.1298 -0.1902 -0.6806
  562TMC3    C2 8387   3.901   0.952  16.186  0.4326 -0.1589 -0.5980
  562TMC3    C3 8388   3.866   0.997  16.064  0.7639 -0.2075  0.4986
  562TMC3    C4 8389   4.074   0.826  16.084  0.3036  0.3756 -0.7701
  562TMC3    C5 8390   4.023   0.865  15.960 -0.3635  0.3885 -0.2761
  562TMC3    C6 8391   3.928   0.961  15.944 -0.5088 -0.1426 -0.1462
  562TMC3     C 8392   4.003   0.752  16.292 -0.7201  0.2778 -0.3979
  562TMC3     O 8393   4.061   0.650  16.261  0.4327 -0.7252 -0.6420
  562TMC3     H 8394   3.856   0.977  16.282  1.0866  1.3824 -0.6939
  562TMC3    H1 8395   4.167   0.771  16.087  0.0746 -0.1317 -2.9779
  562TMC3    H2 8396   3.894   1.006  15.852  0.1415  0.4418 -0.1054
  562TMC3    C7 8397   4.043   0.786  15.845 -0.6236  0.7010 -0.0686
  562TMC3    C8 8398   3.739   1.062  16.057 -0.2315  0.1120 -0.0617
  562TMC3    O1 8399   3.982   0.813  15.746  0.0671 -0.0854  0.3817
  562TMC3    O2 8400   3.681   1.068  16.166 -0.3712 -0.0670 -0.0918
  563MPD2     C 8401   1.713   1.822  15.572  0.5533  0.8329  0.4331
  563MPD2    C1 8402   1.639   1.825  15.690 -0.3298  0.0114 -0.3663
  563MPD2    C2 8403   1.695   1.856  15.809  0.1407 -0.0298 -0.4387
  563MPD2    C3 8404   1.821   1.904  15.822 -0.0504  0.1897  0.2903
  563MPD2    C4 8405   1.899   1.913  15.708  0.9429 -0.9840  0.2410
  563MPD2    C5 8406   1.839   1.875  15.591  0.4069  0.2288  0.6181
  563MPD2     H 8407   1.634   1.837  15.896 -0.7450 -1.0578 -1.2794
  563MPD2    H1 8408   1.993   1.966  15.698 -0.6379  1.1540 -3.3690
  563MPD2    H2 8409   1.682   1.807  15.470 -1.9508 -0.7405  1.4270
  563MPD2    H3 8410   1.904   1.893  15.505  0.8855 -0.5982  0.8004
  563MPD2     N 8411   1.867   1.927  15.947 -0.2359  0.8988  0.3479
  563MPD2    H5 8412   1.799   1.916  16.021 -0.8797  0.5911 -0.2934
  563MPD2    N1 8413   1.508   1.777  15.694 -0.4886 -0.0388 -0.0580
  563MPD2    H7 8414   1.466   1.764  15.786 -1.8769  0.8955 -0.5660
  564TMC3    C1 8415   1.305   1.675  15.642 -0.2259 -0.2277  0.5369
  564TMC3    C2 8416   1.262   1.549  15.602 -0.3963  0.3002  0.3678
  564TMC3    C3 8417   1.216   1.465  15.698 -0.3027 -0.0189 -0.5147
  564TMC3    C4 8418   1.281   1.716  15.772 -0.7295  0.4147  0.5167
  564TMC3    C5 8419   1.244   1.629  15.872  0.6312 -0.0138  0.1735
  564TMC3    C6 8420   1.212   1.503  15.830  0.1543  0.5944 -0.4637
  564TMC3     C 8421   1.427   1.736  15.590 -0.6313  0.0868 -0.3008
  564TMC3     O 8422   1.436   1.758  15.469  0.2005 -0.0347  0.1604
  564TMC3     H 8423   1.288   1.520  15.502  0.7943  0.7089  0.5583
  564TMC3    H1 8424   1.289   1.821  15.799 -0.3902  0.6204 -0.3686
  564TMC3    H2 8425   1.195   1.427  15.906 -0.8500  1.6693  0.3844
  564TMC3    C7 8426   1.335   1.629  15.984  1.4336  0.5241  0.0463
  564TMC3    C8 8427   1.212   1.317  15.680  1.1326  0.1981  0.1157
  564TMC3    O1 8428   1.435   1.691  15.956 -0.8246  0.0366 -0.1820
  564TMC3    O2 8429   1.177   1.251  15.778  0.0704  0.7124 -0.5202
  565TMC3    C1 8430   3.286   3.900  10.175  0.3167  0.4482  0.1932
  565TMC3    C2 8431   3.189   3.807  10.188 -1.4058 -0.1788  0.3472
  565TMC3    C3 8432   3.211   3.696  10.106  0.0577  0.4198  0.6421
  565TMC3    C4 8433   3.384   3.900  10.080  0.0841 -0.0282  0.5026
  565TMC3    C5 8434   3.402   3.786  10.005 -0.0551  0.1679  0.3587
  565TMC3    C6 8435   3.309   3.684  10.003 -0.0729  0.1707  0.3440
  565TMC3     C 8436   3.282   4.012  10.264 -0.0876  0.2957 -0.0009
  565TMC3     O 8437   3.325   4.117  10.216  0.1502  0.3229  0.2295
  565TMC3     H 8438   3.118   3.809  10.270 -0.4364  1.3676  1.1492
  565TMC3    H1 8439   3.437   3.994  10.064 -1.1310  0.8525  1.6245
  565TMC3    H2 8440   3.343   3.586   9.972  0.1005  0.1055  0.7482
  565TMC3    C7 8441   3.528   3.764   9.935 -0.1585  0.1597 -0.4568
  565TMC3    C8 8442   3.115   3.580  10.124 -0.3056  0.1706 -0.0612
  565TMC3    O1 8443   3.532   3.684   9.840 -0.5993 -0.1346 -0.3893
  565TMC3    O2 8444   3.042   3.578  10.224 -0.2645 -0.3102  0.1690
  566MPD2     C 8445   3.885   0.033  14.654  0.1976  0.3245 -0.2845
  566MPD2    C1 8446   3.816   0.149  14.612 -1.0359 -0.3344 -0.7791
  566MPD2    C2 8447   3.690   0.128  14.563  0.6212 -0.4358  0.1899
  566MPD2    C3 8448   3.633   0.009  14.555  0.3828 -0.4230  0.1223
  566MPD2    C4 8449   3.699   4.633  14.598 -0.4613  0.2195 -0.2102
  566MPD2    C5 8450   3.822   4.646  14.657  0.4246  0.8743  0.7430
  566MPD2     H 8451   3.637   0.213  14.521  0.9311 -0.1452  0.3799
  566MPD2    H1 8452   3.656   4.534  14.594 -1.9172  0.8983 -1.2996
  566MPD2    H2 8453   3.989   0.039  14.687  0.4026  1.2976 -1.1169
  566MPD2    H3 8454   3.872   4.555  14.690  0.7495  0.9631  0.4913
  566MPD2     N 8455   3.525   4.717  14.468 -0.0645 -0.2559 -1.0510
  566MPD2    H5 8456   3.496   4.621  14.451 -0.8831 -0.0559 -0.8186
  566MPD2    N1 8457   3.886   0.275  14.618  0.1747 -0.1034 -0.7832
  566MPD2    H7 8458   3.984   0.260  14.639  0.2591  0.2757 -0.9099
  567TMC3    C1 8459   3.958   0.484  14.545 -0.0964  0.2965  0.3848
  567TMC3    C2 8460   3.958   0.497  14.409 -0.0061 -0.0264 -0.0035
  567TMC3    C3 8461   4.075   0.485  14.341  0.7762 -0.1342 -0.4812
  567TMC3    C4 8462   4.076   0.448  14.607 -1.1422  0.7850  0.0851
  567TMC3    C5 8463   4.192   0.430  14.539 -0.2878  0.4875 -0.6263
  567TMC3    C6 8464   4.195   0.455  14.403 -0.2140 -0.4087  0.1824
  567TMC3     C 8465   3.844   0.402  14.579  0.6241  0.0120  0.1946
  567TMC3     O 8466   3.732   0.435  14.538 -0.8697 -0.3045 -0.5960
  567TMC3     H 8467   3.865   0.506  14.355  1.5117  0.1576 -2.5824
  567TMC3    H1 8468   4.071   0.430  14.714  3.3976  0.3521  0.2349
  567TMC3    H2 8469   4.284   0.429  14.347  0.8866 -0.6350  2.0170
  567TMC3    C7 8470   4.280   0.323  14.580  1.0773 -0.5152  0.2635
  567TMC3    C8 8471   4.069   0.485  14.195  0.1568 -0.5276 -0.1834
  567TMC3    O1 8472   4.348   0.269  14.490  0.1991 -0.4426 -0.2003
  567TMC3    O2 8473   3.955   0.488  14.148 -0.2649 -0.0345  0.2273
  568MPD2     C 8474   1.225   0.082  16.462 -0.7647  0.1657  0.6490
  568MPD2    C1 8475   1.229   0.209  16.526 -0.2720  0.2249 -1.0778
  568MPD2    C2 8476   1.270   0.324  16.455  0.1653 -0.6546 -0.1558
  568MPD2    C3 8477   1.313   0.305  16.325 -0.1370 -0.3633 -0.4636
  568MPD2    C4 8478   1.305   0.180  16.260  0.3024  0.2978  0.6058
  568MPD2    C5 8479   1.252   0.071  16.327  0.2669  0.2994 -0.6399
  568MPD2     H 8480   1.274   0.420  16.505  2.6191 -0.0187 -1.6043
  568MPD2    H1 8481   1.349   0.165  16.162 -0.3118 -1.2524  0.5537
  568MPD2    H2 8482   1.197   4.729  16.517  0.1008  0.3094  1.3222
  568MPD2    H3 8483   1.248   4.712  16.277 -1.1433  1.1906 -2.2213
  568MPD2     N 8484   1.376   0.415  16.257  0.1060  0.0957  0.1900
  568MPD2    H5 8485   1.362   0.508  16.295 -1.1904  0.2233 -0.5753
  568MPD2    N1 8486   1.194   0.211  16.661 -0.1891  0.4217 -0.1165
  568MPD2    H7 8487   1.190   0.117  16.699 -0.1733  1.2065  1.8174
  569TMC3    C1 8488   1.468   0.543  16.083 -0.5379  0.1518  0.0505
  569TMC3    C2 8489   1.526   0.634  16.165  0.0964 -0.0751  0.2369
  569TMC3    C3 8490   1.562   0.755  16.116 -0.5249 -0.1412 -0.3662
  569TMC3    C4 8491   1.461   0.557  15.949  1.0533 -0.2859  0.3961
  569TMC3    C5 8492   1.488   0.685  15.900 -0.8795  0.0652  0.2209
  569TMC3    C6 8493   1.547   0.783  15.979 -0.5910  0.2987 -0.2709
  569TMC3     C 8494   1.423   0.416  16.131 -0.1866 -0.9581 -0.4736
  569TMC3     O 8495   1.474   0.322  16.069  0.8980  0.1581  0.0156
  569TMC3     H 8496   1.552   0.600  16.264 -1.2792  0.6058  0.8314
  569TMC3    H1 8497   1.429   0.478  15.882 -0.7470  2.0470 -1.4765
  569TMC3    H2 8498   1.568   0.881  15.937  2.1525  0.2604  1.0137
  569TMC3    C7 8499   1.416   0.721  15.778  0.0790  0.1113 -0.1070
  569TMC3    C8 8500   1.525   0.870  16.194  0.1006 -0.5667 -0.1185
  569TMC3    O1 8501   1.355   0.638  15.714  0.1299 -0.3337 -0.5692
  569TMC3    O2 8502   1.451   0.949  16.133  0.3952  0.1533 -0.2327
  570TMC3    C1 8503   0.952   4.185  15.794  0.6992 -0.3096 -0.4133
  570TMC3    C2 8504   1.059   4.263  15.783 -0.1173 -0.1843  0.3950
  570TMC3    C3 8505   1.053   4.376  15.700  0.5478  0.2460 -0.7926
  570TMC3    C4 8506   0.854   4.186  15.703 -0.0293 -0.3272  0.4188
  570TMC3    C5 8507   0.861   4.287  15.605  1.0302  0.3321  0.7206
  570TMC3    C6 8508   0.949   4.391  15.610 -0.4157 -0.6238  0.7991
  570TMC3     C 8509   0.965   4.074  15.885 -0.0456 -0.2168 -0.2027
  570TMC3     O 8510   1.079   4.026  15.895 -0.1190 -0.1773  0.6758
  570TMC3     H 8511   1.153   4.236  15.830  0.8015 -2.1513 -2.6202
  570TMC3    H1 8512   0.769   4.118  15.710 -1.7503  1.6482 -1.5260
  570TMC3    H2 8513   0.936   4.482  15.553  2.4246 -0.1363  0.9354
  570TMC3    C7 8514   0.738   4.293  15.516 -0.3430  0.1387 -0.7199
  570TMC3    C8 8515   1.148   4.487  15.721  0.2184 -0.4339  0.1114
  570TMC3    O1 8516   0.646   4.229  15.555  0.0069  0.4338  0.0785
  570TMC3    O2 8517   1.144   4.580  15.643 -0.1064 -0.0172  0.2397
  571MPD2     C 8518   2.747   1.521   0.990 -0.5047 -0.3085 -0.6944
  571MPD2    C1 8519   2.794   1.566   0.869  0.6120 -0.4639 -0.7901
  571MPD2    C2 8520   2.820   1.701   0.853  0.1641  0.2090 -0.3985
  571MPD2    C3 8521   2.791   1.790   0.956  0.2724  0.1488 -0.1966
  571MPD2    C4 8522   2.747   1.742   1.075  0.5690  0.9060 -0.1248
  571MPD2    C5 8523   2.739   1.609   1.096  0.0963 -0.1823  0.3125
  571MPD2     H 8524   2.863   1.725   0.756  0.4251  1.3000 -0.0042
  571MPD2    H1 8525   2.719   1.802   1.161  0.4351  1.2130 -0.3805
  571MPD2    H2 8526   2.747   1.415   1.014 -1.3414 -0.6553 -2.2363
  571MPD2    H3 8527   2.708   1.579   1.195  0.3558 -1.6990 -0.0654
  571MPD2     N 8528   2.786   1.932   0.946 -0.1043 -0.4705 -0.2757
  571MPD2    H5 8529   2.761   1.980   1.031 -0.7152 -0.1468 -0.6383
  571MPD2    N1 8530   2.814   1.472   0.765 -0.0223 -0.0039 -0.0214
  571MPD2    H7 8531   2.804   1.374   0.789 -2.0652  0.2506  0.1897
  572TMC3    C1 8532   2.818   2.145   0.849 -0.0861  0.4023  1.3523
  572TMC3    C2 8533   2.760   2.198   0.957 -0.2131 -0.5555 -0.4643
  572TMC3    C3 8534   2.773   2.335   0.973  0.5565 -1.0428 -1.1444
  572TMC3    C4 8535   2.894   2.219   0.761 -0.6263  0.1415  0.3812
  572TMC3    C5 8536   2.915   2.351   0.793  0.8091 -0.4596 -0.0124
  572TMC3    C6 8537   2.855   2.413   0.895  0.1835 -0.2519  0.2720
  572TMC3     C 8538   2.824   2.002   0.833  0.0603  0.0867  0.3199
  572TMC3     O 8539   2.861   1.966   0.720 -0.8808 -0.3903 -0.4922
  572TMC3     H 8540   2.675   2.155   1.007  0.2301  0.7476  1.3882
  572TMC3    H1 8541   2.930   2.172   0.670 -0.1283  0.5434  0.3690
  572TMC3    H2 8542   2.880   2.517   0.915  1.0825 -0.0339 -1.9641
  572TMC3    C7 8543   3.015   2.423   0.714  0.0591 -0.5256  0.3920
  572TMC3    C8 8544   2.758   2.385   1.112 -0.3626  0.0073 -0.4847
  572TMC3    O1 8545   3.024   2.389   0.597 -0.0386 -0.0993 -0.1204
  572TMC3    O2 8546   2.770   2.305   1.203  0.1143 -0.6861 -0.0262
  573MPD2     C 8547   4.452   2.235   1.493 -0.0960  0.2595  0.0367
  573MPD2    C1 8548   4.344   2.310   1.438 -0.2333  0.1775  0.0175
  573MPD2    C2 8549   4.302   2.288   1.308  0.1927  0.2435 -0.0134
  573MPD2    C3 8550   4.354   2.191   1.231  0.4381  0.3562  0.1338
  573MPD2    C4 8551   4.463   2.118   1.281  0.3586 -0.4994  0.1296
  573MPD2    C5 8552   4.510   2.145   1.407  0.6563 -0.5614  0.0800
  573MPD2     H 8553   4.218   2.344   1.268 -1.7314  0.1517  3.8981
  573MPD2    H1 8554   4.513   2.039   1.226  1.0270 -0.5031  0.7407
  573MPD2    H2 8555   4.498   2.248   1.590  1.1844 -0.3646 -0.4852
  573MPD2    H3 8556   4.598   2.088   1.437  0.6026 -0.2879  0.7634
  573MPD2     N 8557   4.321   2.169   1.094  0.3916 -0.5579  0.1089
  573MPD2    H5 8558   4.393   2.115   1.046  0.2267 -1.5048  0.9160
  573MPD2    N1 8559   4.276   2.407   1.524 -0.4148  0.3706  0.2439
  573MPD2    H7 8560   4.314   2.394   1.618 -1.4435  0.3318  0.6573
  574TMC3    C1 8561   4.217   2.205   0.882  0.7499 -0.0963 -0.1329
  574TMC3    C2 8562   4.102   2.233   0.814 -0.2819  0.0254  0.1956
  574TMC3    C3 8563   4.103   2.250   0.679 -0.6583  0.4003  0.3062
  574TMC3    C4 8564   4.344   2.213   0.824 -0.0246 -0.8239  0.8641
  574TMC3    C5 8565   4.340   2.216   0.687  0.3740 -0.3580 -0.6063
  574TMC3    C6 8566   4.221   2.226   0.610 -0.1663 -0.2794  0.0094
  574TMC3     C 8567   4.206   2.217   1.033 -0.0964 -0.3211  0.2301
  574TMC3     O 8568   4.110   2.267   1.083 -0.4195 -0.6295 -0.4974
  574TMC3     H 8569   4.011   2.227   0.873  1.5024 -0.3113  2.9440
  574TMC3    H1 8570   4.431   2.202   0.889  0.3264 -0.6186  0.4274
  574TMC3    H2 8571   4.226   2.242   0.503  0.7229 -1.4298 -0.1218
  574TMC3    C7 8572   4.475   2.216   0.625 -0.4707 -0.4763  0.3992
  574TMC3    C8 8573   3.978   2.210   0.613  0.8580  0.6044 -1.1904
  574TMC3    O1 8574   4.571   2.219   0.702  0.2503  0.6208  0.0979
  574TMC3    O2 8575   3.884   2.164   0.677 -0.1647  0.1733  0.2706
  575TMC3    C1 8576   3.053   2.997  10.723  0.0730  0.3235  0.1751
  575TMC3    C2 8577   2.927   2.946  10.747 -0.4176  0.3160  0.6464
  575TMC3    C3 8578   2.839   2.966  10.646 -0.5395  0.1769 -0.1814
  575TMC3    C4 8579   3.093   3.053  10.598 -0.1395  0.3302  0.0455
  575TMC3    C5 8580   3.002   3.053  10.496  1.0788  0.3734  0.5174
  575TMC3    C6 8581   2.874   3.008  10.519  0.3094  0.1874 -0.0110
  575TMC3     C 8582   3.142   2.980  10.841 -0.0756  0.3609  0.3411
  575TMC3     O 8583   3.101   2.950  10.953 -0.6308  0.3008 -0.2143
  575TMC3     H 8584   2.907   2.896  10.841  3.4854 -1.8845  0.3092
  575TMC3    H1 8585   3.186   3.106  10.583  1.8174 -3.1169  0.1458
  575TMC3    H2 8586   2.795   3.019  10.445  0.7905 -0.6587 -0.6484
  575TMC3    C7 8587   3.029   3.125  10.377 -0.2762 -0.2553  0.0095
  575TMC3    C8 8588   2.705   2.919  10.682  0.1767  0.1882  0.5120
  575TMC3    O1 8589   3.115   3.209  10.392  0.5745 -0.1507 -0.1778
  575TMC3    O2 8590   2.679   2.835  10.767 -0.0783 -0.2368 -0.1932
  576MPD2     C 8591   1.970   4.267  12.438 -0.0134 -0.5077  0.3434
  576MPD2    C1 8592   2.101   4.238  12.417  0.4283 -0.2338  0.3416
  576MPD2    C2 8593   2.190   4.197  12.517  0.2456 -0.2842 -0.1877
  576MPD2    C3 8594   2.139   4.205  12.646 -0.1504 -0.6080  0.4578
  576MPD2    C4 8595   2.008   4.238  12.675  0.5239  0.0255 -0.6042
  576MPD2    C5 8596   1.930   4.257  12.569  0.2523 -0.4385 -0.1955
  576MPD2     H 8597   2.290   4.157  12.503 -0.1222 -0.5405 -2.0829
  576MPD2    H1 8598   1.969   4.236  12.776 -3.5510 -1.5844 -2.2213
  576MPD2    H2 8599   1.899   4.283  12.358 -1.0849 -0.2638  1.3335
  576MPD2    H3 8600   1.826   4.274  12.592  0.8567 -0.9722  3.0101
  576MPD2     N 8601   2.227   4.157  12.747 -0.1624  0.1076 -0.1163
  576MPD2    H5 8602   2.324   4.142  12.720  0.6607  3.1470  1.2195
  576MPD2    N1 8603   2.151   4.227  12.285 -0.0461 -0.4025  0.4540
  576MPD2    H7 8604   2.246   4.192  12.278  1.1422  2.1054  3.8009
  577TMC3    C1 8605   2.158   4.227  12.051  0.0519 -0.6819 -0.7231
  577TMC3    C2 8606   2.244   4.121  12.060  0.1557 -0.1111  0.3622
  577TMC3    C3 8607   2.317   4.086  11.948  0.3645 -0.2607  0.1967
  577TMC3    C4 8608   2.161   4.302  11.939 -0.1095 -0.1246 -0.4456
  577TMC3    C5 8609   2.239   4.267  11.837 -0.5039  0.1047 -0.4322
  577TMC3    C6 8610   2.309   4.153  11.833 -0.1150 -0.1385  0.0269
  577TMC3     C 8611   2.085   4.269  12.170  0.0463  0.2145 -0.0424
  577TMC3     O 8612   1.982   4.332  12.153 -0.2520 -0.9022 -0.5797
  577TMC3     H 8613   2.246   4.059  12.149 -0.8280  0.8515  1.0479
  577TMC3    H1 8614   2.124   4.404  11.939  0.2992  0.0218  0.6674
  577TMC3    H2 8615   2.369   4.120  11.748 -0.3569 -0.8147  0.1240
  577TMC3    C7 8616   2.322   4.375  11.783 -0.5596  0.4338  0.6945
  577TMC3    C8 8617   2.416   3.993  11.965  0.9465 -0.1658  0.6014
  577TMC3    O1 8618   2.440   4.348  11.757  0.8139  0.0301 -0.2823
  577TMC3    O2 8619   2.407   3.911  12.060 -0.0181 -0.7002  0.4777
  578MPD2     C 8620   4.438   0.242   0.300  0.4530 -0.0837 -0.0708
  578MPD2    C1 8621   4.538   0.174   0.225 -0.5555  0.2282 -0.0465
  578MPD2    C2 8622   4.655   0.130   0.293  0.3242 -0.3863 -0.1270
  578MPD2    C3 8623   4.671   0.167   0.427  0.0618 -0.0916 -0.5545
  578MPD2    C4 8624   4.578   0.245   0.489 -0.0412  0.0898  0.2731
  578MPD2    C5 8625   4.463   0.287   0.428 -0.6783 -0.0220  0.2170
  578MPD2     H 8626   4.730   0.079   0.234  1.4880  0.0644  0.9683
  578MPD2    H1 8627   4.587   0.278   0.591  1.8844  1.4171 -0.3433
  578MPD2    H2 8628   4.342   0.262   0.254 -0.0517 -0.0003  1.0149
  578MPD2    H3 8629   4.391   0.339   0.490 -1.0170  0.4552 -0.5739
  578MPD2     N 8630   0.035   0.117   0.505 -0.4394 -0.2857  0.2631
  578MPD2    H5 8631   0.042   0.160   0.597 -0.5345 -0.2650  0.2613
  578MPD2    N1 8632   4.528   0.159   0.082  0.3958  0.1340  0.3562
  578MPD2    H7 8633   4.608   0.114   0.040  0.6820  0.4472  0.5691
  579TMC3    C1 8634   0.226   0.010   0.569 -0.1985 -0.8117  0.4877
  579TMC3    C2 8635   0.282   0.119   0.640 -0.9534 -0.5091  0.5494
  579TMC3    C3 8636   0.417   0.114   0.673  0.6099 -0.2061  0.2351
  579TMC3    C4 8637   0.295   4.628   0.561 -0.2372 -0.3074  0.4146
  579TMC3    C5 8638   0.424   4.618   0.609  0.2619 -0.4693 -0.2445
  579TMC3    C6 8639   0.486   4.729   0.658 -0.0037  0.2060  0.1544
  579TMC3     C 8640   0.132   0.030   0.461 -0.6200  0.6705 -0.5269
  579TMC3     O 8641   0.136   4.686   0.367 -0.2956 -0.3205 -0.3539
  579TMC3     H 8642   0.229   0.214   0.642 -0.8844 -0.4773  0.9983
  579TMC3    H1 8643   0.247   4.546   0.509 -2.0152  1.4901 -0.7600
  579TMC3    H2 8644   0.583   4.727   0.705  0.0436 -1.0212  0.0127
  579TMC3    C7 8645   0.496   4.494   0.598  0.0661 -0.7277 -0.4962
  579TMC3    C8 8646   0.488   0.236   0.712 -0.3996 -0.3290 -0.3575
  579TMC3    O1 8647   0.617   4.515   0.587 -0.1998 -0.0323 -0.0356
  579TMC3    O2 8648   0.416   0.328   0.742 -0.2604  0.2730 -0.1208
  580TMC3    C1 8649   0.306   3.482  12.669  0.2636 -0.3006 -0.1726
  580TMC3    C2 8650   0.430   3.531  12.660  0.2333  0.4279 -0.5257
  580TMC3    C3 8651   0.534   3.442  12.628  0.3264  0.5741 -0.0747
  580TMC3    C4 8652   0.283   3.348  12.650 -0.1559 -0.3923  0.3085
  580TMC3    C5 8653   0.386   3.265  12.619  0.1071  0.6061  0.5760
  580TMC3    C6 8654   0.519   3.308  12.611  0.1446 -0.2732 -0.0240
  580TMC3     C 8655   0.211   3.575  12.634  0.0554 -0.4611 -0.1186
  580TMC3     O 8656   0.240   3.685  12.589  0.6337 -0.7271 -0.3825
  580TMC3     H 8657   0.448   3.638  12.672 -0.3333  0.3334  1.0870
  580TMC3    H1 8658   0.182   3.311  12.635  0.2761 -1.8176  1.0033
  580TMC3    H2 8659   0.606   3.247  12.588 -0.3540 -1.0152  0.0493
  580TMC3    C7 8660   0.359   3.131  12.665 -0.9985  0.0250  0.2420
  580TMC3    C8 8661   0.655   3.497  12.579 -0.7200  0.3311  0.4566
  580TMC3    O1 8662   0.293   3.121  12.768 -0.0792  0.1504  0.4722
  580TMC3    O2 8663   0.726   3.430  12.503  0.3990 -0.5507  0.0654
  581MPD2     C 8664   2.423   3.192  15.194 -0.5108  0.0319 -0.2443
  581MPD2    C1 8665   2.453   3.303  15.268 -0.5631 -0.6349  0.8490
  581MPD2    C2 8666   2.360   3.401  15.271 -0.1262 -0.0048 -0.0864
  581MPD2    C3 8667   2.240   3.396  15.199  0.2286  0.9417  0.0461
  581MPD2    C4 8668   2.209   3.278  15.131 -0.3558  0.0265  0.3896
  581MPD2    C5 8669   2.304   3.182  15.122 -0.0175 -0.1609 -0.9003
  581MPD2     H 8670   2.375   3.493  15.327  2.6572 -1.2968  1.3154
  581MPD2    H1 8671   2.112   3.273  15.083  0.0381 -2.4192 -0.1481
  581MPD2    H2 8672   2.489   3.107  15.183 -1.4997 -0.9804  1.7040
  581MPD2    H3 8673   2.278   3.097  15.060 -0.7066 -0.2167 -0.5363
  581MPD2     N 8674   2.146   3.505  15.199 -0.3908 -0.2777 -0.7216
  581MPD2    H5 8675   2.146   3.563  15.282  0.9386 -0.7110 -0.4177
  581MPD2    N1 8676   2.581   3.321  15.325  0.0417  0.3299 -0.8050
  581MPD2    H7 8677   2.642   3.243  15.304 -1.9447 -1.1618 -1.1096
  582TMC3    C1 8678   2.743   3.346  15.481 -0.5609  0.0932 -0.0318
  582TMC3    C2 8679   2.743   3.353  15.616  0.4536  0.1530 -0.1847
  582TMC3    C3 8680   2.826   3.265  15.681 -0.7654  0.7394  0.3563
  582TMC3    C4 8681   2.806   3.247  15.410  0.0661  0.2627  0.0180
  582TMC3    C5 8682   2.877   3.155  15.484  0.2388 -0.1956 -0.5107
  582TMC3    C6 8683   2.907   3.178  15.613  0.8220  0.3951 -0.5724
  582TMC3     C 8684   2.630   3.411  15.422 -0.4549 -0.5802 -0.3776
  582TMC3     O 8685   2.573   3.507  15.472  0.3486  0.4399 -0.0891
  582TMC3     H 8686   2.684   3.426  15.670 -0.4005 -0.6083 -0.0914
  582TMC3    H1 8687   2.811   3.237  15.302  1.1343  1.0222  0.0035
  582TMC3    H2 8688   2.961   3.097  15.660 -0.0097  0.1274 -0.0664
  582TMC3    C7 8689   2.964   3.058  15.415 -0.3252  0.5149 -0.4141
  582TMC3    C8 8690   2.824   3.251  15.827  0.2068 -0.3281  0.4535
  582TMC3    O1 8691   3.084   3.070  15.418 -0.1432 -1.1199  0.4730
  582TMC3    O2 8692   2.729   3.308  15.882  0.7027  0.7001  0.1257
  583MPD2     C 8693   2.459   0.331  16.851 -0.2221  0.3112 -0.0786
  583MPD2    C1 8694   2.472   0.458  16.809 -0.6682  0.3872 -0.3048
  583MPD2    C2 8695   2.429   0.559  16.889  0.0596 -0.0585  0.5011
  583MPD2    C3 8696   2.395   0.541  17.017 -0.3479  0.1308  0.7678
  583MPD2    C4 8697   2.392   0.409  17.063 -0.0160  0.0758  0.5901
  583MPD2    C5 8698   2.420   0.304  16.982 -0.3588  0.1643 -0.1329
  583MPD2     H 8699   2.433   0.664  16.862  1.7899 -0.5571 -1.1673
  583MPD2    H1 8700   2.356   0.378  17.161 -3.0757  2.3508  0.1778
  583MPD2    H2 8701   2.472   0.251  16.779 -0.9313  0.1362 -0.0136
  583MPD2    H3 8702   2.404   0.201  17.013  0.2447 -0.3319 -1.4557
  583MPD2     N 8703   2.339   0.647  17.094 -0.2611 -0.0955  0.3747
  583MPD2    H5 8704   2.322   0.732  17.041 -0.2137 -0.2537  0.1083
  583MPD2    N1 8705   2.517   0.482  16.678 -0.2626  0.0563  0.5930
  583MPD2    H7 8706   2.526   0.581  16.659 -0.3710  0.1221  0.8830
  584TMC3    C1 8707   2.267   0.764  17.283 -0.2977 -0.5065 -0.4032
  584TMC3    C2 8708   2.301   0.884  17.223 -0.1828  0.3545  0.0390
  584TMC3    C3 8709   2.280   0.995  17.305  0.1266 -0.4036 -0.2164
  584TMC3    C4 8710   2.202   0.749  17.400  0.2094 -0.6974 -0.0202
  584TMC3    C5 8711   2.167   0.864  17.461  0.8336 -0.0750 -0.7130
  584TMC3    C6 8712   2.215   0.981  17.428 -0.7767  0.1223 -0.5062
  584TMC3     C 8713   2.321   0.641  17.229 -0.2829 -0.3535 -0.2784
  584TMC3     O 8714   2.309   0.543  17.303 -0.2874  0.0168  0.2551
  584TMC3     H 8715   2.351   0.894  17.127 -2.3349  0.5702 -1.0534
  584TMC3    H1 8716   2.148   0.656  17.411 -1.7636  0.6964  2.0315
  584TMC3    H2 8717   2.177   1.073  17.471  0.4543  0.5768 -0.3935
  584TMC3    C7 8718   2.069   0.850  17.571  0.3783  0.1778  0.3220
  584TMC3    C8 8719   2.333   1.127  17.263  1.4010  0.9780 -0.1340
  584TMC3    O1 8720   2.008   0.746  17.583 -0.1066 -0.4874  0.2123
  584TMC3    O2 8721   2.380   1.142  17.153 -0.1754 -0.1258  0.2904
  585MPD2     C 8722   1.662   4.044   0.337 -0.8422  0.4762  0.6235
  585MPD2    C1 8723   1.794   4.007   0.321  0.2341 -0.6123  0.0762
  585MPD2    C2 8724   1.823   3.893   0.247 -1.0608 -0.4312 -0.0359
  585MPD2    C3 8725   1.719   3.822   0.187  0.3730  0.2417  0.2444
  585MPD2    C4 8726   1.589   3.860   0.208  0.3489  0.5985  0.4410
  585MPD2    C5 8727   1.564   3.970   0.279  0.2841 -0.4800  0.5390
  585MPD2     H 8728   1.925   3.867   0.221 -0.0823  0.1804  3.1959
  585MPD2    H1 8729   1.510   3.802   0.162 -0.5395  2.9095 -0.9323
  585MPD2    H2 8730   1.634   4.124   0.405 -0.4779  1.0780  0.0652
  585MPD2    H3 8731   1.462   4.003   0.291  0.4206  0.3580 -0.6962
  585MPD2     N 8732   1.742   3.713   0.092 -0.7543 -0.2946 -0.6841
  585MPD2    H5 8733   1.665   3.681   0.033  0.8617 -1.3417 -2.1967
  585MPD2    N1 8734   1.899   4.102   0.356  0.1705 -0.3598 -0.1743
  585MPD2    H7 8735   1.872   4.195   0.387 -0.2276 -1.2352  2.0926
  586TMC3    C1 8736   1.874   3.596  17.681 -0.0214  0.0146 -0.2846
  586TMC3    C2 8737   1.963   3.493  17.662 -0.3364  0.0570  0.6195
  586TMC3    C3 8738   1.978   3.438  17.538 -0.8172 -0.3248  0.5887
  586TMC3    C4 8739   1.806   3.646  17.570  1.0107  0.0826  0.4333
  586TMC3    C5 8740   1.833   3.598  17.445 -0.7815  0.3615 -0.7247
  586TMC3    C6 8741   1.912   3.482  17.431  0.2037  0.6853  0.7885
  586TMC3     C 8742   1.867   3.658   0.073 -0.1832 -0.3694 -0.4915
  586TMC3     O 8743   1.969   3.645   0.137 -0.4593  0.6403  0.0334
  586TMC3     H 8744   2.005   3.461   0.011  2.3932 -0.3250 -0.7213
  586TMC3    H1 8745   1.742   3.731  17.592 -0.2218 -0.4642 -1.0867
  586TMC3    H2 8746   1.908   3.420  17.342  1.7153 -0.6179  1.6177
  586TMC3    C7 8747   1.719   3.595  17.359 -0.5802 -0.7361  0.0274
  586TMC3    C8 8748   2.053   3.310  17.522 -0.6478  0.7507  0.4728
  586TMC3    O1 8749   1.697   3.488  17.308  0.0665 -0.4483  0.2375
  586TMC3    O2 8750   2.080   3.253  17.627  0.0123  0.1016  0.4702
  587TMC3    C1 8751   3.694   2.809  16.452  0.7240  0.2103  0.1522
  587TMC3    C2 8752   3.770   2.917  16.426  0.2647 -0.4074  0.5039
  587TMC3    C3 8753   3.876   2.936  16.505 -0.1202 -0.2729 -0.3082
  587TMC3    C4 8754   3.735   2.713  16.537 -1.2349  0.0889  0.4065
  587TMC3    C5 8755   3.846   2.731  16.610  0.1570  0.3435 -0.4007
  587TMC3    C6 8756   3.918   2.846  16.596 -0.2454 -0.0985  0.9473
  587TMC3     C 8757   3.570   2.791  16.373 -0.4257  0.4446  0.0010
  587TMC3     O 8758   3.579   2.836  16.259 -0.1959  0.0174 -0.3658
  587TMC3     H 8759   3.739   2.986  16.348  0.4941 -0.1901  0.6035
  587TMC3    H1 8760   3.671   2.627  16.557 -1.2703 -0.5739 -2.5356
  587TMC3    H2 8761   4.010   2.868  16.648  0.6819 -0.5679 -0.5035
  587TMC3    C7 8762   3.890   2.638  16.716 -0.2620  0.0332 -0.1225
  587TMC3    C8 8763   3.969   3.033  16.449 -0.3334  0.1064  0.4847
  587TMC3    O1 8764   3.969   2.683  16.799  0.4530 -0.3706 -0.7329
  587TMC3    O2 8765   3.981   3.027  16.330 -0.2434  0.0729 -0.1588
  588TMC3    C1 8766   1.778   0.847  10.186  0.8548 -0.6183  0.1644
  588TMC3    C2 8767   1.695   0.744  10.191 -0.3010  0.5077 -0.3874
  588TMC3    C3 8768   1.741   0.623  10.233  0.5036 -1.1471  0.7166
  588TMC3    C4 8769   1.909   0.840  10.221 -0.2862 -0.3378 -0.8838
  588TMC3    C5 8770   1.952   0.713  10.256  0.1627 -0.0835  0.1105
  588TMC3    C6 8771   1.872   0.605  10.258 -0.0594  0.4529  0.2914
  588TMC3     C 8772   1.723   0.977  10.152 -0.0271  0.0698  0.1426
  588TMC3     O 8773   1.627   0.990  10.080 -0.2956  0.0977 -0.4005
  588TMC3     H 8774   1.595   0.749  10.151 -0.2239  0.3438 -0.5976
  588TMC3    H1 8775   1.975   0.909  10.168 -1.6909  0.2204 -1.8956
  588TMC3    H2 8776   1.908   0.503  10.260 -0.4016  0.3169 -0.5280
  588TMC3    C7 8777   2.096   0.701  10.283  0.3969 -0.0478 -0.7316
  588TMC3    C8 8778   1.639   0.522  10.258  0.1275  0.3713 -0.2658
  588TMC3    O1 8779   2.155   0.601  10.236 -0.0736  0.5026 -0.7520
  588TMC3    O2 8780   1.534   0.532  10.204 -0.0536 -0.4047  0.3638
  589TMC3    C1 8781   0.721   2.524   0.906  0.2408 -0.1326  0.5798
  589TMC3    C2 8782   0.835   2.573   0.972  0.0549  0.0033 -0.4642
  589TMC3    C3 8783   0.931   2.472   0.991  0.6532 -0.3753  0.2246
  589TMC3    C4 8784   0.719   2.398   0.857  0.0224  0.9013 -0.2135
  589TMC3    C5 8785   0.832   2.318   0.858  0.3349  0.2670  0.0182
  589TMC3    C6 8786   0.950   2.354   0.916  0.0867 -0.1995  0.1940
  589TMC3     C 8787   0.598   2.596   0.902  0.2212 -0.1062 -0.1714
  589TMC3     O 8788   0.519   2.564   0.808 -0.2257 -0.0861  0.2353
  589TMC3     H 8789   0.836   2.674   1.012 -4.1703  0.7178 -2.1178
  589TMC3    H1 8790   0.630   2.365   0.806  0.4615 -0.2107 -0.2665
  589TMC3    H2 8791   1.025   2.280   0.941 -2.1408 -2.9567 -1.3448
  589TMC3    C7 8792   0.795   2.184   0.858 -0.4795 -0.3304 -0.0698
  589TMC3    C8 8793   1.042   2.514   1.075  0.3360 -1.3381  0.0484
  589TMC3    O1 8794   0.681   2.162   0.894  1.0089 -0.5464  0.4397
  589TMC3    O2 8795   1.147   2.448   1.075  0.6208  0.0266 -0.4224
  590MPD2     C 8796   4.638   0.260  16.789  0.1373 -0.4256  0.4188
  590MPD2    C1 8797   4.601   0.389  16.787 -0.3260 -0.4470 -0.3743
  590MPD2    C2 8798   4.695   0.490  16.785  0.1793  0.8598  0.5047
  590MPD2    C3 8799   0.093   0.460  16.769 -0.4809  0.2499 -0.0848
  590MPD2    C4 8800   0.129   0.327  16.783 -0.7019 -0.8088  0.2350
  590MPD2    C5 8801   0.036   0.230  16.795 -0.2620  0.1765  0.0885
  590MPD2     H 8802   4.665   0.594  16.778  1.5969  1.3695  1.8754
  590MPD2    H1 8803   0.232   0.296  16.793 -0.8704 -1.9895 -1.6567
  590MPD2    H2 8804   4.561   0.184  16.791 -0.1381 -0.1254  1.1895
  590MPD2    H3 8805   0.059   0.128  16.822 -0.5079 -0.1459 -0.9258
  590MPD2     N 8806   0.180   0.566  16.741 -0.3305 -0.2201 -0.0421
  590MPD2    H5 8807   0.155   0.662  16.762  1.4313  0.0285  0.9459
  590MPD2    N1 8808   4.460   0.421  16.766  0.0389 -1.0898  0.1142
  590MPD2    H7 8809   4.401   0.346  16.731 -1.6445  0.8356 -1.1760
  591TMC3    C1 8810   0.365   0.669  16.645  0.6087 -0.8514 -0.1610
  591TMC3    C2 8811   0.488   0.729  16.673  0.0350 -0.0092  0.1682
  591TMC3    C3 8812   0.508   0.858  16.624  0.3199 -0.1093 -0.4298
  591TMC3    C4 8813   0.270   0.746  16.578  0.7221  0.0417  0.3420
  591TMC3    C5 8814   0.287   0.882  16.542 -0.3672  0.1095  0.0732
  591TMC3    C6 8815   0.412   0.932  16.562  0.4956  0.5720  0.7682
  591TMC3     C 8816   0.313   0.552  16.706  0.4104 -0.0485  0.1708
  591TMC3     O 8817   0.390   0.458  16.728  0.9073  0.3220 -0.2760
  591TMC3     H 8818   0.573   0.676  16.714 -0.0983 -0.8092 -0.5979
  591TMC3    H1 8819   0.176   0.700  16.550  2.1999 -3.3622  0.8967
  591TMC3    H2 8820   0.437   1.016  16.499 -1.2155  0.5421  0.0480
  591TMC3    C7 8821   0.217   0.920  16.422  0.3960  0.6805 -0.3733
  591TMC3    C8 8822   0.646   0.887  16.591  0.1211 -0.6206 -0.5905
  591TMC3    O1 8823   0.185   0.824  16.350  0.1707 -0.4170 -0.4077
  591TMC3    O2 8824   0.708   0.791  16.553 -0.1436 -0.3269  0.2538
  592MPD2     C 8825   0.830   3.149  11.654 -0.6763  0.6463  0.3981
  592MPD2    C1 8826   0.828   3.172  11.786  0.2998 -0.4524 -0.0085
  592MPD2    C2 8827   0.774   3.076  11.869 -0.4322  0.5771  0.0358
  592MPD2    C3 8828   0.720   2.956  11.819  0.3897  0.5060  0.0902
  592MPD2    C4 8829   0.722   2.937  11.686  0.1062 -0.3451  0.0864
  592MPD2    C5 8830   0.780   3.032  11.606 -0.6930 -0.1960  0.0392
  592MPD2     H 8831   0.762   3.089  11.976  0.5723  0.8931  0.1168
  592MPD2    H1 8832   0.680   2.849  11.639  0.8090 -0.9975  0.6766
  592MPD2    H2 8833   0.860   3.222  11.580  1.6789  1.5631  2.2815
  592MPD2    H3 8834   0.780   3.014  11.499  0.0857 -0.5658  0.1044
  592MPD2     N 8835   0.686   2.852  11.906  0.2136  0.3227  0.4945
  592MPD2    H5 8836   0.701   2.877  12.003  0.1853 -3.1658  1.3861
  592MPD2    N1 8837   0.896   3.288  11.835  0.2553  0.1330  0.3696
  592MPD2    H7 8838   0.948   3.330  11.758  1.5189 -0.3554  0.9494
  593TMC3    C1 8839   1.007   3.431  11.989 -0.0363  0.7380 -0.4823
  593TMC3    C2 8840   1.075   3.407  12.107  0.1090  0.1715  0.1520
  593TMC3    C3 8841   1.198   3.473  12.114  0.1745 -0.4287 -0.8346
  593TMC3    C4 8842   1.064   3.495  11.880 -0.1453  0.5653 -0.2202
  593TMC3    C5 8843   1.190   3.554  11.897 -0.7949 -0.1789  0.0581
  593TMC3    C6 8844   1.250   3.549  12.014 -0.4009  0.5911 -0.0948
  593TMC3     C 8845   0.901   3.336  11.965 -0.3509  0.2541  0.2159
  593TMC3     O 8846   0.851   3.290  12.064  0.3636 -0.0578 -0.2333
  593TMC3     H 8847   1.022   3.358  12.188 -0.6202  0.2426 -0.2853
  593TMC3    H1 8848   1.004   3.517  11.792  1.5364  3.8555 -0.5805
  593TMC3    H2 8849   1.345   3.601  12.021  1.2170 -2.2028 -0.7554
  593TMC3    C7 8850   1.237   3.664  11.821 -0.6943  0.1629 -0.3926
  593TMC3    C8 8851   1.214   3.540  12.245  0.0160  0.6935 -0.2637
  593TMC3    O1 8852   1.337   3.732  11.850 -0.4616  0.1174  0.3073
  593TMC3    O2 8853   1.107   3.574  12.298  0.4058 -0.8322 -0.3039
  594MPD2     C 8854   4.335   2.237  14.253  0.2665 -0.3346 -0.3479
  594MPD2    C1 8855   4.296   2.276  14.382  1.1926  0.4099  0.3208
  594MPD2    C2 8856   4.399   2.340  14.459 -0.0875 -0.2279 -0.0439
  594MPD2    C3 8857   4.528   2.371  14.405  0.3587  0.7987  0.0432
  594MPD2    C4 8858   4.546   2.358  14.271  0.0304 -0.0168 -0.2190
  594MPD2    C5 8859   4.455   2.285  14.205 -0.1052  0.8217 -0.0346
  594MPD2     H 8860   4.387   2.355  14.565  0.5411  1.2744 -0.1940
  594MPD2    H1 8861   4.635   2.393  14.220 -0.7223  0.4178 -1.2301
  594MPD2    H2 8862   4.265   2.186  14.189 -1.2781  0.3322  0.8180
  594MPD2    H3 8863   4.473   2.257  14.102 -1.5821  1.2735 -0.4099
  594MPD2     N 8864   4.630   2.420  14.485 -0.7707  0.2458 -0.4779
  594MPD2    H5 8865   4.607   2.441  14.582 -0.6644 -0.3242 -0.3287
  594MPD2    N1 8866   4.163   2.245  14.424  0.2715 -0.2783 -0.1123
  594MPD2    H7 8867   4.106   2.197  14.355 -0.9144  1.7551 -0.5346
  595TMC3    C1 8868   0.258   2.661  14.629  0.5751 -0.3538 -0.0878
  595TMC3    C2 8869   0.209   2.552  14.564  0.5034  0.3086  0.1842
  595TMC3    C3 8870   0.077   2.551  14.536 -0.0730 -0.6430 -0.1883
  595TMC3    C4 8871   0.178   2.761  14.672 -0.8395  0.6176  0.4890
  595TMC3    C5 8872   0.041   2.758  14.648  0.0109  0.5098  0.4013
  595TMC3    C6 8873   4.726   2.651  14.574  0.4604  0.4687 -0.1727
  595TMC3     C 8874   0.386   2.650  14.698  0.3470  0.3860 -0.3103
  595TMC3     O 8875   0.408   2.535  14.735 -0.0172 -0.0802 -0.3484
  595TMC3     H 8876   0.271   2.469  14.533 -2.1599 -1.3936 -0.5190
  595TMC3    H1 8877   0.215   2.848  14.726 -2.1817  0.4636  1.6254
  595TMC3    H2 8878   4.621   2.645  14.546  0.4008 -0.0005  0.1574
  595TMC3    C7 8879   4.696   2.790  14.759 -0.4734 -0.3125 -0.7078
  595TMC3    C8 8880   0.018   2.460  14.442 -0.1186 -0.6100  0.0901
  595TMC3    O1 8881   4.583   2.830  14.735 -0.0623 -0.5522  0.7752
  595TMC3    O2 8882   0.093   2.419  14.357 -0.1166  0.0497  0.1319
  596MPD2     C 8883   3.176   0.046  17.047 -0.0201 -0.2466  0.4893
  596MPD2    C1 8884   3.191   0.170  16.989 -0.2881 -0.3200  0.2319
  596MPD2    C2 8885   3.250   0.184  16.865  0.2371 -0.4540  0.2803
  596MPD2    C3 8886   3.292   0.076  16.793  0.7791 -0.0295 -0.1120
  596MPD2    C4 8887   3.293   4.693  16.855 -0.7552 -1.1094 -0.4756
  596MPD2    C5 8888   3.229   4.678  16.981  0.8665 -0.2500 -0.3007
  596MPD2     H 8889   3.274   0.282  16.824  1.8757 -1.5145 -1.3305
  596MPD2    H1 8890   3.330   4.606  16.802  1.5500 -0.1189 -0.5246
  596MPD2    H2 8891   3.126   0.033  17.143 -0.6271 -2.3479 -0.1185
  596MPD2    H3 8892   3.234   4.577  17.021  0.7597 -1.0184 -2.2106
  596MPD2     N 8893   3.336   0.077  16.661  0.3212 -1.0274  0.0975
  596MPD2    H5 8894   3.366   4.722  16.630 -0.6848 -1.6630  1.0157
  596MPD2    N1 8895   3.149   0.296  17.040  0.0243  0.4350  0.2481
  596MPD2    H7 8896   3.171   0.376  16.981  1.5987 -2.1695 -2.6556
  597TMC3    C1 8897   3.038   0.454  17.175  0.1297 -0.3793  0.0494
  597TMC3    C2 8898   3.118   0.549  17.124  1.1791 -0.3081  0.0011
  597TMC3    C3 8899   3.084   0.681  17.148  0.8307 -0.2173  0.4308
  597TMC3    C4 8900   2.926   0.480  17.248 -0.3134 -0.7942  0.4216
  597TMC3    C5 8901   2.898   0.609  17.278  0.3249  0.1883  1.0481
  597TMC3    C6 8902   2.975   0.718  17.232 -0.2240  0.1552  0.9149
  597TMC3     C 8903   3.073   0.313  17.158 -0.2915  0.5267 -0.2988
  597TMC3     O 8904   3.017   0.229  17.227 -0.3182  0.1616  0.1890
  597TMC3     H 8905   3.214   0.528  17.076  0.9618 -1.7377  0.1808
  597TMC3    H1 8906   2.865   0.400  17.289 -1.1874 -0.5970 -0.4837
  597TMC3    H2 8907   2.983   0.811  17.288 -1.4998  0.4513  0.6148
  597TMC3    C7 8908   2.785   0.632  17.362  0.4400 -0.6905 -0.5799
  597TMC3    C8 8909   3.158   0.780  17.070  0.4644 -0.1391 -0.0510
  597TMC3    O1 8910   2.736   0.537  17.417 -0.2685 -0.3166  0.0001
  597TMC3    O2 8911   3.264   0.747  17.020 -0.4362 -0.0829 -0.2534
  598TMC3    C1 8912   1.647   1.535  15.349  1.0733  0.0032 -0.4613
  598TMC3    C2 8913   1.533   1.464  15.341  0.7183  0.0339  1.0263
  598TMC3    C3 8914   1.462   1.487  15.221 -0.2019  0.0043  0.2484
  598TMC3    C4 8915   1.692   1.627  15.254 -0.2776 -0.1932  0.1624
  598TMC3    C5 8916   1.621   1.645  15.139 -0.2028 -0.1065  0.0375
  598TMC3    C6 8917   1.508   1.572  15.120 -0.4327 -0.3242 -0.7999
  598TMC3     C 8918   1.734   1.520  15.464 -0.3951 -0.0869  0.7502
  598TMC3     O 8919   1.840   1.579  15.463  0.1318 -0.2182 -0.4146
  598TMC3     H 8920   1.501   1.389  15.411  0.6616 -2.2038 -1.3742
  598TMC3    H1 8921   1.776   1.695  15.264 -0.2583  0.0284 -1.5863
  598TMC3    H2 8922   1.448   1.589  15.031 -1.5426 -0.8409 -0.1488
  598TMC3    C7 8923   1.686   1.686  15.017  0.3149 -0.3884  0.2593
  598TMC3    C8 8924   1.329   1.427  15.208 -0.2423  0.0151 -0.1370
  598TMC3    O1 8925   1.656   1.627  14.911 -0.2325 -0.1622 -0.6478
  598TMC3    O2 8926   1.276   1.382  15.307 -0.1323  1.4130  0.3790
  599MPD2     C 8927   1.754   4.106  16.083  0.3355 -0.2137 -0.4685
  599MPD2    C1 8928   1.676   3.994  16.071  0.1693  0.0800 -0.5292
  599MPD2    C2 8929   1.535   4.011  16.085  0.5083  0.6957 -0.1123
  599MPD2    C3 8930   1.480   4.136  16.128  0.3648 -0.1868 -0.7785
  599MPD2    C4 8931   1.566   4.246  16.127 -0.1674  0.2393 -0.7730
  599MPD2    C5 8932   1.697   4.229  16.092  0.3268  0.1277 -0.5182
  599MPD2     H 8933   1.479   3.919  16.071  0.9129  0.4074  0.1813
  599MPD2    H1 8934   1.534   4.343  16.162 -0.6472 -1.5866  3.8056
  599MPD2    H2 8935   1.860   4.094  16.068  0.7135  1.6795  0.6918
  599MPD2    H3 8936   1.768   4.311  16.099 -0.6455  1.1244 -2.0953
  599MPD2     N 8937   1.351   4.150  16.185  0.2805 -0.0189 -0.1807
  599MPD2    H5 8938   1.317   4.244  16.206  1.1938  0.1812  0.3781
  599MPD2    N1 8939   1.739   3.870  16.044 -0.0564 -0.8457 -0.3328
  599MPD2    H7 8940   1.840   3.871  16.050  0.0345  0.2170 -1.8115
  600TMC3    C1 8941   1.156   4.064  16.291  0.7601 -0.0887 -0.0163
  600TMC3    C2 8942   1.107   3.958  16.355  0.2468 -0.4778  0.0561
  600TMC3    C3 8943   0.978   3.966  16.394 -0.4233 -0.2552 -0.0063
  600TMC3    C4 8944   1.084   4.171  16.250  0.3461  0.1080 -0.0796
  600TMC3    C5 8945   0.947   4.163  16.271 -0.8815  0.0212 -0.1855
  600TMC3    C6 8946   0.894   4.067  16.350  0.2290 -0.3712  0.2586
  600TMC3     C 8947   1.276   4.040  16.224  0.1824  0.1475 -0.4758
  600TMC3     O 8948   1.295   3.924  16.197 -0.6005 -0.4239  0.6472
  600TMC3     H 8949   1.185   3.896  16.397 -1.0691 -1.5340  0.9467
  600TMC3    H1 8950   1.140   4.248  16.197 -1.5351  0.4543 -1.5451
  600TMC3    H2 8951   0.791   4.065  16.384 -0.4095  0.6302 -1.6333
  600TMC3    C7 8952   0.849   4.246  16.199 -0.7286  0.2096  0.0456
  600TMC3    C8 8953   0.910   3.855  16.462 -0.3928 -0.0093  0.5409
  600TMC3    O1 8954   0.749   4.184  16.166 -0.0046 -0.5161  0.5541
  600TMC3    O2 8955   0.791   3.863  16.488 -0.0266 -0.1219  0.0255
  601MPD2     C 8956   3.440   2.673   0.615  0.0620 -0.7009 -0.4316
  601MPD2    C1 8957   3.329   2.649   0.538  0.2497  0.1254  0.0787
  601MPD2    C2 8958   3.215   2.607   0.595 -0.3133  0.2369  0.4115
  601MPD2    C3 8959   3.213   2.576   0.730  0.5700 -0.5850 -0.0506
  601MPD2    C4 8960   3.325   2.610   0.806  0.6272  0.1896 -0.0257
  601MPD2    C5 8961   3.437   2.655   0.749 -0.0317 -0.0566 -0.1255
  601MPD2     H 8962   3.125   2.589   0.537  0.9833 -0.6727 -1.3133
  601MPD2    H1 8963   3.343   2.583   0.909  0.1133 -3.3298 -0.8237
  601MPD2    H2 8964   3.537   2.705   0.579  0.5143 -0.3735  1.0943
  601MPD2    H3 8965   3.520   2.654   0.819 -0.4202  0.5110  0.3419
  601MPD2     N 8966   3.098   2.509   0.785 -0.4387 -0.3022 -0.6794
  601MPD2    H5 8967   3.088   2.503   0.886 -1.1303 -0.1060 -0.7332
  601MPD2    N1 8968   3.323   2.662   0.392 -0.2270 -0.2189 -0.0677
  601MPD2    H7 8969   3.232   2.635   0.356 -1.4069  2.1453  1.1358
  602TMC3    C1 8970   3.387   2.694   0.172 -0.2538 -0.5759 -0.3353
  602TMC3    C2 8971   3.387   2.814   0.108  0.0356 -1.4378  0.4740
  602TMC3    C3 8972   3.309   2.824  17.740  0.3932  0.0856 -0.5728
  602TMC3    C4 8973   3.300   2.601   0.134 -0.1143  0.3873  0.3789
  602TMC3    C5 8974   3.221   2.621   0.031  0.8712  0.8049 -0.5051
  602TMC3    C6 8975   3.226   2.727  17.699 -0.3100 -0.2666 -0.0673
  602TMC3     C 8976   3.424   2.709   0.313  0.2713  0.5082 -0.1645
  602TMC3     O 8977   3.508   2.791   0.347 -0.2319  0.0652 -0.9770
  602TMC3     H 8978   3.452   2.895   0.141  0.0509 -0.2453 -2.4735
  602TMC3    H1 8979   3.286   2.518   0.203 -0.8387  0.9458  0.9022
  602TMC3    H2 8980   3.185   2.718  17.599  0.9356  0.8972 -0.6886
  602TMC3    C7 8981   3.127   2.521  17.730  0.3535 -0.0655  0.2379
  602TMC3    C8 8982   3.293   2.954  17.674  0.0542  0.1810  0.6880
  602TMC3    O1 8983   3.148   2.403  17.745 -0.4461 -0.5640  0.1383
  602TMC3    O2 8984   3.369   3.045  17.700  0.0254 -0.6700  0.4878
  603TMC3    C1 8985   1.479   2.917  11.274  0.3361  0.4773  0.1224
  603TMC3    C2 8986   1.465   2.872  11.400  0.0896  0.7098 -0.2310
  603TMC3    C3 8987   1.497   2.963  11.503 -0.0533  0.6280  0.5405
  603TMC3    C4 8988   1.514   3.042  11.250 -0.2656  0.1095 -0.3191
  603TMC3    C5 8989   1.543   3.126  11.361  0.7193  0.4757 -0.4260
  603TMC3    C6 8990   1.542   3.085  11.483  0.1641 -0.1091 -0.6795
  603TMC3     C 8991   1.500   2.808  11.180  0.8906  0.4067 -0.4556
  603TMC3     O 8992   1.533   2.703  11.230 -0.5699 -0.0155  0.2019
  603TMC3     H 8993   1.448   2.768  11.423 -0.4310  0.4499 -1.7849
  603TMC3    H1 8994   1.529   3.080  11.150  1.3851  0.0482 -0.1060
  603TMC3    H2 8995   1.560   3.156  11.564  0.6580  0.0854 -0.9624
  603TMC3    C7 8996   1.606   3.253  11.328 -0.2210  0.1097  0.0456
  603TMC3    C8 8997   1.537   2.896  11.622 -0.3198  0.4683 -0.0106
  603TMC3    O1 8998   1.687   3.298  11.409 -0.3515 -0.4259 -0.1959
  603TMC3    O2 8999   1.511   2.777  11.637 -0.0023 -0.1156 -0.3800
  604MPD2     C 9000   2.571   1.725  16.235  0.7102 -0.0540  0.0355
  604MPD2    C1 9001   2.485   1.622  16.202 -0.2770 -0.5248 -0.1645
  604MPD2    C2 9002   2.530   1.517  16.126 -0.1374 -0.1601 -0.7517
  604MPD2    C3 9003   2.667   1.511  16.094  0.1400 -0.2127  0.5945
  604MPD2    C4 9004   2.752   1.617  16.126 -0.2098  0.1641 -0.7647
  604MPD2    C5 9005   2.700   1.731  16.189  0.1368  0.1876  0.2728
  604MPD2     H 9006   2.475   1.424  16.116  0.5223 -0.6933  0.4696
  604MPD2    H1 9007   2.854   1.631  16.090 -0.4855 -0.5378 -1.8381
  604MPD2    H2 9008   2.532   1.802  16.301  0.3735 -0.3280  0.1594
  604MPD2    H3 9009   2.763   1.816  16.212  1.6035 -0.9993  0.6723
  604MPD2     N 9010   2.717   1.395  16.027 -0.5211 -0.1037  0.0160
  604MPD2    H5 9011   2.652   1.323  15.997  0.1052 -0.7286  0.1828
  604MPD2    N1 9012   2.357   1.624  16.262  0.0285  0.2904  0.6397
  604MPD2    H7 9013   2.338   1.707  16.317  1.3683  1.8601 -1.2998
  605TMC3    C1 9014   2.149   1.538  16.319 -0.3017 -0.4082  0.2108
  605TMC3    C2 9015   2.179   1.561  16.453 -0.4179 -0.2417 -0.5019
  605TMC3    C3 9016   2.083   1.602  16.538 -0.5014  0.2857 -0.3074
  605TMC3    C4 9017   2.020   1.555  16.267 -0.1581 -0.4063  0.1219
  605TMC3    C5 9018   1.930   1.591  16.360  0.4222  0.2808 -1.5875
  605TMC3    C6 9019   1.954   1.615  16.491  0.2386 -0.6401  0.7926
  605TMC3     C 9020   2.258   1.529  16.231 -0.7971  0.4603  0.2723
  605TMC3     O 9021   2.239   1.465  16.129  0.5677  0.6724 -0.5302
  605TMC3     H 9022   2.284   1.553  16.476 -0.7575 -2.2062  0.3805
  605TMC3    H1 9023   1.985   1.543  16.165  1.9667 -0.2362 -0.6193
  605TMC3    H2 9024   1.874   1.658  16.551  0.9674  1.7080  0.0782
  605TMC3    C7 9025   1.794   1.611  16.309 -0.0211  0.6258 -0.3238
  605TMC3    C8 9026   2.126   1.654  16.668 -0.5684  0.5013  0.1616
  605TMC3    O1 9027   1.787   1.651  16.193 -0.1143  0.0704  0.2983
  605TMC3    O2 9028   2.236   1.615  16.699  0.2050 -0.6201 -0.0438
  606TMC3    C1 9029   3.330   0.340  17.443 -0.1204 -0.1778 -0.1808
  606TMC3    C2 9030   3.280   0.330  17.566  0.9943 -0.0233 -0.5861
  606TMC3    C3 9031   3.222   0.210  17.601 -0.2114  0.0478  0.0228
  606TMC3    C4 9032   3.327   0.235  17.356 -0.1089 -0.2924 -0.3051
  606TMC3    C5 9033   3.268   0.120  17.396  0.9592 -0.6053 -0.2980
  606TMC3    C6 9034   3.212   0.106  17.514  0.6796  0.9735  0.5618
  606TMC3     C 9035   3.344   0.470  17.386  0.0378 -0.2413  0.3016
  606TMC3     O 9036   3.411   0.475  17.281 -0.3942 -0.5310 -0.0481
  606TMC3     H 9037   3.291   0.409  17.639  1.1991 -1.2027  0.6672
  606TMC3    H1 9038   3.368   0.239  17.256 -1.8215  0.4889 -0.9771
  606TMC3    H2 9039   3.187   0.003  17.535  0.6755  0.8583 -0.0195
  606TMC3    C7 9040   3.314   4.734  17.333  0.7182  0.8019  0.2804
  606TMC3    C8 9041   3.225   0.173  17.745  0.5771 -0.0937  0.6304
  606TMC3    O1 9042   3.420   4.733  17.282  0.3743  0.1342 -0.5316
  606TMC3    O2 9043   3.322   0.206   0.071 -0.3860  0.0649 -0.0993
  607MPD2     C 9044   1.121   2.368  11.409  1.3874 -0.4016 -0.2118
  607MPD2    C1 9045   1.031   2.397  11.514 -0.7731 -0.8032  0.1291
  607MPD2    C2 9046   0.983   2.299  11.597  0.0889  0.2327  0.8171
  607MPD2    C3 9047   1.019   2.164  11.572  0.7162 -0.3636 -0.3293
  607MPD2    C4 9048   1.099   2.136  11.463  0.2220  0.1401 -1.0914
  607MPD2    C5 9049   1.152   2.242  11.391 -0.0526 -0.3123 -0.2861
  607MPD2     H 9050   0.909   2.321  11.673  0.3439  1.1595  0.7899
  607MPD2    H1 9051   1.140   2.038  11.444 -0.5348 -0.3756 -0.0142
  607MPD2    H2 9052   1.153   2.446  11.341 -0.7131 -0.8721 -1.7098
  607MPD2    H3 9053   1.227   2.214  11.317 -0.4016  2.4406 -1.6717
  607MPD2     N 9054   0.972   2.068  11.669  0.0415  0.0792  0.4841
  607MPD2    H5 9055   0.914   2.102  11.745 -2.7357  0.8025 -1.9931
  607MPD2    N1 9056   0.989   2.526  11.552  0.1428 -0.6972 -0.4511
  607MPD2    H7 9057   0.915   2.533  11.622 -0.1438 -0.9547 -0.7251
  608TMC3    C1 9058   1.027   2.748  11.620  0.5005 -0.4181 -0.0828
  608TMC3    C2 9059   1.011   2.702  11.752 -0.2748 -0.1076 -0.1693
  608TMC3    C3 9060   1.060   2.783  11.854  0.3308 -0.2229 -0.2755
  608TMC3    C4 9061   1.076   2.871  11.594  0.0891 -0.8487  0.4566
  608TMC3    C5 9062   1.113   2.951  11.696  0.3333  0.3521 -0.0868
  608TMC3    C6 9063   1.107   2.912  11.829 -0.0605 -0.0905  0.5728
  608TMC3     C 9064   1.053   2.643  11.519 -0.1722 -0.2242 -0.0681
  608TMC3     O 9065   1.141   2.658  11.436  0.1896  0.3736  0.6038
  608TMC3     H 9066   0.953   2.613  11.774 -1.3987  0.7593  0.3636
  608TMC3    H1 9067   1.096   2.893  11.490  1.0683  0.6699  0.9766
  608TMC3    H2 9068   1.121   2.979  11.913 -1.3212  0.7916  0.0700
  608TMC3    C7 9069   1.179   3.077  11.656  0.3587  1.0677 -0.3383
  608TMC3    C8 9070   1.036   2.750  11.990  0.7210 -0.4745  0.2885
  608TMC3    O1 9071   1.164   3.113  11.538  0.3210 -0.0434 -0.1457
  608TMC3    O2 9072   1.002   2.835  12.073  0.1681 -0.0732  0.2011
  609TMC3    C1 9073   4.521   2.236   9.236 -0.1821  0.3600  0.0909
  609TMC3    C2 9074   4.532   2.361   9.191  0.1395  1.2286 -0.5245
  609TMC3    C3 9075   4.647   2.427   9.199  0.0063 -0.0197 -0.5167
  609TMC3    C4 9076   4.625   2.172   9.296  0.2832 -0.4393 -0.6552
  609TMC3    C5 9077   0.011   2.236   9.289  0.1340  0.1866 -0.0918
  609TMC3    C6 9078   0.025   2.366   9.240 -0.2204 -0.7348 -0.2471
  609TMC3     C 9079   4.388   2.198   9.282 -0.1072 -0.3797 -0.3045
  609TMC3     O 9080   4.384   2.117   9.374 -0.0010 -0.2737 -0.4637
  609TMC3     H 9081   4.459   2.416   9.134  0.7497  1.6681 -0.8857
  609TMC3    H1 9082   4.614   2.066   9.316 -1.1950 -0.2186 -0.2705
  609TMC3    H2 9083   0.114   2.426   9.257  0.4379 -1.1577 -2.2330
  609TMC3    C7 9084   0.113   2.182   9.373 -0.3343 -0.1061 -0.0919
  609TMC3    C8 9085   4.660   2.568   9.155  0.0585 -0.4860  0.0691
  609TMC3    O1 9086   0.218   2.237   9.370 -0.0595 -0.1340  0.0380
  609TMC3    O2 9087   0.031   2.605   9.112  0.0087 -0.2060  0.1998
  610TMC3    C1 9088   1.102   2.293  12.636  0.2332  0.1350  0.4635
  610TMC3    C2 9089   1.155   2.315  12.514  0.2004 -0.2160  0.5972
  610TMC3    C3 9090   1.260   2.407  12.508  0.5118 -0.3588  0.1981
  610TMC3    C4 9091   1.142   2.355  12.750 -0.5513  0.1023 -0.1153
  610TMC3    C5 9092   1.256   2.434  12.735 -0.0042  0.1274  0.0082
  610TMC3    C6 9093   1.314   2.466  12.618 -0.2662 -0.0007  0.3828
  610TMC3     C 9094   0.998   2.193  12.646 -0.0136 -0.5455  0.2652
  610TMC3     O 9095   0.912   2.206  12.732  0.5710 -0.3721  0.0655
  610TMC3     H 9096   1.115   2.267  12.425 -0.8363  0.9280  0.4430
  610TMC3    H1 9097   1.108   2.347  12.852  1.5104  0.7502  0.6200
  610TMC3    H2 9098   1.401   2.530  12.609  0.8002 -1.3773  0.7925
  610TMC3    C7 9099   1.343   2.438  12.852 -0.5967 -0.7473 -0.1439
  610TMC3    C8 9100   1.318   2.408  12.372  0.3375  0.2275 -0.4767
  610TMC3    O1 9101   1.298   2.383  12.952  0.0222  0.0567 -0.4013
  610TMC3    O2 9102   1.309   2.308  12.302 -0.0792  0.1932  0.1405
  611MPD2     C 9103   0.606   3.472  10.879  0.7253 -0.5917  0.0778
  611MPD2    C1 9104   0.669   3.410  10.768 -0.3416 -0.5927 -0.1720
  611MPD2    C2 9105   0.796   3.450  10.730 -0.4739 -0.7081 -0.6011
  611MPD2    C3 9106   0.862   3.545  10.795 -0.5178  0.0555  0.1120
  611MPD2    C4 9107   0.802   3.601  10.907 -0.0302  0.1004 -0.1804
  611MPD2    C5 9108   0.682   3.557  10.953 -1.2984 -0.2516  0.0383
  611MPD2     H 9109   0.852   3.405  10.649 -0.7457 -0.3942 -0.9674
  611MPD2    H1 9110   0.850   3.680  10.963 -2.4071  1.0301  0.5751
  611MPD2    H2 9111   0.506   3.452  10.915  0.8186  0.1754  0.7761
  611MPD2    H3 9112   0.631   3.608  11.034 -1.0016  0.2134 -0.0652
  611MPD2     N 9113   0.988   3.598  10.752  0.4604 -0.3779 -0.0632
  611MPD2    H5 9114   1.030   3.671  10.809  0.1842 -0.7115  0.5566
  611MPD2    N1 9115   0.594   3.307  10.692 -0.0408  0.1861 -0.0852
  611MPD2    H7 9116   0.493   3.311  10.704  0.1261  1.8194  0.8456
  612TMC3    C1 9117   1.177   3.635  10.622 -0.0599 -0.4917 -0.3200
  612TMC3    C2 9118   1.246   3.672  10.731 -0.0796 -0.1632  0.2427
  612TMC3    C3 9119   1.364   3.738  10.706  0.1272  0.4913 -0.3084
  612TMC3    C4 9120   1.215   3.672  10.501  0.1577  0.0642 -0.2266
  612TMC3    C5 9121   1.320   3.753  10.483 -0.0308  0.6359  0.3727
  612TMC3    C6 9122   1.398   3.786  10.590 -0.2547 -0.7389 -0.4080
  612TMC3     C 9123   1.053   3.566  10.633  0.0030  0.0658 -0.4936
  612TMC3     O 9124   1.024   3.497  10.538  0.1380 -0.1096  0.6616
  612TMC3     H 9125   1.207   3.649  10.829 -0.3298  1.8743  0.6313
  612TMC3    H1 9126   1.159   3.642  10.413  0.8539 -1.9182  0.0106
  612TMC3    H2 9127   1.501   3.816  10.570 -0.3167  0.7743  1.5321
  612TMC3    C7 9128   1.385   3.761  10.350 -0.2451  0.0076 -0.2702
  612TMC3    C8 9129   1.459   3.742  10.816  0.3925  0.2797  0.1004
  612TMC3    O1 9130   1.342   3.680  10.268  0.1061  0.4239  0.0863
  612TMC3    O2 9131   1.544   3.830  10.811  0.2316  0.7974  0.0683
  613MPD2     C 9132   0.013   0.275  16.420  0.7584 -0.7342  1.0273
  613MPD2    C1 9133   0.080   0.202  16.319  0.9607 -0.1080  0.1425
  613MPD2    C2 9134   0.006   0.106  16.249  0.1011 -0.6144 -0.5072
  613MPD2    C3 9135   4.610   0.085  16.268  0.1525 -0.3533  0.0727
  613MPD2    C4 9136   4.547   0.155  16.371 -0.1410 -0.6384  0.5641
  613MPD2    C5 9137   4.617   0.245  16.446  0.5120 -0.0789 -0.5212
  613MPD2     H 9138   0.059   0.057  16.168 -0.3059 -0.2170 -1.0140
  613MPD2    H1 9139   4.443   0.143  16.400 -0.4466  0.5447 -0.0380
  613MPD2    H2 9140   0.056   0.363  16.465  3.0066  0.2639 -3.0890
  613MPD2    H3 9141   4.559   0.302  16.517 -0.1437  0.0680 -1.1710
  613MPD2     N 9142   4.543   4.724  16.188  0.1499  0.4836  0.0134
  613MPD2    H5 9143   4.596   4.672  16.119 -0.5919  0.0136 -0.2125
  613MPD2    N1 9144   0.210   0.222  16.273  0.3806 -0.1180 -0.5547
  613MPD2    H7 9145   0.238   0.161  16.197  1.2874 -0.4323  0.0347
  614TMC3    C1 9146   0.408   0.345  16.224  0.1553  0.2374  1.0006
  614TMC3    C2 9147   0.427   0.228  16.152  0.0498 -0.1767  0.8578
  614TMC3    C3 9148   0.431   0.225  16.018 -0.2916 -0.9688  0.3564
  614TMC3    C4 9149   0.382   0.458  16.154  1.0727 -0.0853  0.0386
  614TMC3    C5 9150   0.395   0.459  16.017 -0.1073 -0.0091 -0.7559
  614TMC3    C6 9151   0.419   0.346  15.949 -0.1848  0.2182  0.1069
  614TMC3     C 9152   0.296   0.326  16.315  0.1488 -0.1489  0.0841
  614TMC3     O 9153   0.267   0.415  16.391  0.4431 -0.3862  0.4705
  614TMC3     H 9154   0.447   0.136  16.206 -1.4886 -0.2503  1.3158
  614TMC3    H1 9155   0.348   0.542  16.214  0.9908 -0.4501  0.5029
  614TMC3    H2 9156   0.434   0.350  15.842 -0.8610  2.1380  0.0919
  614TMC3    C7 9157   0.304   0.562  15.961  0.5558 -0.3205 -0.5737
  614TMC3    C8 9158   0.344   0.128  15.962 -0.2188 -0.3239 -0.3298
  614TMC3    O1 9159   0.319   0.675  16.007 -0.1697  0.1611 -0.1960
  614TMC3    O2 9160   0.287   0.058  16.044  0.4734 -0.9450 -0.0288
  615MPD2     C 9161   4.200   1.253  16.285 -0.7955  0.1207  0.0023
  615MPD2    C1 9162   4.126   1.366  16.318  0.3850 -0.3888 -0.3949
  615MPD2    C2 9163   4.030   1.417  16.231  0.8144  0.7758  0.2067
  615MPD2    C3 9164   4.007   1.353  16.111 -0.3518  0.3136  0.2487
  615MPD2    C4 9165   4.085   1.246  16.072 -0.3827 -0.3563  0.4001
  615MPD2    C5 9166   4.177   1.200  16.160 -0.0256 -0.1509  0.0195
  615MPD2     H 9167   3.993   1.518  16.247 -1.3858  0.0997 -0.6515
  615MPD2    H1 9168   4.073   1.199  15.976 -0.1708  0.0934  0.1528
  615MPD2    H2 9169   4.275   1.212  16.352  2.0083  2.1474 -1.8489
  615MPD2    H3 9170   4.242   1.117  16.136  1.1499  0.5649  0.7732
  615MPD2     N 9171   3.905   1.391  16.024  0.4981 -0.2800  0.7864
  615MPD2    H5 9172   3.912   1.360  15.928 -1.6729 -1.0010  0.8702
  615MPD2    N1 9173   4.149   1.448  16.436  0.6055  0.1832  0.1217
  615MPD2    H7 9174   4.103   1.538  16.429  0.5566  0.1331 -0.2256
  616TMC3    C1 9175   4.285   1.551  16.598 -0.3235 -0.4867 -0.9078
  616TMC3    C2 9176   4.300   1.664  16.518 -0.1973  0.3857  0.2138
  616TMC3    C3 9177   4.356   1.775  16.566 -0.5300 -0.2659  0.7068
  616TMC3    C4 9178   4.338   1.548  16.724 -0.2942 -0.4860 -0.8699
  616TMC3    C5 9179   4.401   1.657  16.768  0.0486  0.0655 -0.4004
  616TMC3    C6 9180   4.411   1.766  16.689  0.2946  0.4581  0.3992
  616TMC3     C 9181   4.242   1.426  16.539  0.5122  0.5043  0.3127
  616TMC3     O 9182   4.295   1.325  16.570  1.0397 -0.2224  0.1968
  616TMC3     H 9183   4.267   1.677  16.415 -3.0694 -0.6247  1.0149
  616TMC3    H1 9184   4.334   1.461  16.788 -0.4499  0.6955  0.7220
  616TMC3    H2 9185   4.444   1.859  16.734 -1.1678  1.7610 -1.2292
  616TMC3    C7 9186   4.389   1.669  16.908 -0.7929 -0.4596 -0.1109
  616TMC3    C8 9187   4.397   1.879  16.475  0.4099 -0.0751  0.0066
  616TMC3    O1 9188   4.305   1.597  16.959  0.2856 -0.2292  0.5061
  616TMC3    O2 9189   4.344   1.885  16.366 -0.4600  0.2399 -0.3640
  617MPD2     C 9190   2.172   0.115  13.848 -0.5066 -0.4664 -0.5855
  617MPD2    C1 9191   2.224   0.058  13.957  0.4119 -0.1669 -0.4698
  617MPD2    C2 9192   2.140   4.718  14.042  0.0776  0.1722  0.2869
  617MPD2    C3 9193   2.011   4.691  14.004  0.4173  0.5729 -0.9690
  617MPD2    C4 9194   1.959   0.028  13.895  0.3536 -0.0953 -0.0645
  617MPD2    C5 9195   2.043   0.094  13.812  0.7464 -0.1984  0.3564
  617MPD2     H 9196   2.187   4.676  14.130 -0.5546 -0.4735  0.3138
  617MPD2    H1 9197   1.855   0.027  13.863  0.6072 -1.5814 -0.8055
  617MPD2    H2 9198   2.230   0.180  13.783 -0.3548 -2.4331 -2.4120
  617MPD2    H3 9199   2.005   0.140  13.721 -1.7246 -0.1041  1.4332
  617MPD2     N 9200   1.929   4.623  14.088  0.3006 -0.7122 -0.4529
  617MPD2    H5 9201   1.829   4.637  14.077  0.1546 -2.1709 -1.0121
  617MPD2    N1 9202   2.363   0.072  13.980 -0.0351 -0.1170  0.0117
  617MPD2    H7 9203   2.416   0.115  13.905 -1.5482 -1.4455 -1.7865
  618TMC3    C1 9204   2.568   0.035  14.076 -0.1700 -0.2552 -0.1620
  618TMC3    C2 9205   2.646   0.032  14.185 -0.8097  0.4618  0.0608
  618TMC3    C3 9206   2.781   0.013  14.157 -0.4520  0.1807  1.1545
  618TMC3    C4 9207   2.608   0.019  13.947 -0.6580 -0.1837  0.1464
  618TMC3    C5 9208   2.740   4.729  13.931 -0.8487  0.5861  0.4064
  618TMC3    C6 9209   2.832   4.729  14.034  0.2276 -0.0663  0.1697
  618TMC3     C 9210   2.428   0.039  14.100  0.1733 -0.1923 -0.5773
  618TMC3     O 9211   2.381   0.032  14.211  0.1285  0.4286  0.2042
  618TMC3     H 9212   2.606   0.052  14.283 -1.0770 -0.6428  0.1739
  618TMC3    H1 9213   2.538   0.001  13.867 -1.9971 -0.2612  1.3443
  618TMC3    H2 9214   2.938   4.707  14.024  0.8297  2.8238  0.4147
  618TMC3    C7 9215   2.779   4.675  13.799  0.6813  0.3122  0.7044
  618TMC3    C8 9216   2.865   4.693  14.262  0.4953 -0.1766  0.3858
  618TMC3    O1 9217   2.686   4.650  13.726 -0.2353  0.1110  0.2207
  618TMC3    O2 9218   2.894   0.021  14.362 -0.1597  0.1559  0.7068
  619MPD2     C 9219   3.981   0.821  13.720 -0.3287  0.2899  0.2276
  619MPD2    C1 9220   3.908   0.889  13.625  0.3659  0.1262  0.1414
  619MPD2    C2 9221   3.776   0.926  13.653 -0.0312  0.0730  0.2988
  619MPD2    C3 9222   3.711   0.902  13.774 -0.0105 -0.5664 -0.5029
  619MPD2    C4 9223   3.787   0.831  13.862  1.0323  0.7473 -0.5502
  619MPD2    C5 9224   3.922   0.800  13.841  0.0337  0.0132  0.1723
  619MPD2     H 9225   3.724   0.970  13.569  0.3562  0.8596  0.4738
  619MPD2    H1 9226   3.742   0.799  13.956  1.3497 -1.1977 -1.0602
  619MPD2    H2 9227   4.082   0.783  13.719 -0.9241 -1.2674  0.5219
  619MPD2    H3 9228   3.985   0.747  13.911 -0.3802 -2.8936 -1.6661
  619MPD2     N 9229   3.571   0.915  13.796 -0.2692  0.0298 -0.2346
  619MPD2    H5 9230   3.528   0.868  13.875 -0.0689 -2.7793 -1.8259
  619MPD2    N1 9231   3.962   0.925  13.500 -0.0682 -0.1077 -0.5757
  619MPD2    H7 9232   3.899   0.972  13.436 -2.4457 -0.0483  1.8309
  620TMC3    C1 9233   4.130   0.993  13.337  0.0606 -0.1108  0.2043
  620TMC3    C2 9234   4.043   0.973  13.235  0.9670 -0.3794 -0.1612
  620TMC3    C3 9235   4.004   1.085  13.162  0.1264  0.3855  0.1640
  620TMC3    C4 9236   4.176   1.112  13.374  0.2709 -0.2637 -0.8341
  620TMC3    C5 9237   4.154   1.215  13.293  0.6073  0.1593 -0.2318
  620TMC3    C6 9238   4.079   1.201  13.178  0.7846 -0.8856  0.2717
  620TMC3     C 9239   4.094   0.924  13.465  0.5708  0.1591 -0.9614
  620TMC3     O 9240   4.187   0.893  13.537  0.5367 -0.0535  0.4524
  620TMC3     H 9241   4.022   0.872  13.200 -0.8718 -0.3970  0.9990
  620TMC3    H1 9242   4.234   1.122  13.465  0.5572  2.1458 -1.2714
  620TMC3    H2 9243   4.054   1.277  13.105 -0.8944 -0.0994  1.6818
  620TMC3    C7 9244   4.127   1.344  13.357 -0.1421 -0.2072  0.1612
  620TMC3    C8 9245   3.864   1.107  13.199  0.0571 -0.7409 -0.1418
  620TMC3    O1 9246   4.042   1.420  13.306  0.0932 -0.2293  0.1132
  620TMC3    O2 9247   3.824   1.025  13.283 -0.0554  0.1750 -0.1310
  621MPD2     C 9248   4.557   2.237   9.663 -0.3640 -1.1924 -0.7310
  621MPD2    C1 9249   4.635   2.196   9.767  0.2736  0.7196  0.0933
  621MPD2    C2 9250   0.010   2.267   9.790 -0.1509 -0.2218  0.2571
  621MPD2    C3 9251   0.047   2.377   9.722  0.6414 -0.6358  0.1755
  621MPD2    C4 9252   4.707   2.417   9.613  0.4999  0.1111  0.1632
  621MPD2    C5 9253   4.584   2.352   9.592 -0.3034 -0.7516 -0.0829
  621MPD2     H 9254   0.074   2.241   9.873  0.5776 -1.1255 -0.5925
  621MPD2    H1 9255   0.000   2.496   9.546  0.9350  0.1259  0.3781
  621MPD2    H2 9256   4.471   2.175   9.640 -2.2195  0.5178  1.6401
  621MPD2    H3 9257   4.526   2.373   9.503  2.6061  1.1773 -1.5115
  621MPD2     N 9258   0.167   2.442   9.758  0.2462  0.5992  0.1803
  621MPD2    H5 9259   0.210   2.393   9.836  0.9578  0.7442 -0.1262
  621MPD2    N1 9260   4.604   2.086   9.851  1.0775  0.1823  0.2701
  621MPD2    H7 9261   4.664   2.061   9.929 -1.1604 -1.0616  1.5808
  622TMC3    C1 9262   4.448   1.955   9.970  0.4411 -1.1621  0.0295
  622TMC3    C2 9263   4.454   2.040  10.080 -0.4798 -0.3470  0.0182
  622TMC3    C3 9264   4.376   2.010  10.186 -0.4251 -0.1840  0.2238
  622TMC3    C4 9265   4.388   1.828   9.972 -0.1432 -0.0294  0.1012
  622TMC3    C5 9266   4.329   1.798  10.091  0.2400 -0.3629 -0.9350
  622TMC3    C6 9267   4.325   1.885  10.198  0.2124  0.2355  0.2940
  622TMC3     C 9268   4.495   2.006   9.838 -1.0010 -0.4609 -0.2193
  622TMC3     O 9269   4.433   1.978   9.737  0.6179  0.8126 -0.3863
  622TMC3     H 9270   4.496   2.140  10.076 -1.5642  0.1657  1.3946
  622TMC3    H1 9271   4.372   1.771   9.881 -1.1017 -0.0233  0.2660
  622TMC3    H2 9272   4.278   1.839  10.284  0.1205 -0.6319 -0.2161
  622TMC3    C7 9273   4.259   1.666  10.102 -0.2930  0.0270  0.1004
  622TMC3    C8 9274   4.318   2.114  10.279 -0.7563  0.1154 -0.1249
  622TMC3    O1 9275   4.239   1.627  10.217  0.6958 -0.3325  0.2067
  622TMC3    O2 9276   4.363   2.231  10.280  0.4410 -0.6628  0.1158
  623MPD2     C 9277   2.596   2.109  16.248  0.8198  0.5625 -0.3468
  623MPD2    C1 9278   2.497   2.067  16.335  0.4246 -0.6068  0.6635
  623MPD2    C2 9279   2.525   2.068  16.469  0.3356 -0.5290  0.1498
  623MPD2    C3 9280   2.651   2.110  16.513  0.1029  0.0918  0.2512
  623MPD2    C4 9281   2.748   2.154  16.425  0.2140 -0.0514 -0.7987
  623MPD2    C5 9282   2.722   2.158  16.286  0.6091 -0.7422  0.0354
  623MPD2     H 9283   2.450   2.041  16.542 -1.7194  0.1520 -1.6922
  623MPD2    H1 9284   2.842   2.194  16.462  0.5745 -1.8146  0.1726
  623MPD2    H2 9285   2.580   2.107  16.141  2.1234 -1.8705 -0.4932
  623MPD2    H3 9286   2.799   2.198  16.222 -0.2009 -0.0561 -0.5111
  623MPD2     N 9287   2.668   2.101  16.652  0.6767  0.3839 -0.1273
  623MPD2    H5 9288   2.589   2.060  16.701 -0.5396  2.8888 -0.0116
  623MPD2    N1 9289   2.373   2.026  16.278  0.0762 -0.1567 -0.2528
  623MPD2    H7 9290   2.341   2.073  16.193  0.4567  1.2350  0.3760
  624TMC3    C1 9291   2.851   1.879  16.992  0.3052  0.8219  0.3406
  624TMC3    C2 9292   2.729   1.843  17.037 -0.4389  0.6652 -0.4664
  624TMC3    C3 9293   2.629   1.925  16.989  0.1852  0.0198  0.1834
  624TMC3    C4 9294   2.884   1.989  16.904 -0.2382 -0.0527  0.1540
  624TMC3    C5 9295   2.776   2.059  16.861  0.4792 -0.6466 -0.3871
  624TMC3    C6 9296   2.649   2.035  16.908  0.1733  0.3112  0.3721
  624TMC3     C 9297   2.949   1.782  16.999 -0.1609  0.2716  0.6588
  624TMC3     O 9298   2.941   1.697  17.086  0.7334  0.2676 -0.5455
  624TMC3     H 9299   2.715   1.746  17.083 -1.5809  0.1541 -1.8817
  624TMC3    H1 9300   2.981   2.025  16.875 -0.9644  0.6765 -1.3593
  624TMC3    H2 9301   2.569   2.100  16.875 -0.0805 -1.2710 -2.0922
  624TMC3    C7 9302   2.783   2.107  16.724 -0.5364  0.1315 -0.7656
  624TMC3    C8 9303   2.492   1.870  16.991 -0.6016  0.4326 -0.0134
  624TMC3    O1 9304   2.893   2.154  16.695 -0.8286  0.8075 -0.8262
  624TMC3    O2 9305   2.471   1.754  16.970 -0.3637 -0.3936  0.0626
  625MPD2     C 9306   3.521   2.976   0.897  0.0814  1.0663  0.7381
  625MPD2    C1 9307   3.547   3.109   0.903  0.2418 -0.3137  0.6990
  625MPD2    C2 9308   3.675   3.152   0.935 -0.2746  0.5528  0.6455
  625MPD2    C3 9309   3.777   3.067   0.976  0.2169  0.2495 -0.1681
  625MPD2    C4 9310   3.740   2.932   0.980  0.2388  0.7302  0.0530
  625MPD2    C5 9311   3.619   2.889   0.939 -0.4964 -0.4284 -0.0571
  625MPD2     H 9312   3.694   3.259   0.932  2.0735  0.1292  0.3019
  625MPD2    H1 9313   3.808   2.865   1.031 -0.7812 -1.4628 -1.4695
  625MPD2    H2 9314   3.422   2.938   0.875  0.3131  2.1875 -2.3426
  625MPD2    H3 9315   3.580   2.791   0.964 -0.6205  0.0321  1.5446
  625MPD2     N 9316   3.905   3.119   1.009  0.7868  0.4101  0.2682
  625MPD2    H5 9317   3.906   3.218   0.984 -1.0273 -0.1132 -1.9235
  625MPD2    N1 9318   3.448   3.208   0.862  0.2050  0.1521 -0.2820
  625MPD2    H7 9319   3.482   3.303   0.864  0.0817  0.1811  0.6706
  626TMC3    C1 9320   3.260   3.300   0.766  0.0418  0.3532  0.0830
  626TMC3    C2 9321   3.151   3.290   0.679  0.7002 -0.5720  0.0354
  626TMC3    C3 9322   3.083   3.414   0.660  0.3136 -0.2165  0.1454
  626TMC3    C4 9323   3.283   3.407   0.840 -0.1135  0.1591 -0.1376
  626TMC3    C5 9324   3.215   3.526   0.818 -0.3647  0.3543 -0.2596
  626TMC3    C6 9325   3.119   3.532   0.724  0.0268 -0.4134 -0.0419
  626TMC3     C 9326   3.325   3.180   0.805  0.2402 -0.4580  0.0056
  626TMC3     O 9327   3.276   3.076   0.775 -0.2075 -0.0261 -0.1947
  626TMC3     H 9328   3.136   3.206   0.612  1.2132 -0.4227 -0.2716
  626TMC3    H1 9329   3.355   3.403   0.922  1.9189 -2.9981 -2.0603
  626TMC3    H2 9330   3.066   3.621   0.691 -1.5282 -1.0485  0.7576
  626TMC3    C7 9331   3.244   3.635   0.904  0.2372  0.8216  0.0456
  626TMC3    C8 9332   3.003   3.431   0.546  0.0180 -0.5384  0.0925
  626TMC3    O1 9333   3.344   3.632   0.974 -0.1254 -0.0559  0.7579
  626TMC3    O2 9334   2.951   3.541   0.522  0.2446 -0.5244 -0.6517
  627MPD2     C 9335   1.403   3.412  14.958  0.6671 -0.3576  0.1821
  627MPD2    C1 9336   1.526   3.407  14.903 -0.0508  0.3656  0.9156
  627MPD2    C2 9337   1.570   3.309  14.813  0.6489  0.6902 -0.4004
  627MPD2    C3 9338   1.487   3.201  14.793  0.7673 -0.6205 -0.1712
  627MPD2    C4 9339   1.356   3.205  14.846  0.7935 -0.3426 -0.0347
  627MPD2    C5 9340   1.315   3.307  14.927  0.4393 -0.3658 -0.1903
  627MPD2     H 9341   1.666   3.309  14.762  0.6079 -0.8446 -0.4784
  627MPD2    H1 9342   1.295   3.115  14.842  0.4637 -0.0866 -0.8024
  627MPD2    H2 9343   1.359   3.492  15.017 -0.5948 -1.6048  0.9446
  627MPD2    H3 9344   1.210   3.304  14.953  0.6497  0.2682  0.7512
  627MPD2     N 9345   1.546   3.090  14.721  0.8345 -0.2322  0.1657
  627MPD2    H5 9346   1.643   3.115  14.704  0.9106 -1.4256 -1.1072
  627MPD2    N1 9347   1.622   3.501  14.940  0.3903  0.3463  0.4571
  627MPD2    H7 9348   1.716   3.481  14.906  0.3662 -1.7369  1.6406
  628TMC3    C1 9349   1.738   3.668  15.047 -0.1393 -0.4574 -0.6241
  628TMC3    C2 9350   1.830   3.581  15.081  0.2821  0.4538 -0.4855
  628TMC3    C3 9351   1.942   3.627  15.147  0.5173  0.0606  0.2732
  628TMC3    C4 9352   1.752   3.799  15.065 -0.4489  0.1155 -0.4120
  628TMC3    C5 9353   1.857   3.838  15.143  0.5991  0.5238  0.0771
  628TMC3    C6 9354   1.958   3.754  15.182 -0.4584  0.3749 -0.1513
  628TMC3     C 9355   1.607   3.615  15.003 -0.6451 -0.0803  0.1493
  628TMC3     O 9356   1.509   3.682  15.031 -0.0237 -0.7172  0.2831
  628TMC3     H 9357   1.818   3.475  15.065 -1.3607  0.6066 -0.2836
  628TMC3    H1 9358   1.673   3.863  15.029 -0.4703  0.1752 -0.2619
  628TMC3    H2 9359   2.054   3.792  15.214 -0.8955  2.2133 -1.0197
  628TMC3    C7 9360   1.905   3.969  15.112  0.1717 -0.3697 -0.0815
  628TMC3    C8 9361   2.050   3.533  15.104 -0.0597 -0.4882 -0.0975
  628TMC3    O1 9362   1.979   4.023  15.188  0.0102  0.4094  0.3138
  628TMC3    O2 9363   2.040   3.478  14.996  0.3507  0.0185  0.1516
  629MPD2     C 9364   4.678   2.303  16.364  0.5454 -0.1456 -0.7794
  629MPD2    C1 9365   0.000   2.235  16.463 -0.0573 -0.1160  0.1892
  629MPD2    C2 9366   4.681   2.120  16.509  0.5391  0.1639 -0.3515
  629MPD2    C3 9367   4.563   2.066  16.455  1.0652 -0.0736  0.0902
  629MPD2    C4 9368   4.497   2.133  16.349 -0.3965 -0.1551 -0.4029
  629MPD2    C5 9369   4.556   2.252  16.312  0.2635 -0.0202  0.5298
  629MPD2     H 9370   4.721   2.073  16.598 -1.2484  2.9381  1.9130
  629MPD2    H1 9371   4.402   2.110  16.302  0.5508 -1.7826 -1.5406
  629MPD2    H2 9372   4.718   2.399  16.331  2.2907 -0.8471 -0.6934
  629MPD2    H3 9373   4.510   2.312  16.234  1.2247 -0.2398 -0.2147
  629MPD2     N 9374   4.513   1.946  16.518 -0.5387  0.1831  0.2898
  629MPD2    H5 9375   4.575   1.895  16.581  1.7117 -0.0684 -2.1693
  629MPD2    N1 9376   0.123   2.286  16.520  0.7579 -0.4425 -0.6276
  629MPD2    H7 9377   0.174   2.348  16.458  0.8077  0.4152  0.2789
  630TMC3    C1 9378   0.322   2.259  16.645  0.4029  0.2669 -0.6003
  630TMC3    C2 9379   0.392   2.285  16.537  0.1857 -0.4800 -0.0373
  630TMC3    C3 9380   0.519   2.244  16.527  0.3571 -0.6767  0.3581
  630TMC3    C4 9381   0.373   2.191  16.752  0.5824 -0.0685  0.4809
  630TMC3    C5 9382   0.505   2.161  16.747  0.0799  0.1833  1.0309
  630TMC3    C6 9383   0.578   2.179  16.632 -0.3684 -0.2434  0.1781
  630TMC3     C 9384   0.181   2.242  16.638  0.1450  0.7859  0.0116
  630TMC3     O 9385   0.128   2.179  16.730 -0.5094  0.0564  0.1117
  630TMC3     H 9386   0.349   2.360  16.471  0.0956 -0.0841  0.4788
  630TMC3    H1 9387   0.322   2.188  16.848  1.5245 -2.2040  0.8990
  630TMC3    H2 9388   0.683   2.151  16.623 -1.4122 -2.8878 -3.5105
  630TMC3    C7 9389   0.547   2.062  16.838  0.5485  0.0229 -0.4570
  630TMC3    C8 9390   0.612   2.296  16.425 -0.6516 -0.9587  0.3735
  630TMC3    O1 9391   0.463   1.992  16.895  0.2549  0.0899  0.0662
  630TMC3    O2 9392   0.729   2.273  16.452 -0.2995 -0.8164  0.3367
  631MPD2     C 9393   3.014   2.043  15.970 -0.1174 -0.0924  0.3326
  631MPD2    C1 9394   3.112   2.080  15.876 -0.5193  0.7795 -0.3871
  631MPD2    C2 9395   3.220   1.989  15.853  0.6695  0.3659 -0.7928
  631MPD2    C3 9396   3.228   1.877  15.931 -0.6464  0.1618 -0.0478
  631MPD2    C4 9397   3.134   1.837  16.021  0.3708 -0.3980 -0.3282
  631MPD2    C5 9398   3.027   1.923  16.035  0.1810 -0.2284 -0.1466
  631MPD2     H 9399   3.300   2.011  15.784  0.8367 -1.1735 -1.0933
  631MPD2    H1 9400   3.131   1.740  16.069 -1.8806  1.0758  2.5435
  631MPD2    H2 9401   2.930   2.108  15.985  1.5029  1.9084  0.7029
  631MPD2    H3 9402   2.959   1.899  16.116  1.1422  0.6135  0.9231
  631MPD2     N 9403   3.337   1.793  15.906 -0.0022  0.2921 -0.0609
  631MPD2    H5 9404   3.396   1.827  15.830  1.1452 -0.2460  0.5952
  631MPD2    N1 9405   3.100   2.199  15.804 -0.0456  0.1662  0.3308
  631MPD2    H7 9406   3.017   2.254  15.823 -0.5681 -0.5843  0.2058
  632TMC3    C1 9407   3.155   2.379  15.644  0.3079  0.5105 -0.8540
  632TMC3    C2 9408   3.025   2.413  15.645  0.2329 -0.1937  0.0310
  632TMC3    C3 9409   3.003   2.521  15.564  0.2707  0.4259 -0.5769
  632TMC3    C4 9410   3.258   2.434  15.564 -0.2803 -0.1722 -0.6926
  632TMC3    C5 9411   3.230   2.546  15.498  0.6772  0.0210  1.1069
  632TMC3    C6 9412   3.098   2.587  15.500 -0.2752  0.2179  0.8559
  632TMC3     C 9413   3.188   2.246  15.713 -0.1099  0.2962 -0.7946
  632TMC3     O 9414   3.283   2.199  15.663 -0.5135  0.1479  0.5800
  632TMC3     H 9415   2.937   2.373  15.694 -0.1579  0.5844 -0.0326
  632TMC3    H1 9416   3.353   2.382  15.564 -0.8241 -1.1519 -0.7847
  632TMC3    H2 9417   3.074   2.680  15.450 -1.4592  0.3616  1.6975
  632TMC3    C7 9418   3.323   2.601  15.396 -0.2991 -0.2472 -0.4165
  632TMC3    C8 9419   2.870   2.574  15.579 -0.1721  0.4326 -0.6608
  632TMC3    O1 9420   3.286   2.662  15.298  0.0840  0.3445  0.1295
  632TMC3    O2 9421   2.787   2.499  15.533  0.4355  0.1167  0.1890
  633MPD2     C 9422   2.583   4.714  17.375  0.1906 -0.7794  0.0428
  633MPD2    C1 9423   2.611   4.672  17.243  0.5351  0.3618  0.2883
  633MPD2    C2 9424   2.619   4.526  17.229  0.5335  0.3507  0.3842
  633MPD2    C3 9425   2.601   4.433  17.337  0.2738 -0.3270  0.4155
  633MPD2    C4 9426   2.569   4.493  17.458  0.0755  0.1541  0.0412
  633MPD2    C5 9427   2.562   4.629  17.476  0.6361  0.0745  0.5074
  633MPD2     H 9428   2.640   4.489  17.130 -1.6155 -0.6092  0.2913
  633MPD2    H1 9429   2.537   4.433  17.542  3.3836 -1.8280 -0.1276
  633MPD2    H2 9430   2.593   0.081  17.406  2.5176 -0.6420 -1.1271
  633MPD2    H3 9431   2.542   4.672  17.573  0.0347  0.2052  0.3235
  633MPD2     N 9432   2.617   4.299  17.317  0.1666  0.1243  0.7358
  633MPD2    H5 9433   2.615   4.244  17.402 -1.6596  1.7584  1.7356
  633MPD2    N1 9434   2.659   0.014  17.135 -0.3910 -0.1851 -0.0533
  633MPD2    H7 9435   2.650   4.710  17.042  1.5079 -1.7757  0.4508
  634TMC3    C1 9436   2.751   0.196  17.014 -0.6548 -0.4434  0.5045
  634TMC3    C2 9437   2.813   0.115  16.922  1.0512 -0.2217 -0.1272
  634TMC3    C3 9438   2.871   0.172  16.808  0.4129  0.4484  0.2260
  634TMC3    C4 9439   2.740   0.334  17.001 -1.2194  0.4121 -0.7472
  634TMC3    C5 9440   2.806   0.382  16.885 -0.4185 -0.4027 -0.2934
  634TMC3    C6 9441   2.864   0.306  16.782  0.1325  0.1462 -0.0897
  634TMC3     C 9442   2.691   0.149  17.140 -0.0577  0.1124  0.1396
  634TMC3     O 9443   2.690   0.222  17.240 -0.0349 -0.4817  0.0874
  634TMC3     H 9444   2.829   0.010  16.945 -1.6956 -0.5498  0.2980
  634TMC3    H1 9445   2.686   0.395  17.073 -1.0064  0.8176 -0.9280
  634TMC3    H2 9446   2.915   0.348  16.696  1.0571 -2.5343 -0.8658
  634TMC3    C7 9447   2.825   0.530  16.873  0.2274 -0.5278 -1.0639
  634TMC3    C8 9448   2.937   0.081  16.710 -0.3226 -0.1788  0.5070
  634TMC3    O1 9449   2.909   0.560  16.788  0.0864 -0.5159  0.7273
  634TMC3    O2 9450   2.948   4.702  16.744  0.0181 -0.2299 -0.4615
  635TMC3    C1 9451   2.802   1.378   0.554  0.0039  0.4044 -0.0551
  635TMC3    C2 9452   2.830   1.397   0.421 -0.4292 -0.6285 -0.8866
  635TMC3    C3 9453   2.761   1.318   0.330  0.3867 -0.5751 -0.2015
  635TMC3    C4 9454   2.694   1.298   0.591  0.1886 -0.4533 -0.2809
  635TMC3    C5 9455   2.643   1.214   0.497  0.4907  0.3738 -0.0968
  635TMC3    C6 9456   2.682   1.219   0.366 -0.2778 -0.5325  0.5705
  635TMC3     C 9457   2.826   1.496   0.629 -0.1120  0.6948 -0.1376
  635TMC3     O 9458   2.841   1.602   0.566 -0.0749  0.7754 -0.8998
  635TMC3     H 9459   2.889   1.477   0.379 -1.6501  0.7112 -0.0492
  635TMC3    H1 9460   2.649   1.311   0.689 -0.7909 -0.4905 -0.7241
  635TMC3    H2 9461   2.637   1.157   0.289 -0.4419  0.3971 -0.0929
  635TMC3    C7 9462   2.559   1.105   0.541 -0.9263 -0.5162 -0.3106
  635TMC3    C8 9463   2.813   1.308   0.197 -0.3507 -0.6800  0.4356
  635TMC3    O1 9464   2.487   1.136   0.636 -0.0748  0.0984  0.2012
  635TMC3    O2 9465   2.742   1.274   0.102  0.3596  0.2846  0.2573
  636MPD2     C 9466   4.098   0.569  15.648 -0.0759  0.3878  0.4255
  636MPD2    C1 9467   4.122   0.560  15.786  0.0227 -0.0103  0.2254
  636MPD2    C2 9468   4.187   0.451  15.840 -0.0278  0.2146  0.4022
  636MPD2    C3 9469   4.211   0.336  15.762 -0.5977 -0.6976  0.1028
  636MPD2    C4 9470   4.165   0.342  15.627 -0.0090 -0.3426  0.3292
  636MPD2    C5 9471   4.111   0.453  15.571 -0.6532  0.0704  0.3752
  636MPD2     H 9472   4.218   0.450  15.944  0.5939  1.4161  0.2393
  636MPD2    H1 9473   4.162   0.249  15.572  1.0535  0.1313 -0.5181
  636MPD2    H2 9474   4.070   0.664  15.604 -2.4246 -0.7192 -0.4197
  636MPD2    H3 9475   4.087   0.451  15.465 -0.7142 -0.5432  0.3976
  636MPD2     N 9476   4.278   0.230  15.820  0.1517 -0.1343 -0.5276
  636MPD2    H5 9477   4.309   0.247  15.915  0.4718  1.5312 -0.9279
  636MPD2    N1 9478   4.095   0.666  15.878  0.3046  0.3214  0.0879
  636MPD2    H7 9479   4.115   0.656  15.977  1.8752  0.6462 -0.1975
  637TMC3    C1 9480   4.360   0.012  15.851 -0.4858 -0.0265 -0.1597
  637TMC3    C2 9481   4.311   0.007  15.978 -0.8646  0.5277  0.4369
  637TMC3    C3 9482   4.371   4.650  16.061 -0.0773  0.2428  1.1603
  637TMC3    C4 9483   4.451   4.659  15.798 -0.2053 -0.4151 -0.1173
  637TMC3    C5 9484   4.505   4.569  15.881  0.1807  0.4802  0.1900
  637TMC3    C6 9485   4.464   4.566  16.013  0.3998 -0.0311  0.4875
  637TMC3     C 9486   4.311   0.111  15.754  0.4767  0.6537 -0.0217
  637TMC3     O 9487   4.310   0.080  15.636  0.1063 -0.5763  0.9884
  637TMC3     H 9488   4.264   0.096  16.019  0.4615 -0.0401  3.1425
  637TMC3    H1 9489   4.498   4.682  15.703 -0.1164  1.0058  0.2597
  637TMC3    H2 9490   4.500   4.492  16.083 -0.0590  1.3791  2.2090
  637TMC3    C7 9491   4.651   4.570  15.870  0.1152 -1.2956 -0.2710
  637TMC3    C8 9492   4.408   4.706  16.192  0.5025 -1.1037  0.2778
  637TMC3    O1 9493   4.713   4.584  15.976  0.0549 -0.6496 -0.4579
  637TMC3    O2 9494   4.320   0.036  16.245  0.7107  0.0616  0.4344
  638MPD2     C 9495   3.919   3.996  15.261 -0.2004 -0.3624  0.4042
  638MPD2    C1 9496   3.989   3.892  15.224 -0.1220  0.0065  0.0483
  638MPD2    C2 9497   3.984   3.777  15.300  0.2962  0.2734 -0.2563
  638MPD2    C3 9498   3.897   3.766  15.403  0.1475 -0.0561 -0.2070
  638MPD2    C4 9499   3.813   3.875  15.442 -0.4355  0.0887  0.0678
  638MPD2    C5 9500   3.834   3.987  15.367  0.1241 -0.3057  0.0136
  638MPD2     H 9501   4.038   3.687  15.272  0.9207  0.7172 -0.4675
  638MPD2    H1 9502   3.747   3.863  15.527  0.4661  0.4477  0.8218
  638MPD2    H2 9503   3.924   4.086  15.200  0.9421  0.5111  1.7860
  638MPD2    H3 9504   3.778   4.075  15.397  0.5167  0.7644 -2.3823
  638MPD2     N 9505   3.888   3.638  15.458  0.9797 -1.1242  0.1072
  638MPD2    H5 9506   3.943   3.565  15.415  0.9640  0.2496 -2.2386
  638MPD2    N1 9507   4.062   3.880  15.104 -0.1575 -0.1150  0.1705
  638MPD2    H7 9508   4.114   3.794  15.093  1.9205  0.9252  1.9028
  639TMC3    C1 9509   3.802   3.456  15.587  0.0565 -0.2528  0.0108
  639TMC3    C2 9510   3.685   3.385  15.573  0.3393  0.2047 -0.0972
  639TMC3    C3 9511   3.694   3.243  15.570 -0.5132 -0.4340  0.2152
  639TMC3    C4 9512   3.923   3.396  15.589 -0.2028  0.4354  0.4299
  639TMC3    C5 9513   3.921   3.261  15.607  0.0274 -0.1077 -0.1568
  639TMC3    C6 9514   3.812   3.183  15.604  0.0360 -0.2056 -0.4100
  639TMC3     C 9515   3.795   3.599  15.548 -0.5801  0.0211 -0.0580
  639TMC3     O 9516   3.709   3.666  15.610  0.7947  0.4618  0.3539
  639TMC3     H 9517   3.599   3.443  15.541  0.8066  1.2613  0.5419
  639TMC3    H1 9518   4.018   3.449  15.582  0.3602 -0.8513 -1.4110
  639TMC3    H2 9519   3.829   3.076  15.591 -2.6060 -0.5278 -1.1950
  639TMC3    C7 9520   4.043   3.181  15.607  0.1627  0.0100  0.4075
  639TMC3    C8 9521   3.647   3.177  15.449 -0.8581  0.4287  0.2102
  639TMC3    O1 9522   4.050   3.082  15.678 -0.0348  0.2583 -0.0083
  639TMC3    O2 9523   3.733   3.122  15.380  0.3271 -0.2472 -0.2148
  640MPD2     C 9524   0.669   3.440  10.273 -0.1194  0.3674  0.1965
  640MPD2    C1 9525   0.557   3.416  10.196  0.0263 -0.3187  0.3297
  640MPD2    C2 9526   0.440   3.468  10.245 -0.1002 -0.1685  0.4285
  640MPD2    C3 9527   0.437   3.508  10.380 -0.6538  0.4342 -0.3724
  640MPD2    C4 9528   0.544   3.527  10.457  0.3560  0.3029 -0.5900
  640MPD2    C5 9529   0.664   3.495  10.400  0.1950  0.4130  0.0353
  640MPD2     H 9530   0.350   3.481  10.185 -0.3023 -2.1100  0.2776
  640MPD2    H1 9531   0.544   3.568  10.558 -2.6073  0.0646 -0.4952
  640MPD2    H2 9532   0.767   3.405  10.242 -1.2105  0.5838 -3.4529
  640MPD2    H3 9533   0.752   3.505  10.461 -0.2773  2.0150  0.4726
  640MPD2     N 9534   0.318   3.562  10.441  0.0322  0.6317 -0.5768
  640MPD2    H5 9535   0.334   3.606  10.531  2.1060 -3.7316  1.2082
  640MPD2    N1 9536   0.566   3.348  10.072 -0.9526 -0.5815  0.5579
  640MPD2    H7 9537   0.650   3.296  10.050  1.4619  3.5542 -0.0450
  641TMC3    C1 9538   0.506   3.274   9.861  0.5260  0.5696 -0.1108
  641TMC3    C2 9539   0.556   3.148   9.866 -0.0195 -0.0989 -1.0129
  641TMC3    C3 9540   0.557   3.076   9.744 -0.4837 -0.1590 -0.6216
  641TMC3    C4 9541   0.458   3.336   9.744  0.7339 -0.3791 -0.5797
  641TMC3    C5 9542   0.467   3.255   9.631  0.8636 -0.0275 -0.3675
  641TMC3    C6 9543   0.511   3.124   9.628 -0.3397 -0.1080  0.5530
  641TMC3     C 9544   0.471   3.362   9.974  0.1081 -0.4850 -0.8452
  641TMC3     O 9545   0.395   3.455   9.951 -0.2714 -0.1611  0.0431
  641TMC3     H 9546   0.588   3.108   9.961  0.7085  0.2946 -1.0891
  641TMC3    H1 9547   0.407   3.431   9.730  0.6615 -0.8387 -3.4375
  641TMC3    H2 9548   0.506   3.063   9.538  1.2783  0.6769 -0.0676
  641TMC3    C7 9549   0.364   3.291   9.537 -0.0811 -0.3515 -0.4743
  641TMC3    C8 9550   0.616   2.942   9.738 -0.1931  0.1125 -0.8412
  641TMC3    O1 9551   0.362   3.410   9.502  1.0737 -0.4376  0.1787
  641TMC3    O2 9552   0.594   2.857   9.650  0.2126  0.1429 -0.6301
  642TMC3    C1 9553   1.058   3.457  12.692 -0.3745 -0.3038  0.5434
  642TMC3    C2 9554   1.184   3.452  12.657 -0.2152 -0.2318  0.1923
  642TMC3    C3 9555   1.221   3.365  12.559  0.2260 -0.1243  0.3133
  642TMC3    C4 9556   0.973   3.359  12.654 -0.7615  0.3097 -0.5910
  642TMC3    C5 9557   1.016   3.270  12.561  0.5429 -0.8302  0.1593
  642TMC3    C6 9558   1.136   3.269  12.511 -0.3272  0.2454  0.6786
  642TMC3     C 9559   1.046   3.527  12.816  0.6507  0.2050 -0.9467
  642TMC3     O 9560   1.132   3.606  12.849 -0.0643  0.0418  0.6649
  642TMC3     H 9561   1.247   3.537  12.682 -1.2631  0.6776 -0.2881
  642TMC3    H1 9562   0.869   3.361  12.688 -0.8283 -1.0794 -0.7236
  642TMC3    H2 9563   1.163   3.188  12.444  0.0487  1.2180 -0.3436
  642TMC3    C7 9564   0.947   3.143  12.543 -0.0515 -0.1807 -0.2005
  642TMC3    C8 9565   1.364   3.348  12.525  0.0643  0.0889  0.2049
  642TMC3    O1 9566   0.985   3.072  12.446 -0.6044  0.0813 -0.5120
  642TMC3    O2 9567   1.391   3.280  12.424 -0.3122  0.3607  0.8107
  643TMC3    C1 9568   0.321   2.756   0.466  0.2923 -0.3045 -1.1547
  643TMC3    C2 9569   0.196   2.726   0.422  0.3390  0.4725 -0.0076
  643TMC3    C3 9570   0.189   2.639   0.317  0.2290 -0.1789  0.5397
  643TMC3    C4 9571   0.430   2.708   0.399  1.0056 -0.3557 -0.1049
  643TMC3    C5 9572   0.422   2.615   0.302  0.7662  0.3929 -0.1710
  643TMC3    C6 9573   0.297   2.582   0.258 -0.6036 -0.0730  0.5072
  643TMC3     C 9574   0.340   2.893   0.514 -0.1045 -0.1963 -0.8742
  643TMC3     O 9575   0.275   2.977   0.457  0.2096 -0.1327  0.7725
  643TMC3     H 9576   0.104   2.756   0.471  0.6906  1.6824 -0.1090
  643TMC3    H1 9577   0.532   2.734   0.427  0.9080 -0.7935  0.6808
  643TMC3    H2 9578   0.280   2.514   0.176 -1.9920  2.7769 -1.5568
  643TMC3    C7 9579   0.529   2.606   0.209  0.1605  0.0630  0.2110
  643TMC3    C8 9580   0.108   2.701   0.214 -0.3478 -0.4369  0.3368
  643TMC3    O1 9581   0.604   2.702   0.203 -0.1773  0.5025 -0.5766
  643TMC3    O2 9582   0.076   2.631   0.119 -0.5743 -0.3202 -0.4987
  644MPD2     C 9583   0.908   3.661  10.165 -0.2405 -0.4566 -0.2143
  644MPD2    C1 9584   0.831   3.630  10.052 -0.5228 -0.1796 -0.1704
  644MPD2    C2 9585   0.701   3.683  10.035 -0.4341  0.4980  0.3800
  644MPD2    C3 9586   0.654   3.763  10.140 -0.1123  0.4136  0.1552
  644MPD2    C4 9587   0.729   3.793  10.249 -0.2405  0.0562 -0.4721
  644MPD2    C5 9588   0.858   3.740  10.266 -0.2889 -0.4405 -0.4552
  644MPD2     H 9589   0.631   3.668   9.954  0.0189 -0.4942  0.1794
  644MPD2    H1 9590   0.694   3.864  10.323  2.2937  0.7103  0.1003
  644MPD2    H2 9591   1.004   3.610  10.174 -0.9468 -1.6556  0.5647
  644MPD2    H3 9592   0.910   3.753  10.360  0.7238 -0.6748 -0.9776
  644MPD2     N 9593   0.517   3.811  10.123 -0.3563  0.2951 -0.1020
  644MPD2    H5 9594   0.458   3.777  10.048 -0.3080 -0.4108  0.1850
  644MPD2    N1 9595   0.893   3.546   9.950 -0.3451  0.5652 -0.2351
  644MPD2    H7 9596   0.975   3.493   9.979 -0.5626 -0.6793 -1.8877
  645TMC3    C1 9597   0.312   3.907  10.162 -0.2713 -0.1361 -0.0563
  645TMC3    C2 9598   0.253   4.032  10.154 -0.2863 -0.4919  0.3429
  645TMC3    C3 9599   0.134   4.044  10.080  0.3507 -0.1686  0.4846
  645TMC3    C4 9600   0.258   3.798  10.100  0.3984  0.3972 -0.5658
  645TMC3    C5 9601   0.140   3.820  10.045  0.1525 -0.1024 -0.2859
  645TMC3    C6 9602   0.081   3.939  10.020  0.7232  0.1257 -0.6155
  645TMC3     C 9603   0.454   3.911  10.197  0.0554 -0.4645  0.1357
  645TMC3     O 9604   0.496   4.008  10.263 -0.2934 -0.1128  0.2842
  645TMC3     H 9605   0.277   4.126  10.203 -1.4665  0.2438 -0.4882
  645TMC3    H1 9606   0.291   3.696  10.112 -0.2388  0.4560  1.6557
  645TMC3    H2 9607   4.723   3.939   9.968  0.3698  0.6600  0.0217
  645TMC3    C7 9608   0.099   3.724   9.948 -0.1641  0.2556  0.0513
  645TMC3    C8 9609   0.065   4.167  10.082 -0.5283 -0.4571 -0.5044
  645TMC3    O1 9610   0.071   3.766   9.836  0.2944 -0.0894 -0.4266
  645TMC3    O2 9611   0.083   4.235  10.180 -0.4586  0.3903  0.0267
  646MPD2     C 9612   4.353   2.424  14.863  0.2903 -0.7084  0.2451
  646MPD2    C1 9613   4.247   2.387  14.949 -1.0065  0.0029  0.2331
  646MPD2    C2 9614   4.136   2.473  14.948  0.1471  0.5706 -0.4665
  646MPD2    C3 9615   4.133   2.588  14.870  0.5748  0.2052 -0.2388
  646MPD2    C4 9616   4.247   2.624  14.800 -0.1551 -0.1956  0.5511
  646MPD2    C5 9617   4.357   2.543  14.798 -0.0602  0.4437 -0.5972
  646MPD2     H 9618   4.041   2.451  14.995 -1.1130  1.7275 -2.4644
  646MPD2    H1 9619   4.268   2.709  14.736 -0.3202 -0.8981 -0.4381
  646MPD2    H2 9620   4.445   2.367  14.855  0.8237 -0.0392  1.6543
  646MPD2    H3 9621   4.439   2.550  14.727  2.3492 -0.5915  2.1256
  646MPD2     N 9622   4.005   2.651  14.856 -0.3568  0.3091 -0.0884
  646MPD2    H5 9623   3.923   2.595  14.875  1.2341 -1.8216  0.4424
  646MPD2    N1 9624   4.261   2.277  15.035 -0.2156 -0.2416 -0.1216
  646MPD2    H7 9625   4.344   2.221  15.022  0.1370  0.1974  0.2332
  647TMC3    C1 9626   4.211   2.130  15.211 -0.0686 -0.0837 -0.2278
  647TMC3    C2 9627   4.120   2.091  15.305  0.4778 -0.2042 -0.1128
  647TMC3    C3 9628   4.165   1.999  15.392 -0.2849 -0.7657  0.2888
  647TMC3    C4 9629   4.341   2.090  15.207  0.3937  1.1300  0.2690
  647TMC3    C5 9630   4.381   2.004  15.297  0.0570 -0.1723 -0.2053
  647TMC3    C6 9631   4.293   1.954  15.392 -0.5204  0.4478  0.7770
  647TMC3     C 9632   4.166   2.228  15.119  0.5819  0.3705 -0.4826
  647TMC3     O 9633   4.049   2.264  15.139  0.4224 -0.1911 -1.0432
  647TMC3     H 9634   4.017   2.122  15.301 -0.0309 -1.9694 -0.6889
  647TMC3    H1 9635   4.408   2.116  15.125  0.3952  0.3312  0.0151
  647TMC3    H2 9636   4.337   1.919  15.484 -0.8728  2.3697  1.6774
  647TMC3    C7 9637   4.509   1.938  15.278 -0.4066  0.4416  0.4054
  647TMC3    C8 9638   4.083   1.969  15.510 -0.4614 -0.2236 -0.4090
  647TMC3    O1 9639   4.534   1.842  15.348 -1.1579 -0.1378  0.0775
  647TMC3    O2 9640   3.995   2.044  15.531 -0.2965  0.1424  0.0662
  648TMC3    C1 9641   3.370   0.148  16.432  0.0306  0.0383  0.3448
  648TMC3    C2 9642   3.456   0.048  16.405 -0.5574 -0.1197  0.6540
  648TMC3    C3 9643   3.494   0.031  16.276 -0.6286  0.4417 -0.6903
  648TMC3    C4 9644   3.320   0.232  16.333  0.2463 -0.6422 -0.2121
  648TMC3    C5 9645   3.362   0.216  16.207 -0.4862  0.2680  0.3896
  648TMC3    C6 9646   3.435   0.107  16.174  0.1119  0.5706  0.5440
  648TMC3     C 9647   3.330   0.183  16.569  0.5061 -0.0713  0.5873
  648TMC3     O 9648   3.291   0.293  16.592 -0.1212 -0.7359  0.7667
  648TMC3     H 9649   3.483   4.719  16.486 -0.4589 -1.4063 -0.4274
  648TMC3    H1 9650   3.249   0.307  16.367  2.1285  1.2064 -0.4174
  648TMC3    H2 9651   3.480   0.099  16.076 -4.0734  4.9728 -1.7624
  648TMC3    C7 9652   3.329   0.317  16.104 -0.0082 -0.3633 -0.1417
  648TMC3    C8 9653   3.560   4.655  16.233  0.0698 -0.2427 -0.2673
  648TMC3    O1 9654   3.363   0.299  15.988  0.3668 -0.3975  0.0447
  648TMC3    O2 9655   3.535   4.617  16.119 -0.3512  0.0613 -0.4922
  649TMC3    C1 9656   2.478   1.136  13.146  0.2745  0.3974  0.3445
  649TMC3    C2 9657   2.607   1.177  13.124  0.0637 -1.2297  0.4938
  649TMC3    C3 9658   2.691   1.175  13.236 -0.2020  0.8551 -0.3167
  649TMC3    C4 9659   2.430   1.097  13.269  0.2852 -0.4311 -0.6320
  649TMC3    C5 9660   2.522   1.086  13.367 -0.0229  0.6972 -0.0320
  649TMC3    C6 9661   2.650   1.125  13.364 -0.3247  0.6100 -0.0121
  649TMC3     C 9662   2.375   1.159  13.045  1.2042  0.7806  0.2743
  649TMC3     O 9663   2.258   1.162  13.082  0.2176 -0.4159  1.1870
  649TMC3     H 9664   2.640   1.209  13.026  0.9115  2.9682  2.1162
  649TMC3    H1 9665   2.325   1.076  13.285  0.3219 -0.6804 -0.7250
  649TMC3    H2 9666   2.718   1.139  13.448  0.3600 -0.0900 -0.4483
  649TMC3    C7 9667   2.470   1.032  13.492 -0.4708 -0.0554  0.1616
  649TMC3    C8 9668   2.830   1.227  13.235  0.6749 -0.3246  0.1095
  649TMC3    O1 9669   2.348   1.031  13.501 -0.0184  0.5683 -0.0384
  649TMC3    O2 9670   2.911   1.170  13.304  0.2239  0.0398 -0.0490
  650TMC3    C1 9671   0.260   2.472  13.179 -0.2471 -0.5305 -0.1626
  650TMC3    C2 9672   0.217   2.593  13.227 -0.5640 -0.2416 -0.0198
  650TMC3    C3 9673   0.117   2.663  13.155  0.4222 -0.0952  0.0881
  650TMC3    C4 9674   0.228   2.432  13.047 -0.1806  0.7804  0.3122
  650TMC3    C5 9675   0.152   2.522  12.973  0.0656  0.1711 -0.0466
  650TMC3    C6 9676   0.088   2.631  13.028  0.7279  0.3181 -0.3660
  650TMC3     C 9677   0.378   2.410  13.248  0.1249  0.5509  0.3943
  650TMC3     O 9678   0.425   2.462  13.353  0.1576 -0.4657  0.1920
  650TMC3     H 9679   0.241   2.637  13.323 -0.5267  3.1753 -1.5984
  650TMC3    H1 9680   0.286   2.357  12.995  0.6503  1.9637 -0.4987
  650TMC3    H2 9681   0.006   2.676  12.973 -0.5983 -0.4450  0.9740
  650TMC3    C7 9682   0.180   2.527  12.832 -0.0242  0.1303 -0.3329
  650TMC3    C8 9683   0.102   2.812  13.167  0.3959 -0.2281  0.7592
  650TMC3    O1 9684   0.239   2.435  12.781  0.1449 -0.4722  0.7223
  650TMC3    O2 9685   0.110   2.876  13.061 -0.6001 -0.2107  0.3029
  651MPD2     C 9686   3.927   0.297  10.707  0.1947 -0.3127 -0.1075
  651MPD2    C1 9687   3.985   0.362  10.809  0.0673  0.3268  0.0007
  651MPD2    C2 9688   4.095   0.446  10.787  0.3336  0.4373 -0.0556
  651MPD2    C3 9689   4.153   0.460  10.663  0.1793 -0.0602  1.0501
  651MPD2    C4 9690   4.092   0.394  10.557  1.1234  0.4370 -0.5423
  651MPD2    C5 9691   3.983   0.314  10.586  0.2756 -0.0656 -0.5441
  651MPD2     H 9692   4.135   0.490  10.878  0.7386  1.1645 -0.5910
  651MPD2    H1 9693   4.125   0.398  10.454  0.5264  3.3594 -0.6009
  651MPD2    H2 9694   3.841   0.232  10.712  1.5831 -1.8998  3.4045
  651MPD2    H3 9695   3.929   0.270  10.503 -1.2696 -0.9199  0.9089
  651MPD2     N 9696   4.259   0.549  10.642  0.2231  0.5070  0.4085
  651MPD2    H5 9697   4.305   0.588  10.723 -1.7395 -0.8328  2.1918
  651MPD2    N1 9698   3.935   0.352  10.939 -0.5837 -0.5445 -0.0169
  651MPD2    H7 9699   3.985   0.407  11.008 -2.1024  0.7942  0.0175
  652TMC3    C1 9700   4.615   0.754  10.646 -0.2257  0.5445  0.3812
  652TMC3    C2 9701   4.511   0.662  10.643 -0.2873 -0.5744 -0.2407
  652TMC3    C3 9702   4.423   0.682  10.539  0.3660  0.1482  0.0972
  652TMC3    C4 9703   4.632   0.863  10.560  0.3849 -0.2722  0.2453
  652TMC3    C5 9704   4.531   0.875  10.463 -0.1911 -1.0025 -0.5758
  652TMC3    C6 9705   4.430   0.785  10.449 -0.8683  0.0067  0.5686
  652TMC3     C 9706   4.731   0.714  10.722 -0.2402 -0.2943 -0.4856
  652TMC3     O 9707   4.708   0.680  10.836 -0.0595 -0.4302  0.2147
  652TMC3     H 9708   4.514   0.574  10.707  0.4248 -0.9638 -0.7976
  652TMC3    H1 9709   4.711   0.935  10.576  0.0177 -0.4513  2.9121
  652TMC3    H2 9710   4.349   0.798  10.379  1.1600  3.7940 -1.0872
  652TMC3    C7 9711   4.503   1.002  10.396 -0.2454 -0.3240  0.3296
  652TMC3    C8 9712   4.303   0.598  10.521 -0.3260 -0.1166 -0.1251
  652TMC3    O1 9713   4.387   1.026  10.368  0.5514  0.3609  0.2397
  652TMC3    O2 9714   4.256   0.587  10.407 -0.0388  0.3268  0.0437
  653MPD2     C 9715   2.326   0.181   0.188 -0.1057 -0.6424 -0.5323
  653MPD2    C1 9716   2.239   0.227   0.092 -0.3895  0.1832 -0.1631
  653MPD2    C2 9717   2.200   0.141  17.732 -0.3581 -0.1061  0.0324
  653MPD2    C3 9718   2.230   0.006  17.735  0.0895  0.7145 -0.1267
  653MPD2    C4 9719   2.324   4.705   0.080 -0.0839  0.1668  0.2725
  653MPD2    C5 9720   2.373   0.054   0.176 -0.5551 -0.6034  0.2836
  653MPD2     H 9721   2.143   0.168  17.644  0.6003 -0.4705 -0.7016
  653MPD2    H1 9722   2.370   4.608   0.094  1.1943  0.9962  1.8455
  653MPD2    H2 9723   2.365   0.239   0.270  0.1225 -2.7268  0.8460
  653MPD2    H3 9724   2.439   0.023   0.257 -2.1130  0.1886  1.8472
  653MPD2     N 9725   2.177   4.662  17.635 -0.0814 -0.3422 -0.1691
  653MPD2    H5 9726   2.110   4.709  17.575 -2.3183 -0.7638  2.0169
  653MPD2    N1 9727   2.192   0.357   0.091  0.0808  0.0996 -0.1655
  653MPD2    H7 9728   2.156   0.401   0.007 -0.8500  1.4904  0.9613
  654TMC3    C1 9729   2.128   4.466  17.507  0.8149  0.1020  0.1744
  654TMC3    C2 9730   2.011   4.518  17.466 -0.1849 -0.0249 -0.0596
  654TMC3    C3 9731   1.934   4.441  17.382  0.1874  0.0036 -0.3805
  654TMC3    C4 9732   2.171   4.339  17.460  0.6229 -0.4785  0.3629
  654TMC3    C5 9733   2.094   4.266  17.371 -0.3565  0.0647 -0.0797
  654TMC3    C6 9734   1.968   4.312  17.341  0.0337  0.2731  0.0873
  654TMC3     C 9735   2.202   4.526  17.619 -0.4792 -0.1441  0.3959
  654TMC3     O 9736   2.275   4.456  17.687 -0.3264  0.4388 -0.6446
  654TMC3     H 9737   1.981   4.621  17.483 -1.1172 -0.1255 -1.0506
  654TMC3    H1 9738   2.267   4.304  17.497  1.0426  0.3195  0.0278
  654TMC3    H2 9739   1.899   4.243  17.293  0.0609  0.7159 -0.5944
  654TMC3    C7 9740   2.153   4.167  17.282  0.1583 -0.4860  0.6673
  654TMC3    C8 9741   1.841   4.515  17.298 -0.7469  0.1856  0.4373
  654TMC3    O1 9742   2.090   4.156  17.179 -0.7846 -0.0694 -0.1742
  654TMC3    O2 9743   1.813   4.625  17.341  0.4752  0.3228  0.3866
  655MPD2     C 9744   3.929   0.059  16.060 -0.5150  0.1236  0.1975
  655MPD2    C1 9745   3.890   0.163  15.977  0.1202  0.1942  0.4484
  655MPD2    C2 9746   3.887   0.151  15.844 -0.4646  0.1225  0.4265
  655MPD2    C3 9747   3.949   0.031  15.786  0.0025 -0.1788 -0.9392
  655MPD2    C4 9748   4.005   4.678  15.871  0.5755  0.9082 -0.0177
  655MPD2    C5 9749   3.982   4.687  16.007 -0.1712 -0.3480  0.7468
  655MPD2     H 9750   3.852   0.227  15.774 -0.5768 -1.3964 -1.1734
  655MPD2    H1 9751   4.045   4.587  15.827 -0.4530  0.3107  0.3042
  655MPD2    H2 9752   3.913   0.059  16.167  2.4445  1.9061  0.6274
  655MPD2    H3 9753   4.019   4.607  16.070  2.2078 -0.4118 -0.7126
  655MPD2     N 9754   3.969   0.004  15.648  0.3652  0.0935  0.1601
  655MPD2    H5 9755   4.014   4.654  15.621  2.6183  1.2949 -0.0028
  655MPD2    N1 9756   3.825   0.276  16.025 -0.0965  0.9416 -0.8587
  655MPD2    H7 9757   3.802   0.338  15.948 -4.2962  2.1640  1.3702
  656TMC3    C1 9758   3.743   0.448  16.175  0.1591  0.0467 -0.6740
  656TMC3    C2 9759   3.673   0.479  16.286  0.0881  0.1608  0.5377
  656TMC3    C3 9760   3.616   0.603  16.310  0.2605  0.7255  0.0862
  656TMC3    C4 9761   3.738   0.542  16.073  0.0469  0.0345 -0.0542
  656TMC3    C5 9762   3.654   0.649  16.080  0.3482  0.0076 -0.3954
  656TMC3    C6 9763   3.607   0.693  16.199  0.2205 -0.0034  0.3664
  656TMC3     C 9764   3.795   0.307  16.154  0.2268 -0.2414 -1.2697
  656TMC3     O 9765   3.790   0.238  16.254  0.7712  0.3378  0.0693
  656TMC3     H 9766   3.651   0.399  16.355 -0.6530  1.6976  2.0933
  656TMC3    H1 9767   3.799   0.521  15.986  1.7065  0.2897  1.0478
  656TMC3    H2 9768   3.563   0.791  16.215 -0.6108 -0.2455 -0.4294
  656TMC3    C7 9769   3.645   0.731  15.965  0.1231  0.4482 -0.4130
  656TMC3    C8 9770   3.504   0.595  16.401 -0.2452 -0.0918 -0.0980
  656TMC3    O1 9771   3.731   0.714  15.881 -0.4931 -0.0309  0.0590
  656TMC3    O2 9772   3.460   0.485  16.423 -0.3773  0.0516  0.4562
  657TMC3    C1 9773   2.757   4.580  15.181 -0.0571 -0.7192 -0.3297
  657TMC3    C2 9774   2.829   4.634  15.285 -0.4953 -0.1374  0.1487
  657TMC3    C3 9775   2.847   0.035  15.293  0.1470  0.3047  0.7876
  657TMC3    C4 9776   2.702   4.667  15.085 -0.4496  0.9825 -0.4237
  657TMC3    C5 9777   2.715   0.067  15.103  0.3114 -0.4797 -0.4553
  657TMC3    C6 9778   2.797   0.118  15.200 -0.0804  0.2245  0.8722
  657TMC3     C 9779   2.737   4.438  15.161  0.0584  0.1973 -0.1718
  657TMC3     O 9780   2.629   4.407  15.117 -0.2047  0.0307 -0.2717
  657TMC3     H 9781   2.881   4.572  15.357  2.1960  0.9649 -0.8633
  657TMC3    H1 9782   2.634   4.629  15.010 -1.0661  1.3113 -0.0360
  657TMC3    H2 9783   2.814   0.225  15.201  0.9617  0.1025 -4.4106
  657TMC3    C7 9784   2.635   0.165  15.029 -0.0439  0.1345  0.6019
  657TMC3    C8 9785   2.921   0.105  15.397  0.2826  0.1398  0.1047
  657TMC3    O1 9786   2.596   0.267  15.087 -0.5853 -0.0244 -0.0241
  657TMC3    O2 9787   2.941   0.225  15.380  0.2319  0.0005 -0.5536
  658MPD2     C 9788   4.232   4.607  14.809 -0.4889  0.4703  0.4705
  658MPD2    C1 9789   4.192   4.705  14.900  0.1304 -0.0610 -0.1828
  658MPD2    C2 9790   4.200   0.101  14.864  0.2668  0.1161 -0.3149
  658MPD2    C3 9791   4.241   0.133  14.733 -0.4608  0.1091  0.2629
  658MPD2    C4 9792   4.280   0.034  14.651 -0.6247  0.0426 -1.0583
  658MPD2    C5 9793   4.287   4.642  14.687  0.1417 -0.4320  0.5463
  658MPD2     H 9794   4.164   0.185  14.922 -2.2464 -1.7390  0.8003
  658MPD2    H1 9795   4.322   0.060  14.555  0.9264  1.2054 -0.0718
  658MPD2    H2 9796   4.235   4.502  14.834 -1.4433  0.5452  0.8972
  658MPD2    H3 9797   4.323   4.560  14.626  0.7196  0.2528 -0.0342
  658MPD2     N 9798   4.240   0.271  14.698 -0.3689  0.3723 -0.0926
  658MPD2    H5 9799   4.187   0.328  14.763  0.2599 -0.6735  1.3428
  658MPD2    N1 9800   4.137   4.658  15.018 -0.0617 -0.2153 -0.4996
  658MPD2    H7 9801   4.118   4.560  15.037 -2.0190  0.1137 -0.7187
  659TMC3    C1 9802   4.025   4.673  15.218 -0.5924 -0.1500 -1.0100
  659TMC3    C2 9803   4.027   4.700  15.352 -0.6410 -0.1046 -0.3120
  659TMC3    C3 9804   3.905   4.735  15.414 -0.4242  0.0591  0.8748
  659TMC3    C4 9805   3.909   4.652  15.150  0.0827 -0.2450 -0.6952
  659TMC3    C5 9806   3.790   4.669  15.217  0.2275 -0.2803 -0.8448
  659TMC3    C6 9807   3.793   4.714  15.344 -0.8141  0.4671 -0.2522
  659TMC3     C 9808   4.130   4.730  15.134 -0.1982 -0.1810  0.3959
  659TMC3     O 9809   4.194   0.082  15.181  0.2682 -0.2932  0.2673
  659TMC3     H 9810   4.118   4.718  15.407 -0.3804 -2.3273 -0.0104
  659TMC3    H1 9811   3.912   4.636  15.043 -0.6887 -0.6362 -0.6594
  659TMC3    H2 9812   3.699   0.010  15.386 -0.5734  0.0626  0.6028
  659TMC3    C7 9813   3.673   4.706  15.136  0.4269 -0.5638  0.5109
  659TMC3    C8 9814   3.910   0.068  15.542  0.4506  0.1105  0.7053
  659TMC3    O1 9815   3.621   0.071  15.181 -0.2645  0.3014  0.1375
  659TMC3    O2 9816   3.818   0.148  15.549 -0.1298  0.2030  0.1682
  660MPD2     C 9817   2.459   3.701  12.968 -0.3043 -0.2393 -0.4262
  660MPD2    C1 9818   2.327   3.706  12.941  0.5203  0.1581 -0.6864
  660MPD2    C2 9819   2.243   3.655  13.037  0.0845  0.4386 -0.6849
  660MPD2    C3 9820   2.281   3.593  13.152  0.3139  0.0118  0.3911
  660MPD2    C4 9821   2.419   3.579  13.173  0.2603 -0.0163 -0.1988
  660MPD2    C5 9822   2.502   3.636  13.082 -0.0772  0.4604 -0.1578
  660MPD2     H 9823   2.142   3.691  13.025  0.0886  0.2656 -1.2292
  660MPD2    H1 9824   2.455   3.531  13.263 -0.9990  0.8273  0.7533
  660MPD2    H2 9825   2.536   3.729  12.897 -0.7950 -0.0402 -0.8794
  660MPD2    H3 9826   2.610   3.632  13.093 -0.2803  1.8116  2.2070
  660MPD2     N 9827   2.183   3.543  13.240  0.7835 -0.5263 -0.1658
  660MPD2    H5 9828   2.226   3.501  13.322 -0.9404  0.1247  1.0867
  660MPD2    N1 9829   2.277   3.766  12.824 -0.2608  0.6766 -0.4201
  660MPD2    H7 9830   2.347   3.807  12.763 -1.3699 -0.4787 -2.4605
  661TMC3    C1 9831   2.125   3.829  12.659 -0.1335 -1.0851  0.1264
  661TMC3    C2 9832   2.180   3.770  12.550 -0.2612  0.2490 -0.2219
  661TMC3    C3 9833   2.110   3.773  12.433 -0.3103 -0.3349 -0.0074
  661TMC3    C4 9834   1.999   3.883  12.644  0.1621 -0.2857 -0.3015
  661TMC3    C5 9835   1.933   3.883  12.529 -0.1525 -0.0860  0.3781
  661TMC3    C6 9836   1.990   3.832  12.415  0.2941  0.1650  0.1771
  661TMC3     C 9837   2.143   3.760  12.784 -0.1646 -0.2475 -0.3964
  661TMC3     O 9838   2.041   3.712  12.831 -0.3743  0.0457  0.0771
  661TMC3     H 9839   2.271   3.712  12.563 -1.0833 -1.0203 -0.1667
  661TMC3    H1 9840   1.941   3.911  12.731  0.0251 -2.7743  0.3838
  661TMC3    H2 9841   1.941   3.835  12.318 -0.9867 -0.5135  0.7963
  661TMC3    C7 9842   1.787   3.890  12.543 -0.8956  0.0720 -0.3635
  661TMC3    C8 9843   2.174   3.728  12.312  0.4748  0.3015  0.1489
  661TMC3    O1 9844   1.744   3.957  12.635  0.2749 -0.2423 -0.3225
  661TMC3    O2 9845   2.126   3.777  12.209 -0.4692 -0.9840 -0.0143
  662MPD2     C 9846   2.246   2.915  17.261 -0.1632  0.0453 -0.2441
  662MPD2    C1 9847   2.189   2.919  17.390  0.7587 -0.2617 -0.3074
  662MPD2    C2 9848   2.145   3.037  17.448 -0.3384  0.2676 -0.6960
  662MPD2    C3 9849   2.152   3.155  17.375  0.2813 -0.3842  0.1570
  662MPD2    C4 9850   2.213   3.155  17.253  0.7253 -0.1991  0.3985
  662MPD2    C5 9851   2.264   3.035  17.202  0.1252  0.0568  0.7869
  662MPD2     H 9852   2.115   3.035  17.552  3.7065 -1.2709  0.4525
  662MPD2    H1 9853   2.233   3.248  17.202 -3.5598  0.4030 -0.1629
  662MPD2    H2 9854   2.290   2.829  17.212 -0.5558  0.5218 -1.4326
  662MPD2    H3 9855   2.315   3.042  17.106  1.6626 -1.4746  1.4858
  662MPD2     N 9856   2.095   3.279  17.399 -0.9172 -0.0044 -0.3215
  662MPD2    H5 9857   2.111   3.356  17.334  0.5965  2.3909  2.9107
  662MPD2    N1 9858   2.198   2.804  17.472 -0.3886  0.0693  0.2342
  662MPD2    H7 9859   2.187   2.815  17.572 -1.9605  1.0637 -0.0453
  663TMC3    C1 9860   2.268   2.592  17.536 -0.3010 -0.2596 -0.6711
  663TMC3    C2 9861   2.350   2.650  17.629 -0.8019 -0.0146 -0.1997
  663TMC3    C3 9862   2.439   2.571  17.695  0.2448 -0.6876 -0.1222
  663TMC3    C4 9863   2.266   2.455  17.510 -0.0610 -0.2122 -0.4205
  663TMC3    C5 9864   2.364   2.381  17.573 -0.3885 -0.0744  0.7289
  663TMC3    C6 9865   2.436   2.436  17.677  0.2131 -0.3004 -0.6560
  663TMC3     C 9866   2.229   2.680  17.426  0.0708  0.7907  0.5526
  663TMC3     O 9867   2.228   2.630  17.316  0.4909  0.5057 -0.4213
  663TMC3     H 9868   2.374   2.756  17.622  2.6364 -0.7572  0.3483
  663TMC3    H1 9869   2.201   2.420  17.431  1.0791 -1.8713 -0.6093
  663TMC3    H2 9870   2.520   2.383  17.722 -0.2012 -0.3490  0.0752
  663TMC3    C7 9871   2.397   2.244  17.524  0.0716  0.2092 -0.9449
  663TMC3    C8 9872   2.490   2.615   0.080 -0.9362 -0.2220 -0.2202
  663TMC3    O1 9873   2.507   2.198  17.552  0.3609  0.2689  0.0224
  663TMC3    O2 9874   2.578   2.555   0.134 -0.5172 -0.0202  0.2299
  664MPD2     C 9875   4.656   1.574  17.418 -0.8945 -0.4123  0.6337
  664MPD2    C1 9876   0.007   1.667  17.458 -0.4155 -0.0017 -0.3381
  664MPD2    C2 9877   4.708   1.742  17.564 -0.4914  0.2160  0.1460
  664MPD2    C3 9878   4.604   1.717  17.646 -0.4612  0.3313  0.2031
  664MPD2    C4 9879   4.514   1.623  17.607 -0.2287  0.1730 -0.5305
  664MPD2    C5 9880   4.540   1.558  17.490  0.3277  0.0644  0.1529
  664MPD2     H 9881   0.037   1.818  17.604 -1.2361 -0.9538  3.5845
  664MPD2    H1 9882   4.449   1.571  17.676  1.5205  1.2466  1.9267
  664MPD2    H2 9883   4.673   1.520  17.325 -0.6279  0.8236 -0.0232
  664MPD2    H3 9884   4.471   1.476  17.470  0.2590  0.0417  0.4891
  664MPD2     N 9885   4.584   1.804   0.009  0.9584  0.2859 -0.2240
  664MPD2    H5 9886   4.653   1.878   0.016  0.5366  0.5341  1.3362
  664MPD2    N1 9887   0.124   1.700  17.391 -0.7338 -0.1406  0.3212
  664MPD2    H7 9888   0.176   1.777  17.431 -2.2170  0.2576  1.4776
  665TMC3    C1 9889   4.497   1.850   0.226  0.2821  0.1038 -0.8759
  665TMC3    C2 9890   4.396   1.842   0.311 -0.4409 -0.5513  0.9634
  665TMC3    C3 9891   4.422   1.842   0.448  0.7247  0.0908 -0.2251
  665TMC3    C4 9892   4.623   1.881   0.268  0.4943 -0.1985 -0.8844
  665TMC3    C5 9893   4.649   1.895   0.407  0.7046 -0.1642 -0.0319
  665TMC3    C6 9894   4.548   1.878   0.492 -0.8664 -0.4251  0.4045
  665TMC3     C 9895   4.471   1.793   0.091 -0.2650 -0.0728 -0.0859
  665TMC3     O 9896   4.364   1.739   0.068  0.4640 -0.1113  0.3670
  665TMC3     H 9897   4.298   1.822   0.271  0.2453  1.0614 -1.5236
  665TMC3    H1 9898   4.701   1.853   0.199  0.6814  0.0600 -0.7758
  665TMC3    H2 9899   4.566   1.879   0.599 -0.8320 -1.0242  0.4042
  665TMC3    C7 9900   0.046   1.913   0.444 -0.4115  0.2414 -0.7649
  665TMC3    C8 9901   4.312   1.835   0.542 -0.4032 -0.1893 -0.9604
  665TMC3    O1 9902   0.128   1.894   0.358  0.0828 -0.0801 -0.0593
  665TMC3    O2 9903   4.339   1.864   0.661 -0.1864  0.5266  0.3608
  666TMC3    C1 9904   0.343   2.596   9.774 -0.5329 -0.0186 -0.3120
  666TMC3    C2 9905   0.436   2.497   9.795 -0.3380  0.6088  0.4021
  666TMC3    C3 9906   0.510   2.498   9.910 -0.5243 -0.2667 -0.4428
  666TMC3    C4 9907   0.329   2.703   9.860 -0.0831  0.0303  0.7654
  666TMC3    C5 9908   0.405   2.703   9.976  0.2299  0.5779 -0.0326
  666TMC3    C6 9909   0.494   2.601   9.999  0.8887  0.7523  0.0874
  666TMC3     C 9910   0.217   2.562   9.708  0.0932  0.1804  0.0831
  666TMC3     O 9911   0.181   2.651   9.635 -0.5916  0.4097  0.1202
  666TMC3     H 9912   0.454   2.434   9.709 -2.4860 -0.6710  0.8895
  666TMC3    H1 9913   0.256   2.778   9.831 -0.5204 -0.7442 -0.1314
  666TMC3    H2 9914   0.551   2.593  10.091  0.7014  0.2271  0.1602
  666TMC3    C7 9915   0.333   2.759  10.088 -0.2931 -0.5355 -0.0716
  666TMC3    C8 9916   0.556   2.374   9.958 -0.2766 -0.4304 -0.3411
  666TMC3    O1 9917   0.367   2.710  10.193  0.0071 -0.2372  0.2097
  666TMC3    O2 9918   0.483   2.281   9.926  0.0925 -0.5244 -0.0409
  667MPD2     C 9919   0.899   1.489  14.684 -0.0730  0.4313 -0.5636
  667MPD2    C1 9920   0.841   1.572  14.777  0.4890 -0.6467 -0.0563
  667MPD2    C2 9921   0.703   1.584  14.775  0.2123  0.5585  0.0297
  667MPD2    C3 9922   0.622   1.497  14.708  0.1371  0.7499 -0.2588
  667MPD2    C4 9923   0.680   1.403  14.626 -1.0264  0.2154 -0.0819
  667MPD2    C5 9924   0.814   1.406  14.614  0.3290  0.2541  0.1387
  667MPD2     H 9925   0.659   1.658  14.842  0.8841 -0.5054  1.6600
  667MPD2    H1 9926   0.634   1.320  14.573  1.4626 -1.6136  0.5900
  667MPD2    H2 9927   1.006   1.476  14.678  0.1482  1.4419  1.2410
  667MPD2    H3 9928   0.867   1.324  14.567 -1.6945 -0.0101 -1.6609
  667MPD2     N 9929   0.481   1.510  14.708  0.3874 -0.1284 -0.2310
  667MPD2    H5 9930   0.437   1.438  14.651 -0.2698 -1.3451  1.8175
  667MPD2    N1 9931   0.907   1.642  14.882  0.0092 -0.5041 -0.1134
  667MPD2    H7 9932   0.846   1.694  14.944  0.4971 -0.9042  0.7050
  668TMC3    C1 9933   1.085   1.731  15.008  0.1423 -0.4879 -0.1325
  668TMC3    C2 9934   1.218   1.771  15.019 -0.3724  0.5924  0.3078
  668TMC3    C3 9935   1.262   1.823  15.140 -0.5173  0.1734 -0.0763
  668TMC3    C4 9936   1.012   1.729  15.123  1.1619 -0.2660 -0.7607
  668TMC3    C5 9937   1.064   1.760  15.245  0.4440  0.4155 -0.1947
  668TMC3    C6 9938   1.189   1.807  15.258  0.0791  0.3006  0.5290
  668TMC3     C 9939   1.038   1.676  14.880 -0.4205 -0.3089  0.4394
  668TMC3     O 9940   1.126   1.641  14.799  0.1474 -0.3031 -0.1226
  668TMC3     H 9941   1.279   1.783  14.930  1.7742 -1.0100  1.5542
  668TMC3    H1 9942   0.912   1.686  15.127  1.2432 -0.4066 -0.2632
  668TMC3    H2 9943   1.237   1.818  15.354 -0.9538 -1.5382  1.2400
  668TMC3    C7 9944   1.009   1.707  15.372 -0.4054  0.1179 -0.2849
  668TMC3    C8 9945   1.340   1.942  15.136  0.1817 -0.7774 -0.4266
  668TMC3    O1 9946   1.035   1.776  15.465 -0.0143 -0.2402  0.0902
  668TMC3    O2 9947   1.344   2.007  15.240 -0.0003 -0.3139 -0.6912
  669TMC3    C1 9948   3.837   2.123  14.751 -0.0096  0.6043 -0.4416
  669TMC3    C2 9949   3.745   2.080  14.658  0.9039 -0.2943 -0.5832
  669TMC3    C3 9950   3.787   2.089  14.528 -0.6527 -0.4207  0.1631
  669TMC3    C4 9951   3.953   2.186  14.722 -0.2781  0.2239 -0.0892
  669TMC3    C5 9952   3.987   2.205  14.586 -0.3761  0.2519  0.5938
  669TMC3    C6 9953   3.912   2.146  14.489  0.1304 -0.5709 -0.6129
  669TMC3     C 9954   3.813   2.078  14.883  0.0684 -0.5392 -0.0807
  669TMC3     O 9955   3.697   2.061  14.917  0.1924  0.1786  0.1362
  669TMC3     H 9956   3.659   2.017  14.681  2.0946 -1.3923  0.9080
  669TMC3    H1 9957   4.015   2.232  14.798 -1.5942  0.1309  1.0244
  669TMC3    H2 9958   3.946   2.163  14.388  2.6431  1.4639  0.5738
  669TMC3    C7 9959   4.120   2.263  14.553  0.4157  0.3803  1.0068
  669TMC3    C8 9960   3.728   2.009  14.421 -0.3016  0.7963 -0.8529
  669TMC3    O1 9961   4.182   2.294  14.652 -0.2942  0.6381  0.3790
  669TMC3    O2 9962   3.799   2.014  14.323 -0.1812  0.6510 -0.1397
  670MPD2     C 9963   2.059   3.962  13.767 -0.2668  0.3623  0.3901
  670MPD2    C1 9964   2.175   3.957  13.842  0.1176 -0.3695 -0.2750
  670MPD2    C2 9965   2.170   3.967  13.979  0.2652 -0.1024  0.5485
  670MPD2    C3 9966   2.048   3.987  14.049  0.7388 -0.0465  0.0272
  670MPD2    C4 9967   1.933   3.971  13.971 -0.3333 -0.8275 -0.9606
  670MPD2    C5 9968   1.940   3.969  13.830  0.9539 -0.2148 -0.7148
  670MPD2     H 9969   2.261   3.980  14.036  0.6688  2.7716 -0.7571
  670MPD2    H1 9970   1.829   3.967  14.002 -0.7085 -0.2061 -2.1412
  670MPD2    H2 9971   2.064   3.946  13.660  0.0306  2.3157  0.1037
  670MPD2    H3 9972   1.854   3.959  13.765 -0.9733  0.2417  1.7447
  670MPD2     N 9973   2.041   3.984  14.189  0.0709  0.0988 -0.1324
  670MPD2    H5 9974   2.125   3.999  14.245 -1.1252 -0.4637  1.8068
  670MPD2    N1 9975   2.299   3.951  13.778 -0.6440  0.7220  0.3030
  670MPD2    H7 9976   2.379   3.961  13.839  0.6890 -3.2848 -0.7989
  671TMC3    C1 9977   1.944   3.929  14.402 -0.1908 -0.8000  0.0593
  671TMC3    C2 9978   2.058   3.951  14.473  0.3060  0.4597 -0.2072
  671TMC3    C3 9979   2.079   3.886  14.592 -0.1950  0.2575  0.6407
  671TMC3    C4 9980   1.844   3.858  14.461  0.1013  0.0866 -0.5824
  671TMC3    C5 9981   1.854   3.823  14.591 -0.3504  0.4163  0.6431
  671TMC3    C6 9982   1.970   3.834  14.655  0.4990 -0.0748 -0.0151
  671TMC3     C 9983   1.924   3.961  14.264 -0.3726 -1.0722  0.2759
  671TMC3     O 9984   1.808   3.947  14.221 -0.4724  0.6101 -0.0601
  671TMC3     H 9985   2.152   3.972  14.423  0.5451 -1.0365 -0.3950
  671TMC3    H1 9986   1.754   3.844  14.402  0.1997 -2.2251 -0.1622
  671TMC3    H2 9987   1.992   3.784  14.749  0.9454 -1.3500 -0.7875
  671TMC3    C7 9988   1.784   3.702  14.616  0.4268 -0.5782 -0.2649
  671TMC3    C8 9989   2.193   3.803  14.599  0.1419  0.9255  0.4702
  671TMC3    O1 9990   1.714   3.700  14.722  0.3484  0.3709 -0.2138
  671TMC3    O2 9991   2.248   3.795  14.490  0.4990  0.0051  0.0333
  672MPD2     C 9992   1.999   0.198   0.851  0.0821 -0.0469 -0.3043
  672MPD2    C1 9993   2.116   0.192   0.767  0.9289 -0.2153 -0.6980
  672MPD2    C2 9994   2.219   0.282   0.793  0.4401 -0.0400 -0.7114
  672MPD2    C3 9995   2.209   0.377   0.892  0.6693  0.0744 -0.4280
  672MPD2    C4 9996   2.100   0.373   0.974 -1.0226  0.5394 -0.1791
  672MPD2    C5 9997   1.998   0.286   0.959  0.1259 -0.9199  0.7841
  672MPD2     H 9998   2.308   0.273   0.733  1.2065  1.3081  0.2268
  672MPD2    H1 9999   2.092   0.441   1.058 -1.3105 -1.3145  1.3104
  672MPD2    H210000   1.922   0.122   0.848 -0.8173  0.8458 -0.1271
  672MPD2    H310001   1.916   0.285   1.029 -0.7485  1.5629 -0.1859
  672MPD2     N10002   2.302   0.477   0.923  0.3600  0.5168 -0.1691
  672MPD2    H510003   2.289   0.535   1.004  0.1918  3.4090 -2.2603
  672MPD2    N110004   2.116   0.112   0.647 -0.4105 -0.6782  0.0877
  672MPD2    H710005   2.202   0.103   0.594 -1.1832 -0.2298 -1.2580
  673TMC3    C110006   2.024   4.717   0.479 -0.0493  0.3529  0.7115
  673TMC3    C210007   2.144   4.653   0.459  0.5384 -0.1455  0.1553
  673TMC3    C310008   2.155   4.572   0.353 -0.1467 -1.1036  0.7794
  673TMC3    C410009   1.926   4.724   0.381 -0.8525 -0.2002 -0.2837
  673TMC3    C510010   1.946   4.645   0.270 -0.2223  0.0807  0.6450
  673TMC3    C610011   2.058   4.569   0.254 -0.1213 -0.2617 -0.7213
  673TMC3     C10012   1.999   0.057   0.603 -0.1273  0.3249 -0.1716
  673TMC3     O10013   1.881   0.070   0.641  0.2679 -0.2317  0.3719
  673TMC3     H10014   2.211   4.648   0.544  0.8902  0.0499 -0.1102
  673TMC3    H110015   1.839   0.048   0.403 -0.6224 -0.1590  0.5322
  673TMC3    H210016   2.071   4.496   0.176  1.1039 -1.5368  0.6901
  673TMC3    C710017   1.870   4.663   0.148 -0.0839 -0.3944 -0.2064
  673TMC3    C810018   2.268   4.472   0.343  0.1727  0.4024  0.7174
  673TMC3    O110019   1.880   4.571   0.063 -0.2574 -0.1311 -0.6069
  673TMC3    O210020   2.254   4.366   0.279  0.5977  0.2148  0.0274
  674MPD2     C10021   2.330   3.558  17.508  0.0760 -0.0001 -0.2814
  674MPD2    C110022   2.309   3.567  17.648 -0.0287 -0.1091 -0.0320
  674MPD2    C210023   2.220   3.667  17.690 -0.4483  0.4324 -0.0543
  674MPD2    C310024   2.160   3.753  17.599  0.1139  0.4220  1.1708
  674MPD2    C410025   2.178   3.734  17.460  0.8622  0.1436 -0.3015
  674MPD2    C510026   2.262   3.635  17.417 -0.2658  0.4318 -0.3477
  674MPD2     H10027   2.205   3.672   0.051  2.2840 -0.4962  0.3845
  674MPD2    H110028   2.144   3.809  17.389  0.3211  0.0478 -0.1433
  674MPD2    H210029   2.389   3.478  17.465  0.2390 -0.5046  0.9034
  674MPD2    H310030   2.286   3.624  17.312  0.0679  0.6419 -0.2961
  674MPD2     N10031   2.099   3.864  17.671 -0.7433  0.2867  0.0335
  674MPD2    H510032   2.113   3.856   0.025  1.9020 -2.8511 -0.5702
  674MPD2    N110033   2.393   3.500  17.734 -0.9020  0.0587 -0.4224
  674MPD2    H710034   2.480   3.471  17.689 -0.2402  2.2372 -0.5574
  675TMC3    C110035   2.493   3.453   0.198  0.2110  0.1485 -0.3145
  675TMC3    C210036   2.463   3.410   0.322 -0.9409 -0.0491  0.3589
  675TMC3    C310037   2.522   3.466   0.427  0.5431  0.0655  0.8167
  675TMC3    C410038   2.577   3.558   0.177 -0.4324  0.2803  0.0636
  675TMC3    C510039   2.642   3.614   0.287 -0.2613  0.0536  0.5222
  675TMC3    C610040   2.608   3.582   0.415  0.2805 -0.0540 -0.2134
  675TMC3     C10041   2.371   3.479   0.124 -0.6275  0.0815  0.3261
  675TMC3     O10042   2.269   3.501   0.193  0.1329  0.0004 -0.5076
  675TMC3     H10043   2.373   3.351   0.340  0.9996 -2.6470  1.5395
  675TMC3    H110044   2.589   3.595   0.076 -2.8511 -3.1217 -1.4914
  675TMC3    H210045   2.644   3.632   0.504  1.8878  0.3983 -1.1225
  675TMC3    C710046   2.736   3.716   0.256  0.1581 -0.2691 -0.8290
  675TMC3    C810047   2.443   3.464   0.549  0.3606  0.0055  0.2113
  675TMC3    O110048   2.734   3.765   0.142 -0.2639  0.2221  0.0750
  675TMC3    O210049   2.409   3.359   0.604  0.2337 -0.1115  0.0838
  676MPD2     C10050   0.586   3.058  11.218  0.0653  0.3445 -0.1593
  676MPD2    C110051   0.565   2.944  11.291 -0.2210  0.4725 -0.6310
  676MPD2    C210052   0.575   2.825  11.232 -0.4657  0.7397 -0.4263
  676MPD2    C310053   0.625   2.810  11.105 -0.6495 -0.4345 -0.3750
  676MPD2    C410054   0.653   2.926  11.038  0.5726  0.1894  0.2047
  676MPD2    C510055   0.618   3.041  11.085  0.1186  0.2709  0.1528
  676MPD2     H10056   0.562   2.735  11.291 -0.1392  1.0810  0.1660
  676MPD2    H110057   0.689   2.923  10.936 -2.9021  0.2536 -1.0467
  676MPD2    H210058   0.569   3.158  11.258  0.5150  1.1733 -2.0138
  676MPD2    H310059   0.632   3.130  11.024  1.0749  0.3780  0.5290
  676MPD2     N10060   0.643   2.686  11.042 -0.1621  0.4681  0.3126
  676MPD2    H510061   0.683   2.694  10.949  0.0753  0.6099  0.4281
  676MPD2    N110062   0.516   2.950  11.423  0.4284  0.0575  0.1952
  676MPD2    H710063   0.496   2.860  11.466 -2.8843  0.5381 -0.3179
  677TMC3    C110064   0.419   3.031  11.629 -0.0164 -0.4095 -0.4006
  677TMC3    C210065   0.369   2.903  11.655 -0.3063 -0.0274  0.3324
  677TMC3    C310066   0.307   2.886  11.773 -0.0644  0.8333  0.4663
  677TMC3    C410067   0.400   3.140  11.712  0.0267 -0.0085 -0.2974
  677TMC3    C510068   0.346   3.115  11.830  0.4475  0.0965  0.4042
  677TMC3    C610069   0.286   2.990  11.859  0.0600 -0.0838 -0.1207
  677TMC3     C10070   0.470   3.059  11.497  0.2679  0.3069 -0.7928
  677TMC3     O10071   0.466   3.180  11.465  0.0973 -0.4289 -0.4885
  677TMC3     H10072   0.358   2.825  11.580 -0.3961  1.4003 -1.1284
  677TMC3    H110073   0.439   3.237  11.685  1.0197  0.1053  1.5163
  677TMC3    H210074   0.250   2.965  11.958 -0.8350  0.2188 -0.3674
  677TMC3    C710075   0.340   3.217  11.933 -0.4721 -0.2104  0.5578
  677TMC3    C810076   0.276   2.747  11.818  0.1901  0.0666 -0.1955
  677TMC3    O110077   0.255   3.200  12.021  0.1105 -0.2510 -0.1280
  677TMC3    O210078   0.327   2.662  11.749 -0.1623  0.8474 -0.3260
  678MPD2     C10079   1.251   2.815   1.434  0.7431 -0.0772 -0.0884
  678MPD2    C110080   1.312   2.715   1.363  0.0490 -0.0626 -0.0121
  678MPD2    C210081   1.232   2.645   1.270  0.0165  0.2055 -0.4199
  678MPD2    C310082   1.100   2.677   1.257 -0.2806  0.6308  0.2952
  678MPD2    C410083   1.041   2.770   1.337  0.0337  0.4479 -0.3798
  678MPD2    C510084   1.115   2.846   1.424  0.2659  0.2246  0.4222
  678MPD2     H10085   1.280   2.570   1.208  1.7719  0.8248  0.1994
  678MPD2    H110086   0.936   2.799   1.343 -0.4700 -1.5413  0.2337
  678MPD2    H210087   1.301   2.875   1.509 -0.2343 -0.4568  0.8710
  678MPD2    H310088   1.078   2.930   1.482 -2.5753 -0.4286 -0.4674
  678MPD2     N10089   1.010   2.616   1.166  0.0791 -0.4366  1.3195
  678MPD2    H510090   0.911   2.641   1.168  0.7914  2.3263  2.0604
  678MPD2    N110091   1.446   2.676   1.382  0.6831  0.0537  0.1431
  678MPD2    H710092   1.480   2.598   1.327  0.6391  0.4761 -0.4786
  679TMC3    C110093   1.798   2.573   1.286  0.2155  0.1841 -0.4969
  679TMC3    C210094   1.704   2.585   1.391 -0.1022  0.7913 -0.5400
  679TMC3    C310095   1.667   2.711   1.430  0.2944 -0.2594 -1.0887
  679TMC3    C410096   1.859   2.686   1.230  0.4036  0.4219 -0.3748
  679TMC3    C510097   1.821   2.804   1.276 -0.4242 -0.0556  0.2501
  679TMC3    C610098   1.733   2.820   1.372  0.0557 -0.6238  0.0606
  679TMC3     C10099   1.843   2.437   1.240 -0.6717  0.1402 -0.2451
  679TMC3     O10100   1.914   2.429   1.140 -0.1704  0.2606 -0.1494
  679TMC3     H10101   1.642   2.503   1.425 -1.6125  2.4085  0.6357
  679TMC3    H110102   1.941   2.673   1.161  1.0313  0.1106  0.4248
  679TMC3    H210103   1.727   2.919   1.415 -2.2783 -0.0881 -1.5201
  679TMC3    C710104   1.839   2.908   1.176 -0.1905 -0.3549 -0.0453
  679TMC3    C810105   1.534   2.735   1.474 -0.2180  0.1261 -0.1338
  679TMC3    O110106   1.929   2.893   1.095 -0.4089 -0.4165 -1.1493
  679TMC3    O210107   1.516   2.820   1.553 -0.2980 -0.1193 -0.1909
  680MPD2     C10108   1.842   1.403  14.017  0.2379  0.2118 -0.2292
  680MPD2    C110109   1.957   1.346  14.061 -0.3939 -0.3935  0.8208
  680MPD2    C210110   2.069   1.427  14.093  0.8646 -0.3402 -0.1427
  680MPD2    C310111   2.070   1.561  14.056  0.0675 -0.2411 -0.3665
  680MPD2    C410112   1.948   1.619  14.016  0.2431 -0.9193 -0.7788
  680MPD2    C510113   1.842   1.541  13.992 -0.4704  0.4134 -0.1798
  680MPD2     H10114   2.152   1.386  14.149  0.3326 -0.9295  0.2105
  680MPD2    H110115   1.937   1.727  14.020  2.3368 -0.7385  0.0316
  680MPD2    H210116   1.748   1.352  13.998  0.2909 -0.1241  0.4154
  680MPD2    H310117   1.750   1.591  13.967 -0.9281  0.5728  1.7670
  680MPD2     N10118   2.177   1.648  14.081 -0.2653 -0.0497 -0.0397
  680MPD2    H510119   2.161   1.745  14.057  0.1458  0.1877  0.6522
  680MPD2    N110120   1.967   1.214  14.095  0.4497 -0.4819 -0.5708
  680MPD2    H710121   2.057   1.178  14.125 -0.2235 -0.5656  1.3879
  681TMC3    C110122   1.896   0.993  14.117  0.1374 -0.1400  0.0387
  681TMC3    C210123   1.834   0.910  14.205 -0.0929 -0.1660 -0.4579
  681TMC3    C310124   1.898   0.789  14.231  0.3040 -0.2622 -0.3141
  681TMC3    C410125   2.008   0.954  14.039  0.2801 -0.4706  0.4450
  681TMC3    C510126   2.067   0.835  14.083  0.3975  0.3121  0.0892
  681TMC3    C610127   2.018   0.758  14.181 -0.1037 -0.8429 -0.5532
  681TMC3     C10128   1.855   1.129  14.101  0.1443 -0.6595  0.3701
  681TMC3     O10129   1.735   1.152  14.129  0.1270  0.1896  0.3779
  681TMC3     H10130   1.740   0.941  14.250  0.1907  1.2700 -0.8593
  681TMC3    H110131   2.054   1.023  13.970 -0.6128  1.0893  1.4155
  681TMC3    H210132   2.072   0.670  14.213  0.1336 -0.6170 -0.3258
  681TMC3    C710133   2.206   0.811  14.050  0.5816 -0.0888  0.7368
  681TMC3    C810134   1.845   0.718  14.338 -0.4848  0.6081 -0.1456
  681TMC3    O110135   2.278   0.753  14.128 -0.1925 -0.6543  0.4640
  681TMC3    O210136   1.837   0.595  14.329  0.0554  0.1832 -0.5491
  682MPD2     C10137   4.569   3.183  11.328 -0.3236  0.1186  0.1690
  682MPD2    C110138   4.551   3.048  11.283  0.1638  0.6021 -0.7661
  682MPD2    C210139   4.483   2.956  11.360 -0.2022  0.2864  0.4680
  682MPD2    C310140   4.435   2.993  11.487 -0.0178 -0.4911 -0.1019
  682MPD2    C410141   4.457   3.120  11.534 -0.3363  0.4254 -0.3669
  682MPD2    C510142   4.520   3.216  11.451 -0.0998 -0.6704 -0.2986
  682MPD2     H10143   4.469   2.858  11.316  0.4710  0.1426  0.5652
  682MPD2    H110144   4.399   3.158  11.618  1.4013  0.2506  0.9196
  682MPD2    H210145   4.616   3.263  11.271 -1.9968  1.4883  0.7454
  682MPD2    H310146   4.523   3.318  11.486 -2.3103 -1.2824  1.6321
  682MPD2     N10147   4.364   2.902  11.573  0.3115 -0.3003 -0.5348
  682MPD2    H510148   4.317   2.944  11.653  0.9658 -1.5357  0.4853
  682MPD2    N110149   4.600   3.002  11.159  0.5439  0.2183 -0.0392
  682MPD2    H710150   4.571   2.906  11.139 -1.0873  0.7252 -0.0944
  683TMC3    C110151   4.178   2.672  11.860 -0.6218  0.3610 -0.0371
  683TMC3    C210152   4.118   2.557  11.822 -1.3682 -0.4592 -0.1124
  683TMC3    C310153   4.153   2.506  11.695 -0.6643  0.3617 -0.6624
  683TMC3    C410154   4.259   2.738  11.782  0.3883 -0.4924 -0.3625
  683TMC3    C510155   4.282   2.689  11.663 -0.0884 -0.1759  0.5863
  683TMC3    C610156   4.236   2.571  11.612  0.4029  0.2856  0.2794
  683TMC3     C10157   4.231   2.673  11.994  0.4076  0.7644  0.0030
  683TMC3     O10158   4.262   2.782  12.042  0.0495  0.0225  0.4270
  683TMC3     H10159   4.055   2.501  11.891 -2.0433 -0.0156 -0.3750
  683TMC3    H110160   4.306   2.833  11.806  1.1470 -1.3111  1.4009
  683TMC3    H210161   4.271   2.522  11.522  1.3337 -0.2148  0.9096
  683TMC3    C710162   4.359   2.762  11.561  0.4614  0.5430 -0.0906
  683TMC3    C810163   4.066   2.414  11.633  0.2691 -0.4707  0.4727
  683TMC3    O110164   4.406   2.704  11.466 -0.2591  0.0842 -0.3901
  683TMC3    O210165   4.077   2.416  11.508 -0.3175  0.0414 -0.2107
  684MPD2     C10166   1.742   2.145  16.652 -0.9030 -0.4371  0.6066
  684MPD2    C110167   1.752   2.178  16.518 -0.1109  0.8384  0.2733
  684MPD2    C210168   1.751   2.304  16.481 -0.3438 -0.4641  0.8673
  684MPD2    C310169   1.760   2.400  16.577  0.1057 -0.7480  0.5780
  684MPD2    C410170   1.719   2.373  16.702 -0.2984 -0.1172  0.5407
  684MPD2    C510171   1.712   2.244  16.743  0.3103  0.4650 -0.3257
  684MPD2     H10172   1.774   2.332  16.378  0.5350 -0.2584  1.1262
  684MPD2    H110173   1.712   2.451  16.777  1.1126  0.6185 -0.0992
  684MPD2    H210174   1.751   2.042  16.685  0.8994 -0.8237 -1.1645
  684MPD2    H310175   1.702   2.211  16.845  0.6654  0.0282 -0.4330
  684MPD2     N10176   1.801   2.531  16.550  0.1221  0.0296  0.3115
  684MPD2    H510177   1.816   2.591  16.630 -1.5319 -1.4910  1.7773
  684MPD2    N110178   1.776   2.083  16.412 -0.3368 -0.7413 -0.9509
  684MPD2    H710179   1.782   2.124  16.319  0.9030 -1.2240 -1.0802
  685TMC3    C110180   1.943   1.947  16.331  0.8366  0.1972 -0.7534
  685TMC3    C210181   1.917   1.978  16.199 -0.2577 -0.1044 -0.0908
  685TMC3    C310182   2.020   1.969  16.114 -0.4210 -0.1249  0.5002
  685TMC3    C410183   2.067   1.921  16.373 -0.4007 -0.1762 -0.2226
  685TMC3    C510184   2.162   1.933  16.283 -0.0177 -0.3811 -0.3137
  685TMC3    C610185   2.148   1.957  16.153 -0.5928  0.1261  0.1799
  685TMC3     C10186   1.842   1.960  16.430  0.2269  0.5596  0.5230
  685TMC3     O10187   1.865   1.910  16.538 -0.6011  0.4730  0.2659
  685TMC3     H10188   1.815   1.991  16.164 -0.1755 -1.3191 -0.7792
  685TMC3    H110189   2.079   1.919  16.481  5.4140 -0.5186 -0.8903
  685TMC3    H210190   2.235   1.947  16.089 -1.7406 -3.7301 -0.7674
  685TMC3    C710191   2.291   1.942  16.345 -0.2177  0.0382 -0.4577
  685TMC3    C810192   2.001   1.950  15.971  0.0073  0.4987 -0.7212
  685TMC3    O110193   2.315   1.862  16.438  0.2250 -0.3271 -0.4045
  685TMC3    O210194   2.100   1.960  15.899 -0.6497  0.1192  0.4976
  686MPD2     C10195   3.626   2.170  15.705 -0.7029 -0.9980  0.0240
  686MPD2    C110196   3.642   2.074  15.801  0.9961  0.1613 -0.6631
  686MPD2    C210197   3.683   1.947  15.764  0.4494 -0.1948 -0.0449
  686MPD2    C310198   3.703   1.912  15.628 -1.4054  0.0457  0.0951
  686MPD2    C410199   3.675   2.006  15.532  0.1004 -0.2366 -0.4970
  686MPD2    C510200   3.641   2.137  15.573  0.0554  0.2229  0.1851
  686MPD2     H10201   3.714   1.870  15.834  2.7903 -0.4838 -1.4240
  686MPD2    H110202   3.692   1.991  15.426  1.2967 -0.0298 -0.3328
  686MPD2    H210203   3.583   2.264  15.737 -1.2722 -0.4867 -2.2275
  686MPD2    H310204   3.625   2.209  15.493 -1.8834 -0.8463 -0.3925
  686MPD2     N10205   3.741   1.786  15.574 -0.2720  0.0960 -0.0704
  686MPD2    H510206   3.777   1.787  15.479  0.3206  0.8610  0.1612
  686MPD2    N110207   3.609   2.112  15.930  0.6842  0.0721  0.0060
  686MPD2    H710208   3.584   2.210  15.945  1.1546  0.4778 -1.8148
  687TMC3    C110209   3.691   1.634  15.760 -0.1285  0.6521  0.0434
  687TMC3    C210210   3.563   1.671  15.800  1.6348 -0.9666 -0.4202
  687TMC3    C310211   3.509   1.635  15.929 -0.2196  0.4743  0.2339
  687TMC3    C410212   3.762   1.558  15.841 -0.1100  0.6351 -0.3198
  687TMC3    C510213   3.712   1.506  15.957  0.6078 -0.6320  0.2141
  687TMC3    C610214   3.586   1.550  15.999  0.6488  0.7112  0.9784
  687TMC3     C10215   3.749   1.659  15.627  0.9558  0.1395 -0.0107
  687TMC3     O10216   3.819   1.573  15.578 -0.3042 -0.0811  0.1020
  687TMC3     H10217   3.509   1.744  15.741  0.7414 -1.9437 -0.8173
  687TMC3    H110218   3.861   1.527  15.810  0.7387  1.1863  1.7857
  687TMC3    H210219   3.547   1.532  16.099 -0.1452 -1.0155  0.3583
  687TMC3    C710220   3.811   1.488  16.060  0.5064  0.4877  0.7377
  687TMC3    C810221   3.382   1.687  15.978 -0.0204 -0.0581  0.0279
  687TMC3    O110222   3.786   1.548  16.167 -0.2083 -0.1653 -0.2217
  687TMC3    O210223   3.318   1.624  16.060 -0.1805  0.2882  0.2703
  688MPD2     C10224   2.539   0.974  17.656 -0.3689 -0.2344  1.2707
  688MPD2    C110225   2.505   0.841  17.635 -0.2075 -0.1956  1.1544
  688MPD2    C210226   2.582   0.765  17.546  0.4961 -0.1931 -0.8440
  688MPD2    C310227   2.678   0.827  17.472  0.1391 -0.0440  0.4479
  688MPD2    C410228   2.710   0.964  17.507 -0.0289 -0.5705  0.4450
  688MPD2    C510229   2.638   1.034  17.592 -0.3904  0.5386 -0.5232
  688MPD2     H10230   2.564   0.659  17.541  0.5117 -0.1374 -2.0284
  688MPD2    H110231   2.796   1.016  17.466 -0.2426  1.5896  2.7623
  688MPD2    H210232   2.499   1.040  17.732  0.6701  0.7046  1.0011
  688MPD2    H310233   2.661   1.138  17.610  2.4361 -0.0844 -0.5503
  688MPD2     N10234   2.759   0.767  17.378 -0.3412 -0.4325 -0.4475
  688MPD2    H510235   2.801   0.832  17.312  1.9606  0.6220  2.0433
  688MPD2    N110236   2.408   0.783  17.720 -0.0988  0.3008 -0.8835
  688MPD2    H710237   2.400   0.682  17.726  5.1361 -0.0987 -1.1437
  689TMC3    C110238   2.257   0.761   0.149  0.8039  0.1368 -0.0381
  689TMC3    C210239   2.191   0.818   0.252  0.1394  0.1842  0.0955
  689TMC3    C310240   2.092   0.758   0.319  0.4462 -0.4212 -0.0584
  689TMC3    C410241   2.220   0.641   0.102 -0.0715 -0.0290  0.2634
  689TMC3    C510242   2.131   0.567   0.180 -0.0602  0.1942  0.1700
  689TMC3    C610243   2.064   0.628   0.289  0.4859  0.5129 -0.3874
  689TMC3     C10244   2.338   0.849   0.071 -0.5277  0.4971 -0.9234
  689TMC3     O10245   2.331   0.969   0.099  0.0191  0.0540 -0.8599
  689TMC3     H10246   2.223   0.917   0.284 -0.5982  0.5311 -0.2391
  689TMC3    H110247   2.287   0.579   0.044  0.7365  2.4726 -1.4906
  689TMC3    H210248   1.998   0.570   0.352  0.7364 -0.0206 -0.6228
  689TMC3    C710249   2.168   0.429   0.205 -0.2134  0.8288  0.5905
  689TMC3    C810250   2.019   0.839   0.423 -0.7648  0.3400 -0.7880
  689TMC3    O110251   2.182   0.395   0.321 -0.1746  0.1413  0.0514
  689TMC3    O210252   2.076   0.935   0.477 -0.5037  0.2229  0.4131
  690MPD2     C10253   0.801   2.310  15.689  0.2736 -0.4596 -0.0662
  690MPD2    C110254   0.707   2.408  15.676  0.1132 -0.1913 -0.4441
  690MPD2    C210255   0.726   2.512  15.582  0.2010 -0.2289  0.3708
  690MPD2    C310256   0.833   2.509  15.503  0.0961  0.0130  0.2899
  690MPD2    C410257   0.919   2.405  15.513  0.0572 -0.3595  0.2639
  690MPD2    C510258   0.902   2.309  15.607  0.1336 -0.2108  0.0781
  690MPD2     H10259   0.660   2.598  15.575 -0.4732 -0.7042  0.9520
  690MPD2    H110260   1.005   2.403  15.448 -0.1545  0.5075 -0.0388
  690MPD2    H210261   0.785   2.229  15.760 -1.2769 -0.0470  0.0564
  690MPD2    H310262   0.978   2.232  15.614  0.9411  0.3075 -2.9503
  690MPD2     N10263   0.863   2.623  15.417  0.3190  0.1598  0.0303
  690MPD2    H510264   0.806   2.706  15.431 -0.7435 -0.4849 -0.4485
  690MPD2    N110265   0.593   2.414  15.761  0.4386 -0.6779  0.4744
  690MPD2    H710266   0.535   2.497  15.754  1.5507  0.2285  1.9250
  691TMC3    C110267   0.416   2.340  15.888  0.6198  0.2118  0.6865
  691TMC3    C210268   0.342   2.366  15.783  0.5946  0.0104  0.2554
  691TMC3    C310269   0.207   2.372  15.820 -0.1007  0.5734  0.1162
  691TMC3    C410270   0.378   2.305  16.015 -0.1774 -0.8300  0.2484
  691TMC3    C510271   0.247   2.301  16.036 -0.4486 -0.4642 -0.4388
  691TMC3    C610272   0.156   2.342  15.944 -0.1259  0.2827  0.0113
  691TMC3     C10273   0.552   2.315  15.850  1.5742  0.5587  0.5027
  691TMC3     O10274   0.606   2.218  15.896 -0.4922  0.1585 -0.0291
  691TMC3     H10275   0.373   2.382  15.680  1.4559 -0.7288  0.3986
  691TMC3    H110276   0.454   2.264  16.081 -1.3510 -0.7683  1.6410
  691TMC3    H210277   0.053   2.344  15.976  0.1877 -3.3627  1.2933
  691TMC3    C710278   0.210   2.261  16.166 -0.2895  0.6035  0.0460
  691TMC3    C810279   0.131   2.455  15.730 -0.1106 -0.7458 -0.4441
  691TMC3    O110280   0.276   2.307  16.258 -0.2287  0.0653  0.3041
  691TMC3    O210281   0.177   2.469  15.618  0.0043 -0.1155 -0.1085
  692TMC3    C110282   1.757   3.654  15.971 -0.4321  0.2624  0.8252
  692TMC3    C210283   1.856   3.644  16.067  0.4331  0.3165 -0.0064
  692TMC3    C310284   1.970   3.581  16.029  0.5617 -0.1992 -0.0248
  692TMC3    C410285   1.755   3.584  15.852 -0.2144  0.6080  0.7637
  692TMC3    C510286   1.865   3.512  15.826 -0.3100  0.1380  0.2977
  692TMC3    C610287   1.968   3.509  15.915 -0.1776 -0.0451  0.2845
  692TMC3     C10288   1.668   3.768  15.988  0.5470 -0.0025 -0.0935
  692TMC3     O10289   1.565   3.766  15.921  0.0993 -0.2108  0.1267
  692TMC3     H10290   1.860   3.705  16.156 -0.4058  0.6159 -0.1741
  692TMC3    H110291   1.670   3.576  15.786  0.0951 -1.8631  0.6566
  692TMC3    H210292   2.062   3.467  15.879  0.1194 -1.0604  2.2693
  692TMC3    C710293   1.825   3.381  15.786  0.1082  0.0358  0.2476
  692TMC3    C810294   2.017   3.494  16.126  0.4013 -0.5230  0.1871
  692TMC3    O110295   1.754   3.369  15.688 -0.0418  0.1338  0.0687
  692TMC3    O210296   2.052   3.382  16.089  0.0077  0.4494  0.7880
  693MPD2     C10297   1.670   1.893  10.595  0.1393  0.0173 -0.1449
  693MPD2    C110298   1.614   1.846  10.712  0.4658  0.2852  0.5829
  693MPD2    C210299   1.696   1.824  10.820 -0.3869 -1.5412  0.3440
  693MPD2    C310300   1.831   1.844  10.812  0.2168 -0.6003  0.3364
  693MPD2    C410301   1.889   1.902  10.703  0.5693 -0.5982  0.1796
  693MPD2    C510302   1.802   1.925  10.593 -0.1486  0.6976  0.4337
  693MPD2     H10303   1.658   1.764  10.902 -0.0522 -1.8923  0.2439
  693MPD2    H110304   1.994   1.922  10.689  0.0662  0.4471 -2.1419
  693MPD2    H210305   1.613   1.925  10.509 -1.9244  1.4406  1.7653
  693MPD2    H310306   1.850   1.984  10.516  0.2541 -0.9461 -0.5782
  693MPD2     N10307   1.905   1.807  10.927  0.0866  0.1569  1.0546
  693MPD2    H510308   1.855   1.770  11.008  0.9015 -0.3114  1.3360
  693MPD2    N110309   1.476   1.829  10.717  0.1463 -0.1203 -0.0039
  693MPD2    H710310   1.428   1.824  10.807 -1.4148  0.2239 -0.8256
  694TMC3    C110311   1.265   1.774  10.656  0.2320 -0.4527 -1.3048
  694TMC3    C210312   1.200   1.671  10.603 -0.7750 -0.0761  0.2097
  694TMC3    C310313   1.113   1.604  10.680  0.6895 -0.1725 -0.7085
  694TMC3    C410314   1.234   1.818  10.780  0.2074 -0.1702 -0.1369
  694TMC3    C510315   1.130   1.757  10.853  0.3695  0.7101  0.9391
  694TMC3    C610316   1.075   1.640  10.804 -0.1690  0.4143  0.1319
  694TMC3     C10317   1.396   1.806  10.609  0.5079 -0.0738 -0.7363
  694TMC3     O10318   1.425   1.789  10.493  0.2737  0.0797 -0.1455
  694TMC3     H10319   1.206   1.647  10.498  1.1683 -1.6383  0.6842
  694TMC3    H110320   1.264   1.921  10.798  0.2057  0.4630 -3.6967
  694TMC3    H210321   1.001   1.579  10.855 -0.3116  0.4920  0.0203
  694TMC3    C710322   1.090   1.808  10.976  0.5893 -0.3111 -0.0056
  694TMC3    C810323   1.044   1.488  10.625  0.6671 -1.0088  0.5811
  694TMC3    O110324   1.105   1.929  10.983  0.4643  0.1684  0.3123
  694TMC3    O210325   0.930   1.482  10.667 -0.2517 -0.4096 -0.2221
  695MPD2     C10326   2.593   3.524  13.852 -0.1373 -0.9088 -0.3621
  695MPD2    C110327   2.545   3.437  13.953 -0.3352  0.4647 -0.0431
  695MPD2    C210328   2.414   3.393  13.957 -0.1333  0.8522  0.1871
  695MPD2    C310329   2.325   3.435  13.851  0.2065  0.2151  0.3111
  695MPD2    C410330   2.365   3.519  13.750 -0.2405 -0.3327  0.0853
  695MPD2    C510331   2.498   3.568  13.759  0.0672  0.5522  0.1774
  695MPD2     H10332   2.381   3.321  14.032  0.2486 -0.0028 -0.4714
  695MPD2    H110333   2.303   3.572  13.678 -0.8338  0.6824  1.3452
  695MPD2    H210334   2.693   3.567  13.846 -0.3925 -0.3468 -0.6527
  695MPD2    H310335   2.530   3.653  13.700  0.6888 -0.5519 -1.0895
  695MPD2     N10336   2.188   3.402  13.857 -0.3340 -0.4024  0.2079
  695MPD2    H510337   2.157   3.354  13.941  1.8250 -1.0698  0.6236
  695MPD2    N110338   2.628   3.398  14.062  0.3755  0.4738 -0.3984
  695MPD2    H710339   2.592   3.326  14.124  1.6972 -0.6102 -0.8846
  696TMC3    C110340   1.957   3.392  13.809 -0.2661  0.4013 -0.5322
  696TMC3    C210341   1.941   3.313  13.918  0.7835  0.6047  0.0908
  696TMC3    C310342   1.813   3.333  13.980 -0.0161  0.0882  0.0086
  696TMC3    C410343   1.856   3.462  13.754  0.2460  0.8179 -0.3221
  696TMC3    C510344   1.741   3.478  13.817 -0.4673  0.8153  0.7478
  696TMC3    C610345   1.720   3.417  13.934 -0.1390  0.1082  0.1176
  696TMC3     C10346   2.087   3.431  13.764 -0.0138  0.1961 -0.4024
  696TMC3     O10347   2.095   3.484  13.649 -0.2900  0.2363  0.1530
  696TMC3     H10348   2.008   3.242  13.963 -0.0425  0.0085  0.3770
  696TMC3    H110349   1.889   3.539  13.686  1.5749 -1.8818 -2.7082
  696TMC3    H210350   1.636   3.453  13.992  1.4407  1.7256  1.4043
  696TMC3    C710351   1.673   3.600  13.780 -0.8148 -0.0110 -0.2566
  696TMC3    C810352   1.804   3.292  14.122  0.3784  0.0959  0.6871
  696TMC3    O110353   1.677   3.626  13.658 -0.1037  0.0004  0.3380
  696TMC3    O210354   1.915   3.281  14.176 -0.4988  0.3499  0.3936
  697MPD2     C10355   1.752   0.828  15.705  0.1822 -0.1938  0.0734
  697MPD2    C110356   1.708   0.745  15.599 -0.2688  0.0662 -0.0804
  697MPD2    C210357   1.651   0.803  15.492  0.3912 -0.0090  0.3770
  697MPD2    C310358   1.648   0.939  15.474 -0.0032 -0.1268  0.1512
  697MPD2    C410359   1.688   1.024  15.577  0.7795 -0.2873 -0.2727
  697MPD2    C510360   1.733   0.963  15.693 -0.1934 -0.6479 -0.1542
  697MPD2     H10361   1.617   0.738  15.412 -0.3084  1.1111 -0.2454
  697MPD2    H110362   1.674   1.131  15.570  3.3503  0.0593 -0.0194
  697MPD2    H210363   1.800   0.792  15.795 -0.9081 -1.7154  0.0475
  697MPD2    H310364   1.769   1.028  15.771 -1.6046  1.1987 -1.0280
  697MPD2     N10365   1.603   0.988  15.347 -0.4427 -0.4690 -0.1262
  697MPD2    H510366   1.592   0.926  15.267  1.1526 -0.1226 -0.6116
  697MPD2    N110367   1.704   0.601  15.604 -0.2847 -1.1052 -0.0631
  697MPD2    H710368   1.668   0.548  15.525  0.4450 -1.3512 -0.2342
  698TMC3    C110369   1.546   1.125  15.172 -0.5718 -0.0660 -0.0845
  698TMC3    C210370   1.607   1.214  15.092  0.1951 -0.1107  0.3331
  698TMC3    C310371   1.573   1.201  14.956 -0.1945 -0.6012  0.7687
  698TMC3    C410372   1.451   1.039  15.129  0.0993  0.0870  0.1244
  698TMC3    C510373   1.411   1.039  14.998  0.1256  0.3045  0.0917
  698TMC3    C610374   1.479   1.108  14.902 -0.1635 -0.5109  0.4745
  698TMC3     C10375   1.601   1.117  15.310  0.7956 -0.3530  0.3465
  698TMC3     O10376   1.664   1.211  15.359  0.1363 -0.2290  0.5293
  698TMC3     H10377   1.697   1.258  15.134 -0.2420  0.1595  0.9935
  698TMC3    H110378   1.394   0.988  15.206  0.3680 -0.1718  0.1508
  698TMC3    H210379   1.454   1.120  14.797  0.1085  0.5729  0.5341
  698TMC3    C710380   1.307   0.963  14.946  0.5671  0.5165  0.3761
  698TMC3    C810381   1.675   1.237  14.856 -0.4209 -0.5285 -0.2265
  698TMC3    O110382   1.231   0.910  15.034 -0.6825  0.4262 -0.0236
  698TMC3    O210383   1.651   1.206  14.740  0.2873  0.4134 -0.0034
  699TMC3    C110384   1.969   3.468  13.320  0.8640  0.3668 -0.0530
  699TMC3    C210385   2.020   3.353  13.365  0.3486 -0.0234 -0.3786
  699TMC3    C310386   1.937   3.269  13.431  0.0395  0.2113  0.1180
  699TMC3    C410387   1.832   3.496  13.337 -1.0539 -0.0006 -0.8702
  699TMC3    C510388   1.761   3.410  13.420 -0.3087  0.4508 -0.0801
  699TMC3    C610389   1.802   3.287  13.462  0.2072  0.4436  0.0472
  699TMC3     C10390   2.045   3.551  13.224 -0.3977 -0.8543  0.3037
  699TMC3     O10391   1.981   3.601  13.133 -0.0596 -0.5854 -0.0864
  699TMC3     H10392   2.127   3.339  13.357  0.9121  1.7986  4.1366
  699TMC3    H110393   1.787   3.581  13.288  2.2289  1.9219 -0.5651
  699TMC3    H210394   1.739   3.222  13.520  0.9721  0.3686  0.7942
  699TMC3    C710395   1.624   3.428  13.445 -1.0438  0.1701 -0.2058
  699TMC3    C810396   1.990   3.156  13.504  0.0825  0.5377  0.0686
  699TMC3    O110397   1.566   3.378  13.537 -0.0712 -0.2148 -0.8171
  699TMC3    O210398   1.914   3.060  13.528 -0.1703 -0.2852 -0.2787
  700TMC3    C110399   0.301   0.887  17.013 -0.4524  0.6767 -0.2553
  700TMC3    C210400   0.413   0.815  16.990 -0.1595  0.1154 -0.5368
  700TMC3    C310401   0.413   0.685  17.050  0.2014  0.4930  0.1502
  700TMC3    C410402   0.190   0.841  17.088 -0.2900  0.4719 -0.3102
  700TMC3    C510403   0.209   0.731  17.169  0.0457  0.6944  0.0509
  700TMC3    C610404   0.312   0.645  17.139 -0.3246 -0.0480 -0.0163
  700TMC3     C10405   0.295   1.023  16.961  0.3711  0.5353 -0.7209
  700TMC3     O10406   0.184   1.074  16.959 -0.0057 -0.0019 -0.3376
  700TMC3     H10407   0.498   0.840  16.928  0.1487 -0.4302 -0.3342
  700TMC3    H110408   0.110   0.910  17.112  1.7840  2.5487  0.6205
  700TMC3    H210409   0.324   0.561  17.205 -1.2553  0.8809  1.3389
  700TMC3    C710410   0.235   0.767  17.302  0.2051 -0.3811  0.4392
  700TMC3    C810411   0.539   0.629  17.097 -0.0812  0.2023 -0.2236
  700TMC3    O110412   0.349   0.750  17.337 -0.4498  0.1438  0.0980
  700TMC3    O210413   0.563   0.512  17.079 -0.1836  0.3169 -0.1289
  701TMC3    C110414   1.298   4.656  15.333 -0.0728  0.3865 -0.3045
  701TMC3    C210415   1.266   4.684  15.201  0.4509 -0.2579  0.2732
  701TMC3    C310416   1.226   0.072  15.173 -0.4008  0.2570  0.0331
  701TMC3    C410417   1.294   0.011  15.430 -0.7757  0.8120  0.2269
  701TMC3    C510418   1.267   0.138  15.393 -0.0426 -0.2829  0.0029
  701TMC3    C610419   1.226   0.167  15.268  0.1734 -0.0731  0.4972
  701TMC3     C10420   1.355   4.527  15.356 -0.1849 -0.0849 -0.1775
  701TMC3     O10421   1.320   4.446  15.273  0.3657 -0.1682  0.4215
  701TMC3     H10422   1.270   4.608  15.123  0.4399  0.4573 -0.4174
  701TMC3    H110423   1.327   4.723  15.531 -0.3743  2.8774  0.5923
  701TMC3    H210424   1.191   0.267  15.246  0.7530  0.3967  1.6705
  701TMC3    C710425   1.250   0.234  15.499  0.3059  0.7241  0.9805
  701TMC3    C810426   1.139   0.098  15.060 -0.2857  0.2679 -0.0225
  701TMC3    O110427   1.257   0.354  15.464  0.3631 -0.0797  0.1433
  701TMC3    O210428   1.108   0.214  15.041 -0.2929 -0.5971 -0.3389
  702MPD2     C10429   0.927   2.562  10.425 -0.1579 -0.0200  0.6811
  702MPD2    C110430   0.796   2.530  10.451  0.8610 -0.0975 -0.6307
  702MPD2    C210431   0.700   2.583  10.361 -0.0316 -0.1416  0.1578
  702MPD2    C310432   0.735   2.697  10.298  0.1546  0.7381  0.7606
  702MPD2    C410433   0.869   2.723  10.276  0.4906  0.6747  0.1679
  702MPD2    C510434   0.965   2.650  10.334 -0.3332  0.8897 -0.1684
  702MPD2     H10435   0.595   2.561  10.376  0.0258  0.8605  2.0967
  702MPD2    H110436   0.901   2.813  10.224 -0.4743  2.1430  2.0946
  702MPD2    H210437   1.006   2.532  10.494  0.2657 -0.4643  0.0027
  702MPD2    H310438   1.068   2.679  10.318  0.1856 -0.2432  1.1441
  702MPD2     N10439   0.632   2.790  10.289 -0.3272 -0.0346 -0.2640
  702MPD2    H510440   0.541   2.751  10.311 -1.1618  2.4400  0.6727
  702MPD2    N110441   0.743   2.465  10.565  0.1586 -0.4895  1.3727
  702MPD2    H710442   0.644   2.445  10.567  0.0840 -0.2177  0.5955
  703TMC3    C110443   0.541   2.996  10.358 -0.9957 -0.2267 -0.9472
  703TMC3    C210444   0.469   2.910  10.437 -0.0786 -0.6716 -0.3493
  703TMC3    C310445   0.439   2.948  10.567 -0.9742 -0.3453 -0.0525
  703TMC3    C410446   0.576   3.119  10.406  0.2373  0.2789  0.1231
  703TMC3    C510447   0.549   3.147  10.537 -0.6859 -0.2524  0.2284
  703TMC3    C610448   0.486   3.062  10.621 -0.5989 -0.1847 -0.5278
  703TMC3     C10449   0.640   2.925  10.281 -0.2145 -0.9535 -0.6489
  703TMC3     O10450   0.733   2.996  10.237 -0.4840  0.3906  1.1861
  703TMC3     H10451   0.418   2.823  10.397  0.4152 -1.2263  0.2319
  703TMC3    H110452   0.656   3.171  10.353  1.1077  0.6569  1.8145
  703TMC3    H210453   0.483   3.093  10.725  0.4913 -1.6104 -0.0673
  703TMC3    C710454   0.648   3.230  10.589 -0.1179 -0.2546 -0.0911
  703TMC3    C810455   0.364   2.851  10.652  0.4714 -0.4193  0.0548
  703TMC3    O110456   0.764   3.213  10.551  1.0013  0.3523 -0.2525
  703TMC3    O210457   0.304   2.765  10.592 -0.3218 -0.0602 -0.0376
  704TMC3    C110458   3.010   0.450  12.944  1.2951  0.5398 -0.0068
  704TMC3    C210459   3.117   0.412  12.867 -0.3855 -0.4105 -0.2374
  704TMC3    C310460   3.215   0.336  12.927 -0.0136  0.5370  0.0591
  704TMC3    C410461   2.998   0.407  13.073  0.4318  0.3854  0.5779
  704TMC3    C510462   3.096   0.324  13.118 -0.4077 -0.0072 -0.5377
  704TMC3    C610463   3.206   0.286  13.054  0.3523  0.3816  0.1080
  704TMC3     C10464   2.882   0.479  12.873  0.3306  0.9575 -0.3903
  704TMC3     O10465   2.783   0.488  12.946 -0.6669  0.4062  0.3801
  704TMC3     H10466   3.121   0.435  12.761 -0.6257 -0.5342 -0.2723
  704TMC3    H110467   2.914   0.435  13.136 -1.4045 -0.1602 -1.6158
  704TMC3    H210468   3.271   0.218  13.108  1.9946 -1.5139 -4.2617
  704TMC3    C710469   3.046   0.237  13.225  0.3771  0.1118 -0.4156
  704TMC3    C810470   3.307   0.283  12.834  0.0993 -0.6095 -0.4304
  704TMC3    O110471   2.971   0.278  13.312  0.5666 -0.0284  0.2341
  704TMC3    O210472   3.285   0.315  12.719  0.4641 -0.6869 -0.2142
  705MPD2     C10473   2.267   3.028  16.835  0.2108  0.4140 -0.8342
  705MPD2    C110474   2.263   3.163  16.853  0.3013  0.2746  0.2462
  705MPD2    C210475   2.158   3.219  16.915 -0.5684  0.0368 -0.3721
  705MPD2    C310476   2.043   3.145  16.948 -0.3243  0.4184 -0.7903
  705MPD2    C410477   2.041   3.014  16.927 -0.0924  0.3300 -0.1262
  705MPD2    C510478   2.157   2.956  16.872  0.3545  0.2505  0.2060
  705MPD2     H10479   2.159   3.325  16.940 -1.1955  0.4740 -2.1672
  705MPD2    H110480   1.963   2.943  16.953 -1.2230  2.6917  2.9120
  705MPD2    H210481   2.347   2.983  16.779 -0.8302 -1.5313 -0.7395
  705MPD2    H310482   2.153   2.853  16.837  2.1081 -0.7039  2.7988
  705MPD2     N10483   1.918   3.196  17.001 -0.1892  0.0670  0.1689
  705MPD2    H510484   1.847   3.127  17.023  0.3613  0.4864  3.2752
  705MPD2    N110485   2.368   3.249  16.823  0.6959 -0.5716 -0.1344
  705MPD2    H710486   2.352   3.349  16.838  1.7868 -0.3493 -0.4423
  706TMC3    C110487   2.733   3.323  16.556  0.4680  0.4355 -0.4773
  706TMC3    C210488   2.676   3.434  16.504  0.2227  0.3659 -0.2519
  706TMC3    C310489   2.568   3.490  16.570  0.1645 -0.5037 -0.1919
  706TMC3    C410490   2.685   3.264  16.673 -0.7484  0.6764  0.1442
  706TMC3    C510491   2.576   3.316  16.736  0.7191  0.2676 -0.3967
  706TMC3    C610492   2.522   3.433  16.689  0.9238  0.3938  0.1234
  706TMC3     C10493   2.820   3.241  16.480 -0.0231 -0.6809 -0.3397
  706TMC3     O10494   2.887   3.167  16.549  0.3921 -0.3028  0.5706
  706TMC3     H10495   2.701   3.471  16.405 -1.3450 -0.2743 -0.8746
  706TMC3    H110496   2.724   3.170  16.709 -1.4558  0.5172  0.4949
  706TMC3    H210497   2.426   3.465  16.728  0.5709  0.6807 -0.9696
  706TMC3    C710498   2.484   3.208  16.762 -0.0847  0.2794  0.4540
  706TMC3    C810499   2.506   3.613  16.521 -0.4710  0.5638  0.0045
  706TMC3    O110500   2.511   3.098  16.712 -0.1528 -0.9486  0.5376
  706TMC3    O210501   2.527   3.646  16.406  0.0839 -0.1425  0.9171
  707TMC3    C110502   3.170   2.726   1.463  0.5398  0.1040 -0.4146
  707TMC3    C210503   3.185   2.617   1.383 -0.2286 -0.1018 -0.2853
  707TMC3    C310504   3.116   2.628   1.268  0.0836 -0.0837  0.2933
  707TMC3    C410505   3.087   2.834   1.430 -0.2811  0.5793 -0.2648
  707TMC3    C510506   3.025   2.838   1.308 -0.4645  0.6758 -0.2810
  707TMC3    C610507   3.045   2.738   1.226  0.2384  0.8400  0.0132
  707TMC3     C10508   3.275   2.738   1.566 -0.0311 -0.4080 -0.5428
  707TMC3     O10509   3.344   2.642   1.583  0.4024  0.1924 -0.3269
  707TMC3     H10510   3.261   2.542   1.395 -2.0241 -1.8795  0.0098
  707TMC3    H110511   3.065   2.910   1.505 -2.2185  1.3137 -1.5774
  707TMC3    H210512   3.001   2.739   1.127  0.6550  3.0885 -0.1418
  707TMC3    C710513   2.926   2.936   1.277 -0.3240 -0.1567 -0.2121
  707TMC3    C810514   3.139   2.530   1.162 -0.0032  0.3762  0.2800
  707TMC3    O110515   2.867   2.910   1.175  0.2494 -0.9685  0.0046
  707TMC3    O210516   3.053   2.521   1.075 -0.1808 -0.0241  0.1744
  708MPD2     C10517   0.758   1.177  14.191  0.1222  0.1030 -0.0548
  708MPD2    C110518   0.790   1.280  14.102  0.0425  0.5801 -1.2894
  708MPD2    C210519   0.735   1.404  14.124  0.4833 -0.3914 -0.3587
  708MPD2    C310520   0.635   1.428  14.219  0.0868 -0.0922  0.5154
  708MPD2    C410521   0.602   1.325  14.309 -0.4162 -0.5521 -0.0643
  708MPD2    C510522   0.654   1.201  14.279 -0.2816  0.5831 -0.6042
  708MPD2     H10523   0.780   1.481  14.062  0.8755  0.6777  1.2282
  708MPD2    H110524   0.519   1.328  14.379  0.7099 -0.0186  1.2459
  708MPD2    H210525   0.796   1.078  14.169  0.4258 -0.3062  2.2664
  708MPD2    H310526   0.622   1.121  14.345 -1.9203  1.6147 -0.1252
  708MPD2     N10527   0.585   1.565  14.238 -0.6404 -0.4042 -0.0623
  708MPD2    H510528   0.636   1.633  14.182 -0.2879 -1.7036 -1.3125
  708MPD2    N110529   0.889   1.271  14.000  0.2126  0.6415  0.3973
  708MPD2    H710530   0.899   1.349  13.936  0.8204 -1.1794 -1.7329
  709TMC3    C110531   1.069   1.203  13.878 -0.4884  0.4624  0.3494
  709TMC3    C210532   1.086   1.124  13.767 -0.8130  0.0723 -0.1381
  709TMC3    C310533   1.143   1.186  13.661  0.0510  0.8580 -0.0860
  709TMC3    C410534   1.118   1.333  13.887 -0.0275  0.6964  0.7984
  709TMC3    C510535   1.180   1.386  13.776  0.5738  0.5152 -0.1311
  709TMC3    C610536   1.187   1.313  13.660 -0.1199  0.4120 -0.0428
  709TMC3     C10537   0.965   1.166  13.976 -0.4883 -0.3078 -0.9676
  709TMC3     O10538   0.963   1.059  14.033  0.0500  0.3465 -0.7220
  709TMC3     H10539   1.048   1.023  13.765 -0.5701 -0.0184 -0.3288
  709TMC3    H110540   1.102   1.389  13.978 -1.1677  3.9136 -1.3697
  709TMC3    H210541   1.242   1.351  13.574  0.7102  1.0188  0.7569
  709TMC3    C710542   1.204   1.527  13.764 -0.9820 -0.6911  0.0697
  709TMC3    C810543   1.119   1.122  13.535  0.2046 -0.6698 -0.1186
  709TMC3    O110544   1.259   1.573  13.666 -0.6182  0.5944 -0.1566
  709TMC3    O210545   1.108   1.001  13.541 -0.0236  0.3740  0.1742
  710TMC3    C110546   1.911   3.336   0.406  0.2492 -0.2391  0.5898
  710TMC3    C210547   2.028   3.302   0.346 -0.1882 -0.1740 -0.4772
  710TMC3    C310548   2.118   3.231   0.425 -0.1568 -0.2523 -0.2009
  710TMC3    C410549   1.887   3.317   0.543  0.5909  0.3976 -0.0159
  710TMC3    C510550   1.985   3.254   0.611 -0.0569  0.4529  0.0959
  710TMC3    C610551   2.098   3.204   0.557 -0.5812 -0.1519  0.1382
  710TMC3     C10552   1.798   3.383   0.324 -0.0601 -0.3853 -0.2666
  710TMC3     O10553   1.794   3.354   0.204 -0.4260  0.5200  0.1049
  710TMC3     H10554   2.042   3.310   0.239  0.0850 -0.3404 -0.4535
  710TMC3    H110555   1.788   3.328   0.586  0.5538  3.1916 -0.7833
  710TMC3    H210556   2.171   3.159   0.623 -1.4359 -1.7726 -0.0194
  710TMC3    C710557   1.955   3.210   0.741 -0.7266 -0.2441  0.0260
  710TMC3    C810558   2.211   3.154   0.348  0.5653 -1.2445  0.1389
  710TMC3    O110559   2.022   3.114   0.788 -0.4981  0.2043  0.4839
  710TMC3    O210560   2.200   3.154   0.229 -0.2555  0.0013 -0.4409
  711TMC3    C110561   1.443   4.004  15.236 -0.1713  0.4860  0.0617
  711TMC3    C210562   1.521   4.116  15.256  1.1838 -0.8365  0.1833
  711TMC3    C310563   1.633   4.101  15.339 -0.0987 -0.0765  0.6264
  711TMC3    C410564   1.474   3.886  15.295  0.0487 -0.3501  0.1050
  711TMC3    C510565   1.583   3.876  15.376  0.5111 -0.0856 -0.3018
  711TMC3    C610566   1.668   3.986  15.405  0.4464 -0.3696  0.3500
  711TMC3     C10567   1.316   4.016  15.159  0.0022  0.5158 -0.2973
  711TMC3     O10568   1.266   3.905  15.150 -0.2675  0.3539 -0.4691
  711TMC3     H10569   1.507   4.206  15.198 -0.4987 -0.6616  0.8491
  711TMC3    H110570   1.411   3.799  15.279 -0.4510  0.6380 -3.3785
  711TMC3    H210571   1.758   3.973  15.464  0.0322 -0.1743  1.0275
  711TMC3    C710572   1.633   3.742  15.410  0.0318  0.5731 -0.5100
  711TMC3    C810573   1.713   4.223  15.365  0.0319 -0.2673 -0.4261
  711TMC3    O110574   1.730   3.733  15.487  0.2723 -0.2358 -0.5099
  711TMC3    O210575   1.715   4.321  15.289  0.2508 -0.3809 -0.1498
  712MPD2     C10576   2.974   0.408  14.183 -0.0262 -0.2398  0.1711
  712MPD2    C110577   2.915   0.477  14.075  0.2198  0.2853 -0.0882
  712MPD2    C210578   2.976   0.586  14.017  0.4358  1.2221  0.3507
  712MPD2    C310579   3.102   0.625  14.059  0.3700 -0.1472  0.3143
  712MPD2    C410580   3.158   0.563  14.164  1.1352 -0.6380 -0.5411
  712MPD2    C510581   3.101   0.452  14.224  0.2917  0.3871 -0.6755
  712MPD2     H10582   2.923   0.631  13.934  0.7025 -0.0839 -0.5273
  712MPD2    H110583   3.255   0.597  14.196  0.2164 -0.3182  1.9138
  712MPD2    H210584   2.930   0.315  14.218  0.9448 -0.5202  0.6571
  712MPD2    H310585   3.151   0.392  14.299 -2.6513 -2.6895 -1.2137
  712MPD2     N10586   3.163   0.737  14.003  0.4076 -0.4192  0.3732
  712MPD2    H510587   3.263   0.748  14.017  0.4884 -0.3450 -0.2876
  712MPD2    N110588   2.783   0.454  14.030 -0.2933 -0.5890 -0.5942
  712MPD2    H710589   2.755   0.497  13.942  2.1905  0.9557 -0.6414
  713TMC3    C110590   3.166   0.937  13.880 -0.0588  0.2396  0.6235
  713TMC3    C210591   3.293   0.912  13.832 -0.4828 -0.2124 -0.1088
  713TMC3    C310592   3.360   1.013  13.774 -0.2667  0.5587 -0.0796
  713TMC3    C410593   3.095   1.051  13.842 -0.2611  0.4448 -1.0054
  713TMC3    C510594   3.169   1.141  13.775 -0.0775  0.0139  0.7946
  713TMC3    C610595   3.303   1.134  13.747  0.6056 -0.6234  0.7905
  713TMC3     C10596   3.088   0.843  13.957 -0.0794  0.0090  0.1239
  713TMC3     O10597   2.967   0.870  13.965  0.4280 -0.0065 -0.7121
  713TMC3     H10598   3.336   0.815  13.857  0.2578  0.5226  1.4346
  713TMC3    H110599   2.993   1.068  13.875  0.4523  2.7550 -0.0151
  713TMC3    H210600   3.349   1.213  13.690  1.1830 -1.4198  0.1573
  713TMC3    C710601   3.092   1.232  13.697 -0.7659 -0.5047 -0.0853
  713TMC3    C810602   3.492   0.996  13.718  0.6059  0.0435 -0.1512
  713TMC3    O110603   3.150   1.276  13.598 -0.8488 -0.5706  0.0895
  713TMC3    O210604   3.518   1.066  13.622 -0.1259 -0.5919 -0.2044
  714MPD2     C10605   4.726   4.294   1.088  0.1969  0.3808  0.4193
  714MPD2    C110606   0.041   4.172   1.050 -0.3568 -0.0967  0.2266
  714MPD2    C210607   4.692   4.060   1.042 -0.0444  0.2308 -0.7339
  714MPD2    C310608   4.563   4.074   1.088 -0.2473  0.1265  0.6164
  714MPD2    C410609   4.515   4.193   1.139 -0.0335  0.1097  0.0527
  714MPD2    C510610   4.597   4.306   1.136 -0.6342 -0.7393 -0.1058
  714MPD2     H10611   4.711   3.963   0.998 -3.6859 -0.6393 -0.4036
  714MPD2    H110612   4.411   4.207   1.169 -0.4425  1.7509 -2.1759
  714MPD2    H210613   0.050   4.383   1.088 -1.2533  1.3766 -1.3892
  714MPD2    H310614   4.557   4.402   1.165  0.1936 -0.0834 -1.1290
  714MPD2     N10615   4.469   3.967   1.076  0.4360 -0.3410 -0.4896
  714MPD2    H510616   4.507   3.873   1.064  0.4315 -0.4131  0.0722
  714MPD2    N110617   0.183   4.178   1.022  0.3936  0.4099  0.1508
  714MPD2    H710618   0.235   4.265   1.033 -1.2840  1.5015 -0.6689
  715TMC3    C110619   0.388   4.096   0.937 -0.1013 -0.1728 -0.2453
  715TMC3    C210620   0.470   3.985   0.925 -0.1097  0.3544  0.1055
  715TMC3    C310621   0.606   4.005   0.914 -0.2775 -0.5852 -0.5570
  715TMC3    C410622   0.436   4.226   0.944  0.8498  0.0485 -0.5718
  715TMC3    C510623   0.572   4.239   0.931 -0.0654  0.0956 -0.0885
  715TMC3    C610624   0.660   4.131   0.916 -0.3020 -0.2074  0.0550
  715TMC3     C10625   0.247   4.064   0.974  0.1840  0.2095 -0.1777
  715TMC3     O10626   0.216   3.945   0.958 -0.0171 -0.1059 -0.1414
  715TMC3     H10627   0.428   3.885   0.928 -1.6119  0.9346 -1.5329
  715TMC3    H110628   0.373   4.314   0.948 -0.0882 -0.7899  2.8621
  715TMC3    H210629   0.767   4.148   0.925 -0.1177  0.5182 -3.6024
  715TMC3    C710630   0.634   4.365   0.961  0.2730 -0.6566  0.9501
  715TMC3    C810631   0.692   3.893   0.919 -0.7545  0.5082  0.1215
  715TMC3    O110632   0.757   4.366   0.966  0.6354  0.1213  0.0262
  715TMC3    O210633   0.637   3.784   0.938 -0.1202 -0.1513 -0.3483
  716MPD2     C10634   0.906   2.860   9.945 -0.7588  0.6820  1.6621
  716MPD2    C110635   0.799   2.834   9.865 -0.0854  0.7815  0.2222
  716MPD2    C210636   0.787   2.705   9.816  0.1966  0.2128  0.4040
  716MPD2    C310637   0.885   2.608   9.845 -0.1796 -0.2199  0.0220
  716MPD2    C410638   0.988   2.638   9.932  0.3318  0.1697  0.0196
  716MPD2    C510639   0.994   2.761   9.984  0.4926  0.7543 -0.8079
  716MPD2     H10640   0.696   2.682   9.761  0.3501 -2.4589  1.2686
  716MPD2    H110641   1.059   2.560   9.959  0.1849  0.8348  2.2968
  716MPD2    H210642   0.917   2.958   9.991 -1.9027 -0.4396  4.3373
  716MPD2    H310643   1.075   2.791  10.050 -1.5057 -1.0900  2.4939
  716MPD2     N10644   0.857   2.480   9.797 -1.0118 -0.0008  0.1073
  716MPD2    H510645   0.774   2.458   9.743 -1.9885 -1.2269  2.0935
  716MPD2    N110646   0.708   2.936   9.839 -0.2110  0.0574  0.7635
  716MPD2    H710647   0.713   3.020   9.895  1.0616  1.4252 -1.3759
  717TMC3    C110648   0.892   2.250   9.774 -0.4849  0.0199 -0.4800
  717TMC3    C210649   0.768   2.246   9.722 -0.2671  0.1497  0.2088
  717TMC3    C310650   0.693   2.137   9.743  0.1401 -0.0826 -1.1701
  717TMC3    C410651   0.951   2.147   9.840 -0.4992 -0.1890 -0.1063
  717TMC3    C510652   0.872   2.038   9.861 -0.1378  0.5768 -0.3721
  717TMC3    C610653   0.745   2.033   9.820 -0.4154  0.1242 -0.2563
  717TMC3     C10654   0.946   2.378   9.808 -0.3460  1.0381 -0.1888
  717TMC3     O10655   1.062   2.378   9.845 -0.8220  0.1753 -0.0692
  717TMC3     H10656   0.734   2.332   9.665 -0.6942  0.7670  1.3955
  717TMC3    H110657   1.053   2.159   9.876 -0.7245 -1.8156  1.0939
  717TMC3    H210658   0.674   1.960   9.857 -2.1686  2.3183  0.7184
  717TMC3    C710659   0.929   1.921   9.918 -0.4378 -0.2385 -0.6053
  717TMC3    C810660   0.564   2.124   9.666 -0.3323  0.3375  0.6799
  717TMC3    O110661   1.038   1.936   9.977  0.0470  0.4870  0.0705
  717TMC3    O210662   0.544   2.207   9.581 -0.2504 -0.1209 -0.6889
  718MPD2     C10663   4.250   1.122  12.911  0.1796 -0.4868 -0.2936
  718MPD2    C110664   4.156   1.096  12.813  0.3257 -0.4245 -0.7553
  718MPD2    C210665   4.093   0.974  12.805  0.5863  0.3118 -0.3115
  718MPD2    C310666   4.130   0.871  12.891  0.3174  0.9648  0.0260
  718MPD2    C410667   4.222   0.895  12.991 -0.0291 -0.3455  0.1521
  718MPD2    C510668   4.289   1.014  12.989 -0.1989 -0.3015 -0.0058
  718MPD2     H10669   4.011   0.958  12.736  0.7816  1.8825 -0.8965
  718MPD2    H110670   4.254   0.821  13.063 -1.6741  0.1295  1.3701
  718MPD2    H210671   4.293   1.221  12.920  1.6147 -1.1304  0.0039
  718MPD2    H310672   4.353   1.028  13.075  0.4274  1.1082 -0.7002
  718MPD2     N10673   4.063   0.747  12.875  0.5905  0.5634 -0.3076
  718MPD2    H510674   3.982   0.748  12.815  1.6570 -0.5565 -1.7656
  718MPD2    N110675   4.124   1.181  12.707 -0.4776 -0.3754  0.0947
  718MPD2    H710676   4.045   1.148  12.652 -0.3002  1.2784 -1.1497
  719TMC3    C110677   4.134   1.342  12.545 -0.4341  0.0346 -0.6013
  719TMC3    C210678   4.002   1.306  12.526 -0.1882 -0.3170  0.5553
  719TMC3    C310679   3.976   1.236  12.414 -0.2766  0.6120  0.3007
  719TMC3    C410680   4.230   1.325  12.452 -0.0973  0.9158  0.9474
  719TMC3    C510681   4.201   1.262  12.337  0.5653 -0.4363  0.7711
  719TMC3    C610682   4.072   1.216  12.318  0.1392 -0.0541  0.5982
  719TMC3     C10683   4.197   1.292  12.668 -0.3674 -0.6036  0.1833
  719TMC3     O10684   4.306   1.327  12.710  0.0892 -0.3633 -0.2553
  719TMC3     H10685   3.929   1.327  12.603 -1.4063  1.7701 -1.1922
  719TMC3    H110686   4.330   1.359  12.474  0.3468  0.1066  0.1199
  719TMC3    H210687   4.041   1.177  12.222 -0.6060  1.2128  0.3302
  719TMC3    C710688   4.310   1.235  12.249 -0.0431 -0.3505  0.1457
  719TMC3    C810689   3.900   1.121  12.452 -0.3097 -0.5235 -0.1497
  719TMC3    O110690   4.409   1.306  12.253 -0.0314  0.2852 -0.3031
  719TMC3    O210691   3.901   1.099  12.572  0.2203  0.3563  0.0397
  720MPD2     C10692   2.938   2.139  14.309 -0.8334  0.3294 -0.0696
  720MPD2    C110693   3.016   2.228  14.233 -0.2160 -0.4045 -0.2259
  720MPD2    C210694   3.134   2.276  14.281 -0.0660 -0.3683  0.0256
  720MPD2    C310695   3.177   2.236  14.407 -0.1304 -0.2123 -0.8725
  720MPD2    C410696   3.099   2.149  14.478  0.0897 -0.5327 -0.0047
  720MPD2    C510697   2.984   2.096  14.431 -0.3140  0.0754  0.4691
  720MPD2     H10698   3.195   2.347  14.227  1.0170 -1.0146  0.3782
  720MPD2    H110699   3.124   2.118  14.579 -1.4816  1.1132  0.8985
  720MPD2    H210700   2.840   2.105  14.278  0.5815 -1.6442 -2.3622
  720MPD2    H310701   2.928   2.034  14.499 -2.7814  1.1410 -0.5898
  720MPD2     N10702   3.304   2.285  14.457  0.0905  0.0850 -0.3362
  720MPD2    H510703   3.358   2.343  14.394  0.0201  0.2701 -0.2249
  720MPD2    N110704   2.973   2.269  14.110 -0.9841  0.4636 -0.5555
  720MPD2    H710705   3.021   2.352  14.077  0.1998 -0.7172 -1.8612
  721TMC3    C110706   3.482   2.332  14.592 -0.0310 -0.1905  0.0391
  721TMC3    C210707   3.503   2.390  14.712 -0.3101 -0.2200 -0.4801
  721TMC3    C310708   3.624   2.456  14.729 -0.0635 -0.5427 -0.4474
  721TMC3    C410709   3.561   2.346  14.486  0.6170 -0.3337 -0.0005
  721TMC3    C510710   3.673   2.428  14.503  0.6779  0.0710  0.0792
  721TMC3    C610711   3.709   2.487  14.626  0.4337 -0.3580  0.4883
  721TMC3     C10712   3.359   2.261  14.584 -0.1450  0.2100 -0.3189
  721TMC3     O10713   3.310   2.215  14.688  0.1443  0.7341 -0.2227
  721TMC3     H10714   3.444   2.357  14.797 -0.9274 -0.9998 -1.2058
  721TMC3    H110715   3.557   2.281  14.399  0.5845 -1.2137  0.6503
  721TMC3    H210716   3.797   2.548  14.643  0.7538 -0.7301  0.1485
  721TMC3    C710717   3.775   2.444  14.401 -0.5782 -0.3351 -0.5144
  721TMC3    C810718   3.681   2.463  14.862  0.3662  0.2818  0.2413
  721TMC3    O110719   3.859   2.530  14.417 -0.1450  0.0034 -0.1000
  721TMC3    O210720   3.800   2.468  14.866  0.4338  0.0360 -0.2071
  722MPD2     C10721   1.847   1.032  13.649  0.2707  0.5733  0.7821
  722MPD2    C110722   1.840   1.167  13.624 -0.0878  0.2868 -0.0622
  722MPD2    C210723   1.733   1.220  13.552 -0.7580  0.8845 -0.4428
  722MPD2    C310724   1.653   1.137  13.475  0.0323 -0.0286 -0.0357
  722MPD2    C410725   1.668   1.001  13.498 -0.1437  0.1600 -0.2057
  722MPD2    C510726   1.762   0.950  13.580  0.2400 -0.5173 -0.0426
  722MPD2     H10727   1.730   1.324  13.522  0.5992  0.9829 -0.2558
  722MPD2    H110728   1.614   0.926  13.441  1.6029 -0.8786 -0.4964
  722MPD2    H210729   1.909   0.977  13.720 -1.0121 -1.4868  0.3125
  722MPD2    H310730   1.765   0.846  13.611  0.6242  0.3645  2.8898
  722MPD2     N10731   1.563   1.190  13.381  0.0526 -0.2727 -0.9651
  722MPD2    H510732   1.552   1.291  13.380  1.3435 -0.1452 -1.8759
  722MPD2    N110733   1.927   1.262  13.675 -0.2607  0.0379  0.0512
  722MPD2    H710734   1.904   1.357  13.649 -1.6469 -1.1905 -3.1836
  723TMC3    C110735   1.412   1.210  13.200  0.4281 -0.3625  0.0966
  723TMC3    C210736   1.393   1.162  13.072  0.1050  0.0268  0.1123
  723TMC3    C310737   1.376   1.253  12.975  0.6021 -0.2310 -0.3087
  723TMC3    C410738   1.406   1.342  13.233 -0.1275  0.5446  0.2764
  723TMC3    C510739   1.379   1.423  13.129  0.1180 -0.1936  0.6013
  723TMC3    C610740   1.375   1.380  13.000  0.4102  0.2080 -0.6681
  723TMC3     C10741   1.492   1.121  13.282 -0.4632  0.8050 -0.0663
  723TMC3     O10742   1.501   1.001  13.261 -0.2492  0.1620 -0.4881
  723TMC3     H10743   1.406   1.055  13.055  0.5493  0.0632  0.2147
  723TMC3    H110744   1.413   1.391  13.330 -0.1571 -1.0603  1.0972
  723TMC3    H210745   1.384   1.447  12.914  1.5533  0.4829 -0.3315
  723TMC3    C710746   1.334   1.562  13.158  0.8440 -0.5644  0.6702
  723TMC3    C810747   1.349   1.200  12.841  0.2141 -0.2405  0.1414
  723TMC3    O110748   1.359   1.610  13.270  0.2980  0.9761 -0.0141
  723TMC3    O210749   1.338   1.282  12.752 -0.1250 -0.1899 -0.2697
  724TMC3    C110750   1.879   4.014  10.667 -0.1635 -0.7383  0.1974
  724TMC3    C210751   1.878   4.075  10.540 -0.4049  0.5636  0.8010
  724TMC3    C310752   1.925   4.203  10.532  0.7590  0.5566 -0.4713
  724TMC3    C410753   1.953   4.070  10.767 -0.4503 -0.3885  1.4611
  724TMC3    C510754   2.003   4.201  10.761  0.1679  0.6231  0.3408
  724TMC3    C610755   1.989   4.265  10.638  0.2755 -0.6190 -0.0990
  724TMC3     C10756   1.831   3.873  10.682 -0.4833  0.4130 -0.0100
  724TMC3     O10757   1.843   3.817  10.790 -0.3055  0.2475  0.2166
  724TMC3     H10758   1.799   4.048  10.470  0.4126 -0.3608  0.2395
  724TMC3    H110759   1.941   4.029  10.867  1.3080 -2.1596  0.9416
  724TMC3    H210760   2.033   4.364  10.632  0.4619 -0.7111 -0.2728
  724TMC3    C710761   2.075   4.272  10.873  0.9340 -0.2455  0.5963
  724TMC3    C810762   1.939   4.251  10.399  0.3970 -0.2369 -0.0017
  724TMC3    O110763   2.116   4.388  10.853 -0.6109 -0.4654  1.0051
  724TMC3    O210764   1.849   4.227  10.318 -0.2902  0.4864 -0.0661
  725TMC3    C110765   3.782   2.671  13.391  0.0683 -0.4819  0.1703
  725TMC3    C210766   3.784   2.701  13.254  0.1850 -0.5675  0.3079
  725TMC3    C310767   3.680   2.646  13.183  0.1598  0.6569 -0.2023
  725TMC3    C410768   3.693   2.586  13.447 -0.4458 -0.1682 -0.5026
  725TMC3    C510769   3.594   2.528  13.366  0.3193  0.8573 -0.1630
  725TMC3    C610770   3.582   2.572  13.235 -0.5422 -0.3389 -0.0059
  725TMC3     C10771   3.894   2.711  13.476  0.2215 -0.4252  0.4336
  725TMC3     O10772   3.862   2.747  13.591 -0.6684 -0.2746 -0.3805
  725TMC3     H10773   3.853   2.774  13.214 -1.8176  1.0233 -0.2525
  725TMC3    H110774   3.691   2.572  13.555 -1.3852  3.2356 -0.0974
  725TMC3    H210775   3.505   2.530  13.172  1.4578 -1.5425 -1.6224
  725TMC3    C710776   3.589   2.377  13.377  0.4866 -0.6668 -0.4500
  725TMC3    C810777   3.704   2.621  13.045 -1.2445 -0.4430 -0.9881
  725TMC3    O110778   3.532   2.318  13.285 -0.5067  0.1095 -0.3094
  725TMC3    O210779   3.698   2.505  13.010  0.5687 -0.2222  0.7509
  726MPD2     C10780   1.487   0.169  10.934 -0.1124 -0.1173 -0.6161
  726MPD2    C110781   1.373   0.208  10.874  0.0365  0.4186  0.0492
  726MPD2    C210782   1.249   0.157  10.911  0.4620 -0.6114 -0.5981
  726MPD2    C310783   1.251   0.069  11.013  0.0126  0.2550 -0.2032
  726MPD2    C410784   1.371   0.016  11.056 -0.2032  0.3112  0.5983
  726MPD2    C510785   1.487   0.066  11.019  0.3466 -1.3462  0.1093
  726MPD2     H10786   1.166   0.217  10.875 -0.3458 -1.3989 -0.0571
  726MPD2    H110787   1.367   4.680  11.136  1.3886 -0.2442  0.1672
  726MPD2    H210788   1.582   0.214  10.906 -0.9263  0.9868 -1.5839
  726MPD2    H310789   1.577   0.029  11.066  1.9316  2.1855 -0.1934
  726MPD2     N10790   1.133   0.022  11.080 -0.5751 -0.8962  0.1338
  726MPD2    H510791   1.154   4.687  11.148 -0.5992  1.2401  2.4111
  726MPD2    N110792   1.391   0.317  10.788  0.0176  0.0223 -0.0325
  726MPD2    H710793   1.482   0.361  10.789 -0.7070  1.4781  2.1791
  727TMC3    C110794   1.331   0.488  10.629  0.0668 -0.1940 -0.3100
  727TMC3    C210795   1.456   0.541  10.638  0.1591 -1.0602  0.8493
  727TMC3    C310796   1.495   0.646  10.562  0.4525  0.2121 -0.1580
  727TMC3    C410797   1.247   0.533  10.532 -0.2583 -0.7361 -0.3180
  727TMC3    C510798   1.293   0.629  10.445 -0.0087  0.4560 -0.4279
  727TMC3    C610799   1.414   0.701  10.466 -0.6978  0.5809  0.6020
  727TMC3     C10800   1.287   0.368  10.708 -0.6217  0.0656  0.3861
  727TMC3     O10801   1.174   0.327  10.687  0.7634  0.5909  0.1449
  727TMC3     H10802   1.519   0.502  10.716  0.8431  1.6569  1.6366
  727TMC3    H110803   1.151   0.485  10.521 -0.8827  0.7459 -1.3125
  727TMC3    H210804   1.446   0.769  10.387 -1.3504 -1.8719 -1.7872
  727TMC3    C710805   1.206   0.687  10.338  0.6622  0.7479  0.2294
  727TMC3    C810806   1.620   0.709  10.588  0.2593  0.2659 -0.2079
  727TMC3    O110807   1.224   0.806  10.316 -0.5037  0.3339  0.5014
  727TMC3    O210808   1.696   0.659  10.664 -0.1663  0.0294  0.2015
  728TMC3    C110809   0.996   2.776  15.291 -0.1834  0.5214  0.0795
  728TMC3    C210810   1.123   2.812  15.252  0.2419 -1.0869 -0.1985
  728TMC3    C310811   1.142   2.926  15.180  0.0950 -0.0432 -0.6784
  728TMC3    C410812   0.887   2.849  15.254 -0.0737  0.4523 -0.2869
  728TMC3    C510813   0.916   2.967  15.186  1.0002 -0.1919  0.6617
  728TMC3    C610814   1.041   3.008  15.136  0.1337 -0.2183  0.2858
  728TMC3     C10815   0.966   2.636  15.329 -0.1027 -0.0838  0.0163
  728TMC3     O10816   1.042   2.551  15.283  0.3493 -0.1221  0.0444
  728TMC3     H10817   1.212   2.761  15.288  0.1161 -1.2501 -0.1191
  728TMC3    H110818   0.784   2.818  15.269  1.3808 -4.2338  0.1702
  728TMC3    H210819   1.061   3.094  15.074  0.8937 -0.9103 -0.4117
  728TMC3    C710820   0.796   3.035  15.137  0.2701 -0.1105 -0.5904
  728TMC3    C810821   1.274   2.966  15.139 -0.6773 -0.2092 -0.6705
  728TMC3    O110822   0.686   2.998  15.172  0.2349  0.0995 -0.2835
  728TMC3    O210823   1.299   3.087  15.130  0.3479  0.4241 -0.6954
  729MPD2     C10824   2.783   4.135  16.448 -0.2437 -0.4075 -0.3851
  729MPD2    C110825   2.887   4.102  16.531  0.0323  0.2255 -0.7833
  729MPD2    C210826   2.858   4.075  16.664 -0.2871  0.5989  0.3055
  729MPD2    C310827   2.728   4.081  16.707  0.6852  0.3637 -0.7076
  729MPD2    C410828   2.620   4.113  16.621  0.3593 -0.0595 -0.0386
  729MPD2    C510829   2.650   4.121  16.487  1.2115 -0.1842 -0.2197
  729MPD2     H10830   2.941   4.072  16.733 -0.2934  0.9035  0.3267
  729MPD2    H110831   2.516   4.092  16.644  1.0718 -1.5705  1.7842
  729MPD2    H210832   2.794   4.142  16.340  0.5354  1.0688 -0.2024
  729MPD2    H310833   2.570   4.128  16.415  0.7614 -0.8703  0.2148
  729MPD2     N10834   2.710   4.032  16.841  0.4052  0.5861  0.6343
  729MPD2    H510835   2.623   4.059  16.884 -0.9289  0.6428 -2.0763
  729MPD2    N110836   3.022   4.108  16.487  0.1860  0.0197 -0.0847
  729MPD2    H710837   3.042   4.138  16.392 -1.8431  0.7497 -0.2869
  730TMC3    C110838   2.766   3.956  17.054 -0.5630  0.2045  0.2571
  730TMC3    C210839   2.884   3.928  17.127  0.4361  0.4951  0.2845
  730TMC3    C310840   2.908   4.008  17.235  0.4127 -0.0032  0.1285
  730TMC3    C410841   2.671   4.045  17.094 -0.2655  0.2286  0.4895
  730TMC3    C510842   2.688   4.104  17.212 -0.0429  0.5375  0.6958
  730TMC3    C610843   2.804   4.087  17.288  0.3971 -0.1017  0.7658
  730TMC3     C10844   2.791   3.946  16.911 -0.1887 -0.6782  0.4956
  730TMC3     O10845   2.886   3.876  16.870  0.0661  0.0746  0.1350
  730TMC3     H10846   2.957   3.863  17.080  0.1794  0.7549 -0.4692
  730TMC3    H110847   2.573   4.046  17.049  0.6367 -0.2639 -1.4962
  730TMC3    H210848   2.807   4.140  17.382  1.7363  0.9387  0.1420
  730TMC3    C710849   2.626   4.233  17.201  0.5569  0.1195  0.2524
  730TMC3    C810850   3.044   4.059  17.231 -0.1048 -0.7470 -0.5583
  730TMC3    O110851   2.602   4.274  17.089  0.0201 -0.3745 -0.4857
  730TMC3    O210852   3.128   3.981  17.201  0.0548  0.7674  0.4019
  731MPD2     C10853   3.544   2.730  12.553  0.2835  0.0600  0.6210
  731MPD2    C110854   3.482   2.616  12.532  1.2030 -0.0229  0.1738
  731MPD2    C210855   3.381   2.582  12.617 -0.0594 -0.4619  0.0932
  731MPD2    C310856   3.371   2.640  12.742  0.3119  0.1280 -0.2951
  731MPD2    C410857   3.437   2.761  12.759  0.4358  0.1369  0.1895
  731MPD2    C510858   3.525   2.803  12.666  0.3028 -0.1233  0.1411
  731MPD2     H10859   3.337   2.485  12.597  1.2042 -1.0454  0.1653
  731MPD2    H110860   3.431   2.818  12.850 -0.4136 -1.2352  0.9937
  731MPD2    H210861   3.619   2.767  12.483  1.0830  0.6470  1.7852
  731MPD2    H310862   3.591   2.887  12.687 -0.3587  0.5349 -0.4282
  731MPD2     N10863   3.305   2.572  12.839  0.3074 -0.4833 -0.3186
  731MPD2    H510864   3.237   2.500  12.817  0.8933 -1.3488  0.7332
  731MPD2    N110865   3.520   2.544  12.424  0.1932 -0.5496 -0.8709
  731MPD2    H710866   3.608   2.575  12.384  0.9807  0.3578  1.5431
  732TMC3    C110867   3.534   2.404  12.250 -0.1586 -0.4319  0.7647
  732TMC3    C210868   3.457   2.369  12.141  0.0777  0.2187  0.4208
  732TMC3    C310869   3.508   2.286  12.045  0.4128 -0.5640 -0.4608
  732TMC3    C410870   3.657   2.351  12.262 -0.5546 -0.2452  0.0915
  732TMC3    C510871   3.718   2.282  12.158 -0.6674 -0.0717  0.0287
  732TMC3    C610872   3.638   2.250  12.048 -0.2966  0.0605 -0.0864
  732TMC3     C10873   3.454   2.442  12.364  0.0818  0.4578 -0.3064
  732TMC3     O10874   3.338   2.415  12.356  0.2476  0.1274  0.4031
  732TMC3     H10875   3.358   2.409  12.127 -0.2294 -0.9147 -0.7282
  732TMC3    H110876   3.719   2.386  12.344 -2.6021 -0.3100  1.6604
  732TMC3    H210877   3.671   2.187  11.967 -0.7762 -1.2368  0.7176
  732TMC3    C710878   3.846   2.208  12.185 -0.5154 -0.5765 -0.0084
  732TMC3    C810879   3.413   2.212  11.957  0.8514 -0.2891 -0.2284
  732TMC3    O110880   3.916   2.178  12.088  0.0757  0.4744  0.2023
  732TMC3    O210881   3.448   2.158  11.856 -0.3934 -0.4265  0.2462
  733TMC3    C110882   3.844   0.357  12.924 -0.2988  0.0202 -0.3435
  733TMC3    C210883   3.955   0.431  12.974  0.0962 -0.9764  0.3235
  733TMC3    C310884   4.017   0.517  12.890 -0.6859  0.1770  0.6774
  733TMC3    C410885   3.808   0.368  12.793  0.2173  0.7010 -0.4421
  733TMC3    C510886   3.863   0.457  12.711  0.0363 -0.1873  0.2922
  733TMC3    C610887   3.971   0.525  12.757  0.0159  0.2367 -0.0571
  733TMC3     C10888   3.724   0.387  12.993  0.0046  0.5690  0.4827
  733TMC3     O10889   3.633   0.425  12.923  0.0081 -0.7245  0.4731
  733TMC3     H10890   3.984   0.421  13.078 -0.1375 -0.2875  0.4515
  733TMC3    H110891   3.732   0.304  12.748 -0.1796 -0.7745  2.2999
  733TMC3    H210892   4.040   0.575  12.690  1.3985  0.2630  1.3608
  733TMC3    C710893   3.790   0.495  12.595 -0.1803 -0.5011  0.4683
  733TMC3    C810894   4.086   0.629  12.941  0.4012 -0.2217  0.1520
  733TMC3    O110895   3.717   0.414  12.541 -0.1890  0.8861  0.0574
  733TMC3    O210896   4.164   0.602  13.031 -0.3733 -0.7553  0.9782
  734MPD2     C10897   0.884   2.360  12.294  0.0893 -0.3047  0.1267
  734MPD2    C110898   0.911   2.314  12.166 -0.1623 -0.0071 -0.1485
  734MPD2    C210899   0.976   2.398  12.082 -0.4356  0.3377  0.5646
  734MPD2    C310900   0.998   2.531  12.107  0.1111 -0.4788 -0.2392
  734MPD2    C410901   0.953   2.576  12.235  0.3315  0.0357  0.3088
  734MPD2    C510902   0.906   2.493  12.331  0.6753  0.0915 -0.4187
  734MPD2     H10903   1.013   2.361  11.988 -1.3138  1.5514 -0.2639
  734MPD2    H110904   0.952   2.683  12.254 -0.7718  0.1193 -0.1801
  734MPD2    H210905   0.829   2.294  12.359 -0.6717 -0.5875 -0.7985
  734MPD2    H310906   0.873   2.531  12.427  1.1389 -1.8061  0.4808
  734MPD2     N10907   1.033   2.614  11.999 -0.5943  0.0419  0.2926
  734MPD2    H510908   1.074   2.565  11.920  1.0664  1.5004  0.2352
  734MPD2    N110909   0.865   2.182  12.133 -0.3087 -0.3569 -0.5052
  734MPD2    H710910   0.838   2.126  12.213  1.3072  0.3313  0.5236
  735TMC3    C110911   0.849   1.993  12.000  0.3672 -0.4744  0.4650
  735TMC3    C210912   0.855   1.958  11.867  0.7805 -0.6251 -0.3924
  735TMC3    C310913   0.958   1.889  11.814  0.6834 -0.2166  0.0829
  735TMC3    C410914   0.935   1.928  12.089 -0.1736 -0.6456  0.0103
  735TMC3    C510915   1.029   1.855  12.030 -0.8475  0.1264 -0.3094
  735TMC3    C610916   1.049   1.828  11.900 -0.7216  0.0366 -0.2380
  735TMC3     C10917   0.851   2.134  12.007 -0.0850 -0.4091  0.8219
  735TMC3     O10918   0.869   2.194  11.905 -0.0030  0.1591 -0.1692
  735TMC3     H10919   0.777   2.003  11.806 -0.9966 -0.2117  2.1573
  735TMC3    H110920   0.934   1.945  12.196 -0.3181 -1.4742  0.1398
  735TMC3    H210921   1.135   1.770  11.869  1.1975  2.6319  0.2830
  735TMC3    C710922   1.142   1.820  12.121  0.1483 -0.2497 -0.5544
  735TMC3    C810923   1.019   1.944  11.692 -0.4435  0.0559 -0.0638
  735TMC3    O110924   1.120   1.751  12.217  0.2397 -0.0307 -0.3208
  735TMC3    O210925   1.120   1.889  11.643  0.3434  0.4372  0.2100
  736MPD2     C10926   1.419   1.776  12.231 -1.0233  0.4484  0.3689
  736MPD2    C110927   1.383   1.877  12.145  0.4679 -0.1547 -0.0382
  736MPD2    C210928   1.482   1.967  12.115  0.1903 -0.1089 -0.3371
  736MPD2    C310929   1.611   1.967  12.169 -0.4738  0.3659  0.4363
  736MPD2    C410930   1.634   1.880  12.274  0.6915  0.4171  0.2820
  736MPD2    C510931   1.540   1.784  12.304  0.0154 -0.0876  0.2459
  736MPD2     H10932   1.451   2.040  12.042 -1.1656 -2.6703 -2.3582
  736MPD2    H110933   1.723   1.880  12.336  0.5109 -0.4205  0.5445
  736MPD2    H210934   1.353   1.695  12.256  1.2664 -0.9476  1.9108
  736MPD2    H310935   1.557   1.723  12.392 -2.0117  0.0768  0.7613
  736MPD2     N10936   1.708   2.063  12.140  0.6468 -0.3373  0.5916
  736MPD2    H510937   1.799   2.056  12.183  1.3099 -0.1645 -0.7736
  736MPD2    N110938   1.256   1.885  12.079 -0.1170 -0.3345  0.3268
  736MPD2    H710939   1.243   1.959  12.011  0.7542 -2.0986 -1.7681
  737TMC3    C110940   1.821   2.230  12.032 -0.0245  0.1907 -0.2043
  737TMC3    C210941   1.819   2.365  12.024 -0.3816 -0.4088  0.0430
  737TMC3    C310942   1.935   2.433  12.022 -0.6016  0.1675  0.6200
  737TMC3    C410943   1.941   2.168  12.044  0.3341 -0.1960  0.1811
  737TMC3    C510944   2.054   2.239  12.031  0.0601  0.1765  0.1444
  737TMC3    C610945   2.055   2.374  12.022 -0.1397 -0.2946 -0.2742
  737TMC3     C10946   1.698   2.156  12.038 -0.9661 -0.2901  0.4562
  737TMC3     O10947   1.606   2.191  11.963 -0.0620  0.6014  0.2727
  737TMC3     H10948   1.722   2.411  12.015  0.0756  0.8087  1.4010
  737TMC3    H110949   1.942   2.059  12.052 -2.0353 -0.0414  2.7624
  737TMC3    H210950   2.150   2.424  12.038 -0.1029  0.0121 -1.4853
  737TMC3    C710951   2.177   2.161  12.019  0.3053  0.0165 -1.1737
  737TMC3    C810952   1.937   2.577  12.032  0.4042 -0.1734 -0.3235
  737TMC3    O110953   2.172   2.044  12.052  0.7219  0.7463 -0.0496
  737TMC3    O210954   2.047   2.632  12.054 -0.0921 -0.1827  0.3365
  738MPD2     C10955   1.899   1.337  14.698  0.5476 -0.1046  0.5914
  738MPD2    C110956   1.875   1.381  14.823  0.6559 -0.1539  0.3771
  738MPD2    C210957   1.964   1.465  14.888  0.1700  0.1246 -0.7286
  738MPD2    C310958   2.074   1.518  14.823  0.4321  0.4883 -0.1904
  738MPD2    C410959   2.096   1.473  14.698  0.6763 -0.0519  0.6330
  738MPD2    C510960   2.012   1.382  14.640  0.5431  0.4525  0.0365
  738MPD2     H10961   1.950   1.493  14.992 -0.8867 -2.8579 -0.0611
  738MPD2    H110962   2.189   1.501  14.650 -0.4580 -1.6103 -2.4870
  738MPD2    H210963   1.843   1.260  14.648 -0.1078  0.2694  0.7477
  738MPD2    H310964   2.046   1.333  14.550  2.8454 -0.4715  1.4080
  738MPD2     N10965   2.174   1.605  14.873 -0.0103  0.3113 -0.1338
  738MPD2    H510966   2.258   1.617  14.817  0.8982 -1.9051  0.7473
  738MPD2    N110967   1.767   1.325  14.904  0.5899 -0.0479  0.2112
  738MPD2    H710968   1.757   1.357  15.000 -3.4981 -2.6654  0.6510
  739TMC3    C110969   2.298   1.725  15.021  0.7897 -0.7530 -0.2706
  739TMC3    C210970   2.346   1.806  14.921  0.3240  1.1395 -0.0165
  739TMC3    C310971   2.467   1.865  14.940 -0.8853 -0.3433  0.4195
  739TMC3    C410972   2.370   1.700  15.136 -0.2416  0.1408 -0.4357
  739TMC3    C510973   2.493   1.770  15.148 -0.4043 -0.2850  0.0718
  739TMC3    C610974   2.545   1.850  15.050 -0.3331  0.1209 -0.6329
  739TMC3     C10975   2.181   1.644  15.008 -0.5342 -0.4726  0.1719
  739TMC3     O10976   2.131   1.587  15.103  0.2026 -0.4201 -0.3954
  739TMC3     H10977   2.285   1.837  14.837  1.2713  1.3158 -0.6355
  739TMC3    H110978   2.334   1.632  15.211 -2.3371 -0.8407 -2.3215
  739TMC3    H210979   2.638   1.904  15.064 -0.5086 -0.7661  3.9324
  739TMC3    C710980   2.582   1.745  15.258 -0.3821  0.2532  0.1684
  739TMC3    C810981   2.534   1.902  14.816 -0.6998 -0.3660  0.2004
  739TMC3    O110982   2.699   1.784  15.247 -0.0470 -0.1829  0.2217
  739TMC3    O210983   2.466   1.943  14.726  0.0580  0.1077  0.3773
  740TMC3    C110984   3.054   2.837  14.785  0.1130  0.1417  0.6137
  740TMC3    C210985   3.069   2.745  14.888 -0.0972 -0.1408 -0.5210
  740TMC3    C310986   3.186   2.671  14.892 -0.2779 -0.4401  0.5647
  740TMC3    C410987   3.139   2.838  14.673  0.8255 -0.4312  0.2901
  740TMC3    C510988   3.250   2.752  14.678  0.3254  0.4497 -0.2783
  740TMC3    C610989   3.280   2.674  14.792 -0.2515 -0.0716 -0.1732
  740TMC3     C10990   2.930   2.912  14.768 -0.0182  0.5428  0.3707
  740TMC3     O10991   2.936   3.012  14.702 -0.6642 -0.5303 -0.0643
  740TMC3     H10992   3.004   2.741  14.974  2.4597 -0.3002  1.3807
  740TMC3    H110993   3.104   2.893  14.586 -0.6919  0.0746  1.2353
  740TMC3    H210994   3.377   2.626  14.792 -0.7775 -1.1080 -1.8713
  740TMC3    C710995   3.330   2.708  14.557  0.6280  0.4681  0.4722
  740TMC3    C810996   3.210   2.561  14.991 -0.3537 -0.2187 -0.2904
  740TMC3    O110997   3.432   2.651  14.576 -0.1682 -0.2963 -0.1950
  740TMC3    O210998   3.319   2.504  14.976  0.4047 -0.4820  0.2423
  741TMC3    C110999   2.393   2.449  14.103  0.5533 -0.8378  0.3072
  741TMC3    C211000   2.290   2.352  14.130 -0.0004 -0.2907 -0.0040
  741TMC3    C311001   2.321   2.256  14.221 -0.0263 -0.0864 -0.2289
  741TMC3    C411002   2.511   2.445  14.178  0.1033  0.4166  0.8529
  741TMC3    C511003   2.520   2.358  14.279  0.4128 -0.3203 -0.1521
  741TMC3    C611004   2.429   2.261  14.300  0.1128  0.5812  0.1566
  741TMC3     C11005   2.392   2.537  13.987  0.1871 -0.3147 -0.1588
  741TMC3     O11006   2.497   2.595  13.964  0.3945  0.2106  0.0470
  741TMC3     H11007   2.195   2.359  14.079 -0.5457  1.6270  1.2691
  741TMC3    H111008   2.592   2.514  14.157 -0.1523  0.8389  1.2675
  741TMC3    H211009   2.458   2.175  14.359 -0.7006 -0.3370 -0.7761
  741TMC3    C711010   2.620   2.387  14.375 -0.1563  0.1561 -0.8007
  741TMC3    C811011   2.231   2.148  14.231 -0.1340 -0.1929 -0.3618
  741TMC3    O111012   2.710   2.458  14.336 -0.3381 -0.0358  0.0637
  741TMC3    O211013   2.138   2.146  14.150 -0.7177 -0.4332 -0.6325
  742TMC3    C111014   2.352   0.575  15.640 -0.0635 -0.0586 -0.0691
  742TMC3    C211015   2.256   0.559  15.539  0.6030 -0.2910  0.1022
  742TMC3    C311016   2.295   0.551  15.413 -0.7879 -0.1590 -0.5204
  742TMC3    C411017   2.478   0.600  15.610  0.6354 -1.1104  0.2378
  742TMC3    C511018   2.510   0.610  15.477  0.0394 -1.0917  0.0901
  742TMC3    C611019   2.422   0.582  15.381 -0.4422  0.4235 -0.0845
  742TMC3     C11020   2.309   0.548  15.781  0.4329  0.1870 -0.1531
  742TMC3     O11021   2.204   0.494  15.807 -0.7702 -0.4055  0.6498
  742TMC3     H11022   2.161   0.516  15.570 -0.1021  0.3506 -1.1631
  742TMC3    H111023   2.552   0.606  15.689  1.0130 -0.9457 -0.1294
  742TMC3    H211024   2.461   0.586  15.280  2.9361  1.3460  1.2535
  742TMC3    C711025   2.651   0.594  15.437  0.4951 -0.4556 -0.5605
  742TMC3    C811026   2.218   0.509  15.296 -0.5136 -0.2733 -0.9160
  742TMC3    O111027   2.669   0.537  15.332  0.0127  0.5897 -0.4910
  742TMC3    O211028   2.278   0.458  15.202  0.1853  0.4073  0.4115
  743MPD2     C11029   4.065   2.197   1.734 -0.3634  0.0554 -0.2931
  743MPD2    C111030   4.112   2.104   1.641  0.0147  0.2786 -0.1895
  743MPD2    C211031   4.234   2.041   1.669 -0.5819 -0.2297  0.1037
  743MPD2    C311032   4.299   2.076   1.789  0.0843  0.3768  0.6858
  743MPD2    C411033   4.246   2.165   1.880  0.2837  0.9366  0.1169
  743MPD2    C511034   4.122   2.215   1.859 -0.0578 -0.9057 -0.5627
  743MPD2     H11035   4.288   1.978   1.599  1.6258  0.4588  1.2083
  743MPD2    H111036   4.293   2.186   1.976  0.5461  1.0150 -0.0304
  743MPD2    H211037   3.973   2.249   1.709  0.9252  2.5989  0.2065
  743MPD2    H311038   4.082   2.287   1.929  0.9048 -2.1597  1.2868
  743MPD2     N11039   4.428   2.020   1.809 -0.0286 -0.4652  0.1397
  743MPD2    H511040   4.452   1.951   1.739  0.4511 -0.3782  0.2173
  743MPD2    N111041   4.030   2.081   1.526 -0.0606  0.5713  0.6313
  743MPD2    H711042   3.944   2.135   1.521 -0.6372 -0.5283 -1.4556
  744TMC3    C111043   3.973   1.992   1.306 -1.1188  0.4456 -0.4738
  744TMC3    C211044   3.859   2.064   1.312 -0.1679  0.1109  0.4587
  744TMC3    C311045   3.782   2.068   1.201  0.6405 -0.3772  0.4289
  744TMC3    C411046   4.017   1.930   1.192  0.0040 -0.2610 -0.4094
  744TMC3    C511047   3.939   1.947   1.078  0.6289 -0.4230  0.0628
  744TMC3    C611048   3.822   2.013   1.080 -0.3863 -0.2224  0.3013
  744TMC3     C11049   4.061   1.998   1.419 -0.6244  0.0505  0.1726
  744TMC3     O11050   4.160   1.923   1.419  0.2393 -0.4572 -0.4958
  744TMC3     H11051   3.825   2.106   1.406 -2.0560  1.5981 -0.8745
  744TMC3    H111052   4.114   1.882   1.181  0.9324  1.3831  0.6099
  744TMC3    H211053   3.766   2.021   0.988 -0.4675  0.2112  0.3892
  744TMC3    C711054   3.992   1.892   0.953  0.1705 -0.7280 -0.6097
  744TMC3    C811055   3.658   2.129   1.210 -0.2266 -0.0733 -0.0815
  744TMC3    O111056   4.112   1.872   0.956  0.4532 -0.7095 -0.1118
  744TMC3    O211057   3.629   2.180   1.317 -0.4218  0.9527  0.5064
  745TMC3    C111058   2.551   0.403  14.044  0.3683 -0.2756 -0.1564
  745TMC3    C211059   2.451   0.361  14.118 -0.1111 -0.7680  0.0198
  745TMC3    C311060   2.319   0.397  14.082  0.6179 -0.2414  0.1512
  745TMC3    C411061   2.531   0.480  13.927 -0.0513  0.1954 -0.3247
  745TMC3    C511062   2.404   0.501  13.888  0.0922  0.8635  0.1990
  745TMC3    C611063   2.295   0.457  13.962 -0.1172 -0.5349  0.2981
  745TMC3     C11064   2.687   0.391  14.099  0.2197  0.3534 -0.5683
  745TMC3     O11065   2.695   0.345  14.215  0.1828 -0.1723  0.3235
  745TMC3     H11066   2.466   0.299  14.205 -0.2696  1.0121  1.3123
  745TMC3    H111067   2.614   0.494  13.860  1.1441  1.6147  1.4538
  745TMC3    H211068   2.196   0.476  13.922 -0.2702 -0.5291  0.6820
  745TMC3    C711069   2.369   0.538  13.749  0.2986  0.2536 -0.6070
  745TMC3    C811070   2.238   0.432  14.198 -0.6395  0.2494 -0.3055
  745TMC3    O111071   2.252   0.547  13.722 -0.4437  0.1269  0.9580
  745TMC3    O211072   2.115   0.434  14.182 -0.3780  0.0777 -0.0784
  746TMC3    C111073   0.633   2.459  10.990  0.0058 -0.2608 -0.3568
  746TMC3    C211074   0.727   2.483  10.896  0.3914 -0.5303  0.0021
  746TMC3    C311075   0.722   2.402  10.785  0.6931  0.0973  0.2357
  746TMC3    C411076   0.534   2.368  10.980 -0.2533  0.2436  0.1223
  746TMC3    C511077   0.536   2.288  10.870  0.2098 -0.0852 -0.5755
  746TMC3    C611078   0.617   2.310  10.763  0.2439 -0.3202 -0.2646
  746TMC3     C11079   0.605   2.559  11.092 -0.4834 -0.1774  0.0697
  746TMC3     O11080   0.538   2.535  11.190 -0.4723  0.2992 -0.1424
  746TMC3     H11081   0.807   2.554  10.917  0.7190 -0.3234 -2.0178
  746TMC3    H111082   0.460   2.347  11.056 -0.5522 -1.5773 -0.6611
  746TMC3    H211083   0.617   2.249  10.674 -0.5219  1.5859 -1.5794
  746TMC3    C711084   0.429   2.193  10.847 -0.5877 -0.8698 -0.8009
  746TMC3    C811085   0.815   2.445  10.679 -0.5025  0.5863 -0.0490
  746TMC3    O111086   0.387   2.191  10.734  0.1639 -0.2977  0.1550
  746TMC3    O211087   0.938   2.457  10.702 -0.8281 -0.1954 -0.0412
  747TMC3    C111088   2.923   2.510  11.377  0.1656  0.2338  0.2589
  747TMC3    C211089   2.837   2.405  11.402  0.8260  0.0287  0.4106
  747TMC3    C311090   2.823   2.367  11.529 -0.5450  0.1671  0.4631
  747TMC3    C411091   3.005   2.567  11.474  0.0269  0.1201 -0.4015
  747TMC3    C511092   2.994   2.517  11.600  0.2646  0.3775  0.0176
  747TMC3    C611093   2.898   2.423  11.633  0.4639  0.7491 -0.1259
  747TMC3     C11094   2.934   2.554  11.241  0.6238  0.3848  0.2323
  747TMC3     O11095   2.962   2.670  11.210  0.2995 -0.3289 -0.4486
  747TMC3     H11096   2.769   2.366  11.327 -0.4987  1.3201  0.9529
  747TMC3    H111097   3.089   2.632  11.451 -1.8598  2.3453 -1.0578
  747TMC3    H211098   2.885   2.384  11.733  1.6162 -2.7137 -1.3145
  747TMC3    C711099   3.102   2.514  11.687 -0.1437 -0.1345 -0.9590
  747TMC3    C811100   2.732   2.250  11.546  0.3871  0.2218  0.0595
  747TMC3    O111101   3.070   2.531  11.802 -0.6338 -0.7480 -0.1218
  747TMC3    O211102   2.729   2.156  11.469 -0.3395 -0.4391  0.5404
  748MPD2     C11103   3.913   3.342   1.664 -0.1866  0.4462  0.1342
  748MPD2    C111104   3.922   3.252   1.563 -0.1795 -0.3053  0.6609
  748MPD2    C211105   4.046   3.223   1.521 -0.2807  0.1080  1.0392
  748MPD2    C311106   4.156   3.277   1.581  0.3508  0.2664  0.1762
  748MPD2    C411107   4.142   3.347   1.696 -1.0889 -0.6650  0.4802
  748MPD2    C511108   4.021   3.402   1.719  0.6559 -0.4982  0.2868
  748MPD2     H11109   4.055   3.156   1.437 -1.2271  0.0367  0.9949
  748MPD2    H111110   4.228   3.388   1.747 -1.4096 -0.1622  0.6139
  748MPD2    H211111   3.814   3.363   1.702 -0.0554  0.8023  0.2733
  748MPD2    H311112   4.010   3.469   1.804  0.0866 -0.6551  0.3361
  748MPD2     N11113   4.283   3.261   1.532 -0.1784  0.1087  0.5715
  748MPD2    H511114   4.361   3.292   1.589 -1.8533  2.3833  1.6444
  748MPD2    N111115   3.802   3.203   1.507 -0.3747  0.4449  0.1305
  748MPD2    H711116   3.711   3.236   1.537 -0.6695  1.7494 -2.2417
  749TMC3    C111117   4.464   3.256   1.364  0.5797  0.3469  0.2882
  749TMC3    C211118   4.543   3.162   1.426  0.3816  0.4348 -0.1503
  749TMC3    C311119   4.663   3.141   1.366  0.2311  1.0755  0.3018
  749TMC3    C411120   4.501   3.322   1.250 -0.3476 -0.3168 -1.0199
  749TMC3    C511121   4.626   3.301   1.197  0.1766  0.5433  0.3833
  749TMC3    C611122   4.705   3.209   1.253  0.4886  0.5768  0.5887
  749TMC3     C11123   4.313   3.245   1.395  0.5691  0.3691  0.2856
  749TMC3     O11124   4.233   3.227   1.297  0.0636  0.4995  0.2566
  749TMC3     H11125   4.505   3.089   1.496  0.5741 -1.4700 -2.0094
  749TMC3    H111126   4.426   3.388   1.210 -0.6581 -0.5976 -0.8953
  749TMC3    H211127   0.071   3.200   1.220 -0.8457 -0.2177 -3.2665
  749TMC3    C711128   4.654   3.337   1.065  0.6056  0.0868  0.2154
  749TMC3    C811129   4.735   3.018   1.389 -0.6532 -0.2886  0.1796
  749TMC3    O111130   4.638   3.448   1.025 -0.2733 -0.1952  0.3537
  749TMC3    O211131   0.060   2.979   1.291 -0.0324 -0.0899  0.1711
  750MPD2     C11132   0.124   4.508  11.990  0.7688 -0.7350 -0.3702
  750MPD2    C111133   0.131   4.372  12.041  0.1672  0.0981  0.1044
  750MPD2    C211134   0.224   4.286  11.982 -0.4930  0.2366 -0.5436
  750MPD2    C311135   0.305   4.329  11.874  1.0622  0.2792  0.3360
  750MPD2    C411136   0.291   4.460  11.828  1.0240 -0.0471  0.0487
  750MPD2    C511137   0.205   4.543  11.890  0.2787  0.0261  0.1112
  750MPD2     H11138   0.233   4.184  12.017  1.7322  0.7331  0.3075
  750MPD2    H111139   0.347   4.505  11.746  1.0242  0.4427  0.3229
  750MPD2    H211140   0.055   4.580  12.033  0.9312 -0.4772 -0.5458
  750MPD2    H311141   0.206   4.648  11.863  1.2962  0.0152  0.1021
  750MPD2     N11142   0.398   4.253  11.802  0.3950 -0.1170  0.2592
  750MPD2    H511143   0.464   4.303  11.742  0.2526  0.1408  0.3160
  750MPD2    N111144   0.047   4.346  12.152 -0.4765 -0.3927  0.1604
  750MPD2    H711145   4.718   4.410  12.194 -3.1139 -1.9084 -1.6599
  751TMC3    C111146   0.529   4.070  11.734  0.3155  0.3941  0.1971
  751TMC3    C211147   0.562   3.943  11.783 -0.6964  0.1149  0.2303
  751TMC3    C311148   0.595   3.847  11.696  0.4073  0.1647  0.2963
  751TMC3    C411149   0.522   4.092  11.599  1.0976  0.0735  0.0078
  751TMC3    C511150   0.572   4.000  11.515  0.5191 -0.0159 -0.3529
  751TMC3    C611151   0.620   3.879  11.565  0.1364 -0.0957  0.5805
  751TMC3     C11152   0.421   4.120  11.814 -0.4556  1.0300 -0.1291
  751TMC3     O11153   0.375   4.044  11.896  0.6397 -0.9060  1.0196
  751TMC3     H11154   0.564   3.919  11.888 -2.1739  2.0912  0.6986
  751TMC3    H111155   0.452   4.165  11.560 -1.8487 -2.7722 -0.0450
  751TMC3    H211156   0.654   3.797  11.502  0.4751  0.2858  0.2570
  751TMC3    C711157   0.526   3.984  11.381 -0.0340  1.0709 -1.4247
  751TMC3    C811158   0.500   3.740  11.704  0.1157  0.0315 -0.5685
  751TMC3    O111159   0.515   4.080  11.307 -0.3573 -0.3305  0.1358
  751TMC3    O211160   0.472   3.683  11.600 -0.2985  0.1486 -0.3356
  752TMC3    C111161   3.529   3.875  17.489  0.2781 -0.1165  0.0405
  752TMC3    C211162   3.586   3.812  17.605  0.1148 -0.5984  0.2639
  752TMC3    C311163   3.504   3.785  17.713  0.1364  0.4849 -0.0571
  752TMC3    C411164   3.398   3.901  17.484  0.5636 -0.1095  0.2615
  752TMC3    C511165   3.318   3.860  17.591 -0.4051 -0.6172 -0.3495
  752TMC3    C611166   3.365   3.800  17.702 -0.2894 -0.0814  0.3625
  752TMC3     C11167   3.618   3.932  17.391 -0.2670 -0.0918 -0.1131
  752TMC3     O11168   3.735   3.951  17.423  0.0335 -0.6354 -0.4725
  752TMC3     H11169   3.692   3.788  17.606  0.2703  0.0846  0.6531
  752TMC3    H111170   3.349   3.951  17.402  1.7965  2.2790  0.9793
  752TMC3    H211171   3.299   3.772   0.038 -0.2179  2.1295  1.1589
  752TMC3    C711172   3.178   3.889  17.590  0.0530  0.8738  0.1639
  752TMC3    C811173   3.550   3.684   0.061  0.5666 -0.2776  0.2919
  752TMC3    O111174   3.110   3.799  17.633  0.2590  0.3074  0.3278
  752TMC3    O211175   3.471   3.596   0.078 -0.0401  0.8125  0.3998
  753TMC3    C111176   0.674   4.615  13.372 -0.2131 -0.2248 -0.1510
  753TMC3    C211177   0.790   4.645  13.438 -0.3732 -0.5435 -0.2627
  753TMC3    C311178   0.842   4.541  13.515 -0.6165 -0.8792  0.0772
  753TMC3    C411179   0.605   4.501  13.391  0.6676  0.6298  0.4937
  753TMC3    C511180   0.649   4.411  13.483 -0.0650 -0.5826 -0.0903
  753TMC3    C611181   0.774   4.425  13.543  0.4802 -0.6696 -0.2717
  753TMC3     C11182   0.617   4.705  13.278  0.9357  0.1996 -0.1799
  753TMC3     O11183   0.542   4.655  13.194 -0.0510  0.0197  0.1025
  753TMC3     H11184   0.855   4.732  13.427  1.4193 -1.8014  0.3437
  753TMC3    H111185   0.516   4.475  13.335  0.6503 -2.8273  2.1395
  753TMC3    H211186   0.805   4.355  13.620 -0.2838  0.7047  1.2966
  753TMC3    C711187   0.585   4.283  13.513 -0.4130 -0.3765 -0.3951
  753TMC3    C811188   0.959   4.560  13.598  0.0666 -0.1216  0.3817
  753TMC3    O111189   0.654   4.195  13.560 -0.8367 -0.3697  0.1824
  753TMC3    O211190   1.016   4.457  13.635 -0.4840 -0.4727 -0.0075
  754MPD2     C11191   0.078   3.726  13.530  0.3839  0.5403  0.0836
  754MPD2    C111192   0.094   3.616  13.614  0.2132  0.0722  0.2748
  754MPD2    C211193   4.718   3.552  13.657 -0.2646 -0.0753  0.6105
  754MPD2    C311194   4.593   3.587  13.608  0.1751 -0.3446  0.0439
  754MPD2    C411195   4.585   3.702  13.536 -0.6383 -0.2228 -0.5950
  754MPD2    C511196   4.696   3.776  13.493  0.4885 -0.0260  0.4773
  754MPD2     H11197   4.729   3.473  13.731  0.2971 -1.5846 -1.0703
  754MPD2    H111198   4.485   3.733  13.506 -1.2317  0.1019  1.7441
  754MPD2    H211199   0.163   3.785  13.496  1.2289  0.7979  2.6389
  754MPD2    H311200   4.675   3.861  13.429  0.9706  0.0040  0.3581
  754MPD2     N11201   4.468   3.533  13.660 -0.4911 -0.3680 -0.7733
  754MPD2    H511202   4.377   3.567  13.632  0.3519  1.0533 -1.8483
  754MPD2    N111203   0.220   3.579  13.659  0.0955  0.8135 -0.5342
  754MPD2    H711204   0.302   3.604  13.605  0.4042  0.7427 -0.1050
  755MPD2     C11205   3.680   3.847  13.646  0.1155 -0.0652  0.1801
  755MPD2    C111206   3.645   3.759  13.749  0.0142 -0.3638  0.3171
  755MPD2    C211207   3.746   3.673  13.797 -0.0723 -0.8105 -0.1136
  755MPD2    C311208   3.878   3.679  13.741  0.1720 -0.5545 -1.2806
  755MPD2    C411209   3.903   3.767  13.637 -0.1997 -0.1358 -0.0600
  755MPD2    C511210   3.803   3.844  13.577 -0.2683  1.0045 -0.1744
  755MPD2     H11211   3.731   3.606  13.881  0.3857 -0.1564  0.4908
  755MPD2    H111212   4.000   3.782  13.590 -0.0588  4.0490  1.5214
  755MPD2    H211213   3.600   3.907  13.606  0.8628  0.3184 -0.7238
  755MPD2    H311214   3.831   3.910  13.496 -0.9780 -0.2037 -1.4071
  755MPD2     N11215   3.990   3.600  13.782  0.1119 -0.1072 -0.1315
  755MPD2    H511216   4.071   3.600  13.721 -0.4248 -0.5174 -0.8374
  755MPD2    N111217   3.531   3.783  13.830 -0.8082  0.2799  0.1048
  755MPD2    H711218   3.525   3.725  13.914  1.8753 -1.4289 -0.8745
  756MPD2     C11219   0.122   0.443  10.068  0.0192 -0.4601 -0.0864
  756MPD2    C111220   0.054   0.338  10.119 -0.3846  0.3829  0.8349
  756MPD2    C211221   4.684   0.298  10.040 -0.3896  0.8552  0.5912
  756MPD2    C311222   4.655   0.361   9.919  0.6103  0.1325 -0.0339
  756MPD2    C411223   0.002   0.449   9.864  0.0272 -0.1348 -0.2155
  756MPD2    C511224   0.106   0.487   9.944 -0.1029 -0.4014 -0.4082
  756MPD2     H11225   4.611   0.221  10.059 -3.0506  3.2568  0.1955
  756MPD2    H111226   0.001   0.478   9.759  0.2328  1.3489  0.1891
  756MPD2    H211227   0.212   0.479  10.117 -1.4346 -1.5054  3.3675
  756MPD2    H311228   0.193   0.545   9.914 -0.3001  0.0826 -0.0351
  756MPD2     N11229   4.537   0.325   9.851 -0.1901  0.2883 -0.0442
  756MPD2    H511230   4.473   0.266   9.904 -0.3764  2.1097  1.7523
  756MPD2    N111231   0.086   0.275  10.237  0.4736  0.0009 -0.7562
  756MPD2    H711232   0.025   0.197  10.258  1.1396 -0.8922 -2.1380
  757MPD2     C11233   4.197   4.294   9.958 -0.5180 -0.7161  0.0724
  757MPD2    C111234   4.265   4.388  10.036  0.0558  0.2135 -0.2412
  757MPD2    C211235   4.274   4.516   9.987  0.0650 -0.5663  0.1595
  757MPD2    C311236   4.234   4.554   9.859 -0.4217 -0.2650  0.7424
  757MPD2    C411237   4.182   4.458   9.782  0.2910  0.2502  0.0789
  757MPD2    C511238   4.158   4.330   9.829  0.0608  0.6508 -0.6236
  757MPD2     H11239   4.315   4.592  10.053  0.3261 -0.4248 -0.1645
  757MPD2    H111240   4.169   4.484   9.677 -1.0611  2.0923  0.7005
  757MPD2    H211241   4.173   4.201  10.009 -1.7423  0.7855  2.2147
  757MPD2    H311242   4.108   4.270   9.755 -4.1132  1.9978  1.1181
  757MPD2     N11243   4.244   4.692   9.818  0.0821 -0.5249 -0.7010
  757MPD2    H511244   4.301   0.016   9.875 -1.9952  2.3750 -1.7499
  757MPD2    N111245   4.316   4.339  10.161  0.0684 -0.5475 -0.4525
  757MPD2    H711246   4.313   4.242  10.188 -3.5871 -0.1224  0.6801
  758MPD2     C11247   4.603   3.487  15.891 -0.3226 -0.8619 -0.0761
  758MPD2    C111248   4.621   3.375  15.969 -0.7102  0.6465  0.1833
  758MPD2    C211249   4.563   3.369  16.095 -0.3549 -0.1877  0.9344
  758MPD2    C311250   4.478   3.468  16.144  0.1529 -0.1849  0.3840
  758MPD2    C411251   4.456   3.578  16.062  0.0509 -0.0088  0.5051
  758MPD2    C511252   4.519   3.583  15.935  0.7783 -0.2108 -0.3200
  758MPD2     H11253   4.576   3.279  16.154 -0.1882 -0.9359 -0.2581
  758MPD2    H111254   4.407   3.672  16.088 -1.5400 -1.0480  1.2787
  758MPD2    H211255   4.642   3.499  15.791  0.1930  0.4549  0.2774
  758MPD2    H311256   4.495   3.662  15.865  2.2038 -1.0166 -1.7266
  758MPD2     N11257   4.420   3.464  16.274 -0.0390 -0.0968 -0.0906
  758MPD2    H511258   4.373   3.552  16.294 -0.3002  0.3405 -2.6751
  758MPD2    N111259   4.693   3.260  15.917  0.1083 -0.0978 -0.2041
  758MPD2    H711260   0.000   3.281  15.828 -0.8932 -3.2995 -1.4719
  759MPD2     C11261   3.387   2.203  10.382 -0.5405  0.7351  0.0988
  759MPD2    C111262   3.489   2.112  10.398  0.1237 -0.4130 -0.0037
  759MPD2    C211263   3.563   2.061  10.288  0.4342 -0.1870 -0.3862
  759MPD2    C311264   3.535   2.118  10.164 -0.5741  0.9022 -0.1304
  759MPD2    C411265   3.442   2.211  10.148  0.5328  0.5583 -0.0666
  759MPD2    C511266   3.364   2.241  10.255  0.3144  0.3841 -0.4068
  759MPD2     H11267   3.644   1.991  10.305  0.6706  0.7024  2.1263
  759MPD2    H111268   3.423   2.268  10.058  2.2730  0.3752 -0.5375
  759MPD2    H211269   3.310   2.233  10.452  0.0849  1.0236  0.6529
  759MPD2    H311270   3.287   2.317  10.248 -0.1308  0.3110  3.6141
  759MPD2     N11271   3.621   2.078  10.054 -0.8340 -0.1269  1.0900
  759MPD2    H511272   3.692   2.010  10.078 -0.4661  0.5089  1.8047
  759MPD2    N111273   3.517   2.061  10.523 -0.1697 -0.2453 -0.8171
  759MPD2    H711274   3.608   2.016  10.526  0.6550  1.5407  1.2269
  760MPD2     C11275   3.249   3.517  12.498  0.1114  0.4457 -0.2833
  760MPD2    C111276   3.340   3.590  12.427 -0.6658  0.0566 -0.5417
  760MPD2    C211277   3.470   3.540  12.425 -0.4646  0.4108  0.2205
  760MPD2    C311278   3.503   3.419  12.479  0.4872  0.4617 -0.4696
  760MPD2    C411279   3.406   3.348  12.547 -0.4292  0.0532 -0.5087
  760MPD2    C511280   3.280   3.401  12.558 -0.0716 -0.4402  0.0550
  760MPD2     H11281   3.549   3.601  12.383 -0.6862  0.3702 -0.2643
  760MPD2    H111282   3.418   3.252  12.595  0.2070  0.2059 -0.3752
  760MPD2    H211283   3.145   3.548  12.505 -0.1212 -0.5825  0.7332
  760MPD2    H311284   3.193   3.349  12.596  1.7848 -3.0655  0.6375
  760MPD2     N11285   3.635   3.368  12.483  0.1233  0.0357  0.7298
  760MPD2    H511286   3.653   3.305  12.561 -0.6156 -0.1344  0.7677
  760MPD2    N111287   3.321   3.725  12.368  0.2804 -0.1503 -0.0378
  760MPD2    H711288   3.403   3.772  12.331  0.5540  2.0055  3.3111
  761MPD2     C11289   0.084   3.540  11.918 -0.2849  0.2332 -0.2128
  761MPD2    C111290   0.152   3.502  11.800  0.0501  0.1786 -0.0983
  761MPD2    C211291   0.275   3.560  11.776  0.4039 -0.1764  0.4471
  761MPD2    C311292   0.316   3.671  11.849  0.3070  0.0611  0.2446
  761MPD2    C411293   0.234   3.707  11.962  0.0788  0.3234 -0.2874
  761MPD2    C511294   0.125   3.641  11.996 -0.4074  0.0382  0.4124
  761MPD2     H11295   0.333   3.523  11.693 -0.1263 -0.1394  0.0597
  761MPD2    H111296   0.265   3.795  12.017  1.6773 -0.2740 -0.2109
  761MPD2    H211297   4.734   3.484  11.949 -0.9697  0.1102 -2.3053
  761MPD2    H311298   0.069   3.673  12.084  1.0934  0.8348  1.0786
  761MPD2     N11299   0.421   3.753  11.818  0.5519  0.2479  0.4060
  761MPD2    H511300   0.432   3.830  11.883  1.2840  1.2514 -0.9168
  761MPD2    N111301   0.096   3.390  11.731 -0.0717  0.1724 -0.0809
  761MPD2    H711302   0.008   3.347  11.758 -0.4853  0.7976 -0.4536
  762MPD2     C11303   0.200   2.687  11.119  0.0397  0.0204  0.2007
  762MPD2    C111304   0.238   2.822  11.132 -0.3360 -0.8451 -0.6437
  762MPD2    C211305   0.297   2.883  11.023 -0.6547  0.1050 -0.4874
  762MPD2    C311306   0.300   2.821  10.893 -0.7229  0.1327  0.1834
  762MPD2    C411307   0.250   2.694  10.876 -0.3704  0.2383 -0.8614
  762MPD2    C511308   0.206   2.631  10.992  0.1831  1.0734  0.1287
  762MPD2     H11309   0.324   2.988  11.025  0.6474 -0.2807  1.4598
  762MPD2    H111310   0.239   2.639  10.783 -0.3926  0.6968 -1.1324
  762MPD2    H211311   0.141   2.631  11.190 -1.2838 -2.3251 -2.7429
  762MPD2    H311312   0.168   2.530  10.987 -0.8921  1.4294  1.0637
  762MPD2     N11313   0.358   2.895  10.783 -0.3495 -0.1402  0.1621
  762MPD2    H511314   0.403   2.982  10.808  2.0421 -0.7234 -2.1825
  762MPD2    N111315   0.197   2.880  11.258  0.3951  0.3523  0.1417
  762MPD2    H711316   0.156   2.817  11.326 -0.7001  1.3678  0.4292
  763MPD2     C11317   1.669   3.117  16.158  0.1365 -0.5660  0.3834
  763MPD2    C111318   1.599   3.223  16.100  0.5437 -0.2763  0.1443
  763MPD2    C211319   1.581   3.335  16.183  0.5666  0.4536  0.0429
  763MPD2    C311320   1.649   3.337  16.307 -0.7204  0.2351  0.0075
  763MPD2    C411321   1.715   3.227  16.353  0.4651 -0.3360 -0.3167
  763MPD2    C511322   1.712   3.109  16.287  0.5621  0.9230  0.2334
  763MPD2     H11323   1.529   3.419  16.139  3.5531  1.2011 -2.0325
  763MPD2    H111324   1.737   3.225  16.460  0.8992 -0.4262 -0.4057
  763MPD2    H211325   1.679   3.022  16.108  1.3031 -0.0102 -0.4343
  763MPD2    H311326   1.763   3.021  16.323  1.4416  0.9724 -0.8991
  763MPD2     N11327   1.655   3.445  16.399  0.5565  0.5129  0.8349
  763MPD2    H511328   1.701   3.427  16.487 -1.6556  1.7974  2.2582
  763MPD2    N111329   1.546   3.221  15.970  0.5167  0.0909 -0.0890
  763MPD2    H711330   1.499   3.304  15.934  4.8003  2.4503 -0.2878
  764MPD2     C11331   4.013   0.104   0.092 -0.9145  0.7080 -0.2509
  764MPD2    C111332   3.869   0.110   0.074  0.1891 -0.0280 -0.5690
  764MPD2    C211333   3.793   0.083   0.184  0.7442  0.2010 -0.4166
  764MPD2    C311334   3.844   0.058   0.308  0.1801 -0.2554 -0.2063
  764MPD2    C411335   3.981   0.056   0.325 -0.5927  0.1391 -0.2730
  764MPD2    C511336   4.063   0.074   0.215  0.9140 -0.0444  0.3467
  764MPD2     H11337   3.685   0.094   0.180  0.7530  0.0586 -1.1047
  764MPD2    H111338   4.038   0.042   0.416 -2.4587  0.9181  1.0193
  764MPD2    H211339   4.080   0.113   0.008 -1.1004 -0.5817 -0.5432
  764MPD2    H311340   4.169   0.069   0.237  0.9611  1.9361  0.5584
  764MPD2     N11341   3.757   0.042   0.416 -0.3415 -0.0368 -0.6025
  764MPD2    H511342   3.659   0.046   0.390 -0.7583  1.8666  1.2344
  764MPD2    N111343   3.801   0.128  17.699  0.4516  0.3957  0.0443
  764MPD2    H711344   3.702   0.150  17.704  0.9637  2.3977  1.3494
  765MPD2     C11345   4.587   2.872  15.637  0.7620 -0.0733  0.0122
  765MPD2    C111346   4.559   2.826  15.767  0.3159 -0.1484 -0.4300
  765MPD2    C211347   4.624   2.719  15.826 -0.2633  0.9012  0.5082
  765MPD2    C311348   4.709   2.645  15.740  0.2137 -0.2578  0.4362
  765MPD2    C411349   4.724   2.682  15.609  0.1416  0.2049 -0.0871
  765MPD2    C511350   4.657   2.788  15.555  0.5488 -0.1782 -0.2446
  765MPD2     H11351   4.596   2.684  15.924  1.7456 -1.0663  0.3860
  765MPD2    H111352   0.038   2.619  15.536 -1.0398  2.5271 -2.8869
  765MPD2    H211353   4.535   2.953  15.588 -0.3726 -0.1386  1.1008
  765MPD2    H311354   4.660   2.802  15.448  0.4256  2.4201  0.0942
  765MPD2     N11355   0.043   2.538  15.797 -0.5400 -0.4100 -0.4983
  765MPD2    H511356   0.023   2.516  15.894 -1.4743  4.4847  0.4536
  765MPD2    N111357   4.472   2.912  15.841 -0.4007  0.2967 -0.2903
  765MPD2    H711358   4.432   2.993  15.794  0.7345  0.1981 -1.4326
  766MPD2     C11359   3.657   2.958  15.881  0.1387  0.6950 -0.6226
  766MPD2    C111360   3.788   2.922  15.861  0.8512  0.4456 -0.1999
  766MPD2    C211361   3.823   2.864  15.746  0.1001  1.1267  0.7406
  766MPD2    C311362   3.739   2.825  15.648 -0.2066  0.1192 -0.5899
  766MPD2    C411363   3.609   2.853  15.667 -0.6426 -0.0465  1.0347
  766MPD2    C511364   3.572   2.924  15.785  0.0816 -0.1481 -0.4550
  766MPD2     H11365   3.930   2.863  15.728 -0.1973 -0.0069 -1.0795
  766MPD2    H111366   3.531   2.835  15.595 -2.1107 -1.9935  3.1266
  766MPD2    H211367   3.609   3.011  15.963  1.5906  1.5291 -0.3135
  766MPD2    H311368   3.473   2.967  15.785 -0.6795 -1.8949  0.6956
  766MPD2     N11369   3.781   2.785  15.518  0.1098  0.2963 -0.0795
  766MPD2    H511370   3.712   2.799  15.445 -0.8683 -3.1401  0.1725
  766MPD2    N111371   3.879   2.944  15.963  1.0284 -0.3871  0.3367
  766MPD2    H711372   3.859   3.013  16.034 -0.3890  1.4508 -1.8338
  767MPD2     C11373   3.328   3.234  15.276  0.2392 -0.5858  0.3509
  767MPD2    C111374   3.454   3.187  15.291  0.0000  0.0950  0.5968
  767MPD2    C211375   3.506   3.112  15.186  0.2269 -0.1738 -0.2920
  767MPD2    C311376   3.451   3.111  15.056  0.2896  0.0655 -0.4652
  767MPD2    C411377   3.333   3.189  15.041  0.1474 -0.1645 -0.7834
  767MPD2    C511378   3.265   3.230  15.154  0.3576  0.0099 -0.3608
  767MPD2     H11379   3.605   3.068  15.191  0.2702 -0.0314  0.1340
  767MPD2    H111380   3.291   3.202  14.942  1.2980  3.0229 -0.8393
  767MPD2    H211381   3.269   3.268  15.360 -2.4414 -2.6043 -0.6903
  767MPD2    H311382   3.170   3.281  15.144 -0.6427 -1.8591 -0.2633
  767MPD2     N11383   3.511   3.039  14.952 -0.5932 -0.0141 -0.1129
  767MPD2    H511384   3.497   3.066  14.855  1.3433 -0.7266 -0.5992
  767MPD2    N111385   3.520   3.220  15.413  0.2380  0.2403 -0.0712
  767MPD2    H711386   3.465   3.278  15.476 -0.1802  0.2644 -0.4572
  768MPD2     C11387   0.355   2.056  10.352  0.0115 -0.5650  0.3216
  768MPD2    C111388   0.320   1.941  10.421  1.0332 -0.9500  0.0194
  768MPD2    C211389   0.402   1.892  10.519 -0.2093  0.1194  0.3741
  768MPD2    C311390   0.524   1.948  10.537 -0.1496 -0.3779 -0.8148
  768MPD2    C411391   0.563   2.055  10.465  0.4051  0.3427  0.6812
  768MPD2    C511392   0.476   2.108  10.372 -0.6359  0.1701  0.4577
  768MPD2     H11393   0.361   1.819  10.589  0.6859 -1.6554 -0.9476
  768MPD2    H111394   0.664   2.095  10.472  0.4837  0.4733 -1.1325
  768MPD2    H211395   0.290   2.103  10.280  2.3413  0.1065 -1.3324
  768MPD2    H311396   0.505   2.191  10.308  1.1030  0.0445  1.0940
  768MPD2     N11397   0.616   1.905  10.627 -0.5357  0.3500  0.3308
  768MPD2    H511398   0.705   1.953  10.622  0.8483 -2.1578  0.7663
  768MPD2    N111399   0.187   1.899  10.424  0.0387  0.1256  0.4866
  768MPD2    H711400   0.169   1.824  10.490  1.2522  0.4680  1.2096
  769MPD2     C11401   0.772   4.711  14.723  0.2392  0.5931  0.8560
  769MPD2    C111402   0.814   4.591  14.781 -0.4559 -0.7843 -0.1099
  769MPD2    C211403   0.911   4.599  14.883 -0.1212  0.2256 -0.5963
  769MPD2    C311404   0.967   4.721  14.925 -0.1488 -0.7283 -0.3308
  769MPD2    C411405   0.913   0.098  14.866  0.5249 -0.4873  0.1311
  769MPD2    C511406   0.819   0.093  14.766  0.0007  0.0607  0.2615
  769MPD2     H11407   0.951   4.506  14.921 -2.5821 -0.3225  0.6713
  769MPD2    H111408   0.933   0.197  14.906  1.3392 -0.7026  0.2617
  769MPD2    H211409   0.688   4.713  14.654  1.1580  0.4327 -0.2807
  769MPD2    H311410   0.789   0.186  14.719 -2.2882 -1.2639 -0.8636
  769MPD2     N11411   1.079   4.718  15.010  0.1166 -0.1002  0.4360
  769MPD2    H511412   1.117   4.630  15.043  2.3845 -0.4156 -3.0247
  769MPD2    N111413   0.746   4.469  14.739  0.5143 -0.0916 -0.3807
  769MPD2    H711414   0.684   4.477  14.659 -1.0331  2.2114  1.0531
  770MPD2     C11415   0.427   3.475  15.026  0.3480  0.3928  0.1739
  770MPD2    C111416   0.319   3.526  14.956 -0.1916 -0.0972  0.3377
  770MPD2    C211417   0.332   3.647  14.887  0.4655 -0.8623  0.0724
  770MPD2    C311418   0.456   3.709  14.892  0.2817 -0.2598  0.3467
  770MPD2    C411419   0.563   3.651  14.957 -0.3216  0.7245 -0.1765
  770MPD2    C511420   0.548   3.540  15.029  1.3534  0.2610  1.0047
  770MPD2     H11421   0.252   3.697  14.835  0.2308 -0.7513  0.5395
  770MPD2    H111422   0.660   3.698  14.965 -0.1227  0.1220  0.8814
  770MPD2    H211423   0.428   3.383  15.083 -0.4301  0.1129 -0.2640
  770MPD2    H311424   0.630   3.503  15.089  2.5298 -0.7022 -1.1704
  770MPD2     N11425   0.463   3.842  14.831  0.4291  0.0449 -0.1246
  770MPD2    H511426   0.382   3.879  14.782  0.8142 -1.1173 -1.6597
  770MPD2    N111427   0.199   3.449  14.965  0.1887 -0.1234 -0.0908
  770MPD2    H711428   0.205   3.362  15.016 -2.0577  0.6245  1.4288
  771MPD2     C11429   1.890   2.331  13.827 -0.1725  0.1020 -0.5615
  771MPD2    C111430   1.817   2.451  13.818 -0.4088 -0.5505  0.1094
  771MPD2    C211431   1.725   2.469  13.713  0.0219  0.0858  0.3332
  771MPD2    C311432   1.733   2.383  13.608 -0.3808 -0.2616 -0.7692
  771MPD2    C411433   1.817   2.280  13.613 -0.4302 -0.4152  0.6608
  771MPD2    C511434   1.900   2.252  13.717  0.4146 -0.5418 -0.6771
  771MPD2     H11435   1.659   2.555  13.712 -0.0427  0.0364  0.3222
  771MPD2    H111436   1.827   2.208  13.532 -0.4947 -1.5825  1.6843
  771MPD2    H211437   1.960   2.312  13.908 -1.8346 -1.4541  0.5057
  771MPD2    H311438   1.950   2.155  13.721  2.2390  0.4706  0.9344
  771MPD2     N11439   1.646   2.412  13.499  0.4600  0.4175 -0.1803
  771MPD2    H511440   1.583   2.491  13.507 -0.5521 -0.2685 -1.3154
  771MPD2    N111441   1.809   2.543  13.920  0.0231  0.0592 -0.2805
  771MPD2    H711442   1.729   2.605  13.924 -0.0497 -0.1028  0.8592
  772MPD2     C11443   1.394   2.980  14.351  0.0361  0.5916  0.3391
  772MPD2    C111444   1.415   2.878  14.257  0.3285  0.2409 -0.8211
  772MPD2    C211445   1.305   2.811  14.203  0.3011  1.0995  0.1945
  772MPD2    C311446   1.174   2.836  14.254  1.2510 -0.5944  0.7644
  772MPD2    C411447   1.158   2.930  14.353  0.2814 -0.3123  0.3721
  772MPD2    C511448   1.270   3.001  14.411 -0.2868 -0.6286 -0.9240
  772MPD2     H11449   1.312   2.728  14.134  0.3740  1.6458 -0.4588
  772MPD2    H111450   1.060   2.956  14.391  0.1319  0.1985 -0.3826
  772MPD2    H211451   1.472   3.040  14.396  1.3023 -1.8909  1.4689
  772MPD2    H311452   1.257   3.066  14.496  0.5510 -1.1000 -0.4383
  772MPD2     N11453   1.052   2.773  14.212  0.3533  0.4976 -0.5398
  772MPD2    H511454   0.977   2.801  14.274  0.4587  0.4800 -0.4038
  772MPD2    N111455   1.543   2.847  14.195 -0.4304  0.5611  0.0893
  772MPD2    H711456   1.540   2.773  14.126 -0.7401  1.8858 -1.3384
  773MPD2     C11457   0.648   3.564   0.571  0.7810  0.3497 -0.2108
  773MPD2    C111458   0.614   3.474   0.472  0.1689 -0.0945 -0.6165
  773MPD2    C211459   0.677   3.351   0.471  0.5712 -0.7756 -0.4268
  773MPD2    C311460   0.777   3.314   0.566 -0.1145 -0.9457  0.3333
  773MPD2    C411461   0.805   3.404   0.666 -0.2670  0.0028  0.3251
  773MPD2    C511462   0.738   3.524   0.665 -0.1977  0.4022 -0.4344
  773MPD2     H11463   0.653   3.278   0.395  0.5652  0.3430 -1.4945
  773MPD2    H111464   0.883   3.391   0.740 -0.6626  0.3166  0.7982
  773MPD2    H211465   0.606   3.663   0.584  2.5540  1.0434  0.3219
  773MPD2    H311466   0.769   3.599   0.736  0.4008 -0.6489  0.4194
  773MPD2     N11467   0.848   3.189   0.549 -0.3929 -0.0911  0.0170
  773MPD2    H511468   0.791   3.121   0.499  1.1396 -0.7773 -0.8172
  773MPD2    N111469   0.512   3.484   0.376  0.6551 -0.0258 -0.8884
  773MPD2    H711470   0.500   3.406   0.312 -1.4754  0.2853 -0.8614
  774MPD2     C11471   4.201   3.183  14.160  0.2289  0.0397 -0.3755
  774MPD2    C111472   4.323   3.131  14.123  0.9709  0.6993  0.1424
  774MPD2    C211473   4.429   3.211  14.106  0.0220  0.1865 -0.3319
  774MPD2    C311474   4.421   3.347  14.142 -0.3816  0.5950 -0.4931
  774MPD2    C411475   4.296   3.400  14.175  0.7680  0.2335 -0.5571
  774MPD2    C511476   4.187   3.316  14.178  0.2425 -0.2733 -0.1885
  774MPD2     H11477   4.509   3.166  14.048  0.2732 -1.8964  1.6350
  774MPD2    H111478   4.297   3.503  14.208  1.6560 -0.2082  0.8077
  774MPD2    H211479   4.112   3.122  14.166 -1.0251  1.7857 -1.2856
  774MPD2    H311480   4.091   3.361  14.199  1.4035  1.9672  0.2844
  774MPD2     N11481   4.536   3.435  14.124 -0.3337 -0.2638 -0.2997
  774MPD2    H511482   4.521   3.535  14.124 -1.2766 -0.3931  0.6069
  774MPD2    N111483   4.334   2.996  14.094  0.6242  0.0681  0.0973
  774MPD2    H711484   4.256   2.934  14.117  0.8263  0.4419  1.7649
  775MPD2     C11485   1.362   4.512  16.028 -0.4632  0.3222 -0.1691
  775MPD2    C111486   1.319   4.534  15.898  0.1257  0.4419 -0.5915
  775MPD2    C211487   1.384   4.636  15.833 -0.1128  0.0403 -0.3493
  775MPD2    C311488   1.476   4.718  15.901 -0.0310  0.1344 -0.2032
  775MPD2    C411489   1.519   4.689  16.029 -0.8031  0.2464  1.0903
  775MPD2    C511490   1.457   4.589  16.096 -0.3872 -0.1347 -0.2745
  775MPD2     H11491   1.345   4.655  15.734  0.3160 -1.3841 -0.7883
  775MPD2    H111492   1.607   4.730  16.077 -0.4251  1.9694 -1.0798
  775MPD2    H211493   1.330   4.431  16.093  2.8677  0.4552  1.6270
  775MPD2    H311494   1.491   4.571  16.197 -0.6529  2.1505  0.2228
  775MPD2     N11495   1.546   0.076  15.829 -0.1949 -0.1822  0.2434
  775MPD2    H511496   1.602   0.148  15.874  2.8137 -2.2508 -0.1409
  775MPD2    N111497   1.204   4.472  15.847 -0.4478  0.1780  0.0071
  775MPD2    H711498   1.153   4.402  15.899 -0.0353 -0.9390 -1.0756
  776MPD2     C11499   3.981   4.208  12.124 -0.3836 -0.2543  0.0604
  776MPD2    C111500   4.080   4.301  12.149 -0.3298  0.0736  0.5652
  776MPD2    C211501   4.064   4.429  12.099  0.1226  0.2353 -0.3281
  776MPD2    C311502   3.949   4.475  12.037 -0.2669  0.5812 -0.4812
  776MPD2    C411503   3.850   4.386  12.011  0.0804 -0.5140  0.6349
  776MPD2    C511504   3.872   4.261  12.057  0.1652  1.0415  0.4395
  776MPD2     H11505   4.141   4.505  12.106 -1.2350  1.3746  2.5088
  776MPD2    H111506   3.760   4.410  11.956 -0.2893 -1.1564  0.9669
  776MPD2    H211507   3.984   4.105  12.157 -0.9781 -0.3781 -0.2648
  776MPD2    H311508   3.794   4.188  12.035  1.5551 -0.4747  0.5836
  776MPD2     N11509   3.936   4.604  11.977  0.0518 -0.0302  0.2004
  776MPD2    H511510   3.852   4.622  11.922  0.3388  2.0179  0.4376
  776MPD2    N111511   4.199   4.258  12.211 -0.0796 -0.5850 -0.7116
  776MPD2    H711512   4.210   4.160  12.236 -0.2039 -0.8041 -1.5244
  777MPD2     C11513   0.439   2.001   0.712  0.3027 -0.2380  0.3473
  777MPD2    C111514   0.344   2.083   0.774 -0.5543 -0.1181  0.8920
  777MPD2    C211515   0.214   2.066   0.726 -0.5597 -0.8257  0.4615
  777MPD2    C311516   0.190   1.976   0.623 -0.1701  0.0157  0.0198
  777MPD2    C411517   0.283   1.891   0.578  0.0147  0.0287  0.1482
  777MPD2    C511518   0.407   1.907   0.622  0.3876  0.0452 -0.1658
  777MPD2     H11519   0.137   2.122   0.777 -0.6679  0.4222 -1.0853
  777MPD2    H111520   0.260   1.813   0.506  0.4795  1.2899 -1.3541
  777MPD2    H211521   0.544   2.014   0.735 -0.0686  0.8462  1.4412
  777MPD2    H311522   0.484   1.841   0.583 -0.2991 -0.3650 -0.8205
  777MPD2     N11523   0.062   1.953   0.573 -0.0067  0.4791 -0.2070
  777MPD2    H511524   4.718   1.981   0.628 -0.2907  1.6983 -1.2535
  777MPD2    N111525   0.391   2.163   0.878 -0.4393 -0.1257 -0.4337
  777MPD2    H711526   0.491   2.159   0.896 -0.4072  1.0652 -0.3417
  778MPD2     C11527   1.458   2.206  15.067  0.1428  0.6841  0.1287
  778MPD2    C111528   1.475   2.093  14.993 -0.9652  1.0887 -0.1728
  778MPD2    C211529   1.555   2.103  14.878 -0.4257 -0.1436  0.3928
  778MPD2    C311530   1.616   2.222  14.841 -0.4592 -0.5037 -0.2546
  778MPD2    C411531   1.599   2.332  14.922  0.2463 -0.2573  0.1031
  778MPD2    C511532   1.524   2.324  15.032 -0.0589  0.3278 -0.0741
  778MPD2     H11533   1.554   2.022  14.805  1.4158 -0.2757  0.5137
  778MPD2    H111534   1.625   2.433  14.891 -1.8507  0.5528  0.9739
  778MPD2    H211535   1.395   2.217  15.154 -3.3665  0.7518 -2.3845
  778MPD2    H311536   1.516   2.414  15.092 -0.9284 -0.8543  1.6013
  778MPD2     N11537   1.702   2.219  14.727  0.3120  0.2106  0.1316
  778MPD2    H511538   1.708   2.137  14.668 -0.3970 -0.3546  0.8466
  778MPD2    N111539   1.412   1.970  15.029  0.8322 -0.1868  0.1909
  778MPD2    H711540   1.438   1.900  14.959 -0.1134  1.8103 -2.1527
  779MPD2     C11541   1.424   1.076  13.813  0.5311 -0.8402 -0.7937
  779MPD2    C111542   1.386   1.063  13.948  0.0830  0.2756  0.2026
  779MPD2    C211543   1.392   1.177  14.026  0.3356  0.0266 -0.2790
  779MPD2    C311544   1.446   1.301  13.978  0.7585  0.3358  0.2476
  779MPD2    C411545   1.480   1.308  13.848 -0.2556  0.0049 -0.1170
  779MPD2    C511546   1.469   1.195  13.765 -0.0434  0.4182  0.0208
  779MPD2     H11547   1.369   1.180  14.132 -0.8459 -0.9237 -0.5036
  779MPD2    H111548   1.521   1.397  13.803 -0.3595 -0.0324 -0.2854
  779MPD2    H211549   1.419   0.996  13.740  3.0628  0.8743 -2.8439
  779MPD2    H311550   1.510   1.213  13.667  2.9043 -2.0475  0.7829
  779MPD2     N11551   1.446   1.411  14.063  0.5500  0.3955 -0.2792
  779MPD2    H511552   1.439   1.395  14.163  1.3723 -2.4559 -0.6543
  779MPD2    N111553   1.333   0.948  13.996  0.7589  0.0558 -0.8471
  779MPD2    H711554   1.282   0.951  14.084  0.6555 -1.1609 -0.8680
  780MPD2     C11555   4.186   1.061   0.452 -0.3241 -0.2083  0.6423
  780MPD2    C111556   4.217   1.099   0.327 -0.3712  0.3595 -0.7880
  780MPD2    C211557   4.348   1.089   0.290 -0.5762 -0.9538 -0.1941
  780MPD2    C311558   4.448   1.066   0.380 -0.5050  0.0455 -0.4148
  780MPD2    C411559   4.414   1.053   0.511 -0.7553  0.4153  0.4782
  780MPD2    C511560   4.282   1.041   0.550 -0.7405 -0.2911  0.8458
  780MPD2     H11561   4.374   1.108   0.187 -1.1634 -2.9195 -0.6921
  780MPD2    H111562   4.486   1.040   0.591 -1.7111 -3.0631  0.7842
  780MPD2    H211563   4.081   1.064   0.478 -0.3847 -0.3533  0.4179
  780MPD2    H311564   4.246   1.017   0.650  1.5343  0.4192  1.8351
  780MPD2     N11565   4.586   1.071   0.339 -0.0496 -0.5700  0.3708
  780MPD2    H511566   4.598   1.072   0.238 -1.4793  2.0936  0.2241
  780MPD2    N111567   4.104   1.126   0.235  0.2321  0.3174 -0.6654
  780MPD2    H711568   4.007   1.130   0.267  0.1572  0.2624 -0.8888
  781MPD2     C11569   2.888   3.433  12.318 -0.3922 -1.2881  0.1610
  781MPD2    C111570   2.909   3.315  12.386  0.4222  0.1804 -0.0532
  781MPD2    C211571   3.030   3.251  12.373 -0.8656  0.0230 -0.1827
  781MPD2    C311572   3.130   3.292  12.280  0.1583  0.4941 -0.0762
  781MPD2    C411573   3.108   3.404  12.211 -0.0457  0.1736  0.1315
  781MPD2    C511574   2.991   3.474  12.232 -0.0956 -0.2269  0.1289
  781MPD2     H11575   3.038   3.155  12.422  0.4850 -1.0995 -2.5989
  781MPD2    H111576   3.183   3.439  12.140  0.9599  0.0295  1.1281
  781MPD2    H211577   2.792   3.483  12.310 -0.3358 -0.9590  1.5183
  781MPD2    H311578   2.986   3.561  12.167 -1.8862 -1.2424 -1.0611
  781MPD2     N11579   3.248   3.219  12.257  0.0207  0.4370  0.2756
  781MPD2    H511580   3.308   3.253  12.184 -0.7025  0.7384 -0.1775
  781MPD2    N111581   2.812   3.245  12.465 -0.6257  0.6252 -0.3854
  781MPD2    H711582   2.845   3.158  12.506  1.1575  1.5251  0.1073
  782MPD2     C11583   0.235   4.440  10.727 -0.1399 -0.1460  0.0070
  782MPD2    C111584   0.361   4.393  10.726  0.7785 -0.8933  0.7733
  782MPD2    C211585   0.451   4.464  10.810 -0.0048  0.4780 -0.2762
  782MPD2    C311586   0.399   4.556  10.903 -0.0157 -0.0876  0.6467
  782MPD2    C411587   0.277   4.614  10.882  0.4731 -0.3296 -0.2014
  782MPD2    C511588   0.198   4.551  10.796  0.2950 -0.1728 -0.1932
  782MPD2     H11589   0.555   4.439  10.828 -0.1715 -0.9386 -1.2180
  782MPD2    H111590   0.238   4.700  10.935 -0.1256 -0.7179 -0.0102
  782MPD2    H211591   0.174   4.391  10.651 -0.9133 -0.3499  0.7590
  782MPD2    H311592   0.101   4.594  10.775  0.1113 -1.7372 -2.5558
  782MPD2     N11593   0.481   4.613  11.007 -0.3315  0.2853 -0.1608
  782MPD2    H511594   0.443   4.683  11.068 -0.1943  1.6371 -1.6275
  782MPD2    N111595   0.394   4.280  10.650  0.3226 -0.0461  0.3564
  782MPD2    H711596   0.324   4.219  10.608  0.6490 -1.0144  1.2030
  783MPD2     C11597   0.352   3.691  11.238  0.5422 -0.2494 -0.1028
  783MPD2    C111598   0.424   3.814  11.239 -0.1879  0.6770 -0.6419
  783MPD2    C211599   0.456   3.868  11.113 -1.1097  0.1029  0.3525
  783MPD2    C311600   0.405   3.806  10.999  0.1553  0.3548  0.7357
  783MPD2    C411601   0.337   3.692  10.995 -0.8365  0.3684 -0.7923
  783MPD2    C511602   0.311   3.636  11.118  0.1341  0.2279  0.1645
  783MPD2     H11603   0.515   3.958  11.107 -0.6225 -0.1828  0.8916
  783MPD2    H111604   0.294   3.644  10.907 -1.5168  1.4975 -1.0883
  783MPD2    H211605   0.336   3.640  11.332 -0.5114 -0.8893 -0.6190
  783MPD2    H311606   0.255   3.543  11.117 -0.2276  0.4926 -3.0059
  783MPD2     N11607   0.439   3.871  10.881 -1.2548  0.1642 -0.1991
  783MPD2    H511608   0.500   3.951  10.891 -0.9309 -0.4105  2.5958
  783MPD2    N111609   0.479   3.858  11.362 -0.2073 -0.1762  0.0877
  783MPD2    H711610   0.478   3.787  11.434 -0.1863  0.4098  0.6586
  784MPD2     C11611   2.729   4.299   0.524  0.0181  0.4521  0.0865
  784MPD2    C111612   2.691   4.416   0.592 -0.1539 -0.3627 -0.0652
  784MPD2    C211613   2.575   4.482   0.555  0.0580 -0.4961 -0.3535
  784MPD2    C311614   2.494   4.431   0.450 -0.3042 -0.0159 -0.7038
  784MPD2    C411615   2.519   4.308   0.403  0.4777 -0.1024 -0.2523
  784MPD2    C511616   2.635   4.246   0.439 -0.1916 -0.5811  0.8357
  784MPD2     H11617   2.554   4.577   0.604 -0.0686 -0.3466 -0.7035
  784MPD2    H111618   2.452   4.258   0.335 -0.0254  0.5950 -0.2655
  784MPD2    H211619   2.822   4.244   0.528 -0.0192  0.3019 -0.9860
  784MPD2    H311620   2.662   4.149   0.399  0.3179  0.5218 -1.4250
  784MPD2     N11621   2.378   4.506   0.419 -0.1563 -0.3913  0.3447
  784MPD2    H511622   2.382   4.600   0.457  1.5296 -0.0711 -0.6005
  784MPD2    N111623   2.783   4.484   0.678 -0.2121  0.2024  0.6439
  784MPD2    H711624   2.766   4.580   0.707  3.0720  0.5070  1.5989
  785MPD2     C11625   4.025   2.556  11.030 -0.1926  0.3866 -0.5218
  785MPD2    C111626   3.925   2.549  11.124  0.2206  0.4075  0.2743
  785MPD2    C211627   3.802   2.501  11.075  0.5329  0.3403  0.5532
  785MPD2    C311628   3.773   2.455  10.951 -0.4272 -0.3377 -0.4278
  785MPD2    C411629   3.870   2.462  10.858 -0.0536 -0.0327 -0.3053
  785MPD2    C511630   3.989   2.522  10.901 -0.1674  0.0719 -0.1212
  785MPD2     H11631   3.716   2.502  11.142 -0.9260  2.8027 -1.3595
  785MPD2    H111632   3.860   2.422  10.758  1.0169  0.1285 -0.4812
  785MPD2    H211633   4.120   2.601  11.055 -0.1248 -0.5029  0.8236
  785MPD2    H311634   4.067   2.535  10.827  0.5634  0.5566  0.7436
  785MPD2     N11635   3.637   2.422  10.917 -0.2781 -0.2175  0.2283
  785MPD2    H511636   3.570   2.450  10.989 -0.6144  0.0640 -0.1942
  785MPD2    N111637   3.952   2.594  11.255 -0.4737  0.4814  0.3310
  785MPD2    H711638   4.040   2.645  11.260 -0.5324  0.9891 -3.3918
  786MPD2     C11639   1.785   0.497  15.011 -0.0515 -0.0036 -0.1461
  786MPD2    C111640   1.912   0.445  14.987  0.0252 -0.2937 -0.0143
  786MPD2    C211641   2.008   0.454  15.085  0.7009  0.6019  0.5067
  786MPD2    C311642   1.981   0.513  15.212 -0.6567  0.0239 -0.0528
  786MPD2    C411643   1.856   0.566  15.234  0.4107  0.2400  0.5722
  786MPD2    C511644   1.758   0.556  15.134 -0.0079  0.0122 -0.1605
  786MPD2     H11645   2.109   0.424  15.060 -0.6260 -2.0826 -1.6207
  786MPD2    H111646   1.821   0.610  15.327 -0.7202  1.0506 -0.2261
  786MPD2    H211647   1.707   0.495  14.936 -0.9162 -1.6456  0.7971
  786MPD2    H311648   1.656   0.590  15.150 -0.0934 -0.7312  0.9241
  786MPD2     N11649   2.083   0.539  15.313  0.2126  0.0280 -0.0114
  786MPD2    H511650   2.064   0.599  15.392  0.4913  1.4802 -1.0411
  786MPD2    N111651   1.947   0.397  14.861 -0.1526  1.2119  0.4017
  786MPD2    H711652   2.042   0.368  14.837 -0.8608  0.3398 -1.3436
  787MPD2     C11653   2.334   4.624  14.879  0.3496 -0.3499  0.9966
  787MPD2    C111654   2.264   4.604  14.760 -0.1434 -0.0776 -0.2116
  787MPD2    C211655   2.280   4.485  14.692 -1.0187  0.5198 -0.5078
  787MPD2    C311656   2.360   4.383  14.742  0.7464 -0.4134 -0.1966
  787MPD2    C411657   2.420   4.399  14.863  0.1195 -0.5031 -0.2470
  787MPD2    C511658   2.397   4.513  14.934  0.1863 -0.3528  0.3222
  787MPD2     H11659   2.230   4.459  14.599 -1.7751  2.4856 -0.6354
  787MPD2    H111660   2.457   4.311  14.915  0.3370 -0.8892 -1.0532
  787MPD2    H211661   2.333   4.719  14.931  0.0446  0.6944 -0.9098
  787MPD2    H311662   2.421   4.530  15.038 -2.8243 -2.1337  1.2881
  787MPD2     N11663   2.380   4.277  14.653 -0.4672  0.1486 -0.1678
  787MPD2    H511664   2.360   4.302  14.557 -1.9923 -1.1120 -0.1827
  787MPD2    N111665   2.200   4.718  14.702 -0.7049 -0.1805  0.2246
  787MPD2    H711666   2.205   0.069  14.753  0.4334  0.2117 -0.5917
  788MPD2     C11667   4.545   3.665   0.823 -0.6891  0.9437 -0.1273
  788MPD2    C111668   4.406   3.632   0.826 -0.3006 -0.5314  0.0736
  788MPD2    C211669   4.315   3.716   0.769  0.0596 -0.3168 -0.5758
  788MPD2    C311670   4.351   3.842   0.723 -0.0849  0.1965  0.4829
  788MPD2    C411671   4.485   3.874   0.742  0.1449  0.8949 -0.0151
  788MPD2    C511672   4.579   3.792   0.788 -0.4448 -0.2615  0.4127
  788MPD2     H11673   4.215   3.687   0.738 -0.9151  1.0946  1.2337
  788MPD2    H111674   4.521   3.959   0.685  0.0918  2.0641  1.7139
  788MPD2    H211675   4.627   3.605   0.861 -2.3525 -0.9641  0.4435
  788MPD2    H311676   4.678   3.833   0.803 -0.7513  0.7831 -0.4694
  788MPD2     N11677   4.275   3.933   0.653 -0.9151  0.0873  0.1466
  788MPD2    H511678   4.327   4.011   0.612  1.1897 -0.9717  0.7714
  788MPD2    N111679   4.379   3.502   0.868 -0.4348 -0.1032 -0.3017
  788MPD2    H711680   4.461   3.453   0.902 -0.3152 -0.5548 -1.2537
  789MPD2     C11681   4.069   3.291  16.358 -0.0746  0.8175  0.0828
  789MPD2    C111682   4.023   3.266  16.491  0.1132  0.6675  0.0782
  789MPD2    C211683   4.001   3.364  16.581  1.3246 -0.2500  0.4686
  789MPD2    C311684   4.020   3.494  16.552 -0.4096 -0.1034  0.1550
  789MPD2    C411685   4.050   3.525  16.418 -0.4535 -0.6758 -0.5952
  789MPD2    C511686   4.085   3.423  16.330 -0.1028 -0.7109 -0.5130
  789MPD2     H11687   3.975   3.333  16.682 -2.0868 -0.2027 -0.4164
  789MPD2    H111688   4.071   3.628  16.393  0.4596 -1.0266 -1.2684
  789MPD2    H211689   4.095   3.216  16.284 -1.0490 -0.4752  1.0444
  789MPD2    H311690   4.123   3.459  16.235 -0.3917  0.6373 -0.1304
  789MPD2     N11691   3.995   3.599  16.643  0.0079 -0.6548 -0.3249
  789MPD2    H511692   4.002   3.695  16.611 -2.1098 -1.1549 -2.2711
  789MPD2    N111693   3.978   3.141  16.534  0.4432 -0.0899  0.0864
  789MPD2    H711694   3.946   3.133  16.630 -1.6595 -1.4797 -0.7184
  790MPD2     C11695   0.058   4.593  13.822  0.0002  0.3509  0.0523
  790MPD2    C111696   0.179   4.590  13.767  0.0499  0.0966 -0.5674
  790MPD2    C211697   0.185   4.581  13.632 -0.1619  0.2256  0.4842
  790MPD2    C311698   0.066   4.584  13.557  0.8431  0.2629 -0.2410
  790MPD2    C411699   4.680   4.581  13.619 -0.1008 -0.1652 -0.6634
  790MPD2    C511700   4.671   4.588  13.754 -0.5241  0.3175  0.4937
  790MPD2     H11701   0.282   4.576  13.584 -0.2955 -0.1654  0.2524
  790MPD2    H111702   4.593   4.602  13.557 -3.5383  0.0966  4.2051
  790MPD2    H211703   0.057   4.609  13.929 -0.3080 -1.4529  0.3276
  790MPD2    H311704   4.577   4.594  13.807 -0.1610  0.8257  1.0848
  790MPD2     N11705   0.070   4.554  13.421 -0.1695 -0.5423  0.2203
  790MPD2    H511706   4.722   4.540  13.367 -0.0051 -0.8555  0.0433
  790MPD2    N111707   0.287   4.608  13.849  0.0209  0.3892  0.4258
  790MPD2    H711708   0.268   4.618  13.948  1.5774 -0.1680  0.7932
  791MPD2     C11709   4.294   4.489  12.972 -0.8257  0.1419 -0.5333
  791MPD2    C111710   4.373   4.383  13.013  0.5462  0.5955 -0.8519
  791MPD2    C211711   4.320   4.254  13.041  0.7338 -0.2811  0.0939
  791MPD2    C311712   4.185   4.231  13.035 -0.0171 -0.8580 -0.0972
  791MPD2    C411713   4.100   4.339  12.992  0.2168  0.6436 -0.1510
  791MPD2    C511714   4.158   4.466  12.968 -0.4241  0.5606  0.4632
  791MPD2     H11715   4.383   4.171  13.069  1.0748 -0.1670 -0.3286
  791MPD2    H111716   3.992   4.330  12.986  0.1859  0.0202  1.1179
  791MPD2    H211717   4.337   4.587  12.952 -0.5213  0.2298  0.5890
  791MPD2    H311718   4.085   4.539  12.934  1.2466  1.9656 -0.0628
  791MPD2     N11719   4.136   4.103  13.078  0.1936 -0.6710  0.0687
  791MPD2    H511720   4.196   4.022  13.084  0.4386 -0.5592 -0.9042
  791MPD2    N111721   4.512   4.409  13.024 -0.7098 -0.1393 -0.3347
  791MPD2    H711722   4.548   4.500  12.997 -0.7965  0.0398  0.1638
  792MPD2     C11723   0.370   0.326  11.743  0.5585 -0.4891  0.1898
  792MPD2    C111724   0.307   0.392  11.646  0.7914  0.5452 -0.1884
  792MPD2    C211725   0.175   0.367  11.621 -0.6454  0.2259  0.4668
  792MPD2    C311726   0.101   0.278  11.693  0.0332 -0.1518  0.1899
  792MPD2    C411727   0.161   0.221  11.804 -0.1285  0.7631 -0.3903
  792MPD2    C511728   0.297   0.242  11.822 -0.2057 -0.1707  0.0425
  792MPD2     H11729   0.130   0.395  11.526 -2.0132  1.6203  1.5159
  792MPD2    H111730   0.117   0.150  11.872  0.5572  0.3303 -0.3977
  792MPD2    H211731   0.471   0.355  11.769  0.5962 -0.5931  0.1613
  792MPD2    H311732   0.344   0.187  11.903 -1.7027 -1.3361  0.1153
  792MPD2     N11733   4.701   0.246  11.665 -0.5404  0.3058  0.9400
  792MPD2    H511734   4.664   0.168  11.718  1.6818  0.3895  2.6133
  792MPD2    N111735   0.388   0.480  11.570  0.1149  0.5630  0.8957
  792MPD2    H711736   0.485   0.461  11.589  0.3444  1.5059  0.6708
  793MPD2     C11737   4.319   0.179  10.804  0.4459 -0.6592 -0.1599
  793MPD2    C111738   4.426   0.244  10.861  0.8252  0.2014  0.4971
  793MPD2    C211739   4.422   0.286  10.993  0.0211  0.3235 -0.3118
  793MPD2    C311740   4.315   0.244  11.075  0.2266 -0.3373 -0.2551
  793MPD2    C411741   4.211   0.170  11.023  0.6080  0.6917 -0.7900
  793MPD2    C511742   4.219   0.136  10.888  0.4712  0.1983 -0.0294
  793MPD2     H11743   4.499   0.345  11.042 -0.2953  0.0981  0.4666
  793MPD2    H111744   4.118   0.135  11.067  0.2491  3.4772  0.6164
  793MPD2    H211745   4.316   0.149  10.699 -0.0202 -1.7346  0.1559
  793MPD2    H311746   4.132   0.094  10.839  0.1551  3.1761 -2.0176
  793MPD2     N11747   4.328   0.267  11.215  0.3675  0.6087  0.0498
  793MPD2    H511748   4.417   0.287  11.259  1.3421 -4.5272  0.4478
  793MPD2    N111749   4.536   0.272  10.784  0.0275 -0.4132 -0.1386
  793MPD2    H711750   4.624   0.296  10.829 -0.5386  1.0707  0.1632
  794MPD2     C11751   0.139   4.126  17.640 -0.5721 -0.4780  0.2988
  794MPD2    C111752   0.110   3.995  17.589  0.0799 -0.0707  0.0143
  794MPD2    C211753   0.033   3.991  17.477  0.4289 -0.7771 -0.6596
  794MPD2    C311754   4.717   4.106  17.416 -0.0934 -0.4852  0.0699
  794MPD2    C411755   0.000   4.229  17.475 -1.1420  0.0136 -0.3073
  794MPD2    C511756   0.078   4.238  17.585  1.0535 -0.5844  0.4040
  794MPD2     H11757   0.005   3.892  17.443  0.0589 -0.2356 -1.9137
  794MPD2    H111758   4.682   4.317  17.445  1.2362  1.9698  1.0718
  794MPD2    H211759   0.205   4.142  17.724 -2.0950  0.5595  1.2828
  794MPD2    H311760   0.101   4.330  17.637  0.4357 -0.0844 -0.2097
  794MPD2     N11761   4.646   4.105  17.297  0.5573  0.0864 -0.0001
  794MPD2    H511762   4.600   4.194  17.278 -0.6173 -0.1410  1.7417
  794MPD2    N111763   0.166   3.877  17.645 -0.4633  0.5598 -0.2830
  794MPD2    H711764   0.174   3.790  17.593  0.1253  0.0481  0.6607
  795MPD2     C11765   2.688   1.490  13.494 -0.1403  0.2060  0.4751
  795MPD2    C111766   2.640   1.387  13.579 -0.2870  0.0311 -0.0065
  795MPD2    C211767   2.724   1.307  13.652  0.2634 -0.5800  0.3718
  795MPD2    C311768   2.865   1.324  13.643  0.4410  0.3307 -0.2026
  795MPD2    C411769   2.911   1.427  13.557 -0.5301  0.1869 -0.4070
  795MPD2    C511770   2.823   1.505  13.481 -0.7473 -0.2117  0.6234
  795MPD2     H11771   2.677   1.238  13.722 -0.8609 -0.7534 -0.5481
  795MPD2    H111772   3.015   1.452  13.539 -0.0054 -1.6255  0.0949
  795MPD2    H211773   2.622   1.551  13.433  0.0639  0.9699  1.0231
  795MPD2    H311774   2.853   1.572  13.401  0.6464 -1.3335  0.2101
  795MPD2     N11775   2.952   1.241  13.720 -0.1907  0.3429 -0.3250
  795MPD2    H511776   2.901   1.184  13.787  0.9379 -0.8176 -0.4687
  795MPD2    N111777   2.502   1.361  13.584  0.0230  0.3754 -0.2292
  795MPD2    H711778   2.458   1.309  13.659  2.7789  1.3870  2.0529
  796MPD2     C11779   1.904   2.866  15.837  0.5252  0.0224  0.0406
  796MPD2    C111780   1.943   2.936  15.948 -0.6027  0.3190 -0.3538
  796MPD2    C211781   1.946   3.073  15.943  0.3477  0.0335  0.5926
  796MPD2    C311782   1.904   3.150  15.837  0.3776 -0.2087  0.0010
  796MPD2    C411783   1.862   3.078  15.726  0.0211  0.3615  0.2168
  796MPD2    C511784   1.865   2.939  15.729 -0.4008  0.8127  0.0869
  796MPD2     H11785   1.967   3.124  16.037 -3.2509  1.4700  0.6465
  796MPD2    H111786   1.842   3.127  15.631 -0.4638 -0.6390 -0.2074
  796MPD2    H211787   1.890   2.759  15.842  0.6527  0.0312  0.5688
  796MPD2    H311788   1.823   2.882  15.647 -1.7199  0.8127  0.7733
  796MPD2     N11789   1.896   3.284  15.860 -0.0651  0.1627 -0.8274
  796MPD2    H511790   1.932   3.317  15.949 -0.9379  1.9520 -1.1321
  796MPD2    N111791   1.970   2.865  16.062  0.3147 -0.0041  0.0476
  796MPD2    H711792   1.920   2.778  16.078  1.0667 -0.2894  0.8582
  797MPD2     C11793   2.872   2.399  17.621 -0.3624 -0.4456  0.4387
  797MPD2    C111794   2.898   2.534  17.627  0.2708 -0.1804 -0.8060
  797MPD2    C211795   2.820   2.624  17.562 -0.1999 -0.0297 -0.3940
  797MPD2    C311796   2.731   2.583  17.467  0.2006 -0.3750 -0.0758
  797MPD2    C411797   2.715   2.448  17.453  0.4768  0.0284  0.5364
  797MPD2    C511798   2.781   2.355  17.528 -0.2325 -0.4147 -0.3195
  797MPD2     H11799   2.847   2.728  17.575 -0.7752  0.2170 -1.1810
  797MPD2    H111800   2.653   2.414  17.371  0.6482  0.2111  0.3310
  797MPD2    H211801   2.923   2.331  17.690  0.6235  1.2569  1.3782
  797MPD2    H311802   2.755   2.251  17.515 -0.9166 -0.3100  0.2049
  797MPD2     N11803   2.654   2.659  17.383  0.1441  0.2714  0.2362
  797MPD2    H511804   2.600   2.610  17.313 -1.1406  1.1956  0.5899
  797MPD2    N111805   3.012   2.585  17.686 -0.5089  0.3614  0.3616
  797MPD2    H711806   3.017   2.686  17.689  1.9428  0.3051 -1.8324
  798MPD2     C11807   3.055   3.225  17.315  0.5059  0.2289  0.1520
  798MPD2    C111808   2.974   3.126  17.363  0.1033 -0.3411  0.5984
  798MPD2    C211809   3.020   3.043  17.460 -0.4381  0.3593 -0.3303
  798MPD2    C311810   3.144   3.057  17.517 -0.9683 -0.8340 -0.0183
  798MPD2    C411811   3.229   3.150  17.468 -0.3100  0.6786 -0.2063
  798MPD2    C511812   3.184   3.229  17.368 -0.2149  0.5223  0.7469
  798MPD2     H11813   2.960   2.971  17.515  1.5288  0.7899  2.3694
  798MPD2    H111814   3.331   3.160  17.504  0.3844  0.4243 -2.1440
  798MPD2    H211815   3.024   3.306  17.250  0.6778 -1.0979 -1.5998
  798MPD2    H311816   3.253   3.294  17.315  0.4247 -0.6289  0.1840
  798MPD2     N11817   3.174   2.956  17.605  0.0877 -0.3366 -0.5074
  798MPD2    H511818   3.110   2.878  17.620 -0.8541  0.7995  1.4148
  798MPD2    N111819   2.846   3.094  17.310  0.3224  0.4660  0.3062
  798MPD2    H711820   2.791   3.031  17.367  1.8649  0.2925  1.5976
  799MPD2     C11821   1.998   4.215  14.986 -0.4067 -0.1824  0.4995
  799MPD2    C111822   1.902   4.133  14.929  0.2179 -0.0568  1.1081
  799MPD2    C211823   1.848   4.162  14.805  0.1613 -0.4598 -0.1440
  799MPD2    C311824   1.900   4.282  14.732 -0.0752 -0.3195 -0.3383
  799MPD2    C411825   1.991   4.365  14.793 -0.3810 -0.0035  0.5321
  799MPD2    C511826   2.036   4.333  14.919 -0.2232  0.3340 -0.1261
  799MPD2     H11827   1.767   4.106  14.760 -0.7756  0.1247  0.8008
  799MPD2    H111828   2.009   4.461  14.746  0.6425 -0.8552 -0.8294
  799MPD2    H211829   2.049   4.197  15.079  0.5971  0.8197  0.1385
  799MPD2    H311830   2.116   4.392  14.963  0.5229 -0.2426 -0.7126
  799MPD2     N11831   1.864   4.316  14.602  0.1632  0.2852 -0.6283
  799MPD2    H511832   1.887   4.407  14.564 -0.7339  0.6006 -0.4084
  799MPD2    N111833   1.861   4.015  14.989 -0.6855 -0.7347 -0.2806
  799MPD2    H711834   1.789   3.956  14.949  0.7010 -1.2453 -1.9930
  800MPD2     C11835   2.256   0.742  14.611  0.6699  0.4381 -0.1641
  800MPD2    C111836   2.388   0.706  14.579  0.0970 -0.6086 -0.4432
  800MPD2    C211837   2.400   0.624  14.466 -0.0177  0.8754  0.8431
  800MPD2    C311838   2.298   0.562  14.403 -0.1701  0.1725 -0.3260
  800MPD2    C411839   2.174   0.580  14.451 -0.1630  0.7498  0.3163
  800MPD2    C511840   2.154   0.680  14.555  0.0299 -0.3693 -0.3445
  800MPD2     H11841   2.498   0.592  14.433 -1.2322 -2.1642  0.1715
  800MPD2    H111842   2.087   0.537  14.403  1.2935 -2.4296  0.5532
  800MPD2    H211843   2.235   0.830  14.672 -0.7357 -1.8300  2.5915
  800MPD2    H311844   2.058   0.716  14.589  0.9280  2.4880 -0.7496
  800MPD2     N11845   2.327   0.477  14.295  0.0288  0.0296  0.1857
  800MPD2    H511846   2.420   0.470  14.256 -1.3734 -0.5519 -3.0586
  800MPD2    N111847   2.499   0.773  14.637 -0.0505  0.4120 -0.2115
  800MPD2    H711848   2.485   0.838  14.714 -1.8638  1.1584 -1.1833
  801MPD2     C11849   2.634   1.310  15.095 -0.5775 -1.2124 -0.2142
  801MPD2    C111850   2.562   1.232  15.004  0.4009  0.7594 -0.2120
  801MPD2    C211851   2.430   1.218  15.026  0.3659  0.3799  0.0743
  801MPD2    C311852   2.365   1.276  15.129 -0.1911  0.0420  0.0533
  801MPD2    C411853   2.434   1.353  15.220  0.2091 -0.4738 -0.7198
  801MPD2    C511854   2.573   1.370  15.200  0.0457 -0.0835 -0.6860
  801MPD2     H11855   2.380   1.142  14.966 -0.1146 -0.1981  1.2162
  801MPD2    H111856   2.384   1.409  15.298  0.6023  1.1647 -1.6551
  801MPD2    H211857   2.742   1.306  15.088 -0.7331 -3.0160 -1.4520
  801MPD2    H311858   2.630   1.414  15.282  0.2641 -2.2336  0.3315
  801MPD2     N11859   2.235   1.242  15.162  0.3398  0.3739  0.4174
  801MPD2    H511860   2.198   1.280  15.249 -2.2626 -1.0037 -0.0867
  801MPD2    N111861   2.616   1.148  14.900 -0.1224  0.2464 -0.6482
  801MPD2    H711862   2.555   1.086  14.847  0.0296  0.8517 -1.5376
  802MPD2     C11863   1.274   1.414  17.275 -0.2636  0.3163 -0.3322
  802MPD2    C111864   1.262   1.366  17.405  0.3194  0.4224  0.0354
  802MPD2    C211865   1.279   1.231  17.424 -0.8264 -0.6134  0.1291
  802MPD2    C311866   1.283   1.141  17.317 -0.1221 -0.5479 -0.0345
  802MPD2    C411867   1.273   1.189  17.184  0.4689  0.7028  0.0052
  802MPD2    C511868   1.263   1.325  17.169  0.0350  0.3353 -0.3221
  802MPD2     H11869   1.269   1.195  17.526 -0.3121 -2.6776 -0.5485
  802MPD2    H111870   1.264   1.122  17.100 -0.1407  2.0302 -1.0006
  802MPD2    H211871   1.266   1.520  17.255  0.3246  0.7940  1.9193
  802MPD2    H311872   1.260   1.363  17.068  0.9504  2.6575  0.5125
  802MPD2     N11873   1.311   1.002  17.344 -0.1554 -0.2651 -0.7880
  802MPD2    H511874   1.327   0.978  17.441 -1.1534  0.4908 -0.4408
  802MPD2    N111875   1.256   1.454  17.517  0.0963  0.4226  0.4015
  802MPD2    H711876   1.265   1.404  17.604  2.1990 -0.5738 -0.3904
  803MPD2     C11877   2.964   4.406  12.332 -0.4430  0.8488  0.0382
  803MPD2    C111878   3.083   4.353  12.384  0.2250 -0.6465  0.9468
  803MPD2    C211879   3.085   4.265  12.489  0.2775 -0.9440 -0.3474
  803MPD2    C311880   2.973   4.265  12.573 -0.0201 -0.4242 -0.9400
  803MPD2    C411881   2.857   4.317  12.525  0.0838  0.0739  0.3057
  803MPD2    C511882   2.850   4.381  12.404 -0.5626 -0.2877  0.0125
  803MPD2     H11883   3.174   4.209  12.513  0.6624  0.7729  2.1886
  803MPD2    H111884   2.767   4.324  12.584 -0.4607 -1.2446 -0.3757
  803MPD2    H211885   2.958   4.465  12.242 -0.2522  1.2934  0.3204
  803MPD2    H311886   2.757   4.430  12.379 -1.6870 -1.3405  2.1603
  803MPD2     N11887   2.967   4.193  12.694  0.2614  0.3619  0.0597
  803MPD2    H511888   2.877   4.204  12.739 -0.1381  1.1393 -0.9065
  803MPD2    N111889   3.203   4.380  12.318 -0.5201 -0.7990  0.2230
  803MPD2    H711890   3.282   4.341  12.369  0.8924  1.5263 -0.1583
  804MPD2     C11891   2.465   1.397  17.242  0.4630  0.2945  0.4165
  804MPD2    C111892   2.438   1.333  17.358 -0.7119 -0.3534 -0.3390
  804MPD2    C211893   2.477   1.404  17.475 -0.1755  0.9071 -0.7075
  804MPD2    C311894   2.563   1.507  17.471 -0.3769  0.2049  0.4389
  804MPD2    C411895   2.607   1.561  17.349 -0.1347 -0.1118 -0.7341
  804MPD2    C511896   2.545   1.514  17.232 -0.2317  0.6375  0.1952
  804MPD2     H11897   2.438   1.376  17.572  1.8224 -0.6680 -0.3454
  804MPD2    H111898   2.671   1.647  17.335 -0.3883  0.4004  1.2415
  804MPD2    H211899   2.416   1.366  17.151 -0.0068  1.6212  0.2158
  804MPD2    H311900   2.562   1.554  17.133 -0.0604 -1.1224 -0.4782
  804MPD2     N11901   2.602   1.564  17.592  0.0513  0.3552 -0.1418
  804MPD2    H511902   2.566   1.519  17.676  0.8518 -1.8819 -1.0085
  804MPD2    N111903   2.356   1.214  17.366  0.2293 -0.4260  0.0940
  804MPD2    H711904   2.331   1.181  17.459  0.1658  0.9165  0.5411
  805MPD2     C11905   1.845   4.453  15.511 -0.6660 -0.9984  0.1021
  805MPD2    C111906   1.857   4.319  15.553 -0.0032  0.1007 -0.0186
  805MPD2    C211907   1.940   4.289  15.661 -0.4386 -0.2925 -0.2612
  805MPD2    C311908   1.988   4.386  15.743 -1.3231 -1.0272  0.2775
  805MPD2    C411909   1.961   4.515  15.709  0.4560  0.3537  0.4112
  805MPD2    C511910   1.894   4.546  15.594 -0.8085 -0.5063  0.2604
  805MPD2     H11911   1.949   4.185  15.689  0.1770  0.0780  0.9255
  805MPD2    H111912   1.988   4.602  15.768  1.5091  2.2746 -2.8903
  805MPD2    H211913   1.797   4.488  15.420  1.7434 -1.7111 -1.4422
  805MPD2    H311914   1.881   4.650  15.568  0.4014 -0.0709  1.3468
  805MPD2     N11915   2.061   4.350  15.863 -0.3007 -0.1150  0.0592
  805MPD2    H511916   2.071   4.251  15.879 -1.8945 -0.1886  0.5130
  805MPD2    N111917   1.791   4.211  15.479  0.2818 -0.7223  0.3660
  805MPD2    H711918   1.782   4.124  15.529 -1.2557  0.0548  1.4319
  806MPD2     C11919   2.262   3.641   0.979  0.5389  0.2577  0.1959
  806MPD2    C111920   2.347   3.733   0.930 -0.4249 -0.3882  0.5594
  806MPD2    C211921   2.393   3.713   0.797  0.0486 -0.4808 -0.0615
  806MPD2    C311922   2.359   3.603   0.727 -0.3957 -0.2184 -0.2235
  806MPD2    C411923   2.282   3.511   0.786  1.0100  0.2353 -0.2493
  806MPD2    C511924   2.231   3.537   0.906  0.2213  0.8595 -0.3387
  806MPD2     H11925   2.464   3.780   0.749 -0.2272  0.5123  0.9258
  806MPD2    H111926   2.252   3.416   0.742 -0.8949  0.1908  1.1647
  806MPD2    H211927   2.213   3.655   1.074  0.8467 -1.8446  0.6465
  806MPD2    H311928   2.164   3.465   0.951  0.1061  1.4223  0.3909
  806MPD2     N11929   2.428   3.590   0.606 -0.2182 -0.1453 -0.3781
  806MPD2    H511930   2.462   3.675   0.563  0.7763 -0.2752  0.1601
  806MPD2    N111931   2.370   3.849   1.008 -0.1900  0.5112 -0.1587
  806MPD2    H711932   2.334   3.848   1.103 -1.1402 -1.4178 -0.5288
  807MPD2     C11933   2.225   4.101   1.639 -0.3641  0.0527 -0.7739
  807MPD2    C111934   2.260   3.992   1.563  0.3639 -0.1957 -0.4975
  807MPD2    C211935   2.188   3.872   1.575  0.1158  0.1730 -0.9554
  807MPD2    C311936   2.097   3.863   1.676  0.2616  0.0269 -0.6897
  807MPD2    C411937   2.061   3.971   1.756 -0.8312  0.9404 -0.8776
  807MPD2    C511938   2.132   4.086   1.736  0.1600 -0.2716 -0.0076
  807MPD2     H11939   2.210   3.793   1.504  3.4916  0.9396 -0.7799
  807MPD2    H111940   1.982   3.969   1.831  2.2874  0.4210  2.4278
  807MPD2    H211941   2.271   4.199   1.643 -2.5148  1.0070  0.9773
  807MPD2    H311942   2.131   4.173   1.800 -0.5374 -1.0151  0.9892
  807MPD2     N11943   2.033   3.737   1.682 -0.4382 -0.5851 -0.8441
  807MPD2    H511944   2.056   3.665   1.615  1.1151 -1.8252  1.0389
  807MPD2    N111945   2.351   4.006   1.463  0.4215 -0.0665  0.2938
  807MPD2    H711946   2.377   3.920   1.417 -0.9527  0.0046 -0.6180
  808MPD2     C11947   2.574   0.618   9.933 -0.2077  1.2480 -0.6133
  808MPD2    C111948   2.652   0.586  10.040 -0.2726  0.1121  0.2181
  808MPD2    C211949   2.763   0.670  10.054 -0.2675 -0.5108  0.3788
  808MPD2    C311950   2.780   0.784   9.983  0.4751 -0.4379 -0.2613
  808MPD2    C411951   2.708   0.804   9.871 -0.1429 -0.0358 -0.4774
  808MPD2    C511952   2.598   0.726   9.854  0.0064 -0.3931  0.0059
  808MPD2     H11953   2.834   0.649  10.133  0.1229 -0.8051 -0.0490
  808MPD2    H111954   2.723   0.887   9.803  1.2123  0.1844  0.0833
  808MPD2    H211955   2.481   0.565   9.913  0.6237 -0.9321  1.3285
  808MPD2    H311956   2.530   0.754   9.774 -0.1007 -3.6393 -1.0276
  808MPD2     N11957   2.888   0.883  10.005  0.0855 -0.1974  0.0693
  808MPD2    H511958   2.904   0.952   9.932 -2.1864  3.1839  2.7703
  808MPD2    N111959   2.626   0.488  10.134 -0.4557  0.1201  0.6217
  808MPD2    H711960   2.700   0.475  10.202 -0.5137 -1.4786  0.3833
  809MPD2     C11961   3.390   1.136   9.353  0.2094  0.0733 -0.1028
  809MPD2    C111962   3.482   1.167   9.455 -0.3751 -0.4858 -0.4518
  809MPD2    C211963   3.431   1.150   9.591 -0.2756  0.6261  0.0741
  809MPD2    C311964   3.296   1.111   9.614 -0.0801  0.4898  0.4211
  809MPD2    C411965   3.214   1.085   9.503  0.4176 -0.1493  0.2559
  809MPD2    C511966   3.259   1.096   9.372  0.3932 -0.3189  0.2985
  809MPD2     H11967   3.497   1.179   9.672  0.3374 -1.3107  0.2654
  809MPD2    H111968   3.113   1.050   9.517  0.5263 -0.3457  0.5418
  809MPD2    H211969   3.410   1.152   9.248  0.1685  0.2760 -0.0805
  809MPD2    H311970   3.202   1.073   9.283  0.1089  0.7090  0.2078
  809MPD2     N11971   3.246   1.092   9.745 -0.2207  0.0324  0.0405
  809MPD2    H511972   3.154   1.050   9.734 -1.1980  1.9263  0.9759
  809MPD2    N111973   3.617   1.214   9.441  1.1129 -0.1013  0.6548
  809MPD2    H711974   3.667   1.216   9.529  0.9747  0.8178  0.7112
  810MPD2     C11975   2.481   0.092  10.901  0.0328 -0.4739 -0.0317
  810MPD2    C111976   2.366   0.170  10.901  0.1360  0.3732  0.6004
  810MPD2    C211977   2.378   0.308  10.883  0.1102  0.3043 -0.0285
  810MPD2    C311978   2.499   0.373  10.884  0.0034  0.3537 -0.4015
  810MPD2    C411979   2.612   0.292  10.875  0.1252 -0.6208 -0.0658
  810MPD2    C511980   2.606   0.151  10.881 -0.1192 -0.6005  0.0469
  810MPD2     H11981   2.285   0.362  10.870 -0.6647 -1.3154 -1.1041
  810MPD2    H111982   2.708   0.341  10.865 -1.3749  2.4119  0.3261
  810MPD2    H211983   2.479   4.722  10.912  1.0359 -0.6869 -1.8746
  810MPD2    H311984   2.700   0.099  10.873  0.5176  0.5381  0.1603
  810MPD2     N11985   2.511   0.517  10.861  0.6384 -0.2418  0.6780
  810MPD2    H511986   2.603   0.558  10.848  0.4769  0.1420  0.7378
  810MPD2    N111987   2.235   0.121  10.920  0.2350 -0.1395 -0.4213
  810MPD2    H711988   2.157   0.185  10.918  0.3170  0.0138  1.2122
  811MPD2     C11989   1.480   0.137  10.544  0.5106 -0.3586 -0.6111
  811MPD2    C111990   1.605   0.175  10.587 -0.3230  0.3250  0.2724
  811MPD2    C211991   1.662   0.282  10.523 -0.4430  0.4752 -0.0184
  811MPD2    C311992   1.607   0.333  10.408 -0.1652  0.0629 -0.2887
  811MPD2    C411993   1.482   0.291  10.365  0.6838  0.3970 -0.4658
  811MPD2    C511994   1.418   0.204  10.439  0.1028  0.1752 -0.0904
  811MPD2     H11995   1.757   0.323  10.552  0.1541  0.4487 -1.9838
  811MPD2    H111996   1.433   0.343  10.283  2.4567 -0.0817 -1.8381
  811MPD2    H211997   1.437   0.060  10.608  2.9789 -0.6425  0.7182
  811MPD2    H311998   1.316   0.175  10.416  0.2979 -1.3904  1.0347
  811MPD2     N11999   1.680   0.443  10.355 -0.1100  0.3840 -0.1607
  811MPD2    H512000   1.775   0.462  10.384  0.2922  0.1847 -1.3381
  811MPD2    N112001   1.667   0.095  10.689  0.1167  0.2715 -0.2942
  811MPD2    H712002   1.617   0.011  10.717 -0.0464  0.2738 -0.5838
  812MPD2     C12003   0.226   4.607  12.366  0.4876  0.5034 -0.1684
  812MPD2    C112004   0.323   4.707  12.370  0.0687  0.4372  0.1753
  812MPD2    C212005   0.435   4.685  12.446  0.8698 -0.8196 -0.4584
  812MPD2    C312006   0.471   4.565  12.507  0.6334  0.1602 -0.4855
  812MPD2    C412007   0.379   4.459  12.492  0.8871  0.0244  0.1911
  812MPD2    C512008   0.262   4.485  12.427 -0.2075  0.6560 -0.0387
  812MPD2     H12009   0.504   0.027  12.475 -0.2481  0.0638 -0.2217
  812MPD2    H112010   0.392   4.355  12.519 -1.3901 -0.3192 -0.0469
  812MPD2    H212011   0.141   4.621  12.300  1.2786  1.1024 -1.0572
  812MPD2    H312012   0.185   4.410  12.421  1.0333 -0.6099 -0.1181
  812MPD2     N12013   0.595   4.542  12.576 -0.2588 -0.4875  0.0256
  812MPD2    H512014   0.667   4.612  12.566  1.4792 -2.2807  0.0664
  812MPD2    N112015   0.284   0.091  12.309  0.0636  0.3040 -0.1805
  812MPD2    H712016   0.191   0.102  12.269  0.1499 -1.4688 -0.8707
  813MPD2     C12017   0.322   1.184  13.082 -0.2933  0.5544 -0.3603
  813MPD2    C112018   0.317   1.318  13.071  0.0705 -0.0494  0.1157
  813MPD2    C212019   0.219   1.387  13.141 -0.7814  0.6001  0.2332
  813MPD2    C312020   0.135   1.319  13.228  0.3454 -0.2303 -0.6530
  813MPD2    C412021   0.147   1.183  13.247  0.2903  0.0365 -0.3369
  813MPD2    C512022   0.233   1.115  13.165 -0.5842 -0.3592  0.1609
  813MPD2     H12023   0.202   1.493  13.126 -1.1266  0.5600  0.3256
  813MPD2    H112024   0.090   1.123  13.318 -0.6818 -0.3989 -1.4725
  813MPD2    H212025   0.398   1.123  13.035  0.1668  1.6381 -1.0241
  813MPD2    H312026   0.244   1.008  13.177 -2.7397 -0.6009 -0.0470
  813MPD2     N12027   0.046   1.409  13.301  0.0590 -0.3796 -0.1728
  813MPD2    H512028   0.042   1.507  13.275  0.9171 -0.7678 -1.7532
  813MPD2    N112029   0.411   1.385  12.983  0.6769 -0.2437  0.0147
  813MPD2    H712030   0.475   1.327  12.929 -0.7040 -0.4739 -1.3799
  814MPD2     C12031   0.617   2.771  12.621  0.3393 -0.2054  0.2289
  814MPD2    C112032   0.675   2.811  12.504  0.1676  0.2034 -0.1226
  814MPD2    C212033   0.756   2.923  12.510 -0.3623 -0.3917  0.3598
  814MPD2    C312034   0.756   3.007  12.618  0.2716  0.9043  0.3943
  814MPD2    C412035   0.682   2.975  12.726 -0.1964  0.6649 -0.0000
  814MPD2    C512036   0.612   2.854  12.733 -0.4610 -0.2765 -0.3129
  814MPD2     H12037   0.809   2.942  12.417  1.0470  1.2366  1.4811
  814MPD2    H112038   0.687   3.036  12.815 -2.5489  1.4124 -0.3797
  814MPD2    H212039   0.547   2.688  12.623  1.2371 -0.9735 -1.0849
  814MPD2    H312040   0.553   2.817  12.816  0.4749 -0.5274  0.2339
  814MPD2     N12041   0.843   3.118  12.631  0.8292 -0.1270  0.6709
  814MPD2    H512042   0.825   3.187  12.703  3.3445  0.0061  1.1782
  814MPD2    N112043   0.661   2.753  12.377 -0.7127  0.3295  0.2157
  814MPD2    H712044   0.687   2.809  12.296 -1.7775 -0.3185 -0.5854
  815MPD2     C12045   0.925   1.235  12.118 -0.0087  0.6220 -0.4824
  815MPD2    C112046   0.919   1.298  11.999 -0.0066 -0.3872 -0.2878
  815MPD2    C212047   0.799   1.303  11.934  0.2558 -0.2250 -0.3747
  815MPD2    C312048   0.685   1.256  11.995  0.0668  0.5433 -0.4086
  815MPD2    C412049   0.686   1.208  12.126  0.3626  0.0667 -0.2709
  815MPD2    C512050   0.809   1.195  12.183 -0.1170 -0.1678  0.3385
  815MPD2     H12051   0.797   1.335  11.831  2.0994 -1.7250 -0.8693
  815MPD2    H112052   0.598   1.166  12.173  1.1224 -1.6921 -0.4086
  815MPD2    H212053   1.023   1.206  12.156 -0.5675 -2.6531 -1.5491
  815MPD2    H312054   0.807   1.145  12.280  0.3448 -0.3220  0.2701
  815MPD2     N12055   0.561   1.262  11.926  0.2243  0.0053  0.1943
  815MPD2    H512056   0.581   1.291  11.830  0.3922 -0.3127  0.1320
  815MPD2    N112057   1.046   1.335  11.940  0.5251 -0.3146 -1.3932
  815MPD2    H712058   1.128   1.303  11.991 -0.5538 -1.8517 -0.6437
  816MPD2     C12059   0.804   0.795  17.285 -0.4458 -0.7775  0.7529
  816MPD2    C112060   0.753   0.699  17.193  0.8837 -0.4079  0.0401
  816MPD2    C212061   0.825   0.587  17.176 -0.2019  0.4575 -0.1132
  816MPD2    C312062   0.949   0.569  17.231 -0.3656  0.2049 -1.0655
  816MPD2    C412063   0.997   0.673  17.309  0.5593 -0.2110 -0.3858
  816MPD2    C512064   0.931   0.786  17.334 -0.6098  0.2375 -0.1178
  816MPD2     H12065   0.791   0.510  17.108  0.1430  0.2061 -0.0027
  816MPD2    H112066   1.098   0.659  17.348  0.8419 -1.9752 -1.7480
  816MPD2    H212067   0.751   0.881  17.324  1.2060  0.8314 -0.5700
  816MPD2    H312068   0.964   0.864  17.402  0.8592  0.6015 -1.2483
  816MPD2     N12069   1.020   0.456  17.183  0.0138  0.2470 -0.4883
  816MPD2    H512070   0.978   0.398  17.111  0.3080  0.8181 -1.1249
  816MPD2    N112071   0.620   0.723  17.153  0.0960  0.1451  0.1537
  816MPD2    H712072   0.587   0.818  17.169  0.7726  0.6532 -1.4826
  817MPD2     C12073   1.636   2.914   9.742 -0.5055 -0.3074 -0.3743
  817MPD2    C112074   1.534   2.829   9.697 -0.1378 -0.0297  0.3390
  817MPD2    C212075   1.404   2.875   9.713 -0.1271 -0.4000  0.4318
  817MPD2    C312076   1.378   2.996   9.755  0.0265 -0.4145  0.2489
  817MPD2    C412077   1.478   3.080   9.804 -0.4469 -0.0229 -0.8554
  817MPD2    C512078   1.607   3.032   9.801  0.2594 -0.5067 -0.4520
  817MPD2     H12079   1.319   2.813   9.684  1.1422 -1.2329 -1.5335
  817MPD2    H112080   1.453   3.180   9.838  0.6490  0.2301 -0.7964
  817MPD2    H212081   1.739   2.880   9.738 -2.1767 -5.4051  0.0461
  817MPD2    H312082   1.693   3.089   9.833 -0.1400 -0.3127  0.2575
  817MPD2     N12083   1.243   3.034   9.756  0.3183 -0.4229 -0.5463
  817MPD2    H512084   1.181   2.976   9.700  1.1128 -1.5182 -0.2886
  817MPD2    N112085   1.548   2.697   9.647 -0.1317  0.0414  0.0722
  817MPD2    H712086   1.462   2.645   9.639 -0.4538  0.5932 -0.0312
  818MPD2     C12087   0.179   3.174  10.340 -0.0001  0.6164 -0.0450
  818MPD2    C112088   0.159   3.036  10.371 -0.1026  0.2637 -0.1689
  818MPD2    C212089   0.190   2.937  10.279  0.0658 -0.4352 -0.4513
  818MPD2    C312090   0.242   2.972  10.155 -0.0516  0.4756 -0.2334
  818MPD2    C412091   0.245   3.108  10.123  0.4655  0.3971 -0.2453
  818MPD2    C512092   0.225   3.201  10.214 -0.4278  0.5349 -0.1470
  818MPD2     H12093   0.187   2.830  10.299  2.2766 -0.9370 -2.6557
  818MPD2    H112094   0.272   3.140  10.023 -2.1459  1.3021 -0.6638
  818MPD2    H212095   0.147   3.247  10.414  0.2235  1.1469 -0.4682
  818MPD2    H312096   0.225   3.306  10.186  0.7641  0.5369 -0.1278
  818MPD2     N12097   0.280   2.880  10.059 -0.2975  0.1863 -0.2001
  818MPD2    H512098   0.282   2.905   9.961 -1.4910 -0.3794 -0.3723
  818MPD2    N112099   0.104   2.994  10.493 -0.0352  0.3377 -0.2318
  818MPD2    H712100   0.088   2.894  10.485  1.1216  0.2905 -1.9496
  819MPD2     C12101   2.439   3.758  15.702  0.4008  0.4661  0.3417
  819MPD2    C112102   2.462   3.622  15.745 -0.0807 -0.0513  0.0809
  819MPD2    C212103   2.557   3.595  15.848 -0.2142  0.1183  0.6229
  819MPD2    C312104   2.630   3.699  15.896  0.6061  0.5694 -0.2907
  819MPD2    C412105   2.597   3.831  15.856  0.1871  0.4216  0.7253
  819MPD2    C512106   2.513   3.856  15.758  0.0033  0.3420  0.0984
  819MPD2     H12107   2.577   3.497  15.891 -0.8850 -0.9079 -1.4399
  819MPD2    H112108   2.655   3.915  15.893 -1.5688  3.5128 -3.5740
  819MPD2    H212109   2.375   3.793  15.622  1.3011 -0.5413 -0.8095
  819MPD2    H312110   2.483   3.953  15.722  1.8120 -0.0662 -2.5571
  819MPD2     N12111   2.716   3.665  15.998  0.2139 -0.1964  0.1518
  819MPD2    H512112   2.741   3.570  16.024  0.5902 -0.0441  0.3411
  819MPD2    N112113   2.376   3.524  15.689  0.6026  0.2655 -0.0958
  819MPD2    H712114   2.304   3.556  15.624 -0.3803 -0.4253  0.6557
  820MPD2     C12115   1.512   3.422  15.278 -0.2710  0.0394  0.2676
  820MPD2    C112116   1.592   3.503  15.353 -0.3561  0.7629  0.5762
  820MPD2    C212117   1.710   3.451  15.392  0.3732  0.0041  0.7430
  820MPD2    C312118   1.746   3.321  15.381 -0.5349 -0.5780  0.5882
  820MPD2    C412119   1.657   3.234  15.324  0.1390  0.0983  0.0361
  820MPD2    C512120   1.538   3.288  15.270  0.1625  0.7997  0.4432
  820MPD2     H12121   1.773   3.516  15.452 -1.5119  1.2112  1.4369
  820MPD2    H112122   1.675   3.128  15.312 -0.6117  0.1132 -1.2103
  820MPD2    H212123   1.411   3.453  15.255 -0.7522 -0.9276  1.0637
  820MPD2    H312124   1.457   3.225  15.236 -0.5028  1.7930  0.1869
  820MPD2     N12125   1.881   3.276  15.404  0.0719 -0.2363 -0.1782
  820MPD2    H512126   1.892   3.175  15.407 -2.7359 -0.5634 -0.7087
  820MPD2    N112127   1.554   3.640  15.360  0.4396 -0.2765 -0.4527
  820MPD2    H712128   1.470   3.661  15.307 -1.3007 -1.3960  1.8730
  821MPD2     C12129   2.356   0.659  13.479 -0.4590 -0.6249 -0.0040
  821MPD2    C112130   2.476   0.631  13.544 -0.0015 -0.1700 -0.0959
  821MPD2    C212131   2.591   0.662  13.483  0.7364  0.6461 -0.5161
  821MPD2    C312132   2.591   0.736  13.365 -0.1074  0.7917  0.6363
  821MPD2    C412133   2.470   0.762  13.304 -0.3752  0.2164 -0.5061
  821MPD2    C512134   2.353   0.726  13.363 -0.8652 -0.2650  0.0793
  821MPD2     H12135   2.687   0.647  13.531  0.0458 -1.4870  0.1963
  821MPD2    H112136   2.459   0.820  13.213  2.5542 -0.0852 -1.0516
  821MPD2    H212137   2.257   0.629  13.512  0.2032  1.1418  3.5626
  821MPD2    H312138   2.260   0.754  13.317 -1.3406 -1.8051  0.1022
  821MPD2     N12139   2.707   0.773  13.290 -0.4656 -0.1720  0.3805
  821MPD2    H512140   2.698   0.811  13.196 -0.9948 -0.3449  0.3588
  821MPD2    N112141   2.478   0.577  13.675  0.0482  0.3632  0.5462
  821MPD2    H712142   2.568   0.585  13.721  0.5207 -2.1851  0.0202
  822MPD2     C12143   3.254   0.574  15.950 -1.0143 -0.3274 -0.3336
  822MPD2    C112144   3.237   0.555  16.086 -0.5439 -0.3402 -0.6428
  822MPD2    C212145   3.175   0.653  16.158 -0.2297  0.6196  0.1688
  822MPD2    C312146   3.135   0.767  16.098 -0.5574  0.2986  0.1141
  822MPD2    C412147   3.127   0.777  15.962 -0.4163  0.4439  0.0754
  822MPD2    C512148   3.186   0.679  15.886  0.0728 -0.2036 -0.0645
  822MPD2     H12149   3.167   0.643  16.266  0.7729 -3.2196 -0.1076
  822MPD2    H112150   3.088   0.868  15.918  1.4572  1.0289 -0.3773
  822MPD2    H212151   3.302   0.498  15.890 -0.5297  0.3543 -0.8108
  822MPD2    H312152   3.183   0.684  15.778  0.3020  0.9390 -0.0245
  822MPD2     N12153   3.096   0.878  16.186 -0.3792 -0.2974 -0.3136
  822MPD2    H512154   3.098   0.859  16.286 -0.6562 -1.6449 -0.5640
  822MPD2    N112155   3.273   0.438  16.154 -0.1258 -0.2808 -0.0738
  822MPD2    H712156   3.252   0.445  16.253  0.6310 -0.0204  0.0727
  823MPD2     C12157   2.649   1.001  16.884  0.0071 -0.3084  0.0299
  823MPD2    C112158   2.726   0.942  16.785  0.4876 -0.6133 -0.4580
  823MPD2    C212159   2.759   0.807  16.804  0.2413  0.0162  0.6835
  823MPD2    C312160   2.727   0.750  16.928  0.1661 -0.3134  0.1070
  823MPD2    C412161   2.669   0.814  17.036  0.3296 -0.4336  0.3980
  823MPD2    C512162   2.619   0.940  17.008  0.8358  0.0925  0.7620
  823MPD2     H12163   2.797   0.744  16.725 -0.0244  1.5639 -0.6944
  823MPD2    H112164   2.646   0.771  17.132  2.5986 -0.6848  0.8276
  823MPD2    H212165   2.610   1.102  16.874  1.2184  0.0710 -0.8687
  823MPD2    H312166   2.570   0.996  17.087  1.6612 -0.3031  1.5608
  823MPD2     N12167   2.759   0.622  16.954  0.7253  0.2666  0.1658
  823MPD2    H512168   2.734   0.593  17.048 -2.1926  2.3187  0.0119
  823MPD2    N112169   2.747   1.017  16.666 -0.0625 -0.2667  0.2447
  823MPD2    H712170   2.712   1.112  16.675  1.3922  0.3317 -0.3511
  824MPD2     C12171   3.804   4.452  16.419  0.5412  0.7177  0.0191
  824MPD2    C112172   3.739   4.493  16.306 -0.1467 -1.1023  0.2152
  824MPD2    C212173   3.763   4.428  16.185  0.0579  0.4657  0.5570
  824MPD2    C312174   3.859   4.333  16.176  0.5022 -0.1775 -1.2601
  824MPD2    C412175   3.930   4.297  16.295  0.3350 -0.2658 -0.0544
  824MPD2    C512176   3.900   4.355  16.414  0.9806  1.0926  0.3332
  824MPD2     H12177   3.700   4.449  16.099 -0.2290  0.6896  0.8258
  824MPD2    H112178   4.011   4.225  16.291  1.0387  0.6118 -1.7173
  824MPD2    H212179   3.779   4.499  16.513  0.8876  1.2478 -0.1525
  824MPD2    H312180   3.953   4.326  16.504 -2.5645  1.1885  2.4396
  824MPD2     N12181   3.888   4.278  16.048  0.3529 -0.6073 -0.0362
  824MPD2    H512182   3.824   4.304  15.973 -0.7251 -1.8797  0.4432
  824MPD2    N112183   3.643   4.602  16.330  0.3250 -0.5190  0.0528
  824MPD2    H712184   3.628   4.648  16.419 -0.4872  0.8544 -0.7933
  825MPD2     C12185   4.433   4.311  15.478  0.1565 -0.5174 -0.2458
  825MPD2    C112186   4.333   4.390  15.525  0.0339 -0.2506  0.1454
  825MPD2    C212187   4.333   4.527  15.502 -0.0190 -0.0500 -0.7790
  825MPD2    C312188   4.442   4.580  15.427  0.0713 -0.4232 -0.3366
  825MPD2    C412189   4.533   4.488  15.370 -0.1867  0.2950  0.7326
  825MPD2    C512190   4.528   4.357  15.395  0.4166  0.1882 -0.5285
  825MPD2     H12191   4.253   4.584  15.547  1.1111  2.4745 -1.9519
  825MPD2    H112192   4.621   4.525  15.320  0.8106 -1.7785  0.9303
  825MPD2    H212193   4.423   4.205  15.500  1.9269 -0.6699 -0.2025
  825MPD2    H312194   4.606   4.297  15.351 -0.8227 -0.8270 -1.3157
  825MPD2     N12195   4.454   4.725  15.412 -0.4551  0.2765  0.2234
  825MPD2    H512196   4.389   0.045  15.466  2.2141  1.9286  1.6745
  825MPD2    N112197   4.225   4.316  15.582 -0.2993 -0.7190 -0.3086
  825MPD2    H712198   4.228   4.216  15.599  1.9897 -0.3176  1.5382
  826MPD2     C12199   3.662   4.016  14.074  0.3820 -0.9586 -0.2663
  826MPD2    C112200   3.650   4.116  13.978 -0.6804 -0.3544 -0.3964
  826MPD2    C212201   3.577   4.230  14.013  0.7767 -0.8231 -0.5820
  826MPD2    C312202   3.516   4.240  14.142  0.6351  0.4721 -0.2768
  826MPD2    C412203   3.525   4.129  14.229 -0.0508  0.3970  0.5084
  826MPD2    C512204   3.600   4.021  14.197  0.1138 -0.1457 -0.1054
  826MPD2     H12205   3.561   4.314  13.947 -0.3805  0.4940  1.3636
  826MPD2    H112206   3.482   4.131  14.329 -0.8660 -1.2397  0.1964
  826MPD2    H212207   3.713   3.924  14.047  0.4405 -0.9255 -0.2694
  826MPD2    H312208   3.618   3.947  14.275  2.3965  1.0476  0.4920
  826MPD2     N12209   3.436   4.352  14.177  0.5846  0.2993  0.6437
  826MPD2    H512210   3.395   4.356  14.270  0.3556 -0.9832  0.5949
  826MPD2    N112211   3.717   4.105  13.854 -0.1302  0.1097  0.2016
  826MPD2    H712212   3.772   4.021  13.838 -0.0112  0.0920  0.6778
  827MPD2     C12213   0.367   1.306  10.066  0.0160  0.7446 -0.3204
  827MPD2    C112214   0.285   1.210  10.126  0.1083 -0.3299  0.4569
  827MPD2    C212215   0.165   1.175  10.068  0.3594  0.5116  0.2954
  827MPD2    C312216   0.108   1.261   9.976  0.4876 -0.4795 -0.4215
  827MPD2    C412217   0.180   1.370   9.924  0.5334 -0.5043  0.0152
  827MPD2    C512218   0.309   1.381   9.969 -0.8682 -0.0959  0.3469
  827MPD2     H12219   0.100   1.102  10.114  0.1224 -0.2367 -1.2125
  827MPD2    H112220   0.142   1.445   9.854 -0.1601 -0.4084  0.4894
  827MPD2    H212221   0.458   1.339  10.115  1.0028 -0.7931 -1.1240
  827MPD2    H312222   0.367   1.465   9.933 -1.1945 -0.1888 -0.3841
  827MPD2     N12223   4.715   1.233   9.926  0.0642  0.7474 -0.0390
  827MPD2    H512224   4.676   1.143   9.956 -0.9610  0.7432 -1.3975
  827MPD2    N112225   0.338   1.150  10.242  0.1872  0.0229  0.0828
  827MPD2    H712226   0.436   1.168  10.261  0.0706  1.8045 -1.0582
  828MPD2     C12227   3.353   0.889  12.715 -0.4258 -0.5604  0.3835
  828MPD2    C112228   3.252   0.932  12.631 -0.1353 -0.3447 -0.0918
  828MPD2    C212229   3.286   0.984  12.508  0.0489  0.3656 -0.1292
  828MPD2    C312230   3.425   0.980  12.477 -0.5412  0.1621  0.1932
  828MPD2    C412231   3.525   0.957  12.565  0.1682 -0.0356 -0.2923
  828MPD2    C512232   3.489   0.910  12.684 -0.6338  0.1431  0.7348
  828MPD2     H12233   3.214   1.012  12.432 -0.9864 -1.7807  0.0758
  828MPD2    H112234   3.629   0.969  12.538 -0.4037  1.0641 -1.9996
  828MPD2    H212235   3.330   0.829  12.802  0.7323 -3.3459 -1.2237
  828MPD2    H312236   3.570   0.860  12.736  1.0670  2.8323  0.6719
  828MPD2     N12237   3.467   1.012  12.344 -0.0437 -0.1031 -0.5132
  828MPD2    H512238   3.568   1.015  12.337 -0.0642  1.9170  0.1001
  828MPD2    N112239   3.115   0.914  12.648  0.0374  0.9946 -0.1367
  828MPD2    H712240   3.061   0.967  12.580  0.6417  0.8698 -0.7138
  829MPD2     C12241   2.649   0.750  11.945 -0.4154  0.1627 -0.0434
  829MPD2    C112242   2.550   0.808  12.017 -0.0530  0.8896  0.1351
  829MPD2    C212243   2.585   0.844  12.152  0.4125 -0.2312  0.3216
  829MPD2    C312244   2.711   0.820  12.205 -0.5467 -0.2498 -0.0007
  829MPD2    C412245   2.807   0.769  12.118 -0.7245  0.3755 -0.5135
  829MPD2    C512246   2.774   0.729  11.992 -0.6711 -0.1511 -0.0363
  829MPD2     H12247   2.503   0.861  12.221  0.6294  0.6696  0.3546
  829MPD2    H112248   2.905   0.746  12.156 -0.5160 -1.0166 -1.9096
  829MPD2    H212249   2.623   0.718  11.844  1.8111 -0.4060 -0.4340
  829MPD2    H312250   2.851   0.677  11.937  0.7833  1.8492  0.0888
  829MPD2     N12251   2.752   0.839  12.341 -0.3976  0.6936 -0.1866
  829MPD2    H512252   2.840   0.795  12.365 -0.2576  2.3221  2.2810
  829MPD2    N112253   2.418   0.846  11.967 -0.3035 -0.1644  0.0487
  829MPD2    H712254   2.361   0.904  12.027 -0.7347  1.2310 -1.7107
  830MPD2     C12255   3.490   3.431  16.085  0.6228 -0.1969  0.0244
  830MPD2    C112256   3.365   3.466  16.038  0.2668 -0.3275 -0.2045
  830MPD2    C212257   3.361   3.541  15.921  0.8520 -0.5616 -0.0437
  830MPD2    C312258   3.475   3.574  15.852  0.0627 -0.4919 -0.7769
  830MPD2    C412259   3.594   3.531  15.898 -0.7014 -0.2581 -1.4943
  830MPD2    C512260   3.602   3.452  16.003  0.2733  0.3995 -0.4763
  830MPD2     H12261   3.267   3.581  15.885  0.5731 -0.6077  0.6403
  830MPD2    H112262   3.680   3.548  15.835 -0.4574 -0.7286 -1.2895
  830MPD2    H212263   3.504   3.359  16.166  1.4022  1.6588  1.5455
  830MPD2    H312264   3.698   3.403  16.018  0.1193  0.1357 -0.3565
  830MPD2     N12265   3.466   3.652  15.734 -0.2589 -0.6955 -0.3270
  830MPD2    H512266   3.553   3.682  15.692  0.4836  0.3157  1.9196
  830MPD2    N112267   3.252   3.425  16.107 -0.6679 -0.0568  0.3857
  830MPD2    H712268   3.275   3.380  16.195  3.8197  0.4488 -0.5007
  831MPD2     C12269   3.338   0.881  16.569  0.7863 -0.7014  0.2074
  831MPD2    C112270   3.348   0.757  16.516  0.1927  0.6988 -0.1963
  831MPD2    C212271   3.235   0.675  16.518  0.3517  0.7381 -0.6557
  831MPD2    C312272   3.113   0.726  16.559 -0.6492  0.1529 -0.4849
  831MPD2    C412273   3.107   0.846  16.624  0.1108  0.3114 -0.4049
  831MPD2    C512274   3.222   0.927  16.632  0.7723  0.4127  0.4246
  831MPD2     H12275   3.230   0.584  16.459  0.1822  1.3223 -1.5379
  831MPD2    H112276   3.013   0.872  16.671  0.3178  1.4681 -0.6212
  831MPD2    H212277   3.432   0.934  16.573 -0.0943  0.6462  2.9285
  831MPD2    H312278   3.211   1.032  16.655 -0.7969  0.1380  0.9910
  831MPD2     N12279   2.985   0.663  16.531 -0.5630  0.0617 -0.4620
  831MPD2    H512280   2.901   0.711  16.560 -0.9531 -1.3998  0.8349
  831MPD2    N112281   3.468   0.716  16.451  0.4333 -0.0235  0.1508
  831MPD2    H712282   3.535   0.790  16.433  2.2521 -1.3073  1.6493
  832MPD2     C12283   1.629   1.146  17.106 -0.2035 -0.3089  0.1403
  832MPD2    C112284   1.622   1.284  17.103 -0.2787  0.7344 -0.6933
  832MPD2    C212285   1.563   1.348  17.001 -0.8008  0.0052  0.1001
  832MPD2    C312286   1.482   1.278  16.919  0.2928 -0.3385  0.7559
  832MPD2    C412287   1.483   1.140  16.922 -0.6434  0.5036 -0.4096
  832MPD2    C512288   1.567   1.077  17.009  0.5992 -0.8020  0.5609
  832MPD2     H12289   1.540   1.454  17.007 -3.6851 -0.5742 -0.7462
  832MPD2    H112290   1.417   1.079  16.862 -0.8408 -0.0335  0.3430
  832MPD2    H212291   1.670   1.093  17.192 -0.6929  0.3366  0.7653
  832MPD2    H312292   1.560   0.969  17.017  0.2614 -0.7581  0.8424
  832MPD2     N12293   1.364   1.328  16.852  1.0728 -0.1157  1.0681
  832MPD2    H512294   1.305   1.257  16.810  0.6843 -0.1826  1.7293
  832MPD2    N112295   1.672   1.353  17.219  0.1558  0.2675 -0.1831
  832MPD2    H712296   1.717   1.297  17.291  0.5494  0.7562 -0.0455
  833MPD2     C12297   3.816   3.144  13.380  0.1722  0.1059 -0.2046
  833MPD2    C112298   3.803   3.174  13.250  0.3376  0.9082 -0.6238
  833MPD2    C212299   3.896   3.115  13.162  0.3061 -0.3370  0.6224
  833MPD2    C312300   4.001   3.038  13.210 -0.2666  0.9015  0.1457
  833MPD2    C412301   4.006   3.014  13.343 -0.0175  0.2377  0.0230
  833MPD2    C512302   3.918   3.069  13.425 -0.1675 -0.6743 -0.9205
  833MPD2     H12303   3.896   3.144  13.058 -0.1807 -1.8054  0.2189
  833MPD2    H112304   4.086   2.956  13.387  1.5291  1.4872 -1.1560
  833MPD2    H212305   3.753   3.186  13.458  1.4694 -0.0366  0.9310
  833MPD2    H312306   3.927   3.061  13.533  2.1890 -3.2386 -1.2968
  833MPD2     N12307   4.105   2.994  13.126  0.2521  0.0734 -0.2269
  833MPD2    H512308   4.178   2.948  13.178 -0.2015 -0.7160 -0.2902
  833MPD2    N112309   3.710   3.270  13.214  0.0052 -0.4583 -0.0642
  833MPD2    H712310   3.664   3.322  13.288  0.5425 -1.6174  1.0762
  834MPD2     C12311   4.231   2.389  12.242  0.8968  0.0409 -0.3103
  834MPD2    C112312   4.227   2.526  12.206 -0.4335  0.0951  1.1821
  834MPD2    C212313   4.229   2.624  12.307  0.1112 -0.2636 -0.0271
  834MPD2    C312314   4.236   2.599  12.445 -0.0045  0.2453  0.0944
  834MPD2    C412315   4.227   2.467  12.473  0.0193 -0.3400  0.0087
  834MPD2    C512316   4.221   2.364  12.378  1.0334  0.8289 -0.2957
  834MPD2     H12317   4.246   2.726  12.276 -0.4068  0.4071  1.8632
  834MPD2    H112318   4.247   2.432  12.574 -1.0894  0.7916  0.6213
  834MPD2    H212319   4.233   2.310  12.168 -0.7301 -0.7919  0.5329
  834MPD2    H312320   4.216   2.259  12.405 -2.4172  0.4215 -2.4962
  834MPD2     N12321   4.248   2.705  12.535  0.2896  0.4289  0.1758
  834MPD2    H512322   4.229   2.799  12.500 -0.3987 -0.2138 -1.1629
  834MPD2    N112323   4.217   2.548  12.063 -0.3053 -0.0096  0.0172
  834MPD2    H712324   4.208   2.460  12.013 -1.2774  0.0391  0.1067
  835MPD2     C12325   3.920   1.278  11.220  0.1715  0.5105  0.7640
  835MPD2    C112326   3.837   1.360  11.301 -0.6219 -0.2185  0.0181
  835MPD2    C212327   3.893   1.444  11.403 -0.2776  1.2410 -0.6212
  835MPD2    C312328   4.030   1.450  11.426 -0.0637  0.0627 -0.1879
  835MPD2    C412329   4.113   1.366  11.348 -0.0203  1.0010 -0.1511
  835MPD2    C512330   4.054   1.279  11.255 -0.1916 -0.2684 -0.0454
  835MPD2     H12331   3.830   1.511  11.461 -0.5370  2.0269 -1.8100
  835MPD2    H112332   4.219   1.361  11.373 -0.0684  2.9047  0.4317
  835MPD2    H212333   3.892   1.239  11.123 -1.6667 -0.6676  1.7763
  835MPD2    H312334   4.126   1.222  11.197  0.0360  0.0858 -0.1121
  835MPD2     N12335   4.090   1.528  11.525 -0.0293 -0.3060 -0.2239
  835MPD2    H512336   4.190   1.523  11.543 -0.4967 -2.5347  1.7454
  835MPD2    N112337   3.700   1.365  11.268  0.6943  0.1345 -0.2366
  835MPD2    H712338   3.665   1.299  11.199 -0.1026  0.6678 -0.3385
  836MPD2     C12339   3.593   1.609  11.685  0.4191 -0.1917  0.4235
  836MPD2    C112340   3.643   1.572  11.808 -0.1088 -0.2415  0.0049
  836MPD2    C212341   3.559   1.515  11.906  0.8015 -0.4634 -0.2000
  836MPD2    C312342   3.420   1.498  11.881  0.3705 -0.2147 -0.5675
  836MPD2    C412343   3.373   1.541  11.753 -0.3376  0.3797 -0.6087
  836MPD2    C512344   3.462   1.595  11.656  0.1884 -1.1530 -0.2112
  836MPD2     H12345   3.605   1.474  11.995 -0.0434 -0.5702  0.1843
  836MPD2    H112346   3.274   1.518  11.714 -0.3276 -2.3234  0.9584
  836MPD2    H212347   3.668   1.626  11.609  0.5179  0.0117  0.5636
  836MPD2    H312348   3.436   1.617  11.553  0.4889 -2.4142 -0.5482
  836MPD2     N12349   3.318   1.442  11.970  0.3789  0.2058 -0.4216
  836MPD2    H512350   3.226   1.424  11.931  0.1329  0.7526 -0.0884
  836MPD2    N112351   3.781   1.596  11.828  0.7232  0.5826 -0.4636
  836MPD2    H712352   3.831   1.638  11.751 -1.1790  0.8257 -1.5675
  837MPD2     C12353   2.382   0.792  10.269  0.4508  0.1070 -0.2695
  837MPD2    C112354   2.276   0.861  10.321  0.0119 -0.9699  0.6554
  837MPD2    C212355   2.297   0.998  10.339 -0.1398  0.2208  0.0899
  837MPD2    C312356   2.420   1.055  10.338  0.6966 -0.1040 -0.2521
  837MPD2    C412357   2.533   0.983  10.308  0.0710 -0.2451 -0.0098
  837MPD2    C512358   2.510   0.854  10.262 -0.4470  0.3211 -1.0165
  837MPD2     H12359   2.213   1.064  10.355 -1.3505 -1.3402  0.1929
  837MPD2    H112360   2.629   1.028  10.286  0.2452  0.3191  1.8880
  837MPD2    H212361   2.380   0.697  10.216 -2.0089 -0.5749  1.0487
  837MPD2    H312362   2.590   0.796  10.219  0.2227  0.9354 -0.5879
  837MPD2     N12363   2.413   1.197  10.319 -0.5461 -0.5062 -0.4128
  837MPD2    H512364   2.321   1.240  10.318  0.4125  1.5256  0.3617
  837MPD2    N112365   2.143   0.820  10.326  0.3547  0.7051 -0.4885
  837MPD2    H712366   2.074   0.892  10.346 -0.1439  0.0556  0.1373
  838MPD2     C12367   0.971   3.911  12.553  0.2757  0.1624  0.1326
  838MPD2    C112368   0.941   3.811  12.462  0.4815 -0.0029 -0.1594
  838MPD2    C212369   0.859   3.709  12.489  0.3302 -0.3388 -0.3108
  838MPD2    C312370   0.789   3.708  12.610  0.5581  0.1582  0.8717
  838MPD2    C412371   0.815   3.805  12.700 -0.3226  0.1560  0.2181
  838MPD2    C512372   0.913   3.899  12.679 -0.1329  0.1502  0.2631
  838MPD2     H12373   0.830   3.641  12.410  1.9529 -2.0109  0.5638
  838MPD2    H112374   0.763   3.799  12.794 -1.6932  0.3938 -0.5301
  838MPD2    H212375   1.051   3.982  12.535  0.7613 -0.1191  1.2146
  838MPD2    H312376   0.933   3.977  12.752  0.1367  1.2146 -0.9518
  838MPD2     N12377   0.682   3.617  12.636 -0.3059 -0.7362  0.0303
  838MPD2    H512378   0.624   3.650  12.712 -0.2880  0.3388 -0.4204
  838MPD2    N112379   0.993   3.823  12.331  0.2282  0.3026 -0.0133
  838MPD2    H712380   1.000   3.737  12.279 -1.4242 -0.4942  1.0834
  839MPD2     C12381   0.404   3.428  12.133  0.5780 -0.3417  0.3019
  839MPD2    C112382   0.467   3.410  12.015  1.0060  0.4063  0.5623
  839MPD2    C212383   0.568   3.495  11.990 -0.1065  0.0232 -0.7545
  839MPD2    C312384   0.617   3.589  12.084  0.2935 -0.4481 -0.3342
  839MPD2    C412385   0.557   3.596  12.206 -0.1501  0.2090 -0.4624
  839MPD2    C512386   0.449   3.521  12.223 -0.1662  0.8676 -0.2031
  839MPD2     H12387   0.612   3.480  11.892  2.2266  0.8145  0.1801
  839MPD2    H112388   0.602   3.661  12.280  2.6794 -0.2496 -1.7843
  839MPD2    H212389   0.304   3.390  12.155 -0.6573  0.2901 -4.1127
  839MPD2    H312390   0.402   3.529  12.320  0.5569  2.2017  0.0452
  839MPD2     N12391   0.719   3.685  12.052 -0.2367  0.3149  0.1837
  839MPD2    H512392   0.748   3.755  12.120 -2.5285 -0.7412  2.2695
  839MPD2    N112393   0.450   3.302  11.927  0.1509 -0.4760 -0.0654
  839MPD2    H712394   0.514   3.291  11.849 -1.4766  0.0750 -1.4966
  840MPD2     C12395   0.999   1.070  10.338 -0.0309 -0.0811  0.3572
  840MPD2    C112396   0.910   1.115  10.429  0.4753 -0.3721 -0.3644
  840MPD2    C212397   0.944   1.235  10.495 -0.3969 -0.0645 -0.0919
  840MPD2    C312398   1.058   1.308  10.457  0.3398 -0.5718 -0.0548
  840MPD2    C412399   1.141   1.260  10.360 -0.7579  0.2455 -0.2931
  840MPD2    C512400   1.112   1.141  10.313 -0.0772 -0.2170  0.2357
  840MPD2     H12401   0.873   1.276  10.565 -0.1350 -1.1318  0.8195
  840MPD2    H112402   1.235   1.313  10.344  0.9476 -2.8136 -0.3330
  840MPD2    H212403   0.975   0.976  10.289  0.2562  0.2024 -0.3343
  840MPD2    H312404   1.188   1.098  10.249  1.0949 -0.1098  1.5621
  840MPD2     N12405   1.107   1.427  10.520 -0.5790  0.2235  0.1013
  840MPD2    H512406   1.195   1.466  10.489 -1.6058  1.2516 -1.5111
  840MPD2    N112407   0.791   1.044  10.455  0.1115 -0.0010  0.4140
  840MPD2    H712408   0.752   0.975  10.392  0.9088 -0.6658  0.6517
  841MPD2     C12409   0.031   2.067  14.053 -0.3646 -0.1984  0.1846
  841MPD2    C112410   0.071   1.942  14.020 -0.3071  0.4677 -0.0739
  841MPD2    C212411   0.107   1.856  14.121  0.5023 -0.1316 -0.3124
  841MPD2    C312412   0.094   1.892  14.256  0.2245 -0.1936  0.0379
  841MPD2    C412413   0.046   2.016  14.285  0.9139 -0.5665  0.2258
  841MPD2    C512414   0.037   2.109  14.186  0.5121  0.1448 -0.0519
  841MPD2     H12415   0.142   1.756  14.096  0.2108  0.2477 -2.2822
  841MPD2    H112416   0.033   2.051  14.386  0.4466  0.9448 -0.3581
  841MPD2    H212417   0.031   2.150  13.982  0.3268 -1.3351 -1.1522
  841MPD2    H312418   0.022   2.214  14.209 -0.3571 -0.5603  2.5023
  841MPD2     N12419   0.127   1.791  14.356  0.1876  0.2072  0.2627
  841MPD2    H512420   0.138   1.695  14.327 -1.3710  0.1914 -0.2694
  841MPD2    N112421   0.100   1.904  13.893 -0.6860  0.6247  0.3501
  841MPD2    H712422   0.153   1.818  13.886 -0.6961  0.5767  0.8269
  842MPD2     C12423   0.900   1.985  16.902  0.4450 -0.5450 -0.0171
  842MPD2    C112424   0.763   1.963  16.907  0.3349 -0.4650 -0.0927
  842MPD2    C212425   0.708   1.849  16.966  0.3389 -0.7063  0.0471
  842MPD2    C312426   0.792   1.774  17.044  0.1190 -0.2114  0.3320
  842MPD2    C412427   0.925   1.799  17.046  0.3203 -0.4458  0.5040
  842MPD2    C512428   0.981   1.901  16.978 -0.5915  0.0859 -0.6418
  842MPD2     H12429   0.601   1.835  16.966  0.2753 -0.2699  0.8218
  842MPD2    H112430   0.989   1.725  17.092  0.3397  0.6007  2.1807
  842MPD2    H212431   0.953   2.067  16.854 -0.3469 -0.8456 -1.4058
  842MPD2    H312432   1.086   1.924  16.994 -0.8508  0.4022  0.6054
  842MPD2     N12433   0.756   1.659  17.134  0.2027 -0.2378  0.0787
  842MPD2    H512434   0.829   1.601  17.173 -0.2773 -0.6314  0.3953
  842MPD2    N112435   0.679   2.058  16.848 -0.4638  0.8010 -0.0907
  842MPD2    H712436   0.724   2.135  16.801 -0.2084  1.9479  2.0245
  843MPD2     C12437   2.798   2.801   0.110 -0.1498  0.1585  0.0288
  843MPD2    C112438   2.876   2.747   0.205 -0.1590 -1.1109  1.8816
  843MPD2    C212439   2.985   2.822   0.250 -0.2443  0.5446 -0.0983
  843MPD2    C312440   3.008   2.949   0.202 -1.1105  0.5921  0.9899
  843MPD2    C412441   2.933   2.999   0.098  0.4277 -0.0100 -0.6098
  843MPD2    C512442   2.823   2.925   0.055 -0.0092 -0.0155 -0.7174
  843MPD2     H12443   3.054   2.775   0.321  0.0588  0.4250 -0.4710
  843MPD2    H112444   2.951   3.103   0.071 -2.3711 -0.0345 -2.5724
  843MPD2    H212445   2.703   2.762   0.077 -1.7527  2.8107  1.4743
  843MPD2    H312446   2.755   2.958  17.723 -1.3093  0.7638  0.7700
  843MPD2     N12447   3.112   3.033   0.253 -0.3384 -0.2547  0.2784
  843MPD2    H512448   3.128   3.118   0.200  1.2149  0.3976  1.8045
  843MPD2    N112449   2.846   2.614   0.234 -0.3893 -0.3050  0.5737
  843MPD2    H712450   2.755   2.585   0.198 -0.5590  0.9051  0.0112
  844MPD2     C12451   1.453   1.057  16.387  0.1388  0.5956 -0.1275
  844MPD2    C112452   1.572   0.985  16.396  0.2649 -0.1404 -0.5766
  844MPD2    C212453   1.670   1.018  16.490 -0.2356  0.3499 -0.2899
  844MPD2    C312454   1.657   1.129  16.577  0.2159 -0.2842  0.1992
  844MPD2    C412455   1.536   1.195  16.566  0.1392  0.1265  0.6543
  844MPD2    C512456   1.442   1.157  16.477 -0.1310  0.2584  0.2113
  844MPD2     H12457   1.747   0.943  16.506 -0.6469 -0.0982 -0.4370
  844MPD2    H112458   1.517   1.283  16.626 -0.5700 -0.0634  0.7061
  844MPD2    H212459   1.372   1.035  16.319  0.3951  1.0937 -0.5960
  844MPD2    H312460   1.359   1.227  16.469  0.6252  1.1082 -0.1936
  844MPD2     N12461   1.767   1.179  16.651  0.2914  0.7605  0.1281
  844MPD2    H512462   1.851   1.121  16.653  0.3128  0.8694  2.2245
  844MPD2    N112463   1.587   0.868  16.314 -0.3100  0.3397 -0.1580
  844MPD2    H712464   1.674   0.816  16.325 -0.8046  0.2482  3.1817
  845MPD2     C12465   1.806   2.045  17.170 -0.1057  0.3185  0.4361
  845MPD2    C112466   1.714   1.983  17.090 -0.4097  0.4111 -0.2874
  845MPD2    C212467   1.744   1.871  17.028  0.2489  0.0643  0.6511
  845MPD2    C312468   1.869   1.814  17.043 -0.5536  0.5101  1.0158
  845MPD2    C412469   1.966   1.870  17.123 -0.6569  0.2656 -0.7092
  845MPD2    C512470   1.933   1.991  17.174  0.3126 -0.5775 -0.1663
  845MPD2     H12471   1.666   1.816  16.977  0.1167  0.5044  0.3796
  845MPD2    H112472   2.071   1.846  17.110 -0.6792 -0.1660 -0.0971
  845MPD2    H212473   1.789   2.143  17.213 -0.9547  0.1769  0.4327
  845MPD2    H312474   2.003   2.044  17.237  0.1025 -0.4674 -0.0239
  845MPD2     N12475   1.890   1.686  16.979  0.4558  0.1606  1.0043
  845MPD2    H512476   1.824   1.660  16.906  1.2954 -2.0849  1.0636
  845MPD2    N112477   1.585   2.034  17.069  0.7141 -0.1933  0.2686
  845MPD2    H712478   1.532   1.999  16.990 -0.1560  1.1782  0.2409
  846MPD2     C12479   3.321   2.562  14.059 -0.4837 -0.3876 -0.0392
  846MPD2    C112480   3.224   2.659  14.082 -0.1687  0.6533 -0.6538
  846MPD2    C212481   3.208   2.707  14.211 -0.3776  0.2224  0.2725
  846MPD2    C312482   3.287   2.664  14.319  0.0628 -0.0066 -0.1332
  846MPD2    C412483   3.387   2.571  14.292  0.1191 -0.0264  0.6599
  846MPD2    C512484   3.397   2.525  14.164  0.2867  0.4362 -0.0352
  846MPD2     H12485   3.130   2.775  14.242 -0.0627  0.6352  0.1527
  846MPD2    H112486   3.459   2.558  14.373  0.5144  1.0247  0.4701
  846MPD2    H212487   3.347   2.530  13.959 -0.7858 -0.7080 -0.0131
  846MPD2    H312488   3.487   2.468  14.146 -0.2295 -0.8973  1.5138
  846MPD2     N12489   3.258   2.717  14.440 -0.0323  0.4726 -0.2733
  846MPD2    H512490   3.180   2.782  14.442 -0.6875 -0.3281  0.2049
  846MPD2    N112491   3.138   2.706  13.981 -0.7763  0.4896 -0.5266
  846MPD2    H712492   3.093   2.795  13.999 -1.1270  0.2716 -0.3331
  847MPD2     C12493   3.010   3.682  14.761  0.2257 -0.0388  0.2076
  847MPD2    C112494   3.081   3.785  14.809  0.7516 -1.0279 -0.1076
  847MPD2    C212495   3.220   3.762  14.831 -0.5254 -0.4867 -0.6286
  847MPD2    C312496   3.285   3.645  14.810 -0.7819 -0.2317  0.6465
  847MPD2    C412497   3.205   3.540  14.769  0.2281 -1.1856 -0.0049
  847MPD2    C512498   3.067   3.555  14.745  1.0532 -0.6041  0.5792
  847MPD2     H12499   3.277   3.838  14.883  1.1549 -2.8706  1.0273
  847MPD2    H112500   3.249   3.444  14.743  0.6286 -0.3629 -2.3587
  847MPD2    H212501   2.903   3.689  14.741  0.2834  1.0081  0.3120
  847MPD2    H312502   3.009   3.474  14.702  2.5255  0.2364 -2.9520
  847MPD2     N12503   3.424   3.639  14.832  0.4688 -0.1934 -0.0250
  847MPD2    H512504   3.475   3.724  14.855 -0.9683  0.9129 -0.9641
  847MPD2    N112505   3.027   3.923  14.829 -0.3971 -0.2350  0.1850
  847MPD2    H712506   3.094   3.992  14.861 -2.1152  0.9864  1.2050
  848MPD2     C12507   1.035   1.712  16.295  0.3815 -0.3996 -0.5334
  848MPD2    C112508   1.095   1.797  16.382  0.0328  0.6177  0.1357
  848MPD2    C212509   1.154   1.910  16.333 -0.5217  0.3284  0.3898
  848MPD2    C312510   1.157   1.941  16.198 -0.9577  0.0974 -0.9209
  848MPD2    C412511   1.091   1.855  16.108  0.2210 -0.7078 -0.7289
  848MPD2    C512512   1.030   1.740  16.154  0.3943 -0.3399 -0.3906
  848MPD2     H12513   1.205   1.978  16.400  0.8664 -0.6076  0.2917
  848MPD2    H112514   1.101   1.869  16.001 -1.8353  0.4670 -0.7497
  848MPD2    H212515   0.979   1.622  16.319 -1.1743  0.5221 -0.7134
  848MPD2    H312516   0.969   1.671  16.096 -0.0206  1.4828 -2.0830
  848MPD2     N12517   1.221   2.046  16.135  0.2853 -0.1242  0.3004
  848MPD2    H512518   1.214   2.056  16.034  1.5265  3.0054  0.4996
  848MPD2    N112519   1.101   1.767  16.516 -0.2736  0.2482  0.0932
  848MPD2    H712520   1.163   1.827  16.570  0.0213  1.3046 -1.4214
  849MPD2     C12521   1.187   1.834  13.816  0.0753 -0.1855 -0.3589
  849MPD2    C112522   1.114   1.728  13.877  0.1871 -0.4497 -0.8340
  849MPD2    C212523   1.024   1.756  13.971  0.1423 -0.1843 -0.0496
  849MPD2    C312524   0.980   1.878  13.998 -0.0195  0.0235 -0.2575
  849MPD2    C412525   1.048   1.983  13.940 -0.2321  0.1328 -0.1445
  849MPD2    C512526   1.148   1.959  13.850 -0.3862 -0.3562  0.2892
  849MPD2     H12527   0.970   1.673  14.016 -0.3127  0.0762 -0.1098
  849MPD2    H112528   1.013   2.084  13.958  1.8387  0.7111  0.6560
  849MPD2    H212529   1.274   1.815  13.753  0.6757  1.3004  0.0194
  849MPD2    H312530   1.200   2.042  13.804  0.9982 -1.6808 -0.5410
  849MPD2     N12531   0.876   1.908  14.093  0.2843  0.1499  0.3249
  849MPD2    H512532   0.875   1.999  14.138 -1.9200 -0.1560  0.8806
  849MPD2    N112533   1.135   1.590  13.860 -0.3410 -0.2059  0.0012
  849MPD2    H712534   1.083   1.528  13.922 -0.7449  0.4647  0.3394
  850MPD2     C12535   3.298   4.611  14.816 -0.3037 -0.3693 -0.6744
  850MPD2    C112536   3.291   4.703  14.918  0.2172  0.0413  0.1923
  850MPD2    C212537   3.419   4.726  14.978 -0.3880  0.0925 -0.5668
  850MPD2    C312538   3.524   4.637  14.960  0.2270  0.4438  0.3440
  850MPD2    C412539   3.516   4.541  14.868 -0.2185  0.5018 -0.5134
  850MPD2    C512540   3.403   4.524  14.787 -0.2633 -0.2710 -0.1961
  850MPD2     H12541   3.428   0.073  15.047  0.4004 -0.0183 -0.5331
  850MPD2    H112542   3.599   4.473  14.848  1.1092  1.5598  1.4783
  850MPD2    H212543   3.206   4.600  14.759 -2.0055  2.0825  1.6084
  850MPD2    H312544   3.403   4.452  14.706  0.4666  1.6931 -1.9646
  850MPD2     N12545   3.651   4.644  15.020  0.0614 -0.1941  0.6658
  850MPD2    H512546   3.719   4.573  14.992 -1.9584 -3.1055  3.2261
  850MPD2    N112547   3.175   0.046  14.933  0.2069  1.0342  0.1355
  850MPD2    H712548   3.116   0.043  14.850 -0.7424 -0.4942  0.8568
  851MPD2     C12549   3.629   4.616  15.663  0.1706  0.1151  0.4184
  851MPD2    C112550   3.529   4.600  15.567 -0.0868 -0.1988 -0.0295
  851MPD2    C212551   3.492   4.468  15.541  0.9667 -0.0435  0.2721
  851MPD2    C312552   3.551   4.360  15.603  0.2469 -0.2412  0.1085
  851MPD2    C412553   3.663   4.374  15.689  0.4062 -0.2652  0.4810
  851MPD2    C512554   3.690   4.505  15.722  0.1959  0.8653  0.1091
  851MPD2     H12555   3.425   4.449  15.457  1.9039  0.5686 -0.6059
  851MPD2    H112556   3.719   4.296  15.739 -2.0473 -1.0880  1.9483
  851MPD2    H212557   3.667   4.711  15.700 -1.1697  1.1652 -0.9215
  851MPD2    H312558   3.768   4.522  15.796  0.3292  0.2920  0.1064
  851MPD2     N12559   3.502   4.232  15.555  0.1153 -0.5813  0.0249
  851MPD2    H512560   3.434   4.238  15.480  0.6346 -0.2330 -0.4130
  851MPD2    N112561   3.462   4.708  15.504  0.2607 -0.3394 -0.3047
  851MPD2    H712562   3.475   0.068  15.533 -0.0595 -0.7426  1.1982
  852MPD2     C12563   3.351   2.912  10.467 -0.1969  0.0644  0.3161
  852MPD2    C112564   3.455   2.833  10.532 -0.1597  0.0436  0.6552
  852MPD2    C212565   3.591   2.861  10.524 -0.9057  0.2740  0.1406
  852MPD2    C312566   3.632   2.982  10.470 -0.0794  0.0848 -0.3974
  852MPD2    C412567   3.534   3.060  10.414 -0.9851 -0.0519  0.1924
  852MPD2    C512568   3.399   3.023  10.413  0.6120 -0.1078 -0.0798
  852MPD2     H12569   3.653   2.785  10.571 -0.8624 -0.3993 -1.0116
  852MPD2    H112570   3.551   3.160  10.376 -0.9477 -0.3644 -0.6124
  852MPD2    H212571   3.245   2.889  10.470  0.0334 -1.1284 -0.5062
  852MPD2    H312572   3.328   3.094  10.372  0.4025  0.1690  0.7661
  852MPD2     N12573   3.768   3.010  10.464  0.1679 -0.0894 -0.2380
  852MPD2    H512574   3.825   2.955  10.527  0.2968 -1.5439 -1.6434
  852MPD2    N112575   3.427   2.710  10.597 -0.5810 -0.0213 -0.2288
  852MPD2    H712576   3.506   2.657  10.632  1.1408  1.6684 -1.5347
  853MPD2     C12577   0.302   1.915  12.483 -1.0458 -0.5626 -0.3867
  853MPD2    C112578   0.199   1.998  12.447 -0.7747 -0.2193  0.1571
  853MPD2    C212579   0.174   2.015  12.309  0.2119  0.0410  0.0491
  853MPD2    C312580   0.240   1.931  12.220 -0.6017 -0.6006  0.1182
  853MPD2    C412581   0.334   1.844  12.266  0.5271 -0.0171  0.4006
  853MPD2    C512582   0.364   1.837  12.400 -0.0931 -0.9469 -0.1801
  853MPD2     H12583   0.100   2.078  12.261 -0.0066  1.6447  2.5053
  853MPD2    H112584   0.378   1.779  12.191  0.6823 -1.6318  1.8823
  853MPD2    H212585   0.341   1.915  12.584  0.0928 -1.4188 -0.8178
  853MPD2    H312586   0.444   1.775  12.439  1.2011  1.2338  0.6005
  853MPD2     N12587   0.217   1.931  12.083 -0.6180  0.3767 -0.1410
  853MPD2    H512588   0.270   1.856  12.040  1.3554  0.9461  1.2799
  853MPD2    N112589   0.136   2.069  12.550  0.1345  0.0457 -0.0671
  853MPD2    H712590   0.167   2.042  12.643 -0.6320 -0.4175  0.0550
  854MPD2     C12591   1.608   2.658  12.955 -0.4810  0.4446 -0.8419
  854MPD2    C112592   1.545   2.541  12.926 -0.1070  0.2118  0.5072
  854MPD2    C212593   1.583   2.421  12.988 -0.5536  0.2734 -0.0350
  854MPD2    C312594   1.696   2.425  13.063 -0.1932 -0.1134  0.0925
  854MPD2    C412595   1.756   2.544  13.095  0.4260 -0.6276 -0.4252
  854MPD2    C512596   1.705   2.660  13.047 -0.2834  0.5082 -0.3960
  854MPD2     H12597   1.531   2.330  12.958  0.2226 -0.0653 -0.3617
  854MPD2    H112598   1.850   2.555  13.149 -0.2422 -0.8500  0.7792
  854MPD2    H212599   1.589   2.751  12.902 -2.1273 -1.0513 -2.9111
  854MPD2    H312600   1.747   2.756  13.072  0.8984 -0.3111  0.7824
  854MPD2     N12601   1.766   2.303  13.112 -0.1532  0.1080  0.3834
  854MPD2    H512602   1.846   2.327  13.169  0.2152  0.5929 -0.3343
  854MPD2    N112603   1.437   2.537  12.837 -0.3477  0.5681  0.0824
  854MPD2    H712604   1.419   2.617  12.777 -1.4120 -1.3242 -2.0897
  855MPD2     C12605   2.331   2.240  13.725 -0.4332  0.0150  0.0565
  855MPD2    C112606   2.295   2.106  13.707  0.6375 -0.4139 -0.0765
  855MPD2    C212607   2.207   2.063  13.604  0.2721 -0.4113  0.4358
  855MPD2    C312608   2.156   2.152  13.516  0.2256 -1.1180 -0.1967
  855MPD2    C412609   2.191   2.284  13.536  0.7906 -0.3713  0.6685
  855MPD2    C512610   2.276   2.325  13.632 -0.0287 -0.1256  0.7119
  855MPD2     H12611   2.175   1.960  13.604  3.0261 -1.2616 -0.3683
  855MPD2    H112612   2.144   2.348  13.462  2.4751 -1.2328 -1.1732
  855MPD2    H212613   2.391   2.284  13.803 -1.2156 -1.3204  1.4069
  855MPD2    H312614   2.295   2.432  13.630 -0.4461 -0.0539  0.7632
  855MPD2     N12615   2.075   2.111  13.414  0.0205 -0.0960  0.1158
  855MPD2    H512616   2.050   2.193  13.359 -1.5467  0.3904  1.5582
  855MPD2    N112617   2.339   2.011  13.807 -0.1207  0.4356  0.0579
  855MPD2    H712618   2.312   1.914  13.792 -0.7187  0.5167  0.5896
  856MPD2     C12619   4.370   2.764  14.378 -0.2766 -0.3174  0.2239
  856MPD2    C112620   4.372   2.902  14.411  0.0692  0.2071  0.0851
  856MPD2    C212621   4.246   2.966  14.399 -0.3150  0.3047 -0.6121
  856MPD2    C312622   4.131   2.896  14.367 -0.4695 -0.1190  0.4981
  856MPD2    C412623   4.131   2.762  14.345  0.2524 -0.6902 -0.1686
  856MPD2    C512624   4.253   2.698  14.361 -0.7601 -0.0458  0.4167
  856MPD2     H12625   4.242   3.073  14.415 -0.2280 -0.2124  2.9910
  856MPD2    H112626   4.050   2.697  14.315 -0.0663 -0.7512  0.8332
  856MPD2    H212627   4.457   2.700  14.384  0.4935  0.6896 -0.1040
  856MPD2    H312628   4.259   2.591  14.345 -0.3140 -0.1500  1.2537
  856MPD2     N12629   4.008   2.967  14.352 -0.2392  0.1144 -0.0789
  856MPD2    H512630   3.925   2.916  14.322  0.1723  0.5327 -1.8764
  856MPD2    N112631   4.486   2.970  14.459  0.7162 -0.5298 -0.9213
  856MPD2    H712632   4.478   3.063  14.498  1.6634 -1.9893  2.7935
  857MPD2     C12633   1.117   0.851  12.528  0.3934  0.2549 -0.1658
  857MPD2    C112634   1.132   0.795  12.653  0.1150  0.6595  0.2993
  857MPD2    C212635   1.196   0.872  12.755  0.4098  0.7494  0.2826
  857MPD2    C312636   1.230   1.005  12.733 -0.3268 -0.5078  0.5218
  857MPD2    C412637   1.201   1.060  12.608  0.4301  0.7710 -0.3360
  857MPD2    C512638   1.145   0.983  12.508  0.1932  0.2316 -0.1638
  857MPD2     H12639   1.208   0.836  12.857 -1.0526  0.0032  0.2010
  857MPD2    H112640   1.229   1.162  12.582  1.7381  0.5087  0.0330
  857MPD2    H212641   1.074   0.786  12.453 -2.3873 -0.4501  2.0484
  857MPD2    H312642   1.125   1.032  12.414 -0.8230  1.9016  0.9298
  857MPD2     N12643   1.299   1.075  12.840 -0.3048 -0.1086 -0.3413
  857MPD2    H512644   1.311   1.018  12.924 -4.2085  0.2131  0.4437
  857MPD2    N112645   1.100   0.658  12.671 -0.1770 -0.3861  0.2517
  857MPD2    H712646   1.052   0.613  12.593 -0.7127 -0.2630  0.5090
  858MPD2     C12647   1.400   4.205  16.625  0.3883  0.4768  0.2153
  858MPD2    C112648   1.493   4.151  16.706 -0.4160  0.6737  0.7116
  858MPD2    C212649   1.474   4.178  16.837  0.2916  0.5133  0.7605
  858MPD2    C312650   1.371   4.254  16.889  0.3160 -0.3753  0.6310
  858MPD2    C412651   1.274   4.300  16.801  0.0705 -0.7772  0.1739
  858MPD2    C512652   1.286   4.269  16.668 -0.8033  0.4463  0.0296
  858MPD2     H12653   1.552   4.145  16.905 -0.3984 -1.8290  0.4133
  858MPD2    H112654   1.178   4.340  16.833  0.7996  0.4564  0.7963
  858MPD2    H212655   1.410   4.204  16.517  1.9350  0.7714  0.3501
  858MPD2    H312656   1.209   4.294  16.596  0.4372 -2.1293 -2.2067
  858MPD2     N12657   1.357   4.309  17.021  0.4877 -0.0783 -0.3072
  858MPD2    H512658   1.288   4.383  17.030  3.3827  2.2901  2.0569
  858MPD2    N112659   1.599   4.064  16.663 -0.3471 -0.0703  0.3153
  858MPD2    H712660   1.663   4.021  16.728 -0.1004 -0.8510 -0.4433
  859MPD2     C12661   0.455   1.086  15.768  0.2933 -0.3351 -0.0013
  859MPD2    C112662   0.370   1.147  15.680  0.0141 -0.3936 -0.2229
  859MPD2    C212663   0.288   1.082  15.590  0.0118  0.5559  0.0042
  859MPD2    C312664   0.297   0.945  15.590  0.1230  0.0373  0.0690
  859MPD2    C412665   0.379   0.875  15.682  0.2706 -0.0082  0.5270
  859MPD2    C512666   0.456   0.948  15.774  0.3618 -0.0261  0.1608
  859MPD2     H12667   0.221   1.131  15.520 -0.7161 -0.7706 -0.2239
  859MPD2    H112668   0.393   0.768  15.680 -0.5204 -0.1172  0.6472
  859MPD2    H212669   0.518   1.141  15.836 -1.0618  0.2682  0.7788
  859MPD2    H312670   0.506   0.901  15.858  0.6271 -2.1786 -1.2219
  859MPD2     N12671   0.214   0.867  15.507  0.0640  0.2641  0.6773
  859MPD2    H512672   0.246   0.771  15.502 -2.1451 -0.4638  0.5390
  859MPD2    N112673   0.397   1.285  15.676 -0.9448 -0.3673  0.1286
  859MPD2    H712674   0.466   1.317  15.743  1.9131 -1.3438 -2.3696
  860MPD2     C12675   3.162   2.151  11.816  0.2481  0.2836 -0.9767
  860MPD2    C112676   3.172   2.176  11.951  0.1136  0.5946  0.3562
  860MPD2    C212677   3.062   2.168  12.028  0.3039  0.2535  0.4142
  860MPD2    C312678   2.945   2.114  11.981 -0.4991 -0.1831  0.2451
  860MPD2    C412679   2.936   2.083  11.849 -0.1946 -1.3540 -0.2971
  860MPD2    C512680   3.042   2.095  11.768 -0.2917 -0.0132 -0.1282
  860MPD2     H12681   3.081   2.196  12.131  1.3373  1.3572 -0.0795
  860MPD2    H112682   2.845   2.054  11.798  0.3713  0.1326 -2.1780
  860MPD2    H212683   3.251   2.156  11.755 -0.1055  1.0763 -1.4206
  860MPD2    H312684   3.025   2.066  11.665  1.0537 -2.2008  0.2690
  860MPD2     N12685   2.836   2.101  12.071  0.1113 -0.3494 -0.3198
  860MPD2    H512686   2.832   2.147  12.161 -1.3510  0.0527 -0.5882
  860MPD2    N112687   3.293   2.215  12.015  0.2218 -0.1044 -0.4267
  860MPD2    H712688   3.292   2.235  12.115  0.5503 -0.2831 -0.3891
  861MPD2     C12689   2.015   0.782  11.089 -0.3550  0.5485  0.0398
  861MPD2    C112690   1.886   0.732  11.118 -0.1515 -0.1146 -0.1955
  861MPD2    C212691   1.780   0.790  11.054 -0.2753 -0.1244 -0.4181
  861MPD2    C312692   1.801   0.894  10.962 -0.4581 -1.0189  0.0681
  861MPD2    C412693   1.924   0.949  10.946  0.2763 -0.2761 -0.5603
  861MPD2    C512694   2.029   0.894  11.012 -0.3301  0.7038 -0.2668
  861MPD2     H12695   1.684   0.741  11.064 -0.3802  0.5338  1.7251
  861MPD2    H112696   1.950   1.033  10.882 -1.5365  0.6412 -0.0686
  861MPD2    H212697   2.101   0.748  11.144 -1.0498 -1.5778 -0.1879
  861MPD2    H312698   2.128   0.924  10.980 -0.1102 -1.0456 -1.2654
  861MPD2     N12699   1.696   0.954  10.883  0.0242 -0.3825  0.6358
  861MPD2    H512700   1.726   1.026  10.818  0.0640 -0.0867  0.9821
  861MPD2    N112701   1.861   0.640  11.223  0.1928  0.0947 -0.3060
  861MPD2    H712702   1.762   0.640  11.246 -0.2042  1.8655 -1.9303
  862MPD2     C12703   0.941   0.744  10.513  0.0131  0.4451  0.2235
  862MPD2    C112704   1.014   0.783  10.622  0.2636  0.3724  0.2911
  862MPD2    C212705   1.016   0.710  10.740  0.0580  0.7003  0.2357
  862MPD2    C312706   0.956   0.592  10.748  1.0310 -0.3925  0.2831
  862MPD2    C412707   0.875   0.558  10.641 -0.7036  0.0824 -0.0246
  862MPD2    C512708   0.869   0.624  10.524 -0.0576  0.2229  0.1996
  862MPD2     H12709   1.064   0.753  10.827 -2.0667  1.3500  1.0723
  862MPD2    H112710   0.815   0.468  10.640 -1.3739  0.5548 -2.0577
  862MPD2    H212711   0.935   0.797  10.419 -1.0816 -0.5564 -0.2636
  862MPD2    H312712   0.816   0.580  10.440  1.1724  1.3148 -1.1604
  862MPD2     N12713   0.962   0.510  10.863 -0.0833  0.1335  0.6929
  862MPD2    H512714   0.890   0.440  10.881 -0.6011 -0.2374 -2.7319
  862MPD2    N112715   1.091   0.901  10.604  0.2129  0.3740  0.2235
  862MPD2    H712716   1.104   0.939  10.511 -1.5642 -1.0932 -0.6158
  863MPD2     C12717   4.729   2.950  16.761  0.4365  0.1127 -0.2910
  863MPD2    C112718   4.711   3.070  16.819  0.0424  0.2325 -0.3555
  863MPD2    C212719   0.047   3.096  16.936  1.2240 -0.2728 -0.0153
  863MPD2    C312720   0.126   3.002  17.003 -0.5968  0.4597 -0.1548
  863MPD2    C412721   0.144   2.880  16.940 -0.1540  0.2083  0.2129
  863MPD2    C512722   0.081   2.862  16.820 -0.7521 -0.5194  0.0846
  863MPD2     H12723   0.037   3.190  16.990 -0.2232 -0.3206 -0.2144
  863MPD2    H112724   0.216   2.806  16.972 -0.7258  0.1665  1.3827
  863MPD2    H212725   4.677   2.914  16.673 -1.5338 -3.2088  2.2787
  863MPD2    H312726   0.096   2.765  16.775 -3.0057 -0.4795 -0.7510
  863MPD2     N12727   0.183   3.021  17.131  0.9420  0.3529  0.0629
  863MPD2    H512728   0.243   2.946  17.163 -0.1818 -0.3872  0.4209
  863MPD2    N112729   4.617   3.162  16.758  0.6058  0.4396  0.2435
  863MPD2    H712730   4.568   3.134  16.673  1.1579  0.9087 -0.2240
  864MPD2     C12731   0.113   3.708  15.848 -0.1938  0.5084 -0.1930
  864MPD2    C112732   0.135   3.809  15.942  0.7624  0.0407  0.1741
  864MPD2    C212733   0.148   3.943  15.896 -0.7174  0.2885  1.0262
  864MPD2    C312734   0.124   3.962  15.759 -0.2863  0.1166 -0.0612
  864MPD2    C412735   0.098   3.854  15.669  0.6434  0.2231  0.6822
  864MPD2    C512736   0.091   3.734  15.717 -0.5169  0.4250 -0.1840
  864MPD2     H12737   0.176   4.031  15.954 -1.1679  0.7397  0.5532
  864MPD2    H112738   0.106   3.865  15.561  0.4115 -1.8704  0.4505
  864MPD2    H212739   0.112   3.607  15.887  1.0734  0.7339  0.4148
  864MPD2    H312740   0.066   3.658  15.645  2.1863 -1.9200  1.3274
  864MPD2     N12741   0.166   4.084  15.700  0.1347 -0.4974  0.0944
  864MPD2    H512742   0.185   4.074  15.601  0.7250  2.0760 -0.0502
  864MPD2    N112743   0.162   3.778  16.079  0.3932  0.0605  0.0592
  864MPD2    H712744   0.185   3.684  16.109  1.7803  0.4921  0.3137
  865MPD2     C12745   0.746   4.477  15.202  0.2497 -0.3765  0.1333
  865MPD2    C112746   0.696   4.399  15.300  0.8704 -0.2629  1.0614
  865MPD2    C212747   0.558   4.393  15.317  0.2756  0.3690  0.1744
  865MPD2    C312748   0.479   4.468  15.233  0.3239 -0.5771 -0.5256
  865MPD2    C412749   0.536   4.548  15.138  0.8083 -0.7368  0.4744
  865MPD2    C512750   0.668   4.556  15.120  0.0461  0.0146 -0.3443
  865MPD2     H12751   0.509   4.324  15.384  1.2097  2.0817  2.6075
  865MPD2    H112752   0.480   4.614  15.073  1.7621  0.4197  0.8436
  865MPD2    H212753   0.854   4.485  15.198  0.5388 -2.3434  3.3511
  865MPD2    H312754   0.706   4.633  15.054  0.8376 -1.6278 -1.8026
  865MPD2     N12755   0.335   4.470  15.239 -0.1271  0.0606 -0.2093
  865MPD2    H512756   0.287   4.497  15.154 -1.1276  1.7083  0.8953
  865MPD2    N112757   0.781   4.347  15.401 -0.0698  0.3400 -0.1300
  865MPD2    H712758   0.877   4.377  15.396 -0.1624  0.7571  0.6593
  866MPD2     C12759   2.401   0.906  11.494  0.3488  0.6721 -0.6875
  866MPD2    C112760   2.354   1.031  11.459 -0.0226 -0.5240  0.1106
  866MPD2    C212761   2.215   1.046  11.449 -0.0112 -0.2145  0.0742
  866MPD2    C312762   2.128   0.942  11.465  0.3050  0.1564  0.0722
  866MPD2    C412763   2.177   0.815  11.496  0.6207  0.8699 -0.0841
  866MPD2    C512764   2.313   0.804  11.512 -0.0413  0.1882 -0.2065
  866MPD2     H12765   2.169   1.144  11.438  0.2556 -0.2472 -1.3518
  866MPD2    H112766   2.111   0.733  11.520 -1.3263  2.6071  0.4891
  866MPD2    H212767   2.505   0.890  11.519 -0.6313  0.8942  3.5426
  866MPD2    H312768   2.349   0.710  11.552  0.9746  0.1730 -1.1615
  866MPD2     N12769   1.990   0.960  11.453 -0.2878  0.0408 -0.7352
  866MPD2    H512770   1.930   0.882  11.477  0.1092 -0.8189 -2.5462
  866MPD2    N112771   2.449   1.128  11.429  0.1638  0.4576  0.1965
  866MPD2    H712772   2.545   1.097  11.425 -1.0593 -3.4421  1.0562
  867MPD2     C12773   4.086   4.479  16.832  0.2764  0.0237  0.0402
  867MPD2    C112774   4.119   4.416  16.950 -0.0206  0.3381 -0.4072
  867MPD2    C212775   4.038   4.444  17.060 -0.2765  0.9243  0.0406
  867MPD2    C312776   3.939   4.542  17.052  0.5801  0.1083  0.4665
  867MPD2    C412777   3.915   4.603  16.932 -0.4222  0.5188 -0.6984
  867MPD2    C512778   3.986   4.573  16.821 -0.1855  0.5836  0.2524
  867MPD2     H12779   4.057   4.394  17.154  1.8172  1.0658 -0.3108
  867MPD2    H112780   3.848   4.688  16.925  1.0676  1.8945  2.0660
  867MPD2    H212781   4.140   4.460  16.739  2.5999  3.0393  0.7814
  867MPD2    H312782   3.967   4.627  16.729 -0.4102  0.7372  0.3893
  867MPD2     N12783   3.857   4.575  17.163 -0.5384  0.3647  0.2816
  867MPD2    H512784   3.802   4.661  17.158 -2.5122 -0.9132 -0.1463
  867MPD2    N112785   4.233   4.330  16.951  0.2499 -0.5636  0.4050
  867MPD2    H712786   4.283   4.325  16.862 -0.3142 -1.0241  0.1141
  868MPD2     C12787   1.383   3.637  13.252 -0.7366 -0.7117 -0.3939
  868MPD2    C112788   1.435   3.576  13.364  0.4089  0.1831 -0.1045
  868MPD2    C212789   1.378   3.588  13.490 -0.2922  0.6986 -0.0492
  868MPD2    C312790   1.285   3.684  13.514 -0.2423 -0.0093 -0.4751
  868MPD2    C412791   1.245   3.761  13.402  0.0637  0.0193  0.0344
  868MPD2    C512792   1.279   3.731  13.270  0.3540 -0.3404 -0.2992
  868MPD2     H12793   1.417   3.535  13.576  0.9705  1.2210 -0.2963
  868MPD2    H112794   1.187   3.851  13.413  1.2206  0.7632  0.0031
  868MPD2    H212795   1.425   3.627  13.153 -0.3165 -2.0972 -0.0815
  868MPD2    H312796   1.245   3.796  13.190  1.1976  1.0146  0.4353
  868MPD2     N12797   1.244   3.721  13.644  0.0889  0.1300 -0.5428
  868MPD2    H512798   1.280   3.666  13.721  0.0120 -0.3827 -0.8759
  868MPD2    N112799   1.565   3.507  13.347  0.0491 -0.3097 -0.2922
  868MPD2    H712800   1.621   3.526  13.264  1.8065 -1.8543  0.5519
  869MPD2     C12801   1.336   1.753   0.351  0.1637  0.0023 -0.2893
  869MPD2    C112802   1.383   1.654   0.437  0.4539  0.6720  0.5967
  869MPD2    C212803   1.497   1.680   0.509  0.3298  0.3125 -0.5377
  869MPD2    C312804   1.586   1.781   0.468 -0.1805 -0.3942 -0.3153
  869MPD2    C412805   1.540   1.868   0.372  0.2306 -1.0494  0.2983
  869MPD2    C512806   1.419   1.857   0.316  0.5567 -0.0571  0.3650
  869MPD2     H12807   1.524   1.597   0.573 -1.0456 -0.6663 -1.2225
  869MPD2    H112808   1.594   1.947   0.322  0.5271 -0.2463  1.8947
  869MPD2    H212809   1.246   1.743   0.292 -0.4944  0.0917  0.6951
  869MPD2    H312810   1.397   1.922   0.232  0.8448  2.1816  2.0241
  869MPD2     N12811   1.715   1.804   0.519  0.3514  0.5548  0.8030
  869MPD2    H512812   1.770   1.883   0.486 -0.3241  0.4009 -0.6686
  869MPD2    N112813   1.315   1.530   0.454 -0.5524 -0.1197  0.1329
  869MPD2    H712814   1.361   1.463   0.514  0.7540 -0.9795 -1.8159
  870MPD2     C12815   1.469   1.339   1.383 -0.6597 -0.3545  0.7402
  870MPD2    C112816   1.479   1.240   1.283  0.0722  0.0629  0.3435
  870MPD2    C212817   1.361   1.210   1.210  0.0121  0.0539  0.2457
  870MPD2    C312818   1.238   1.258   1.249  0.2197  0.2175 -0.0493
  870MPD2    C412819   1.231   1.350   1.347  0.5152 -0.0115  1.0129
  870MPD2    C512820   1.347   1.394   1.407  0.0276 -0.7554  0.4755
  870MPD2     H12821   1.369   1.122   1.147 -0.2066 -1.3333  2.1653
  870MPD2    H112822   1.133   1.393   1.364 -0.9113 -2.4396 -0.9837
  870MPD2    H212823   1.552   1.376   1.442 -0.1807 -1.3265  0.6609
  870MPD2    H312824   1.340   1.485   1.466 -1.7234 -0.9506  0.5834
  870MPD2     N12825   1.124   1.208   1.179 -0.0088  0.2442  0.0014
  870MPD2    H512826   1.140   1.140   1.105  1.0387  0.6088 -0.1094
  870MPD2    N112827   1.607   1.176   1.257  0.0527  0.1240 -0.3132
  870MPD2    H712828   1.685   1.208   1.314 -0.8074 -0.1838  1.0167
  871MPD2     C12829   2.978   0.127  16.343 -0.6636 -0.7177  0.0365
  871MPD2    C112830   3.006   0.077  16.472 -0.0815 -0.4631 -0.1233
  871MPD2    C212831   3.092   4.705  16.484 -0.1490 -0.1607 -0.1048
  871MPD2    C312832   3.136   4.646  16.364  0.1015  0.0669 -0.5008
  871MPD2    C412833   3.106   4.693  16.240 -0.1758 -0.3252  0.3678
  871MPD2    C512834   3.028   0.066  16.233  0.3709  0.4063 -0.2382
  871MPD2     H12835   3.122   4.665  16.580 -1.5031 -0.1463  0.3212
  871MPD2    H112836   3.149   4.655  16.149 -1.3728 -1.3192  0.2217
  871MPD2    H212837   2.915   0.214  16.326  0.5213 -0.0384 -0.8501
  871MPD2    H312838   2.996   0.098  16.134  1.1398 -1.4887 -1.0934
  871MPD2     N12839   3.212   4.528  16.364  0.5354  0.1861  0.1228
  871MPD2    H512840   3.219   4.480  16.275 -1.2556  1.1458 -0.5240
  871MPD2    N112841   2.946   0.136  16.583  0.0417 -0.0795  0.1450
  871MPD2    H712842   2.892   0.219  16.562  3.1400  1.9837  0.3446
  872MPD2     C12843   4.013   2.313  13.960 -0.0361 -0.1597  0.4738
  872MPD2    C112844   4.044   2.416  14.051 -0.2789  0.7243  0.2024
  872MPD2    C212845   3.970   2.425  14.167 -0.4743  0.4299 -0.5778
  872MPD2    C312846   3.852   2.344  14.187 -0.3402  0.0867 -0.1093
  872MPD2    C412847   3.826   2.245  14.093 -0.2601  0.1463  0.0662
  872MPD2    C512848   3.908   2.232  13.983  0.2616 -0.3609 -0.9886
  872MPD2     H12849   3.999   2.503  14.237 -0.5668  0.5418 -0.6631
  872MPD2    H112850   3.740   2.182  14.110  0.6026 -0.8933  0.5918
  872MPD2    H212851   4.070   2.293  13.870 -2.4626  1.7328 -1.4541
  872MPD2    H312852   3.882   2.160  13.906  1.9300  1.1319 -2.9422
  872MPD2     N12853   3.763   2.355  14.296 -0.0014  0.2506 -0.5295
  872MPD2    H512854   3.694   2.282  14.306 -0.4821  0.9099  0.9440
  872MPD2    N112855   4.157   2.501  14.035  0.1115  0.0075 -0.0470
  872MPD2    H712856   4.168   2.587  14.088 -3.0000  0.4522 -0.1190
  873MPD2     C12857   0.977   1.902   0.724 -0.3957  0.2609  0.0842
  873MPD2    C112858   0.876   1.960   0.793  0.1925 -0.8736 -0.8595
  873MPD2    C212859   0.771   1.883   0.833 -0.4229  0.2170 -0.0190
  873MPD2    C312860   0.768   1.745   0.805 -0.0838  0.8215 -0.6522
  873MPD2    C412861   0.879   1.689   0.752 -0.1469  0.1555  0.4465
  873MPD2    C512862   0.979   1.768   0.701 -0.4688 -0.6287  0.3907
  873MPD2     H12863   0.686   1.934   0.876  0.6769  0.5544  1.7543
  873MPD2    H112864   0.882   1.588   0.712 -1.8101 -0.1314  1.0354
  873MPD2    H212865   1.055   1.957   0.671  1.2169 -2.9304 -0.8583
  873MPD2    H312866   1.058   1.720   0.644 -1.6257  0.0200 -1.7571
  873MPD2     N12867   0.658   1.660   0.834  0.0197  0.7781 -0.0503
  873MPD2    H512868   0.653   1.567   0.794 -0.4042  2.3918 -3.7475
  873MPD2    N112869   0.893   2.100   0.817 -1.0768  0.0441 -0.7958
  873MPD2    H712870   0.976   2.145   0.781 -0.6963 -0.4253 -0.5107
  874MPD2     C12871   0.600   2.515  16.139 -0.0661 -0.1196 -0.3154
  874MPD2    C112872   0.656   2.424  16.218  0.6873  0.0837  0.0628
  874MPD2    C212873   0.788   2.385  16.191  0.2176 -0.5036  0.1532
  874MPD2    C312874   0.855   2.441  16.083  0.5908 -0.6837 -0.1213
  874MPD2    C412875   0.788   2.538  16.003 -0.7932  0.0673  0.3024
  874MPD2    C512876   0.660   2.567  16.030  0.0035 -0.3260 -0.2271
  874MPD2     H12877   0.845   2.323  16.258  1.8233  0.0617 -0.6951
  874MPD2    H112878   0.847   2.590  15.928  2.6249 -1.7787  1.6730
  874MPD2    H212879   0.510   2.564  16.174 -0.5704  0.8230 -2.8934
  874MPD2    H312880   0.609   2.644  15.973  0.7428 -0.5697 -1.2410
  874MPD2     N12881   0.985   2.406  16.058 -0.0335  1.2944 -0.1221
  874MPD2    H512882   1.031   2.346  16.125  0.6636  0.2938 -1.5003
  874MPD2    N112883   0.573   2.378  16.320 -0.0733  0.0408  0.3605
  874MPD2    H712884   0.476   2.408  16.324  0.0881  0.6928 -0.8519
  875MPD2     C12885   1.086   0.693  14.571 -0.1694 -0.4237 -0.9396
  875MPD2    C112886   1.211   0.725  14.528 -0.4779  0.0523  0.8649
  875MPD2    C212887   1.288   0.790  14.610  0.3515 -0.9342  0.2087
  875MPD2    C312888   1.245   0.833  14.738 -0.4454  0.0031  0.2246
  875MPD2    C412889   1.112   0.809  14.773  0.8713 -0.4664 -0.6597
  875MPD2    C512890   1.029   0.743  14.689 -0.7571  0.4237 -0.7219
  875MPD2     H12891   1.395   0.800  14.594 -0.1511  1.4690 -1.5803
  875MPD2    H112892   1.067   0.869  14.852  2.1320  0.1904 -0.4433
  875MPD2    H212893   1.019   0.637  14.508  2.9316 -1.5779 -3.2118
  875MPD2    H312894   0.931   0.714  14.724 -0.6688  0.1031 -0.7402
  875MPD2     N12895   1.333   0.915  14.819 -0.3658  0.2694 -0.4743
  875MPD2    H512896   1.427   0.929  14.784 -0.6944 -0.0713 -1.4805
  875MPD2    N112897   1.260   0.673  14.405 -0.4425  0.1980 -0.1077
  875MPD2    H712898   1.351   0.710  14.379 -1.3559  0.5651 -2.8233
  876MPD2     C12899   0.186   1.253  16.036  0.6281 -0.1698  0.5614
  876MPD2    C112900   0.238   1.316  16.146 -0.3007 -0.7926  0.3404
  876MPD2    C212901   0.249   1.243  16.259 -0.1880 -0.3754  0.1159
  876MPD2    C312902   0.210   1.114  16.261 -0.0303 -0.0641  0.6078
  876MPD2    C412903   0.162   1.047  16.148  0.1195  0.5272  0.6902
  876MPD2    C512904   0.148   1.120  16.034  0.1490 -0.0257  0.0227
  876MPD2     H12905   0.270   1.289  16.355  1.4298 -0.1025 -0.3606
  876MPD2    H112906   0.130   0.944  16.155  3.0306 -0.4003  0.5394
  876MPD2    H212907   0.176   1.319  15.951 -0.8555 -1.5948 -0.3613
  876MPD2    H312908   0.116   1.065  15.946 -1.0118  0.9084 -0.1287
  876MPD2     N12909   0.222   1.050  16.389 -0.4557 -0.5397  0.0737
  876MPD2    H512910   0.262   1.115  16.456 -1.7269 -0.1393  0.4311
  876MPD2    N112911   0.265   1.452  16.137 -0.2429  0.1014  0.0090
  876MPD2    H712912   0.237   1.494  16.050  0.9849 -0.3527 -0.6085
  877MPD2     C12913   0.184   2.048  15.680  0.5030  0.5783  0.1674
  877MPD2    C112914   0.315   2.025  15.720  0.6496  0.1449 -0.1346
  877MPD2    C212915   0.420   2.057  15.633 -0.2964 -0.0280  0.8576
  877MPD2    C312916   0.391   2.116  15.510 -0.1871  0.0010  0.2673
  877MPD2    C412917   0.261   2.136  15.471 -0.6985  0.3026  0.5921
  877MPD2    C512918   0.161   2.108  15.557 -0.7251 -0.6731  0.2427
  877MPD2     H12919   0.524   2.046  15.662 -0.8924  0.4286  3.1215
  877MPD2    H112920   0.237   2.185  15.378  1.6164 -0.1164 -0.2262
  877MPD2    H212921   0.098   2.016  15.737 -1.7162  1.3616 -2.7274
  877MPD2    H312922   0.061   2.136  15.527 -1.3578  0.0161  3.0299
  877MPD2     N12923   0.497   2.160  15.418 -0.5891 -0.2140  0.0489
  877MPD2    H512924   0.463   2.203  15.333 -0.7635  2.7665  1.6257
  877MPD2    N112925   0.361   1.967  15.838 -0.3803  0.0456  0.3406
  877MPD2    H712926   0.459   1.966  15.863 -0.1373 -3.1614 -0.6908
  878MPD2     C12927   0.988   1.148  13.047  0.3943 -0.0816  0.0686
  878MPD2    C112928   0.966   1.269  13.101 -0.1561 -0.9804  0.5036
  878MPD2    C212929   0.992   1.293  13.233  0.0584  0.2925  0.1422
  878MPD2    C312930   1.044   1.184  13.306 -0.1637 -0.0787 -0.5109
  878MPD2    C412931   1.054   1.060  13.252 -0.4885 -0.1291  0.1021
  878MPD2    C512932   1.036   1.040  13.124 -0.0989 -0.2427 -0.2285
  878MPD2     H12933   0.965   1.384  13.286 -1.1963  0.9307 -1.5968
  878MPD2    H112934   1.108   0.978  13.297  0.8430 -0.4083 -1.9849
  878MPD2    H212935   0.970   1.126  12.943 -1.8878 -0.5545  0.5735
  878MPD2    H312936   1.056   0.942  13.080  1.6637 -0.2937  0.6515
  878MPD2     N12937   1.080   1.211  13.437 -0.0651 -0.3422  0.2024
  878MPD2    H512938   1.074   1.312  13.450 -0.9871 -0.4522  0.6346
  878MPD2    N112939   0.894   1.363  13.021 -0.0746  0.7907 -0.3274
  878MPD2    H712940   0.852   1.332  12.934 -1.1195  0.5673  0.2495
  879MPD2     C12941   0.440   3.389  17.062 -0.5535  0.5087 -0.0471
  879MPD2    C112942   0.548   3.309  17.102 -0.0144 -1.2794 -0.0227
  879MPD2    C212943   0.574   3.187  17.046  0.5494 -1.2582  0.1045
  879MPD2    C312944   0.492   3.141  16.945  1.0259 -0.1821  0.0857
  879MPD2    C412945   0.384   3.221  16.901 -0.4138  0.8188  0.2649
  879MPD2    C512946   0.356   3.340  16.961 -0.2804 -0.3991 -0.0093
  879MPD2     H12947   0.668   3.137  17.067  2.0048  2.4586  2.3282
  879MPD2    H112948   0.317   3.188  16.822  1.2367  0.1257 -0.8424
  879MPD2    H212949   0.419   3.483  17.111  1.3146  1.4806 -1.1200
  879MPD2    H312950   0.274   3.404  16.928  0.4505  0.4873 -0.1246
  879MPD2     N12951   0.519   3.019  16.864 -0.1448  0.4903  0.6918
  879MPD2    H512952   0.456   2.996  16.788  0.7950  0.3518 -0.0467
  879MPD2    N112953   0.632   3.365  17.201  0.0315  0.2868 -0.2039
  879MPD2    H712954   0.616   3.463  17.219  0.9370  0.5421 -0.7677
  880MPD2     C12955   1.578   0.233  17.596  0.1539 -1.4557 -0.1776
  880MPD2    C112956   1.552   0.265  17.732 -0.2056  0.4520  0.0952
  880MPD2    C212957   1.621   0.193   0.081  0.4636  0.1445 -0.5595
  880MPD2    C312958   1.705   0.081   0.054 -0.6453 -0.6625  0.1671
  880MPD2    C412959   1.720   0.044  17.670 -0.3762 -0.4198 -0.4957
  880MPD2    C512960   1.655   0.121  17.566 -0.6786 -0.3519 -0.4293
  880MPD2     H12961   1.624   0.221   0.186 -0.9104  1.2342 -0.8158
  880MPD2    H112962   1.775   4.690  17.649  1.0946 -0.0419  1.6574
  880MPD2    H212963   1.529   0.294  17.522  1.3592 -0.0346  0.1858
  880MPD2    H312964   1.664   0.095  17.461 -0.7652  0.4281 -0.6324
  880MPD2     N12965   1.774   0.021   0.164  0.6749 -0.0153  0.0505
  880MPD2    H512966   1.774   0.073   0.251  1.1131 -4.3565  2.6099
  880MPD2    N112967   1.475   0.383   0.011  0.3224  0.4302  0.4832
  880MPD2    H712968   1.438   0.428  17.673 -1.1602  1.1723  1.5332
  881MPD2     C12969   2.028   1.081   0.118 -0.4967 -0.5072  0.7040
  881MPD2    C112970   1.995   0.978   0.026 -0.3964 -0.5215 -0.3791
  881MPD2    C212971   1.864   0.942   0.024  0.6987 -0.1542 -0.4262
  881MPD2    C312972   1.767   0.976   0.124  1.0080 -0.3654 -0.2802
  881MPD2    C412973   1.818   1.060   0.226  0.3373 -0.3397  0.7184
  881MPD2    C512974   1.944   1.112   0.223 -0.2659  0.8358  0.8178
  881MPD2     H12975   1.836   0.874  17.690  1.0333 -1.5796  0.6506
  881MPD2    H112976   1.760   1.076   0.316  0.2551  3.9044 -0.0756
  881MPD2    H212977   2.135   1.102   0.122 -0.6261 -0.2659  2.6967
  881MPD2    H312978   1.981   1.170   0.307  0.0641  2.8126 -0.7053
  881MPD2     N12979   1.637   0.920   0.135 -0.1127 -0.0703 -0.0899
  881MPD2    H512980   1.590   0.941   0.222 -0.8943  2.4234 -1.1308
  881MPD2    N112981   2.082   0.956  17.659 -0.7479  0.5499  0.7283
  881MPD2    H712982   2.163   1.015  17.645 -0.4936  0.5733  2.3450
  882MPD2     C12983   0.825   2.776  14.911 -0.5363  1.0749 -1.4282
  882MPD2    C112984   0.735   2.673  14.946  0.1891 -0.5992 -0.6034
  882MPD2    C212985   0.615   2.668  14.877 -0.2243 -0.6387 -0.7996
  882MPD2    C312986   0.573   2.767  14.793  0.1371  0.4156 -0.1586
  882MPD2    C412987   0.656   2.869  14.772  0.2005 -0.8895  0.3019
  882MPD2    C512988   0.784   2.868  14.818 -0.1284 -0.3304 -0.1456
  882MPD2     H12989   0.554   2.579  14.879  1.5007 -1.8037 -0.1309
  882MPD2    H112990   0.616   2.949  14.710  1.8276  0.9293  1.6058
  882MPD2    H212991   0.927   2.777  14.950 -1.3402  2.4644  0.5827
  882MPD2    H312992   0.852   2.944  14.781 -2.8505  1.0094 -2.3282
  882MPD2     N12993   0.451   2.762  14.724 -0.2538  0.1149 -0.2852
  882MPD2    H512994   0.434   2.847  14.671  1.4307  1.0382  0.6418
  882MPD2    N112995   0.772   2.575  15.043  0.2679  0.1851 -0.5502
  882MPD2    H712996   0.873   2.562  15.051  0.2461 -0.5577 -1.4569
  883MPD2     C12997   2.088   2.335  16.374 -0.1701  0.4702  0.5932
  883MPD2    C112998   2.187   2.365  16.295 -0.9699  0.1358 -0.4289
  883MPD2    C212999   2.316   2.369  16.354  0.6920  0.3189 -0.1429
  883MPD2    C313000   2.336   2.350  16.491 -0.0125 -0.4263 -0.4900
  883MPD2    C413001   2.231   2.297  16.564  0.5942  1.5257  0.0761
  883MPD2    C513002   2.103   2.297  16.506  0.6914 -0.1395  0.4676
  883MPD2     H13003   2.398   2.398  16.289  1.4965 -0.5222  0.5027
  883MPD2    H113004   2.239   2.276  16.670  0.2451 -0.9466 -0.3879
  883MPD2    H213005   1.986   2.335  16.339  0.7902 -1.0523 -2.2600
  883MPD2    H313006   2.013   2.279  16.563  0.2498  0.4325 -0.0521
  883MPD2     N13007   2.463   2.385  16.546 -0.2519  0.3942 -0.1708
  883MPD2    H513008   2.520   2.446  16.487 -0.8240  1.4341  0.3583
  883MPD2    N113009   2.175   2.413  16.167 -0.1337  0.4717 -0.0148
  883MPD2    H713010   2.255   2.461  16.126  0.5458 -0.3875  0.3098
  884MPD2     C13011   4.401   2.980  15.318 -0.1469 -0.4026  0.5876
  884MPD2    C113012   4.372   3.100  15.266 -0.3685  0.4538 -0.1122
  884MPD2    C213013   4.287   3.182  15.332  0.1964  0.6185  0.3081
  884MPD2    C313014   4.228   3.143  15.452 -0.0649  0.9394  0.8917
  884MPD2    C413015   4.252   3.018  15.495  0.9193 -0.3824 -0.7234
  884MPD2    C513016   4.335   2.933  15.429 -0.7179  0.0932  0.2294
  884MPD2     H13017   4.254   3.276  15.289 -0.9242 -0.2477 -0.7471
  884MPD2    H113018   4.197   2.974  15.578 -0.9908 -0.2140 -1.9111
  884MPD2    H213019   4.456   2.909  15.257 -2.2917 -1.2060 -0.4197
  884MPD2    H313020   4.353   2.832  15.465  1.1389  0.2188 -0.3628
  884MPD2     N13021   4.125   3.224  15.508 -0.2893  0.5168 -0.1528
  884MPD2    H513022   4.088   3.310  15.468  0.0704  0.5221 -0.4780
  884MPD2    N113023   4.432   3.137  15.143 -0.2786  0.2251  0.3378
  884MPD2    H713024   4.473   3.060  15.091  0.6449  0.0973  1.2582
  885MPD2     C13025   2.786   3.188   0.396  0.3353  0.3778 -0.3130
  885MPD2    C113026   2.867   3.301   0.406  0.3017  0.3864 -0.1166
  885MPD2    C213027   2.891   3.372   0.290  0.3367 -0.6066 -0.0261
  885MPD2    C313028   2.816   3.345   0.174  0.6165 -0.4911  0.0411
  885MPD2    C413029   2.720   3.246   0.182 -0.2628 -0.7397  0.1918
  885MPD2    C513030   2.704   3.168   0.292 -0.3890 -0.3354  0.0683
  885MPD2     H13031   2.968   3.449   0.290  1.8326 -2.0822 -0.9912
  885MPD2    H113032   2.639   3.243   0.110  0.9566 -1.1795 -1.1662
  885MPD2    H213033   2.785   3.124   0.483  0.1095 -0.2139 -0.7469
  885MPD2    H313034   2.630   3.089   0.294  0.9655 -1.6315 -1.2609
  885MPD2     N13035   2.847   3.419   0.051 -0.7262 -0.0520 -0.6747
  885MPD2    H513036   2.920   3.487   0.036  1.2994 -2.2485 -0.8348
  885MPD2    N113037   2.943   3.311   0.524  0.5313 -0.1074  0.2410
  885MPD2    H713038   2.942   3.240   0.596 -0.5372 -0.6886 -0.3591
  886MPD2     C13039   4.060   1.747  15.965  0.4929  0.7236  0.5026
  886MPD2    C113040   4.157   1.687  15.893  0.0358 -0.8589 -0.3668
  886MPD2    C213041   4.179   1.723  15.764  0.0504 -0.4759  0.0086
  886MPD2    C313042   4.098   1.813  15.699  0.3080  0.0029 -0.0501
  886MPD2    C413043   4.010   1.881  15.779  0.1626  0.7289 -0.5961
  886MPD2    C513044   3.997   1.856  15.914 -0.6949  0.2894  0.1514
  886MPD2     H13045   4.263   1.673  15.717 -0.2259  0.6787 -1.6969
  886MPD2    H113046   3.955   1.961  15.731  0.4948  0.5394 -1.2851
  886MPD2    H213047   4.042   1.707  16.064 -1.5436 -0.5329 -0.3772
  886MPD2    H313048   3.933   1.910  15.984  0.5139  0.1202  1.3937
  886MPD2     N13049   4.128   1.850  15.567  0.0390  0.5560 -0.2365
  886MPD2    H513050   4.193   1.795  15.513  0.0131  3.6173 -3.3425
  886MPD2    N113051   4.250   1.598  15.952 -0.4831 -0.5403 -0.6677
  886MPD2    H713052   4.315   1.557  15.887  1.1511  0.7672  0.1540
  887MPD2     C13053   0.132   1.827  16.413 -0.2331  0.8757  0.5507
  887MPD2    C113054   0.042   1.825  16.306  0.6333  0.1906  0.1854
  887MPD2    C213055   0.048   1.932  16.214  0.8088  0.4228 -0.3543
  887MPD2    C313056   0.134   2.036  16.236  0.0610 -0.2081 -0.3672
  887MPD2    C413057   0.225   2.027  16.340 -0.2824 -0.0567 -0.6772
  887MPD2    C513058   0.219   1.925  16.430  0.0055 -0.5594 -0.3815
  887MPD2     H13059   4.710   1.944  16.136  0.8990  2.5418 -0.1102
  887MPD2    H113060   0.300   2.103  16.355 -0.3576  0.0434 -0.8073
  887MPD2    H213061   0.135   1.743  16.482 -0.9138 -0.5094 -1.1163
  887MPD2    H313062   0.296   1.905  16.503  0.7337  0.8777 -0.7524
  887MPD2     N13063   0.138   2.149  16.149  0.2227 -0.2992  0.2288
  887MPD2    H513064   0.096   2.131  16.058 -0.7000 -1.0907  0.7987
  887MPD2    N113065   4.690   1.719  16.276 -0.3198 -0.1813 -0.2473
  887MPD2    H713066   4.626   1.737  16.199 -1.7014 -1.3332  0.6310
  888MPD2     C13067   1.870   1.814  14.824 -0.6677 -0.7252 -0.2604
  888MPD2    C113068   1.835   1.866  14.948 -0.2128 -0.0141  0.0247
  888MPD2    C213069   1.871   1.992  14.982 -0.5229  0.2200 -0.3536
  888MPD2    C313070   1.955   2.064  14.899  0.1153  0.6175 -0.4316
  888MPD2    C413071   2.001   2.004  14.780  0.3762 -0.9539  0.0106
  888MPD2    C513072   1.964   1.874  14.755  0.5114  0.0021  0.3879
  888MPD2     H13073   1.845   2.024  15.083  1.1098 -0.8050  0.4001
  888MPD2    H113074   2.068   2.049  14.707  0.9132 -0.2317  0.9515
  888MPD2    H213075   1.843   1.711  14.803  2.5280 -1.7206  0.4447
  888MPD2    H313076   2.007   1.821  14.670 -2.5275 -1.6941 -0.1007
  888MPD2     N13077   1.986   2.189  14.938 -0.4968 -0.4675 -0.0830
  888MPD2    H513078   1.941   2.217  15.024 -0.7546 -1.2889  0.0464
  888MPD2    N113079   1.752   1.799  15.040  0.0915 -0.1890 -0.1381
  888MPD2    H713080   1.724   1.838  15.130 -1.4207 -0.8758 -0.3084
  889MPD2     C13081   1.122   1.772  12.937 -0.7177 -1.0318  1.0879
  889MPD2    C113082   1.186   1.734  13.055 -0.0100 -0.7772 -0.8253
  889MPD2    C213083   1.232   1.843  13.128  0.1745  0.0581 -0.6689
  889MPD2    C313084   1.190   1.972  13.108 -0.1921  0.5576 -0.1906
  889MPD2    C413085   1.091   1.993  13.012  0.3520 -0.5531  0.3366
  889MPD2    C513086   1.063   1.895  12.921 -0.2855 -0.4401 -0.1916
  889MPD2     H13087   1.311   1.837  13.201 -0.6363 -0.2218  0.1811
  889MPD2    H113088   1.052   2.093  12.994  2.3592  0.0915 -0.4982
  889MPD2    H213089   1.100   1.699  12.860 -0.7414  0.5322 -0.3688
  889MPD2    H313090   0.995   1.905  12.837 -2.1837  0.6117  1.4909
  889MPD2     N13091   1.247   2.079  13.181 -0.0503  0.4514 -0.2119
  889MPD2    H513092   1.323   2.057  13.244  0.4808 -1.7403 -1.6320
  889MPD2    N113093   1.248   1.608  13.060  0.4356 -0.2298 -0.3859
  889MPD2    H713094   1.233   1.544  12.983  4.0864 -1.5933  0.0442
  890MPD2     C13095   0.549   3.298  14.783 -0.3064 -0.4234 -0.1708
  890MPD2    C113096   0.678   3.354  14.785  0.2456  0.2900 -0.2894
  890MPD2    C213097   0.772   3.293  14.874 -0.0290 -0.1321  0.4990
  890MPD2    C313098   0.734   3.192  14.961 -0.2302  0.7064 -0.3887
  890MPD2    C413099   0.606   3.156  14.961 -0.0267 -0.4466 -0.3194
  890MPD2    C513100   0.514   3.198  14.868  0.1641  0.3695  0.5360
  890MPD2     H13101   0.870   3.333  14.895  1.5435 -3.2977 -0.9420
  890MPD2    H113102   0.566   3.073  15.019 -1.4720 -0.4991 -1.3718
  890MPD2    H213103   0.472   3.319  14.710 -0.5256 -2.4508 -0.5282
  890MPD2    H313104   0.416   3.154  14.860 -0.2303  1.2267  0.5964
  890MPD2     N13105   0.826   3.124  15.037 -0.9220 -0.1384 -0.0587
  890MPD2    H513106   0.924   3.149  15.023 -0.2584 -1.9765  1.3481
  890MPD2    N113107   0.713   3.466  14.701 -0.4940 -0.4673  0.0469
  890MPD2    H713108   0.648   3.484  14.624  0.6740  0.2404 -0.7763
  891MPD2     C13109   3.211   1.722  16.757  0.4695 -0.2805 -0.2993
  891MPD2    C113110   3.146   1.707  16.875  0.9204 -0.5302 -0.1292
  891MPD2    C213111   3.203   1.628  16.975 -0.0063  0.5410 -0.1325
  891MPD2    C313112   3.329   1.576  16.966 -0.1710  0.9725  0.0323
  891MPD2    C413113   3.404   1.599  16.854 -0.2402 -0.3583 -0.1103
  891MPD2    C513114   3.337   1.667  16.747  0.1356  0.3885  0.3475
  891MPD2     H13115   3.147   1.629  17.068 -0.3124  0.9190 -0.3198
  891MPD2    H113116   3.506   1.569  16.834 -0.2767 -0.3927 -0.2487
  891MPD2    H213117   3.164   1.767  16.670  1.1860 -1.1677 -1.1394
  891MPD2    H313118   3.382   1.668  16.648 -0.2633 -0.3075  0.1635
  891MPD2     N13119   3.376   1.501  17.073  0.3187 -0.0845 -0.9764
  891MPD2    H513120   3.334   1.521  17.163 -0.9857 -2.2243 -1.1201
  891MPD2    N113121   3.034   1.790  16.895 -0.3453  0.3264 -0.5114
  891MPD2    H713122   3.016   1.854  16.818 -0.0834  2.6028  1.3141
  892MPD2     C13123   4.556   2.631  15.224 -0.1498  0.3417 -0.3541
  892MPD2    C113124   4.476   2.682  15.120 -0.2974  0.0778 -0.7054
  892MPD2    C213125   4.548   2.719  15.009  0.2167 -0.5574 -0.2846
  892MPD2    C313126   4.685   2.711  14.999 -0.3714 -0.3330  0.0981
  892MPD2    C413127   0.020   2.657  15.102 -0.1250  0.1207 -0.6955
  892MPD2    C513128   4.694   2.625  15.216  0.0456  0.0995 -0.7086
  892MPD2     H13129   4.482   2.752  14.930  0.1900 -1.6427 -0.7161
  892MPD2    H113130   0.128   2.653  15.109 -0.2771 -2.3624  0.1547
  892MPD2    H213131   4.518   2.589  15.317  0.2716  0.0251 -0.3243
  892MPD2    H313132   0.019   2.593  15.299 -2.2690 -0.2675  0.8864
  892MPD2     N13133   0.018   2.742  14.875  0.3342  0.0102  0.5493
  892MPD2    H513134   0.116   2.717  14.865  0.3537 -0.1456  1.1319
  892MPD2    N113135   4.333   2.673  15.128 -0.3016 -0.1591 -0.5964
  892MPD2    H713136   4.281   2.714  15.052 -0.5928 -2.4141 -1.6111
  893MPD2     C13137   0.290   1.972   1.134 -0.8317  0.2039  0.0620
  893MPD2    C113138   0.354   1.960   1.253  0.7873  1.1902 -0.1690
  893MPD2    C213139   0.300   2.017   1.367 -0.7680  0.6930  0.2779
  893MPD2    C313140   0.179   2.092   1.361 -0.5389 -0.7004  0.8521
  893MPD2    C413141   0.118   2.095   1.238 -0.3176  0.0227  0.4720
  893MPD2    C513142   0.168   2.029   1.130  0.6365 -0.1121  0.1151
  893MPD2     H13143   0.353   2.006   1.461 -0.9585  2.1152  0.5548
  893MPD2    H113144   0.027   2.153   1.224  0.0407 -0.2500 -2.7847
  893MPD2    H213145   0.339   1.923   1.051 -0.2374 -1.6723  1.4998
  893MPD2    H313146   0.111   2.029   1.038  1.6970  0.5377 -0.5435
  893MPD2     N13147   0.144   2.180   1.464 -0.3826  0.1808  0.5220
  893MPD2    H513148   0.082   2.256   1.438  0.5657  0.6674 -0.2899
  893MPD2    N113149   0.482   1.895   1.245 -0.1599 -0.6280  0.3921
  893MPD2    H713150   0.492   1.847   1.156  2.6698  0.7427 -0.0340
  894MPD2     C13151   4.012   3.840   1.785 -0.6094  0.7455 -0.0863
  894MPD2    C113152   3.930   3.867   1.686  0.5136  0.4803 -1.1689
  894MPD2    C213153   3.958   3.828   1.559 -0.1663 -0.2754  0.3850
  894MPD2    C313154   4.075   3.765   1.532 -0.1261  0.0081  0.0467
  894MPD2    C413155   4.159   3.728   1.633 -0.3294  0.1229 -0.2641
  894MPD2    C513156   4.119   3.768   1.765  0.2338  0.3463  0.1122
  894MPD2     H13157   3.890   3.841   1.476 -3.0147  0.5896  2.8515
  894MPD2    H113158   4.245   3.665   1.613 -0.9796 -1.1016  0.8291
  894MPD2    H213159   3.977   3.856   1.887  1.7958 -1.6789  1.1013
  894MPD2    H313160   4.185   3.746   1.848 -0.9707 -0.2472  0.8987
  894MPD2     N13161   4.095   3.732   1.397  0.0124  0.3580 -0.2003
  894MPD2    H513162   4.021   3.758   1.332  1.3628  0.2833 -1.7739
  894MPD2    N113163   3.817   3.954   1.704  0.3799 -0.3191 -0.2449
  894MPD2    H713164   3.785   3.987   1.614 -3.8720 -0.3217  1.2217
  895MPD2     C13165   4.082   1.577  13.803  0.5743  0.3033 -0.4074
  895MPD2    C113166   3.996   1.578  13.693 -0.4788 -0.0701 -0.0226
  895MPD2    C213167   4.039   1.518  13.580 -0.9153  0.6642 -0.2153
  895MPD2    C313168   4.159   1.445  13.578 -0.0215  0.5223 -0.6768
  895MPD2    C413169   4.245   1.455  13.680  0.1223  0.3271 -0.2597
  895MPD2    C513170   4.208   1.521  13.793  0.1729  0.2369 -0.1118
  895MPD2     H13171   3.972   1.519  13.495  0.1354 -1.9305 -1.0638
  895MPD2    H113172   4.342   1.406  13.681 -1.3928 -2.7274 -0.1833
  895MPD2    H213173   4.065   1.629  13.897 -1.9889  1.0181 -1.2865
  895MPD2    H313174   4.273   1.516  13.879 -1.6373  0.8754  1.3051
  895MPD2     N13175   4.200   1.367  13.470 -0.0546  0.5870  0.4957
  895MPD2    H513176   4.282   1.308  13.480 -0.2846 -0.1189 -1.8229
  895MPD2    N113177   3.872   1.638  13.691 -0.1986  0.3507  0.3024
  895MPD2    H713178   3.810   1.608  13.617  0.6213 -1.3915  0.3088
  896MPD2     C13179   0.915   0.516   0.737  0.2798 -0.1000 -0.4596
  896MPD2    C113180   0.942   0.411   0.657  0.2166 -0.4182  0.1119
  896MPD2    C213181   0.844   0.321   0.637  0.2746 -0.4409  0.0194
  896MPD2    C313182   0.717   0.332   0.697 -0.3367 -0.2033 -0.8202
  896MPD2    C413183   0.694   0.449   0.779  0.0843 -0.0489 -0.7452
  896MPD2    C513184   0.800   0.537   0.794  0.2070  0.2313 -0.2352
  896MPD2     H13185   0.853   0.229   0.581  1.3732 -0.2454 -0.1220
  896MPD2    H113186   0.599   0.449   0.831  0.1769  2.2620 -0.5856
  896MPD2    H213187   0.989   0.592   0.757  0.2507  0.4558 -2.4246
  896MPD2    H313188   0.792   0.619   0.865  1.8614  1.2505 -1.2213
  896MPD2     N13189   0.618   0.228   0.675  0.0073  0.4606 -0.1193
  896MPD2    H513190   0.646   0.145   0.624  1.2695 -0.5890  2.3245
  896MPD2    N113191   1.080   0.395   0.611 -0.2879  0.5849 -0.0083
  896MPD2    H713192   1.143   0.466   0.648 -1.2443  1.4531 -0.0175
  897MPD2     C13193   2.683   1.433  10.689  0.8247 -0.2867  0.6913
  897MPD2    C113194   2.697   1.565  10.736  0.4712  0.2222 -0.3193
  897MPD2    C213195   2.622   1.609  10.844 -0.8672  1.2266  0.0672
  897MPD2    C313196   2.537   1.521  10.912 -0.4265 -0.0520  0.4040
  897MPD2    C413197   2.537   1.387  10.874 -0.7995  0.1532  0.1322
  897MPD2    C513198   2.610   1.348  10.759 -0.2364 -0.3846  0.2929
  897MPD2     H13199   2.636   1.711  10.878 -0.7470  1.3448 -0.3366
  897MPD2    H113200   2.474   1.313  10.922 -1.9356 -0.0676 -1.7217
  897MPD2    H213201   2.727   1.407  10.594  2.8572  1.1422  1.2477
  897MPD2    H313202   2.593   1.251  10.713 -1.1631  0.3977 -0.9987
  897MPD2     N13203   2.459   1.578  11.010 -0.6607  0.2802  0.7703
  897MPD2    H513204   2.466   1.679  11.008 -1.6244  0.3265  0.0073
  897MPD2    N113205   2.784   1.659  10.658 -0.3031  0.3694 -0.2225
  897MPD2    H713206   2.820   1.618  10.573  2.8174 -2.5075  2.4940
  898MPD2     C13207   3.735   2.212   0.442 -0.0114 -0.2034 -1.2478
  898MPD2    C113208   3.850   2.289   0.421 -0.2628 -0.5511  0.4009
  898MPD2    C213209   3.845   2.384   0.321  0.0833 -0.9882  0.0853
  898MPD2    C313210   3.738   2.401   0.238  0.6025 -0.0547  0.0963
  898MPD2    C413211   3.624   2.329   0.262 -0.1163 -0.3116  0.1098
  898MPD2    C513212   3.629   2.233   0.358  0.6661  0.3728 -0.3888
  898MPD2     H13213   3.940   2.432   0.298 -1.3128  0.6083 -2.3267
  898MPD2    H113214   3.530   2.342   0.209  1.0966  2.0580 -1.4713
  898MPD2    H213215   3.731   2.128   0.510 -1.1731  0.6204 -0.3138
  898MPD2    H313216   3.540   2.172   0.371  1.6530 -0.4384  2.6185
  898MPD2     N13217   3.747   2.505   0.137 -0.2453  0.1864  0.4227
  898MPD2    H513218   3.833   2.559   0.142  0.1408 -0.5994  2.2028
  898MPD2    N113219   3.965   2.284   0.497 -0.0630 -0.1368 -0.4409
  898MPD2    H713220   4.046   2.333   0.460 -1.8256  1.8326 -1.6467
  899MPD2     C13221   0.409   2.560  17.470  0.0342  0.7439  0.3881
  899MPD2    C113222   0.450   2.661  17.545  0.0318  0.5933 -0.3087
  899MPD2    C213223   0.492   2.648  17.673 -0.6451  0.0572 -0.1526
  899MPD2    C313224   0.482   2.523  17.729 -0.6213 -0.3739 -0.0999
  899MPD2    C413225   0.445   2.412  17.656  0.3402  0.4891 -0.4477
  899MPD2    C513226   0.409   2.435  17.524  0.3028  0.2619  0.1221
  899MPD2     H13227   0.519   2.733  17.735  1.5921 -0.0007 -1.0486
  899MPD2    H113228   0.432   2.310  17.691  0.1273  0.3371 -0.9669
  899MPD2    H213229   0.379   2.573  17.367 -0.6490  0.0756  0.5022
  899MPD2    H313230   0.384   2.353  17.457 -2.7318  1.9200 -0.7729
  899MPD2     N13231   0.503   2.504   0.124  0.5682 -0.3451 -0.7429
  899MPD2    H513232   0.463   2.416   0.156  2.1005 -1.0622 -0.8122
  899MPD2    N113233   0.447   2.795  17.483 -0.1313  0.1189  0.3084
  899MPD2    H713234   0.406   2.802  17.390 -1.6753 -0.1448  0.9717
  900MPD2     C13235   0.184   4.065  12.693  0.0925  0.0442 -0.3204
  900MPD2    C113236   0.101   4.052  12.797 -0.6747 -0.1100  0.2252
  900MPD2    C213237   4.730   4.130  12.807 -0.3839  0.5705  0.0140
  900MPD2    C313238   4.691   4.213  12.705 -0.4939  0.2002 -0.2020
  900MPD2    C413239   0.044   4.237  12.603 -0.3376  0.2058 -0.3681
  900MPD2    C513240   0.155   4.158  12.597  0.1609 -0.5887 -0.4763
  900MPD2     H13241   4.657   4.119  12.886 -1.6831 -0.3923 -1.3158
  900MPD2    H113242   0.032   4.315  12.529  2.3888  1.3468  0.3994
  900MPD2    H213243   0.266   3.998  12.669 -0.1803 -0.2331 -0.4836
  900MPD2    H313244   0.221   4.168  12.511  1.0233 -0.6634  0.1807
  900MPD2     N13245   4.564   4.276  12.703  0.1266  0.2019  0.6616
  900MPD2    H513246   4.495   4.249  12.771  0.5973 -2.9667 -0.1318
  900MPD2    N113247   0.123   3.931  12.876 -0.2582  0.2043  0.0494
  900MPD2    H713248   0.201   3.869  12.860 -0.1361 -0.0519  1.6964
  901MPD2     C13249   4.722   3.005  13.448 -0.3568 -0.5698  0.0551
  901MPD2    C113250   0.043   2.982  13.330  0.3861 -0.5124  0.0104
  901MPD2    C213251   0.071   3.094  13.251  0.4875  0.1392 -0.3057
  901MPD2    C313252   0.028   3.219  13.295  0.1895  0.2688  1.1774
  901MPD2    C413253   4.695   3.237  13.410 -0.1188 -0.2623 -0.2041
  901MPD2    C513254   4.676   3.123  13.490 -0.3683  0.4838 -0.6335
  901MPD2     H13255   0.118   3.086  13.154  0.0764  0.4663 -0.5355
  901MPD2    H113256   4.657   3.334  13.440 -0.0079 -0.6190  1.0798
  901MPD2    H213257   4.721   2.922  13.518 -0.7117 -0.1580  0.5442
  901MPD2    H313258   4.634   3.134  13.589  1.1773 -1.5871  0.2614
  901MPD2     N13259   0.075   3.337  13.219  0.0847  0.2874 -0.0035
  901MPD2    H513260   0.149   3.312  13.154  0.2742  0.0598  0.3019
  901MPD2    N113261   0.072   2.849  13.294  0.2167  0.5114  0.2025
  901MPD2    H713262   0.059   2.780  13.368  0.2953  0.8915  0.5753
  902MPD2     C13263   3.772   2.158  13.579 -0.3669  0.0583 -0.4823
  902MPD2    C113264   3.720   2.200  13.466  1.1307 -1.1142  0.1383
  902MPD2    C213265   3.722   2.121  13.359  0.2775 -0.0241  0.4241
  902MPD2    C313266   3.795   2.004  13.369 -0.6691  0.3950  0.4611
  902MPD2    C413267   3.840   1.947  13.492 -0.2022  0.0455 -0.1017
  902MPD2    C513268   3.829   2.035  13.596  0.7489 -0.1662  0.2411
  902MPD2     H13269   3.685   2.143  13.259  0.0470 -1.3912  0.1965
  902MPD2    H113270   3.889   1.851  13.498 -1.6404 -0.7939 -1.6565
  902MPD2    H213271   3.756   2.217  13.668 -2.1229  0.8104 -1.3040
  902MPD2    H313272   3.870   2.017  13.695  1.2997 -0.9396 -0.1330
  902MPD2     N13273   3.808   1.926  13.251 -0.2747  0.2053  0.0611
  902MPD2    H513274   3.771   1.967  13.165  2.1342 -0.3868 -1.2529
  902MPD2    N113275   3.670   2.326  13.482  0.5128 -0.3344 -0.1484
  902MPD2    H713276   3.696   2.395  13.552  0.3397 -0.8603  0.4336
  903MPD2     C13277   4.152   1.877  12.449  0.6698  0.0731  0.3403
  903MPD2    C113278   4.052   1.928  12.531 -0.3947  0.5292 -0.1358
  903MPD2    C213279   3.964   2.026  12.490 -0.7419 -0.1652 -0.0675
  903MPD2    C313280   3.964   2.061  12.351 -0.2919  0.0974 -0.0093
  903MPD2    C413281   4.051   1.994  12.266  0.2524  0.8605 -0.2565
  903MPD2    C513282   4.152   1.917  12.317 -0.5397 -0.2069 -0.6865
  903MPD2     H13283   3.876   2.056  12.547 -0.8479 -2.2386  0.8827
  903MPD2    H113284   4.045   2.010  12.159  1.1716 -0.8449 -0.5530
  903MPD2    H213285   4.227   1.807  12.483  0.9052 -0.7038 -1.7925
  903MPD2    H313286   4.209   1.866  12.241  0.8936 -3.2623  2.4539
  903MPD2     N13287   3.868   2.162  12.309 -0.6059 -0.3510  0.0093
  903MPD2    H513288   3.802   2.186  12.382 -1.1776  1.8739 -1.2321
  903MPD2    N113289   4.057   1.872  12.663 -0.3671  0.1532 -0.2304
  903MPD2    H713290   4.120   1.794  12.678 -0.3738  0.5164  1.5953
  904MPD2     C13291   3.934   0.951  14.188 -0.4947 -0.8117 -0.5871
  904MPD2    C113292   3.920   1.088  14.198  0.3826 -0.6385 -0.6355
  904MPD2    C213293   4.004   1.154  14.282 -0.4901 -0.4477 -0.7162
  904MPD2    C313294   4.115   1.081  14.329 -0.4149 -0.5514 -0.7444
  904MPD2    C413295   4.136   0.945  14.307 -0.1583 -0.5667 -0.2538
  904MPD2    C513296   4.040   0.877  14.237 -0.2492 -0.2991 -0.6909
  904MPD2     H13297   3.993   1.260  14.297  0.8915 -0.4942  0.6222
  904MPD2    H113298   4.223   0.893  14.345  0.9968  1.7972  0.3126
  904MPD2    H213299   3.860   0.897  14.130 -0.1156  0.0170 -1.8547
  904MPD2    H313300   4.049   0.773  14.209  0.6881 -0.1864 -0.8089
  904MPD2     N13301   4.207   1.163  14.393 -0.3244  0.3073  0.3872
  904MPD2    H513302   4.170   1.257  14.409  1.3671  1.2126 -1.0260
  904MPD2    N113303   3.821   1.151  14.116 -0.4927  0.7692 -0.1058
  904MPD2    H713304   3.764   1.099  14.051  0.9585 -2.0612  0.8945
  905MPD2     C13305   3.500   1.414  13.342 -0.4233  0.0767  0.3793
  905MPD2    C113306   3.591   1.351  13.421 -0.2579 -0.2316 -0.7005
  905MPD2    C213307   3.702   1.292  13.357 -0.2964 -0.1305 -0.1356
  905MPD2    C313308   3.715   1.295  13.220  0.8741  0.8595  0.2712
  905MPD2    C413309   3.636   1.379  13.145  0.4977  0.4898  0.8757
  905MPD2    C513310   3.525   1.426  13.205  0.3050  0.6041  0.0828
  905MPD2     H13311   3.782   1.241  13.411  1.1183  0.0286 -2.0705
  905MPD2    H113312   3.644   1.388  13.037 -0.1319  1.7330  0.9328
  905MPD2    H213313   3.408   1.460  13.375  0.7074  3.3207 -0.9392
  905MPD2    H313314   3.454   1.473  13.138  0.1144  0.3089  0.0795
  905MPD2     N13315   3.804   1.217  13.151 -0.3813 -0.4674  0.2999
  905MPD2    H513316   3.833   1.258  13.062 -1.6707 -0.0496  0.0701
  905MPD2    N113317   3.567   1.358  13.561  0.1502 -0.4126  0.2781
  905MPD2    H713318   3.483   1.407  13.590  1.2808  1.2715  0.6981
  906MPD2     C13319   1.003   1.839  11.255 -0.0605 -0.2867 -0.0814
  906MPD2    C113320   1.023   1.717  11.198 -0.0361  0.0752  0.2978
  906MPD2    C213321   1.013   1.603  11.269  1.0113  0.6343  0.9348
  906MPD2    C313322   0.952   1.602  11.393 -0.5196 -0.2655 -1.0228
  906MPD2    C413323   0.909   1.727  11.449 -0.4108  0.1547  0.7009
  906MPD2    C513324   0.938   1.846  11.379 -0.1451  0.0174 -0.3124
  906MPD2     H13325   1.049   1.510  11.226 -0.7239  0.4352 -0.1071
  906MPD2    H113326   0.861   1.732  11.546 -0.4637  0.4707  0.6589
  906MPD2    H213327   1.033   1.931  11.206 -1.8787  1.8720  2.8313
  906MPD2    H313328   0.927   1.940  11.431  0.2046 -0.6416  0.9573
  906MPD2     N13329   0.930   1.489  11.456  0.0787  0.4510  0.6991
  906MPD2    H513330   0.871   1.501  11.538 -1.0952  0.1253 -0.0984
  906MPD2    N113331   1.072   1.704  11.063 -0.0076  0.6247 -0.6344
  906MPD2    H713332   1.107   1.612  11.038 -2.0060 -0.9900  2.5050
  907MPD2     C13333   4.651   0.668  15.649  0.4152 -0.4353  0.1203
  907MPD2    C113334   4.676   0.530  15.639  1.3645 -0.0380 -0.0695
  907MPD2    C213335   0.043   0.481  15.715 -0.3644 -0.4912  0.6849
  907MPD2    C313336   0.117   0.561  15.795 -0.7322  0.0883 -0.2104
  907MPD2    C413337   0.093   0.697  15.799  0.2998  0.0739 -0.0193
  907MPD2    C513338   4.732   0.751  15.721 -0.2145  0.5216 -0.6393
  907MPD2     H13339   0.059   0.374  15.726 -0.4469 -0.4907  0.8177
  907MPD2    H113340   0.144   0.772  15.858 -0.1051  0.9726 -0.8239
  907MPD2    H213341   4.559   0.713  15.615  0.0466 -0.3042  1.3064
  907MPD2    H313342   4.717   0.855  15.743 -0.7080  0.4487 -0.6414
  907MPD2     N13343   0.216   0.495  15.876  0.0182  0.2381  0.6172
  907MPD2    H513344   0.229   0.395  15.864  1.4284  0.2696  1.9529
  907MPD2    N113345   4.587   0.449  15.561  0.1794 -0.1730 -0.2574
  907MPD2    H713346   4.594   0.350  15.583  4.4999  0.1900 -0.0577
  908MPD2     C13347   2.795   1.682   9.842 -0.0630  0.1607 -0.2928
  908MPD2    C113348   2.691   1.712   9.927  0.5150  0.2431  0.0099
  908MPD2    C213349   2.727   1.765  10.053 -0.2101  0.8930 -0.1535
  908MPD2    C313350   2.859   1.795  10.082  0.2562 -0.0596  1.2459
  908MPD2    C413351   2.955   1.781   9.987 -0.1042  0.1418 -0.1040
  908MPD2    C513352   2.926   1.720   9.866  0.4339  0.5673  0.3810
  908MPD2     H13353   2.653   1.785  10.129  2.3781 -0.1340  2.6123
  908MPD2    H113354   3.058   1.813   9.995  0.7505 -2.1475 -1.5995
  908MPD2    H213355   2.777   1.627   9.749 -0.3037  0.5963 -0.5030
  908MPD2    H313356   2.997   1.689   9.790  0.1546 -0.7377  0.6543
  908MPD2     N13357   2.887   1.833  10.216  0.2159  0.3305  0.5123
  908MPD2    H513358   2.821   1.804  10.287 -0.1402 -1.7000 -0.6247
  908MPD2    N113359   2.561   1.679   9.886 -0.4251  0.0767 -0.4314
  908MPD2    H713360   2.550   1.633   9.796 -0.5268 -0.5167 -0.1147
  909MPD2     C13361   2.898   3.803  11.903  0.3409 -0.2953  0.7860
  909MPD2    C113362   2.876   3.907  11.815  0.1857 -0.3028 -0.2986
  909MPD2    C213363   2.753   3.976  11.822  0.0561  0.7338  0.7264
  909MPD2    C313364   2.648   3.932  11.893 -0.1803 -0.4690 -0.4888
  909MPD2    C413365   2.666   3.826  11.974 -0.4068 -0.4739 -0.5189
  909MPD2    C513366   2.788   3.770  11.981  0.7901  0.3459 -0.2201
  909MPD2     H13367   2.730   4.068  11.769 -1.7408  1.2671  2.4435
  909MPD2    H113368   2.584   3.782  12.028  0.7528 -0.2210  1.4502
  909MPD2    H213369   2.995   3.756  11.908  0.9042  0.8661  0.7289
  909MPD2    H313370   2.795   3.680  12.041  0.6796 -0.0887 -0.8599
  909MPD2     N13371   2.528   4.012  11.886 -0.0437  0.0543 -0.2229
  909MPD2    H513372   2.528   4.094  11.826  1.7499 -0.5826 -1.0980
  909MPD2    N113373   2.982   3.969  11.737 -0.4273  0.1110  0.2909
  909MPD2    H713374   2.950   4.040  11.672  0.3660  0.8339  0.6887
  910MPD2     C13375   3.499   1.233  16.005  0.1681  0.4637  0.6187
  910MPD2    C113376   3.598   1.205  15.914 -0.6403 -0.8900 -0.6527
  910MPD2    C213377   3.584   1.253  15.783 -0.3620 -0.0389  0.0448
  910MPD2    C313378   3.474   1.333  15.749 -0.1593  1.0582 -0.1377
  910MPD2    C413379   3.372   1.350  15.841  0.3361  0.0623  0.5920
  910MPD2    C513380   3.384   1.300  15.967 -0.2042  0.4869 -0.1416
  910MPD2     H13381   3.668   1.232  15.718 -1.7268  0.8846 -2.0088
  910MPD2    H113382   3.284   1.407  15.814  0.8738  0.4795 -0.2573
  910MPD2    H213383   3.504   1.197  16.107  0.4500 -0.1717  0.3827
  910MPD2    H313384   3.306   1.320  16.039 -0.0070  2.4357 -0.4721
  910MPD2     N13385   3.441   1.375  15.617  0.1745  0.1100  0.2517
  910MPD2    H513386   3.373   1.450  15.610  0.4104 -0.0133 -3.1923
  910MPD2    N113387   3.713   1.129  15.940 -0.3729  0.0292  0.2344
  910MPD2    H713388   3.780   1.121  15.864 -0.3970  0.6513  0.1422
  911MPD2     C13389   1.481   1.515  16.466 -0.2162 -0.1319  0.3422
  911MPD2    C113390   1.561   1.550  16.358 -0.3416 -0.2967 -0.5008
  911MPD2    C213391   1.506   1.567  16.234  0.2064  0.3556 -0.1326
  911MPD2    C313392   1.366   1.543  16.214 -0.5313 -0.3148  0.4194
  911MPD2    C413393   1.285   1.508  16.323  0.1127 -0.7275 -0.0087
  911MPD2    C513394   1.346   1.497  16.450  0.2429  0.1969 -0.6619
  911MPD2     H13395   1.567   1.587  16.147 -0.3409 -0.0377 -0.6007
  911MPD2    H113396   1.178   1.488  16.317 -0.2813  1.7076 -1.2633
  911MPD2    H213397   1.519   1.492  16.565 -1.2934 -0.4736  0.6797
  911MPD2    H313398   1.277   1.463  16.526  1.3872  0.2001  0.3770
  911MPD2     N13399   1.291   1.564  16.097  0.0210  0.0373 -0.8187
  911MPD2    H513400   1.196   1.529  16.092  0.1334 -0.4751  0.6399
  911MPD2    N113401   1.699   1.562  16.391 -0.1963  0.3281  0.2142
  911MPD2    H713402   1.723   1.550  16.488  1.5438 -0.2101 -0.2993
  912MPD2     C13403   1.243   1.058  15.433 -0.5942 -0.1797 -0.0830
  912MPD2    C113404   1.282   1.126  15.549  0.8138  1.1851  0.4748
  912MPD2    C213405   1.333   1.053  15.659  0.8706 -0.3555  0.3539
  912MPD2    C313406   1.346   0.916  15.650  0.0492  0.3468  0.1280
  912MPD2    C413407   1.313   0.848  15.536  0.5652  0.0912  0.0745
  912MPD2    C513408   1.257   0.917  15.430 -0.4531  0.8519 -0.2435
  912MPD2     H13409   1.360   1.103  15.752 -2.1115  0.3313  0.8564
  912MPD2    H113410   1.345   0.746  15.515  1.1537 -0.0636  1.7494
  912MPD2    H213411   1.209   1.107  15.343  1.5382  1.3324 -0.0731
  912MPD2    H313412   1.254   0.857  15.340  0.4921 -0.9886  0.9541
  912MPD2     N13413   1.401   0.853  15.765  0.3951 -0.2197 -0.0284
  912MPD2    H513414   1.450   0.912  15.831  0.3612  0.1192 -0.3057
  912MPD2    N113415   1.255   1.264  15.561  0.1152  0.6864  0.2118
  912MPD2    H713416   1.235   1.319  15.478 -0.8447 -0.7217 -0.4826
  913MPD2     C13417   2.934   3.104  10.030 -0.7307  0.4708  0.1480
  913MPD2    C113418   2.975   3.173  10.144  0.4285  0.5575  0.0253
  913MPD2    C213419   3.025   3.297  10.138 -0.3308  0.1431 -0.1291
  913MPD2    C313420   3.047   3.363  10.017  0.3045  0.4120 -0.3147
  913MPD2    C413421   3.023   3.291   9.907 -0.2737  0.4423  0.2729
  913MPD2    C513422   2.962   3.167   9.912  0.5068  0.1582  0.1660
  913MPD2     H13423   3.042   3.349  10.232  2.7759 -0.2398 -0.4858
  913MPD2    H113424   3.035   3.326   9.805 -4.4713  0.2252 -0.3101
  913MPD2    H213425   2.886   3.007  10.028 -0.6312  0.4215  0.1787
  913MPD2    H313426   2.940   3.112   9.821  0.9000 -1.7585  1.2168
  913MPD2     N13427   3.105   3.496  10.012 -0.6803 -0.8689 -0.4208
  913MPD2    H513428   3.147   3.526   9.925  1.9007 -0.9591  0.7803
  913MPD2    N113429   2.951   3.102  10.264 -0.0803 -0.0081 -0.2076
  913MPD2    H713430   2.911   3.009  10.257  0.7814 -0.5849  2.3675
  914MPD2     C13431   0.317   2.847  12.439  0.1100 -0.5650 -0.4225
  914MPD2    C113432   0.304   2.916  12.558  0.0551 -0.4708  0.7836
  914MPD2    C213433   0.273   2.845  12.673 -0.6687 -0.2202 -0.3712
  914MPD2    C313434   0.233   2.710  12.670 -0.7642 -0.3141  0.8946
  914MPD2    C413435   0.241   2.646  12.553 -0.3239 -0.1158  0.1063
  914MPD2    C513436   0.282   2.715  12.435 -0.4127  0.1121 -0.1273
  914MPD2     H13437   0.275   2.892  12.770 -0.2275 -2.3198  0.6495
  914MPD2    H113438   0.223   2.539  12.554 -0.7929 -0.0557 -1.1377
  914MPD2    H213439   0.350   2.899  12.351 -0.9271  0.7648 -0.0206
  914MPD2    H313440   0.294   2.655  12.345  1.1272  1.4215 -0.8052
  914MPD2     N13441   0.179   2.655  12.789 -0.3595 -0.3561 -0.0244
  914MPD2    H513442   0.169   2.736  12.849 -0.7756 -0.5170  0.1266
  914MPD2    N113443   0.357   3.047  12.557 -0.2630  0.0657 -0.2339
  914MPD2    H713444   0.385   3.082  12.466  0.0936 -0.5375 -0.3556
  915MPD2     C13445   3.057   3.074  16.056  0.4784 -0.3795  0.2516
  915MPD2    C113446   2.953   3.146  16.015  0.5763 -0.8899  0.1429
  915MPD2    C213447   2.874   3.199  16.115 -0.3328  0.2113  0.4635
  915MPD2    C313448   2.899   3.191  16.252  0.5832 -0.4922  0.6894
  915MPD2    C413449   3.010   3.123  16.287 -0.2754  0.6306  0.2923
  915MPD2    C513450   3.085   3.063  16.191  1.0155  0.0670  0.5237
  915MPD2     H13451   2.780   3.245  16.086  1.2469  1.2043 -3.0298
  915MPD2    H113452   3.037   3.106  16.391 -0.0111  0.0824  0.1357
  915MPD2    H213453   3.139   3.040  15.993  2.9373  0.6925  2.8949
  915MPD2    H313454   3.174   3.013  16.226  2.6246  2.9226  0.4973
  915MPD2     N13455   2.820   3.263  16.345 -0.6316 -0.4639  0.5328
  915MPD2    H513456   2.740   3.320  16.317  1.1822  0.5900 -2.4762
  915MPD2    N113457   2.933   3.176  15.876  0.6703  0.5660 -0.0472
  915MPD2    H713458   3.003   3.142  15.810  0.8715  1.7148 -0.4281
  916MPD2     C13459   0.806   1.203  16.592  0.5331 -0.2508  0.4004
  916MPD2    C113460   0.783   1.079  16.543  0.5321  0.1545  0.2790
  916MPD2    C213461   0.865   1.012  16.458  0.4183  0.2392 -0.3421
  916MPD2    C313462   0.973   1.078  16.403  0.0274 -0.8955 -0.5520
  916MPD2    C413463   1.001   1.210  16.446 -0.1535 -0.2296 -0.0836
  916MPD2    C513464   0.921   1.263  16.548  0.2169 -0.0020  0.6948
  916MPD2     H13465   0.838   0.913  16.423 -0.3198  0.0158  0.8875
  916MPD2    H113466   1.079   1.269  16.400 -0.8572  0.5789 -0.2449
  916MPD2    H213467   0.742   1.262  16.657 -1.8244 -1.6634 -0.6502
  916MPD2    H313468   0.943   1.364  16.580 -1.5795  0.1325  1.4792
  916MPD2     N13469   1.033   1.011  16.299  0.0204  0.4501  0.3554
  916MPD2    H513470   1.016   0.911  16.292 -1.9103  0.7541  0.5829
  916MPD2    N113471   0.668   1.017  16.598  0.1605 -0.2214  0.0123
  916MPD2    H713472   0.596   1.070  16.646 -2.4342 -3.0825 -0.7299
  917MPD2     C13473   1.084   3.801  11.513  0.0543 -0.4669  0.2672
  917MPD2    C113474   1.161   3.795  11.618 -0.0801  0.0678  0.4814
  917MPD2    C213475   1.251   3.902  11.630 -0.0554 -0.1337 -0.1731
  917MPD2    C313476   1.258   4.009  11.546 -0.4720  0.2111  0.0117
  917MPD2    C413477   1.150   4.029  11.461 -0.5610 -0.5528  0.5586
  917MPD2    C513478   1.066   3.918  11.443 -0.2941 -0.6300 -0.0450
  917MPD2     H13479   1.329   3.897  11.706 -0.4385  1.2746  0.3258
  917MPD2    H113480   1.127   4.124  11.414 -0.1053 -0.6421  0.1475
  917MPD2    H213481   1.020   3.720  11.481  0.6433 -0.7035 -0.3099
  917MPD2    H313482   0.989   3.930  11.368  1.5241 -2.3231 -2.1604
  917MPD2     N13483   1.350   4.114  11.553  0.5083 -0.2301 -0.1192
  917MPD2    H513484   1.334   4.194  11.492 -2.5960 -0.1135  0.8882
  917MPD2    N113485   1.160   3.679  11.704 -0.7013 -0.0294 -0.3365
  917MPD2    H713486   1.092   3.610  11.675  0.7590 -1.4042 -0.5363
  918MPD2     C13487   1.500   3.824  12.571  0.6503 -0.4985 -0.4069
  918MPD2    C113488   1.581   3.770  12.477  0.2957 -0.2131  0.2308
  918MPD2    C213489   1.532   3.691  12.377 -0.1767 -0.2348  0.7302
  918MPD2    C313490   1.396   3.659  12.372 -0.2918  0.1665 -0.0327
  918MPD2    C413491   1.310   3.714  12.463 -0.2896 -0.4121  0.7032
  918MPD2    C513492   1.370   3.793  12.558 -1.2515  0.4911 -0.2599
  918MPD2     H13493   1.596   3.651  12.299  1.4717  3.1178  0.3461
  918MPD2    H113494   1.202   3.705  12.459 -0.2707  0.9122 -2.8986
  918MPD2    H213495   1.528   3.895  12.649 -1.3166  0.2060 -0.3575
  918MPD2    H313496   1.309   3.830  12.640  2.3106  0.8034  2.2036
  918MPD2     N13497   1.346   3.581  12.264 -0.0268 -0.2914 -0.5625
  918MPD2    H513498   1.420   3.540  12.207  0.8668 -0.5034  0.7567
  918MPD2    N113499   1.718   3.798  12.464 -0.2732 -0.0214 -0.9755
  918MPD2    H713500   1.768   3.744  12.394  1.8307 -1.2396  1.4627
  919MPD2     C13501   1.876   2.856  12.007  0.4066  0.3063 -0.2709
  919MPD2    C113502   1.814   2.761  11.935 -0.2474  0.3935  0.0475
  919MPD2    C213503   1.725   2.803  11.834 -0.0299  0.1829 -0.3773
  919MPD2    C313504   1.689   2.936  11.816 -0.4217 -0.0168  0.6440
  919MPD2    C413505   1.749   3.032  11.892 -0.9622  0.6258  0.1997
  919MPD2    C513506   1.838   2.993  11.992  0.1926 -0.4930  0.1710
  919MPD2     H13507   1.667   2.728  11.783  2.0816  0.5291 -3.2509
  919MPD2    H113508   1.726   3.137  11.877 -0.7482  0.5654 -0.5667
  919MPD2    H213509   1.936   2.834  12.094  0.7768 -0.7242 -0.7906
  919MPD2    H313510   1.892   3.076  12.036 -2.5855  0.2879  2.0763
  919MPD2     N13511   1.605   2.982  11.713  0.1115  0.1533  0.5056
  919MPD2    H513512   1.610   3.083  11.706 -0.7121  0.1480 -0.2216
  919MPD2    N113513   1.837   2.626  11.952  0.0189  0.3106 -0.1216
  919MPD2    H713514   1.783   2.561  11.897  2.0001 -0.9366 -0.6126
  920MPD2     C13515   1.644   3.668  11.039  0.0265 -0.4991 -0.2860
  920MPD2    C113516   1.529   3.605  11.013 -0.5865 -0.0225  0.2808
  920MPD2    C213517   1.495   3.482  11.072 -0.2201  0.5840 -0.1525
  920MPD2    C313518   1.581   3.434  11.166 -0.1619  0.3917  0.0103
  920MPD2    C413519   1.695   3.506  11.195  0.8908  0.4405 -0.2858
  920MPD2    C513520   1.727   3.619  11.131 -0.3980 -0.8046  0.0964
  920MPD2     H13521   1.407   3.428  11.040  0.3150 -0.1622 -0.3616
  920MPD2    H113522   1.757   3.469  11.276 -0.2708 -2.0222 -0.5325
  920MPD2    H213523   1.674   3.760  10.990  0.0197  0.1452  0.9094
  920MPD2    H313524   1.818   3.674  11.152 -0.6951 -0.7496  1.2652
  920MPD2     N13525   1.549   3.307  11.216  0.0627  1.3400 -0.7073
  920MPD2    H513526   1.463   3.262  11.185  1.3958 -1.0512 -0.9841
  920MPD2    N113527   1.445   3.633  10.905  0.4196 -0.7779  0.2245
  920MPD2    H713528   1.373   3.566  10.881 -1.5409  1.9255 -1.4541
  921MPD2     C13529   2.204   2.089  16.919 -0.0173 -0.4515  0.7555
  921MPD2    C113530   2.276   1.970  16.923  0.1551 -0.3062  0.1202
  921MPD2    C213531   2.228   1.858  16.858  0.7240 -0.0483 -0.1414
  921MPD2    C313532   2.107   1.874  16.789  0.2248  0.2643  0.1888
  921MPD2    C413533   2.040   1.987  16.793  0.5859  0.0932 -0.8421
  921MPD2    C513534   2.082   2.098  16.858 -0.7606 -0.1433 -0.1194
  921MPD2     H13535   2.276   1.761  16.853 -2.1650 -1.5379  1.7437
  921MPD2    H113536   1.951   1.998  16.732 -1.0501  0.0832  1.5254
  921MPD2    H213537   2.233   2.176  16.977 -1.6642  0.4834  0.1782
  921MPD2    H313538   2.023   2.189  16.857 -0.5072  0.0022 -2.3857
  921MPD2     N13539   2.055   1.772  16.699  0.7321  0.3049  0.5723
  921MPD2    H513540   1.972   1.797  16.647 -0.2156 -2.8638  0.6017
  921MPD2    N113541   2.403   1.972  16.982 -0.5762  0.4691  1.2696
  921MPD2    H713542   2.430   2.066  17.009  0.8678 -0.2207  2.1631
  922MPD2     C13543   3.373   4.449  17.269  0.3544 -0.5298  0.2088
  922MPD2    C113544   3.245   4.495  17.297  0.1089  0.1407  0.1344
  922MPD2    C213545   3.143   4.404  17.313 -0.5366  0.5314  0.4213
  922MPD2    C313546   3.162   4.277  17.271  0.8303  0.1168 -0.8777
  922MPD2    C413547   3.293   4.231  17.253  0.0291  1.0519  0.5744
  922MPD2    C513548   3.398   4.316  17.250  0.6741  0.9417 -0.1828
  922MPD2     H13549   3.043   4.434  17.344 -1.4379 -1.2294 -0.7755
  922MPD2    H113550   3.322   4.128  17.239  0.3851  0.9616  1.9569
  922MPD2    H213551   3.456   4.512  17.242  0.1434 -0.1727  0.3954
  922MPD2    H313552   3.503   4.288  17.240  0.7362  0.4913  1.7155
  922MPD2     N13553   3.047   4.194  17.265 -0.1503  0.5025 -0.0436
  922MPD2    H513554   2.957   4.240  17.275  0.4820  2.4809 -3.7323
  922MPD2    N113555   3.221   4.632  17.333  0.4539 -0.0379  0.5997
  922MPD2    H713556   3.126   4.652  17.362  0.7303  0.3835  1.2162
  923MPD2     C13557   0.112   1.887   9.590  0.2431 -0.1078  0.1833
  923MPD2    C113558   0.160   2.008   9.535 -0.2538  0.7626  0.6855
  923MPD2    C213559   0.289   2.043   9.568  0.6691  0.1641 -0.3429
  923MPD2    C313560   0.366   1.974   9.657  0.1829  0.2043 -0.1794
  923MPD2    C413561   0.311   1.860   9.720  0.0711  0.0181  0.4797
  923MPD2    C513562   0.190   1.817   9.680 -0.6143  0.2838 -0.3944
  923MPD2     H13563   0.333   2.133   9.527 -0.6361  0.3677 -1.2759
  923MPD2    H113564   0.362   1.817   9.805 -0.9134 -0.3388  0.8965
  923MPD2    H213565   0.020   1.842   9.553 -0.8985  1.8810  0.5543
  923MPD2    H313566   0.159   1.715   9.698  0.7548 -0.2576 -1.1916
  923MPD2     N13567   0.495   2.011   9.700 -0.1594 -0.4488 -0.6812
  923MPD2    H513568   0.539   1.955   9.772 -0.8253 -1.1199 -0.7913
  923MPD2    N113569   0.077   2.076   9.447  0.1212  0.2009 -0.5851
  923MPD2    H713570   4.723   2.035   9.433  1.5415 -2.1821 -2.8209
  924MPD2     C13571   0.084   4.668  15.569 -0.2094 -0.6031 -0.2177
  924MPD2    C113572   0.073   4.653  15.705  0.3708 -0.4401 -0.1333
  924MPD2    C213573   0.157   4.726  15.792  0.4842 -0.1696 -0.0649
  924MPD2    C313574   0.259   0.061  15.740  0.4448 -0.2569  1.4342
  924MPD2    C413575   0.281   0.060  15.607  0.0254  0.1029 -0.0146
  924MPD2    C513576   0.184   0.008  15.521 -0.0446  0.4060  0.4447
  924MPD2     H13577   0.139   4.716  15.899 -0.7892  1.1880 -0.1575
  924MPD2    H113578   0.350   0.122  15.550  0.2868 -1.7985 -1.7617
  924MPD2    H213579   0.029   4.622  15.488 -1.7317 -0.7839  0.9356
  924MPD2    H313580   0.192   0.014  15.413  1.5471  0.7523  0.5827
  924MPD2     N13581   0.349   0.123  15.825  0.3657 -0.9212 -0.0028
  924MPD2    H513582   0.417   0.176  15.771 -0.6187  0.3504  0.0020
  924MPD2    N113583   4.697   4.587  15.742  0.2642 -0.5805  0.2284
  924MPD2    H713584   4.636   4.546  15.672  0.6657  0.9143 -1.0012
  925MPD2     C13585   3.746   2.446  15.149  0.1547 -0.1942  0.7674
  925MPD2    C113586   3.630   2.502  15.101 -0.3106 -0.1712  0.4400
  925MPD2    C213587   3.532   2.536  15.190  0.1140  0.9367 -0.6664
  925MPD2    C313588   3.549   2.517  15.323 -0.0945  0.2411 -0.2639
  925MPD2    C413589   3.667   2.460  15.374 -0.8986  0.1873  0.1957
  925MPD2    C513590   3.769   2.426  15.285  0.1016  0.3392 -0.3238
  925MPD2     H13591   3.438   2.576  15.154  0.2492 -0.0545 -2.0911
  925MPD2    H113592   3.681   2.439  15.479  1.0776 -0.6656 -0.2538
  925MPD2    H213593   3.830   2.411  15.090  0.3326  1.2888  0.1206
  925MPD2    H313594   3.851   2.370  15.327 -0.2685 -0.5110 -0.7403
  925MPD2     N13595   3.449   2.551  15.419  0.1714 -0.1452 -0.0682
  925MPD2    H513596   3.474   2.529  15.515  0.5340  0.9157  0.0826
  925MPD2    N113597   3.593   2.507  14.962 -0.3532 -0.3633 -0.8788
  925MPD2    H713598   3.494   2.517  14.942  0.2001  1.7495 -2.5388
  926MPD2     C13599   2.490   0.833  13.952  0.7118  0.1619  0.2556
  926MPD2    C113600   2.378   0.871  13.881 -0.3073  0.2940 -0.1131
  926MPD2    C213601   2.404   0.921  13.753  0.8495 -0.3876 -0.1258
  926MPD2    C313602   2.533   0.938  13.704 -0.7175  0.0662 -0.2265
  926MPD2    C413603   2.637   0.898  13.782 -0.3761  0.4708 -0.4996
  926MPD2    C513604   2.617   0.848  13.903  0.0646 -0.5115  0.2211
  926MPD2     H13605   2.318   0.949  13.693  0.9089 -0.0074 -0.0358
  926MPD2    H113606   2.740   0.899  13.748 -0.4196 -2.1611 -0.6999
  926MPD2    H213607   2.491   0.778  14.045  0.9840  2.4458  1.6126
  926MPD2    H313608   2.690   0.803  13.969  0.6725 -1.1986 -0.9270
  926MPD2     N13609   2.570   0.994  13.583  0.4649 -0.0090 -0.3361
  926MPD2    H513610   2.664   0.994  13.545  0.5611 -2.0864 -0.0656
  926MPD2    N113611   2.244   0.862  13.924 -0.3436  0.2914  0.2782
  926MPD2    H713612   2.166   0.890  13.866  0.6364  0.4498 -0.9485
  927MPD2     C13613   2.460   2.924   0.495  0.1671 -0.8268 -0.4822
  927MPD2    C113614   2.382   2.978   0.398  0.6014  0.7870  0.3347
  927MPD2    C213615   2.385   2.917   0.272 -0.7172  0.1422  0.2032
  927MPD2    C313616   2.445   2.795   0.249  0.2348  0.5115 -0.0547
  927MPD2    C413617   2.519   2.741   0.354 -0.4637 -0.1942 -0.8173
  927MPD2    C513618   2.527   2.806   0.468 -0.4444  0.8022 -0.0902
  927MPD2     H13619   2.330   2.958   0.188  1.0649 -1.7289 -1.9112
  927MPD2    H113620   2.579   2.652   0.338  1.5163  1.0531 -0.3152
  927MPD2    H213621   2.457   2.969   0.593  0.1161 -3.9649  0.9586
  927MPD2    H313622   2.592   2.770   0.547  0.3077  1.1943 -0.5256
  927MPD2     N13623   2.427   2.733   0.123  0.0015 -0.2929 -0.0319
  927MPD2    H513624   2.373   2.781   0.052  1.9204  1.1733 -0.4987
  927MPD2    N113625   2.294   3.081   0.430 -0.4675  0.4158 -0.3824
  927MPD2    H713626   2.288   3.115   0.526  2.0808 -0.8409  0.2013
  928MPD2     C13627   3.838   1.723   0.673  0.7279 -0.3722 -0.3409
  928MPD2    C113628   3.929   1.800   0.738 -0.2282 -0.3125  0.3950
  928MPD2    C213629   4.049   1.834   0.674 -0.3158  0.1398  0.0005
  928MPD2    C313630   4.075   1.778   0.547 -0.5588  0.0037 -0.0158
  928MPD2    C413631   3.979   1.701   0.486  0.6322 -0.7148  0.4406
  928MPD2    C513632   3.860   1.668   0.552 -0.1067 -0.0565  0.0006
  928MPD2     H13633   4.126   1.895   0.721 -1.1130  2.7503 -2.0626
  928MPD2    H113634   3.980   1.657   0.387  0.8214 -2.1690  1.0918
  928MPD2    H213635   3.740   1.707   0.716 -0.0607 -1.3250 -2.4562
  928MPD2    H313636   3.786   1.596   0.518 -0.2324  0.4843 -0.8791
  928MPD2     N13637   4.203   1.783   0.480  0.0702 -0.0860 -0.1983
  928MPD2    H513638   4.210   1.746   0.386 -1.2264 -0.9425  0.0261
  928MPD2    N113639   3.897   1.854   0.862  0.2414  0.1217  0.3839
  928MPD2    H713640   3.801   1.859   0.894  0.0002  0.5182 -0.3998
  929MPD2     C13641   0.847   2.068  10.235  0.3409 -0.2949  0.7712
  929MPD2    C113642   0.725   2.045  10.181 -0.4189 -0.4416 -1.0026
  929MPD2    C213643   0.669   2.151  10.105  0.1189  0.4880  0.0581
  929MPD2    C313644   0.727   2.276  10.105  0.7796 -0.5128 -0.2818
  929MPD2    C413645   0.849   2.299  10.168 -0.0027  0.5164 -0.0135
  929MPD2    C513646   0.907   2.194  10.230 -0.2506  0.8182  0.4353
  929MPD2     H13647   0.567   2.143  10.071  0.6388 -0.9913 -1.1661
  929MPD2    H113648   0.893   2.398  10.166 -1.1496  1.0132 -0.1422
  929MPD2    H213649   0.893   1.991  10.297  0.3267 -0.2876  0.7910
  929MPD2    H313650   1.006   2.208  10.270 -0.8844  0.7677  2.0087
  929MPD2     N13651   0.664   2.386  10.041  0.8605 -0.3038 -0.1042
  929MPD2    H513652   0.712   2.475  10.044 -1.0391  0.6250  1.9908
  929MPD2    N113653   0.660   1.919  10.209  0.7199 -0.2394 -0.4349
  929MPD2    H713654   0.706   1.854  10.272  0.0897  0.0370  0.3186
  930MPD2     C13655   1.594   3.474  14.544 -0.5911  0.0499  0.8568
  930MPD2    C113656   1.699   3.514  14.470  0.1121  0.8162 -0.0928
  930MPD2    C213657   1.736   3.443  14.360  0.4809  0.1099 -0.1400
  930MPD2    C313658   1.657   3.342  14.307  1.2032  0.0435  0.3108
  930MPD2    C413659   1.536   3.319  14.376  0.1280 -0.0238 -0.2873
  930MPD2    C513660   1.513   3.378  14.492 -0.0686  0.3995 -0.1694
  930MPD2     H13661   1.823   3.481  14.307 -0.6491 -0.9845 -2.7761
  930MPD2    H113662   1.455   3.261  14.331 -0.8678 -0.6755  2.3873
  930MPD2    H213663   1.575   3.509  14.644 -0.1426 -1.1661  1.3670
  930MPD2    H313664   1.415   3.356  14.534  0.1829  1.8706  1.1651
  930MPD2     N13665   1.680   3.300  14.177  0.6901 -0.7621  0.3888
  930MPD2    H513666   1.598   3.295  14.117 -0.4722  0.3836  1.8841
  930MPD2    N113667   1.788   3.618  14.505  0.8128 -0.1795  0.4331
  930MPD2    H713668   1.865   3.628  14.439  0.4457  0.5085  0.1098
  931MPD2     C13669   1.732   3.375   0.986  0.0006 -0.2901 -0.2716
  931MPD2    C113670   1.822   3.276   0.937  0.0881  0.5388  0.4289
  931MPD2    C213671   1.829   3.158   1.007 -0.3466  0.1817  0.3435
  931MPD2    C313672   1.754   3.130   1.116 -0.3563  0.1739 -0.1560
  931MPD2    C413673   1.657   3.221   1.155 -0.5229 -0.6101 -0.9791
  931MPD2    C513674   1.654   3.343   1.093  0.2302 -0.6228 -0.5301
  931MPD2     H13675   1.881   3.078   0.956 -1.8900  0.8786 -2.3704
  931MPD2    H113676   1.599   3.201   1.244 -0.6741  1.8078 -0.5343
  931MPD2    H213677   1.710   3.471   0.942  0.7667 -0.5238 -1.1582
  931MPD2    H313678   1.575   3.410   1.127 -0.0259 -1.7587  1.0551
  931MPD2     N13679   1.750   3.007   1.182  0.0253 -0.1506 -0.1367
  931MPD2    H513680   1.675   2.989   1.247 -0.5228  0.5634 -0.5737
  931MPD2    N113681   1.874   3.295   0.814  0.3712 -0.2299 -0.0983
  931MPD2    H713682   1.842   3.384   0.775 -1.6514 -0.1296  1.8238
  932MPD2     C13683   3.859   2.241  11.534 -0.5821 -0.1292 -0.4218
  932MPD2    C113684   3.902   2.237  11.664 -0.2119 -0.3624 -0.4616
  932MPD2    C213685   3.842   2.160  11.756 -0.2448  0.5339 -0.2998
  932MPD2    C313686   3.752   2.065  11.713  0.0673  0.0113  0.5222
  932MPD2    C413687   3.718   2.060  11.581 -0.1381  0.1406 -0.0476
  932MPD2    C513688   3.765   2.156  11.496  0.0128  0.4871 -0.3589
  932MPD2     H13689   3.875   2.161  11.859 -1.2704 -0.4652  0.0324
  932MPD2    H113690   3.641   1.989  11.554  0.7954 -0.5163 -0.9753
  932MPD2    H213691   3.890   2.312  11.458 -1.9436  1.3598  0.4015
  932MPD2    H313692   3.732   2.169  11.394  1.5820 -0.8382 -1.0126
  932MPD2     N13693   3.687   1.979  11.804  0.1136 -0.4861  0.2287
  932MPD2    H513694   3.594   1.940  11.792  0.5093 -1.6187  0.8877
  932MPD2    N113695   3.993   2.333  11.710 -0.1568 -0.1791 -0.2896
  932MPD2    H713696   4.022   2.330  11.807 -0.1727 -2.6971 -0.3485
  933MPD2     C13697   3.400   2.120   0.956 -0.3403 -0.0990 -0.3770
  933MPD2    C113698   3.468   2.180   1.059 -0.2520  0.2742  0.2690
  933MPD2    C213699   3.413   2.283   1.132  0.3817 -0.2045 -0.3406
  933MPD2    C313700   3.291   2.336   1.108 -1.1289 -0.1824 -0.6654
  933MPD2    C413701   3.220   2.279   0.999 -0.0768  0.2702 -0.5645
  933MPD2    C513702   3.276   2.172   0.933 -0.1870 -0.4724 -0.1218
  933MPD2     H13703   3.463   2.319   1.221 -1.7896 -1.5881  1.4375
  933MPD2    H113704   3.117   2.306   0.975 -0.6313 -0.7038  0.7292
  933MPD2    H213705   3.437   2.035   0.900 -0.7764 -0.7969  0.4031
  933MPD2    H313706   3.231   2.122   0.848 -1.3807 -2.9642  1.9935
  933MPD2     N13707   3.251   2.450   1.182  0.3515 -0.6030  0.1481
  933MPD2    H513708   3.314   2.478   1.256  0.0512  1.8534 -0.5270
  933MPD2    N113709   3.585   2.110   1.094 -0.5505 -0.2854  0.0604
  933MPD2    H713710   3.612   2.035   1.032  1.3376 -0.1390  0.7165
  934MPD2     C13711   0.579   0.141   1.050  0.1349  0.3009 -0.2913
  934MPD2    C113712   0.702   0.072   1.027 -0.0512  0.0090  0.1345
  934MPD2    C213713   0.696   4.672   0.985  0.3163 -0.0063 -0.0677
  934MPD2    C313714   0.573   4.603   1.000 -0.2347 -0.1961 -0.2482
  934MPD2    C413715   0.457   4.679   1.022 -0.1648  0.1761  0.3219
  934MPD2    C513716   0.464   0.080   1.037  0.1296 -0.1189 -0.3457
  934MPD2     H13717   0.786   4.612   0.977  1.7032  2.0720  0.1295
  934MPD2    H113718   0.356   4.641   1.017 -0.4729  0.7239  2.1331
  934MPD2    H213719   0.585   0.248   1.067  2.9614 -0.2310  2.2287
  934MPD2    H313720   0.375   0.141   1.045 -0.8538 -1.9314  2.7337
  934MPD2     N13721   0.549   4.465   0.999 -0.0267  0.1462 -0.1021
  934MPD2    H513722   0.454   4.435   1.020 -0.2880  1.5439  0.7328
  934MPD2    N113723   0.825   0.135   1.024 -0.3395  0.6072 -0.0259
  934MPD2    H713724   0.905   0.073   1.011  0.7474  2.0403 -0.1119
  935MPD2     C13725   1.164   3.683   0.897  0.3813  0.5707  0.3305
  935MPD2    C113726   1.046   3.636   0.932 -0.5013 -0.5771 -0.3086
  935MPD2    C213727   0.931   3.715   0.939 -0.7467 -0.3404  0.0988
  935MPD2    C313728   0.938   3.848   0.893 -0.1865  0.0896 -0.1234
  935MPD2    C413729   1.059   3.896   0.853  0.1841 -0.0388  0.2215
  935MPD2    C513730   1.168   3.818   0.854 -0.7561  0.1970  0.2591
  935MPD2     H13731   0.839   3.661   0.961 -2.0991  0.7888 -2.8540
  935MPD2    H113732   1.075   3.993   0.807  1.8288  0.4423  1.7903
  935MPD2    H213733   1.256   3.625   0.892  0.4991  0.9929 -2.4787
  935MPD2    H313734   1.262   3.854   0.813 -0.5330 -0.8290 -0.1341
  935MPD2     N13735   0.824   3.928   0.887 -0.3589  0.4510 -0.0065
  935MPD2    H513736   0.845   4.022   0.855 -2.3050  0.2516 -1.8831
  935MPD2    N113737   1.028   3.503   0.986 -0.7532 -0.0181  1.0226
  935MPD2    H713738   0.933   3.477   1.011 -1.4577  0.6574 -0.9736
  936MPD2     C13739   3.739   0.645  12.344  0.3493 -1.2285 -0.2816
  936MPD2    C113740   3.793   0.699  12.456  0.6941 -0.6734  0.1860
  936MPD2    C213741   3.839   0.827  12.456 -0.0087  0.0153 -0.8208
  936MPD2    C313742   3.818   0.908  12.347  0.9770  0.1064  0.3803
  936MPD2    C413743   3.762   0.853  12.236  0.9002  0.4652  0.3505
  936MPD2    C513744   3.719   0.725  12.234 -0.2247  0.3660  0.0433
  936MPD2     H13745   3.893   0.861  12.544 -2.4620  0.2811  0.5829
  936MPD2    H113746   3.739   0.911  12.148 -0.2897 -2.4962 -1.3103
  936MPD2    H213747   3.708   0.541  12.337 -0.1134 -1.2079  1.5068
  936MPD2    H313748   3.667   0.690  12.145 -1.0836  1.6462  0.0431
  936MPD2     N13749   3.867   1.043  12.340  0.5157 -0.1031  0.1777
  936MPD2    H513750   3.878   1.079  12.246  1.6703  0.1701  0.4294
  936MPD2    N113751   3.820   0.626  12.573  0.3974 -0.3304  0.8191
  936MPD2    H713752   3.869   0.673  12.649  0.4924  0.5747  0.2026
  937MPD2     C13753   2.381   2.014  11.842 -0.0406 -0.5734 -0.0931
  937MPD2    C113754   2.382   2.146  11.876  0.3579 -0.1368 -0.5332
  937MPD2    C213755   2.463   2.236  11.801 -0.0587  0.0119  0.2101
  937MPD2    C313756   2.554   2.183  11.711  0.2968  0.1715 -0.1251
  937MPD2    C413757   2.561   2.046  11.686  0.0763 -0.5904  0.3091
  937MPD2    C513758   2.473   1.965  11.749 -0.5496  1.1653  0.3049
  937MPD2     H13759   2.451   2.342  11.820 -1.3305 -0.1899  0.4892
  937MPD2    H113760   2.619   1.996  11.609  0.4924 -0.1499  0.3388
  937MPD2    H213761   2.308   1.943  11.879 -0.8864  0.4245  0.1689
  937MPD2    H313762   2.471   1.858  11.730 -1.3827  1.0386  1.1325
  937MPD2     N13763   2.648   2.272  11.656 -0.4038  0.7433  0.4951
  937MPD2    H513764   2.644   2.368  11.690  0.0029  0.3230  1.7320
  937MPD2    N113765   2.277   2.217  11.942 -0.2085 -0.1050 -0.2613
  937MPD2    H713766   2.272   2.317  11.928 -2.3088 -0.0791  0.7146
  938MPD2     C13767   0.059   3.209   0.580 -0.2926  0.4208  0.3782
  938MPD2    C113768   0.056   3.331   0.648 -0.0159 -0.0435  0.5138
  938MPD2    C213769   0.038   3.339   0.786 -0.2918  0.0224  0.5410
  938MPD2    C313770   4.732   3.225   0.854 -0.2400  0.3129 -0.5708
  938MPD2    C413771   0.003   3.108   0.783 -0.4856  0.3667 -0.1939
  938MPD2    C513772   0.029   3.096   0.651  0.0859  0.4603  0.6194
  938MPD2     H13773   0.048   3.438   0.831 -0.5715 -0.1546  0.9946
  938MPD2    H113774   4.726   3.009   0.826  1.2925 -0.0183 -0.4830
  938MPD2    H213775   0.072   3.191   0.474 -1.1566 -0.0389  0.3500
  938MPD2    H313776   0.026   3.001   0.600 -1.4091  2.8140 -3.6231
  938MPD2     N13777   4.692   3.226   0.989  0.1961  0.4726  0.2191
  938MPD2    H513778   4.678   3.136   1.033 -2.5596  0.8349  0.0596
  938MPD2    N113779   0.081   3.458   0.586 -0.7728  0.1480 -0.8408
  938MPD2    H713780   0.073   3.538   0.649  0.2778 -0.5246  0.1593
  939MPD2     C13781   0.481   0.357   0.327  0.2423  0.1379 -0.2358
  939MPD2    C113782   0.360   0.327   0.273  0.2154 -0.1230  0.1865
  939MPD2    C213783   0.337   0.193   0.234  0.3877 -0.3784 -0.2105
  939MPD2    C313784   0.428   0.098   0.263 -0.0512 -0.4776  0.3549
  939MPD2    C413785   0.544   0.135   0.327  0.9761  0.9552 -0.3487
  939MPD2    C513786   0.579   0.264   0.345  0.0081  0.1201 -1.5557
  939MPD2     H13787   0.252   0.166   0.173 -1.8212  2.8848  1.4578
  939MPD2    H113788   0.619   0.063   0.354  2.2362  2.5565  0.4176
  939MPD2    H213789   0.507   0.461   0.340  2.1492 -0.2509 -0.8652
  939MPD2    H313790   0.678   0.294   0.377 -1.0409  1.3370  0.5754
  939MPD2     N13791   0.407   4.702   0.223 -0.0741 -0.0158 -0.3629
  939MPD2    H513792   0.314   4.678   0.190 -0.9906 -0.0729  2.2974
  939MPD2    N113793   0.263   0.431   0.267  0.5028  0.8508 -0.3490
  939MPD2    H713794   0.293   0.512   0.320  0.8669 -0.0131  0.7733
  940MPD2     C13795   4.511   0.678  13.485  0.1752  0.6969 -0.1611
  940MPD2    C113796   4.623   0.681  13.406  0.2524 -0.0067 -0.7077
  940MPD2    C213797   4.606   0.659  13.273  0.2255  0.4384 -0.0162
  940MPD2    C313798   4.474   0.649  13.220 -0.2849  0.4065  0.1581
  940MPD2    C413799   4.372   0.649  13.307  1.2796  0.4430 -0.0750
  940MPD2    C513800   4.390   0.664  13.441 -0.4276  0.0899  0.5878
  940MPD2     H13801   4.690   0.653  13.205  1.6475 -0.0216  1.7929
  940MPD2    H113802   4.268   0.642  13.277  0.5287  1.8662  2.2173
  940MPD2    H213803   4.514   0.703  13.591  2.2309  2.2481 -0.5747
  940MPD2    H313804   4.305   0.671  13.508 -0.3866 -1.7099  0.8249
  940MPD2     N13805   4.449   0.630  13.081 -0.2292 -0.1708  0.3311
  940MPD2    H513806   4.358   0.606  13.045 -0.3727  0.3944  0.3168
  940MPD2    N113807   0.021   0.695  13.454 -0.2458 -0.2841 -0.3746
  940MPD2    H713808   0.093   0.709  13.385 -1.0371  1.1315 -0.9097
  941MPD2     C13809   4.033   0.431   9.985 -0.3546  0.5261  0.2681
  941MPD2    C113810   4.133   0.389  10.074 -0.0669 -0.7882  0.3319
  941MPD2    C213811   4.114   0.271  10.142  0.4289 -0.3890  0.4720
  941MPD2    C313812   4.012   0.185  10.108  0.3029  0.3392 -0.4256
  941MPD2    C413813   3.922   0.226  10.009  0.4161 -0.4317 -0.3703
  941MPD2    C513814   3.926   0.354   9.952 -0.0754 -0.1231  0.2756
  941MPD2     H13815   4.181   0.253  10.225  1.8184  1.6516 -0.2260
  941MPD2    H113816   3.842   0.159   9.980 -0.7419  0.7174  0.1979
  941MPD2    H213817   4.034   0.531   9.944 -0.4000  0.0999 -0.7573
  941MPD2    H313818   3.859   0.390   9.876  0.6904 -0.3196 -0.4970
  941MPD2     N13819   3.989   0.062  10.176  0.3517  0.2018  0.4710
  941MPD2    H513820   3.905   0.017  10.140  1.9312 -2.5933  0.2976
  941MPD2    N113821   4.249   0.463  10.097 -0.0462 -0.3594 -0.2735
  941MPD2    H713822   4.314   0.422  10.163 -1.5190 -0.9116  0.8432
  942MPD2     C13823   3.828   1.631   9.535 -0.1800 -0.3870 -0.5229
  942MPD2    C113824   3.749   1.648   9.424  0.8446  0.1626 -0.3904
  942MPD2    C213825   3.805   1.716   9.317  0.3645  0.5463 -0.1697
  942MPD2    C313826   3.940   1.740   9.308  0.2078 -0.5453 -0.0675
  942MPD2    C413827   4.021   1.705   9.410  0.0169 -0.0387  0.5287
  942MPD2    C513828   3.968   1.654   9.526 -0.3465 -0.1118  0.0264
  942MPD2     H13829   3.730   1.740   9.242 -0.3183  0.4904  0.4935
  942MPD2    H113830   4.128   1.721   9.396  0.4685 -3.3713  0.1420
  942MPD2    H213831   3.793   1.602   9.634  1.9448 -4.8545 -1.0830
  942MPD2    H313832   4.037   1.644   9.609 -0.3035 -1.2146 -0.1441
  942MPD2     N13833   4.010   1.806   9.200  0.2962  0.0890  0.0684
  942MPD2    H513834   4.109   1.825   9.208 -0.2192  2.4936  0.6491
  942MPD2    N113835   3.617   1.616   9.414 -0.2645  0.3204 -0.0341
  942MPD2    H713836   3.574   1.628   9.322  2.7763  0.8226 -1.3627
  943MPD2     C13837   3.067   0.459  10.926  0.4157 -0.0057 -0.0869
  943MPD2    C113838   3.042   0.328  10.917 -0.2977 -0.4075 -0.7617
  943MPD2    C213839   2.938   0.279  10.993  0.0166  0.1707 -0.2022
  943MPD2    C313840   2.870   0.354  11.087  0.2230 -0.3368  0.2844
  943MPD2    C413841   2.892   0.495  11.087 -0.2346  0.0730 -0.0038
  943MPD2    C513842   2.993   0.540  11.001  0.9459 -0.2771 -0.3731
  943MPD2     H13843   2.898   0.182  10.963  1.1023 -0.3046 -0.0901
  943MPD2    H113844   2.847   0.566  11.155 -0.8351  0.3817 -0.7331
  943MPD2    H213845   3.152   0.508  10.880  0.3680  0.1041 -0.0570
  943MPD2    H313846   3.010   0.647  10.998 -0.0748 -0.0947  0.2258
  943MPD2     N13847   2.769   0.295  11.160  0.5717 -0.2622 -0.0819
  943MPD2    H513848   2.706   0.354  11.213  2.2385  0.2040  1.3841
  943MPD2    N113849   3.101   0.254  10.814  0.3642  0.3414  0.6095
  943MPD2    H713850   3.158   0.302  10.746 -1.3444 -1.4649 -2.0756
  944MPD2     C13851   3.101   3.673  11.168  0.1213 -0.0425 -0.2905
  944MPD2    C113852   2.983   3.671  11.097 -0.6824  0.0137  0.3267
  944MPD2    C213853   2.870   3.686  11.177 -0.1365 -0.1140  0.2876
  944MPD2    C313854   2.868   3.690  11.315 -0.1506 -0.2435 -0.8327
  944MPD2    C413855   2.986   3.667  11.381 -0.5040  0.9475 -0.2566
  944MPD2    C513856   3.105   3.683  11.308  0.6806  0.2901  0.0742
  944MPD2     H13857   2.771   3.707  11.137 -0.2589  0.5979  0.9645
  944MPD2    H113858   3.012   3.670  11.486 -1.2557  0.5440 -0.0590
  944MPD2    H213859   3.197   3.661  11.119 -0.0494 -0.2887 -0.5674
  944MPD2    H313860   3.200   3.673  11.360 -0.2384 -0.9002  1.5111
  944MPD2     N13861   2.743   3.709  11.380 -1.2157  0.6669  0.0794
  944MPD2    H513862   2.670   3.707  11.310 -3.5068  2.0690  2.4599
  944MPD2    N113863   2.983   3.663  10.955 -0.3589  1.3140  0.1002
  944MPD2    H713864   3.073   3.643  10.912 -1.4584 -1.3780 -0.9728
    1TMC1    C113865   1.471   3.993  14.734 -0.9849  0.4204 -0.0743
    1TMC1    C213866   1.446   4.019  14.600  0.4173 -0.1254 -0.1468
    1TMC1    C313867   1.399   3.917  14.523  0.8653 -0.5801 -0.5553
    1TMC1    C413868   1.442   3.876  14.792 -0.2972 -0.3125 -0.1033
    1TMC1    C513869   1.403   3.772  14.707 -0.2210  0.5094 -0.5936
    1TMC1    C613870   1.394   3.793  14.570  0.1273 -0.8511 -0.4170
    1TMC1     C13871   1.493   4.107  14.824  0.0296 -0.3313  0.0030
    1TMC1     O13872   1.538   4.083  14.935 -0.0919 -0.1307  0.6801
    1TMC1     H13873   1.476   4.114  14.559  1.2197  0.0945  0.9572
    1TMC1    H113874   1.465   3.861  14.896  1.4452 -1.7089 -0.6943
    1TMC1    H213875   1.373   3.712  14.501 -0.9612 -0.6193 -0.3433
    1TMC1    C713876   1.325   3.663  14.758  0.1119 -0.4933 -0.4679
    1TMC1    C813877   1.396   3.927  14.377  0.2677 -0.4319 -0.1620
    1TMC1    O113878   1.255   3.591  14.683  0.2615  0.1115 -0.0533
    1TMC1    O213879   1.397   3.832  14.303  0.4924 -0.1060 -0.3575
    1TMC1    O313880   1.286   3.716  14.871 -0.4511  0.2776  0.5231
    1TMC1    H313881   1.354   3.742  14.936  2.1550 -0.6119 -1.8331
    1TMC1    O513882   1.367   4.057  14.342  0.0720  0.7547  0.2582
    1TMC1    H513883   1.357   4.114  14.421  0.5290  1.5795 -0.2689
    2MPD2     C13884   1.494   4.611  14.901  0.3565 -0.1337 -0.0310
    2MPD2    C113885   1.409   4.585  14.805  0.1988 -0.3708  0.4120
    2MPD2    C213886   1.406   4.452  14.758 -0.1691  0.5083 -0.4488
    2MPD2    C313887   1.479   4.352  14.818  0.2053  0.2301 -0.5710
    2MPD2    C413888   1.557   4.380  14.928  0.2837 -0.2167 -0.3187
    2MPD2    C513889   1.561   4.513  14.962  0.0622 -0.1389 -0.6184
    2MPD2     H13890   1.342   4.431  14.672 -0.6254  2.2639 -0.5334
    2MPD2    H113891   1.613   4.302  14.978 -0.5166  0.9826  2.4441
    2MPD2    H213892   1.512   4.710  14.940  0.2866  0.1757 -0.7976
    2MPD2    H313893   1.624   4.548  15.043 -0.0474  2.1650 -1.5419
    2MPD2     N13894   1.465   4.226  14.768 -0.8387  0.2597  0.2453
    2MPD2    H513895   1.405   4.197  14.691  0.0039 -2.1889  0.4888
    2MPD2    N113896   1.336   4.690  14.754 -0.8469  0.1964  0.2296
    2MPD2    H713897   1.350   0.046  14.792 -1.6603 -1.7046  5.1276
    3TMC2    C113898   1.184   0.069  14.615 -0.4868 -0.5091  0.4243
    3TMC2    C213899   1.219   0.186  14.673  0.4022  0.1055 -0.0767
    3TMC2    C313900   1.151   0.296  14.630  0.0031  0.0070 -0.3332
    3TMC2    C413901   1.097   0.062  14.508  0.1545  0.7162 -0.5485
    3TMC2    C513902   1.039   0.177  14.463  0.2429  0.0641  0.1651
    3TMC2    C613903   1.056   0.290  14.528 -0.7304 -0.8701  0.2331
    3TMC2     C13904   1.247   4.684  14.652 -0.5256  0.6103  0.9093
    3TMC2     O13905   1.207   4.581  14.591 -0.1310  0.3816  0.1603
    3TMC2     H13906   1.272   0.202  14.767 -0.9766 -1.1051  0.9114
    3TMC2    H113907   1.071   4.701  14.470 -0.1665  0.5074  0.2154
    3TMC2    H213908   1.009   0.379  14.489 -1.8418 -1.1036  1.0315
    3TMC2    C713909   0.951   0.165  14.345 -0.1440 -1.0567 -0.6151
    3TMC2    C813910   1.133   0.400  14.733  0.0241 -0.2494 -0.8553
    3TMC2    O113911   0.924   0.047  14.318 -0.7040 -0.0248 -0.2087
    3TMC2    O213912   1.207   0.403  14.827  0.2047 -0.5911 -0.0399
    3TMC2    O513913   1.002   0.441  14.722  0.7339  0.5447 -0.4113
    3TMC2    H513914   0.950   0.402  14.649 -0.0867  0.0382  0.4425
    4TMC2    C113915   0.857   0.827  13.604 -0.6342 -0.0910  0.0376
    4TMC2    C213916   0.807   0.950  13.617  0.1785  0.1532  0.2106
    4TMC2    C313917   0.762   0.992  13.736  0.3470 -0.0943 -0.1754
    4TMC2    C413918   0.862   0.742  13.718  0.2672 -0.0348 -0.9224
    4TMC2    C513919   0.824   0.788  13.837 -0.2217  0.1974  0.0194
    4TMC2    C613920   0.766   0.911  13.847 -0.4475 -0.3101  0.0258
    4TMC2     C13921   0.881   0.772  13.473  0.3334  0.4112 -0.0769
    4TMC2     O13922   0.971   0.688  13.463  0.6999 -0.4503  0.5007
    4TMC2     H13923   0.792   1.018  13.535  1.0057  0.1544  0.0651
    4TMC2    H113924   0.918   0.650  13.714  0.4650 -0.0479  2.7726
    4TMC2    H213925   0.738   0.947  13.946 -2.0922  0.2762 -0.6568
    4TMC2    C713926   0.812   0.686  13.944 -0.4602  0.8999  0.3501
    4TMC2    C813927   0.680   1.108  13.742 -0.0562 -0.3447 -0.3791
    4TMC2    O113928   0.816   0.727  14.060  0.0172 -0.4692 -0.3696
    4TMC2    O213929   0.706   1.210  13.679 -0.1870 -0.0427  0.1624
    4TMC2    O513930   0.560   1.078  13.800 -0.3889  0.1239 -0.6650
    4TMC2    H513931   0.549   0.987  13.836  2.7124  0.3939  1.0626
    5MPD2     C13932   0.786   0.717  12.971 -0.0696  0.0755 -0.0214
    5MPD2    C113933   0.677   0.784  13.025 -0.0838  0.2397 -0.1705
    5MPD2    C213934   0.683   0.819  13.162  0.0468  0.4089  0.0788
    5MPD2    C313935   0.794   0.783  13.241  0.4622  0.0167  0.0459
    5MPD2    C413936   0.901   0.724  13.183  0.4086 -0.3152 -0.7178
    5MPD2    C513937   0.890   0.679  13.054 -0.2903  0.5125  0.2657
    5MPD2     H13938   0.605   0.876  13.210  0.2369  0.1441  0.6953
    5MPD2    H113939   0.987   0.687  13.237 -1.5761 -1.9712  1.2819
    5MPD2    H213940   0.786   0.694  12.865  0.5546 -0.2114  0.0371
    5MPD2    H313941   0.964   0.615  13.007 -0.3948 -0.0033  0.8041
    5MPD2     N13942   0.799   0.818  13.372 -0.0653  0.0898 -0.6922
    5MPD2    H513943   0.719   0.876  13.396 -0.6130 -0.4291 -1.2837
    5MPD2    N113944   0.579   0.832  12.935 -0.3159 -0.2498 -0.3530
    5MPD2    H713945   0.600   0.834  12.836  1.2620  2.8040  0.0593
    6MPD1     C13946   4.010   2.245  13.202 -0.3588  0.2443 -0.1931
    6MPD1    C113947   4.042   2.248  13.066  0.2750  0.0986 -0.2914
    6MPD1    C213948   4.131   2.148  13.021  0.4912 -0.0259  0.5526
    6MPD1    C313949   4.182   2.047  13.115  0.1035 -0.5420  0.2632
    6MPD1    C413950   4.154   2.056  13.248 -0.4222  0.4166  0.8365
    6MPD1    C513951   4.072   2.156  13.288  0.2990 -0.0926 -0.3089
    6MPD1     H13952   4.153   2.143  12.915 -0.6373 -0.6629  0.3438
    6MPD1    H113953   4.193   1.983  13.318 -0.6172 -1.5033 -1.0747
    6MPD1    H213954   3.951   2.321  13.252  0.1955  2.3162 -2.6393
    6MPD1    H313955   4.069   2.167  13.396  1.8255  0.6965 -0.3432
    6MPD1     N13956   4.272   1.942  13.074 -0.5133 -0.3729 -0.7533
    6MPD1    H513957   4.308   1.876  13.143 -1.3882 -0.5403 -0.4598
    6MPD1    N113958   4.006   2.354  12.986 -0.1475  0.1290 -0.3838
    6MPD1    H613959   4.008   2.329  12.887  1.1562 -1.6059  0.0867
    6MPD1    H713960   3.913   2.385  13.011  1.0816  2.7634  0.9107
    7MPD2     C13961   4.497   1.208  13.227 -0.2231 -0.1295  0.2361
    7MPD2    C113962   4.537   1.257  13.105 -0.7819  0.1034 -0.3369
    7MPD2    C213963   4.605   1.176  13.016  0.1074  0.1040 -0.2376
    7MPD2    C313964   4.649   1.049  13.058  0.0658 -0.7813  0.2035
    7MPD2    C413965   4.612   1.003  13.186 -0.3199 -0.7239 -0.1091
    7MPD2    C513966   4.536   1.081  13.267  0.4149  0.2181 -0.4753
    7MPD2     H13967   4.628   1.215  12.917  3.0271  0.5753  0.6226
    7MPD2    H113968   4.645   0.912  13.234  1.7162 -0.5780 -1.2673
    7MPD2    H213969   4.432   1.269  13.288 -0.2462 -0.9521  1.0335
    7MPD2    H313970   4.506   1.044  13.364 -2.8172  0.9968 -1.1583
    7MPD2     N13971   0.004   0.972  12.977  0.1647  0.0514 -0.6735
    7MPD2    H513972   0.035   0.881  13.010 -0.7364  0.6085  1.7075
    7MPD2    N113973   4.511   1.390  13.054  0.5803 -0.3892  0.1654
    7MPD2    H713974   4.537   1.406  12.957 -0.1356 -1.8869 -0.2778
    8TMC3    C113975   0.130   0.918  12.795 -0.1327  0.0877  0.7812
    8TMC3    C213976   0.222   0.862  12.887  0.1835  0.2641 -0.3685
    8TMC3    C313977   0.352   0.863  12.859  0.6037 -0.9320 -1.4298
    8TMC3    C413978   0.173   0.974  12.672  0.0639 -0.2155  0.1255
    8TMC3    C513979   0.304   0.991  12.661 -0.2835 -0.0049 -0.6126
    8TMC3    C613980   0.398   0.931  12.745  0.3252 -0.2376 -0.2692
    8TMC3     C13981   0.051   1.020  12.854 -0.2842  0.4468  0.0665
    8TMC3     O13982   0.025   1.111  12.778  0.1589 -0.2169 -0.6238
    8TMC3     H13983   0.185   0.802  12.970 -2.1473  1.4124 -0.6018
    8TMC3    H113984   0.101   1.001  12.596  1.0159  2.8632  0.3036
    8TMC3    H213985   0.501   0.954  12.722  0.2575  1.2827  0.9635
    8TMC3    C713986   0.347   1.112  12.591  0.3369  0.7433  0.3639
    8TMC3    C813987   0.445   0.829  12.970  0.7414 -0.0082 -0.1838
    8TMC3    O113988   0.469   1.123  12.569  0.6036 -0.1106 -0.0284
    8TMC3    O213989   0.392   0.801  13.082 -0.5818 -0.0669 -0.3528
    9TMC3    C113990   4.419   1.812  12.944 -0.5471 -0.3983 -0.2811
    9TMC3    C213991   4.527   1.813  12.856  0.4340 -0.5642  0.0629
    9TMC3    C313992   4.624   1.715  12.878  0.8683  0.5185  0.0466
    9TMC3    C413993   4.404   1.716  13.032  0.1805 -0.2822  0.0299
    9TMC3    C513994   4.495   1.622  13.041  0.0357 -0.8811  0.1788
    9TMC3    C613995   4.611   1.613  12.965 -0.1571 -0.0310  0.3723
    9TMC3     C13996   4.328   1.917  12.950  1.3109 -0.3653 -0.8610
    9TMC3     O13997   4.321   1.983  12.851  0.4145  0.4867  0.6199
    9TMC3     H13998   4.543   1.904  12.800 -0.8826 -1.6706 -2.1054
    9TMC3    H113999   4.310   1.699  13.084  0.3525 -0.2864  0.3367
    9TMC3    H214000   4.682   1.532  12.977  0.9569  0.8178 -0.4931
    9TMC3    C714001   4.465   1.499  13.119  0.3159  0.3320 -0.4912
    9TMC3    C814002   0.009   1.712  12.801 -0.1357 -0.3701  0.0360
    9TMC3    O114003   4.407   1.498  13.226 -0.4991 -0.1336 -0.1246
    9TMC3    O214004   0.062   1.819  12.770 -0.2065 -0.0095 -0.0760
   10MPD2     C14005   0.364   1.417  12.584 -0.1975  0.6344  0.1684
   10MPD2    C114006   0.265   1.339  12.632  0.2448  0.3947  0.4787
   10MPD2    C214007   0.165   1.405  12.696 -0.2576 -0.4998 -0.1442
   10MPD2    C314008   0.157   1.539  12.716 -0.8437 -0.1207 -0.4052
   10MPD2    C414009   0.260   1.614  12.670  0.5003  1.0048  0.3765
   10MPD2    C514010   0.361   1.554  12.596 -0.0590 -0.1815  0.8548
   10MPD2     H14011   0.085   1.352  12.746  1.5428 -3.3906 -0.3872
   10MPD2    H114012   0.262   1.720  12.694 -0.4596  0.6186  2.1042
   10MPD2    H214013   0.444   1.379  12.522  0.0808  2.1284 -0.3921
   10MPD2    H314014   0.449   1.603  12.556  0.0246  0.2561  1.5831
   10MPD2     N14015   0.036   1.583  12.770  0.4361  0.5839  0.6195
   10MPD2    H514016   4.700   1.514  12.785  0.2171  0.3256 -1.6739
   10MPD2    N114017   0.253   1.199  12.628 -0.1545 -0.5433  0.9694
   10MPD2    H714018   0.172   1.163  12.678 -0.9757 -1.0952 -0.7587
   11MPD2     C14019   0.840   0.189  14.077 -0.2608  0.4312 -0.3580
   11MPD2    C114020   0.869   0.299  14.151  0.3683  0.2317 -0.0859
   11MPD2    C214021   0.842   0.425  14.099  0.1239  0.2652  0.5998
   11MPD2    C314022   0.792   0.440  13.967  0.3480 -0.1218  1.2778
   11MPD2    C414023   0.747   0.326  13.901 -0.0191 -0.0658  0.7678
   11MPD2    C514024   0.778   0.204  13.959  0.3097  0.8324 -0.0557
   11MPD2     H14025   0.875   0.514  14.152  1.8617 -0.1656  0.2169
   11MPD2    H114026   0.706   0.324  13.801  2.1228 -1.0546 -0.0876
   11MPD2    H214027   0.878   0.091  14.102 -1.2023  0.0057 -0.6066
   11MPD2    H314028   0.742   0.120  13.901 -1.4641 -0.8933  3.5800
   11MPD2     N14029   0.784   0.560  13.899 -0.1088 -0.1287 -0.4943
   11MPD2    H514030   0.755   0.555  13.802 -0.1453 -2.1672 -0.3600
   11MPD2    N114031   0.934   0.285  14.280  0.0649 -0.5961  0.7237
   11MPD2    H714032   0.964   0.373  14.321  0.6455  1.0196 -3.2141
    1MPD1     C14033   3.138   2.308  16.905 -0.1186  0.1612 -0.7594
    1MPD1    C114034   3.191   2.367  16.792  0.5061  0.0362 -0.8731
    1MPD1    C214035   3.298   2.452  16.803  0.4220  0.2904 -0.0259
    1MPD1    C314036   3.345   2.491  16.925 -0.8180  1.4022 -0.0991
    1MPD1    C414037   3.296   2.425  17.033 -0.2276  0.1433 -0.1187
    1MPD1    C514038   3.195   2.337  17.022  0.1299 -0.6040  0.7964
    1MPD1     H14039   3.358   2.474  16.715 -0.0976 -0.1593 -0.4979
    1MPD1    H114040   3.330   2.444  17.134  1.6616 -1.7916 -0.3895
    1MPD1    H214041   3.066   2.227  16.906 -0.0605  0.1097 -0.7497
    1MPD1    H314042   3.161   2.286  17.111 -1.4678  0.0297  0.5496
    1MPD1     N14043   3.455   2.573  16.952 -0.1057  0.7114 -0.0474
    1MPD1    H514044   3.474   2.587  17.051 -0.7274  1.4737 -0.0350
    1MPD1    N114045   3.147   2.334  16.662  1.1121  0.6944  0.3020
    1MPD1    H614046   3.149   2.411  16.595 -1.4606  1.0650  0.6379
    1MPD1    H714047   3.054   2.292  16.664  0.2846  2.3692 -2.6904
    2MPD1     C14048   3.461   3.486  16.610  0.5984  0.5152 -0.3371
    2MPD1    C114049   3.374   3.397  16.663 -0.7124  0.2997  0.0548
    2MPD1    C214050   3.423   3.284  16.723 -0.2389  0.4418 -1.2755
    2MPD1    C314051   3.558   3.259  16.734 -0.3471 -0.2957 -0.0975
    2MPD1    C414052   3.646   3.354  16.686  0.3493 -0.2236  0.8607
    2MPD1    C514053   3.599   3.464  16.615  0.3752 -0.4688 -0.5043
    2MPD1     H14054   3.353   3.217  16.771  0.2031  0.5582 -0.4553
    2MPD1    H114055   3.753   3.339  16.696  0.8442  2.7791  0.3437
    2MPD1    H214056   3.431   3.573  16.552 -1.2376  0.4897  0.5596
    2MPD1    H314057   3.678   3.530  16.580  0.1360 -0.4152 -0.9390
    2MPD1     N14058   3.598   3.132  16.785  0.5040 -0.8558 -0.6936
    2MPD1    H514059   3.513   3.078  16.803  0.9340 -1.0930  0.5615
    2MPD1    N114060   3.235   3.408  16.633 -0.2517  0.7714  0.0150
    2MPD1    H614061   3.185   3.346  16.696  2.1769 -1.7229 -0.5091
    2MPD1    H714062   3.199   3.502  16.644  2.5576  1.7479  0.8359
    3TMC3    C114063   3.721   2.958  16.871  0.1262 -0.2837  0.2347
    3TMC3    C214064   3.805   2.923  16.973  0.6135 -0.3025 -0.0902
    3TMC3    C314065   3.781   2.811  17.040  0.0497 -0.0370  0.3670
    3TMC3    C414066   3.618   2.881  16.834  0.1751 -0.3150 -0.2147
    3TMC3    C514067   3.611   2.755  16.893  0.4415 -0.0661  0.4247
    3TMC3    C614068   3.684   2.723  17.006 -0.4130 -0.4677 -0.1953
    3TMC3     C14069   3.725   3.086  16.804 -0.2740  1.3021  0.0408
    3TMC3     O14070   3.838   3.138  16.781  0.0213 -0.4749 -0.3232
    3TMC3     H14071   3.875   2.999  17.006  2.7403 -2.2892 -0.0530
    3TMC3    H114072   3.561   2.897  16.744  0.1569 -1.0714 -0.3363
    3TMC3    H214073   3.686   2.627  17.057  1.5451 -0.4765 -0.2724
    3TMC3    C714074   3.507   2.655  16.849 -0.0350  0.1004  0.3971
    3TMC3    C814075   3.867   2.768  17.144  0.7246 -0.3689  0.4071
    3TMC3    O114076   3.474   2.658  16.730  0.3291 -0.3121  0.5566
    3TMC3    O214077   3.877   2.647  17.156  0.3851  0.7267  0.1657
    4MPD1     C14078   4.152   2.839  17.556 -0.1433 -1.0415  0.5510
    4MPD1    C114079   4.097   2.967  17.523 -0.2971 -0.0565  0.3625
    4MPD1    C214080   4.022   2.978  17.406  0.0339  0.0684  0.2519
    4MPD1    C314081   3.994   2.862  17.329  0.2145  0.1312  0.6808
    4MPD1    C414082   4.055   2.745  17.364  0.5375  0.3046  0.3074
    4MPD1    C514083   4.134   2.733  17.472  0.0427 -0.0680 -0.5093
    4MPD1     H14084   3.978   3.072  17.375 -0.6177  0.2412  1.6980
    4MPD1    H114085   4.054   2.657  17.301  0.7034 -2.0491  3.5935
    4MPD1    H214086   4.209   2.821  17.647 -0.2204 -2.6349  0.2909
    4MPD1    H314087   4.186   2.640  17.492  1.8426  1.2057  0.7957
    4MPD1     N14088   3.915   2.867  17.218 -0.5510 -0.1676 -0.3702
    4MPD1    H514089   3.884   2.961  17.197 -1.7260  0.0899  2.5281
    4MPD1    N114090   4.149   3.080  17.581 -0.2471  0.2799 -0.2230
    4MPD1    H614091   4.079   3.154  17.571  0.4543  0.7954 -1.3053
    4MPD1    H714092   4.142   3.065  17.681 -3.8406 -1.2541 -0.6989
    1TCq1    O114093   0.425   1.878  11.368 -0.5280  0.0681  1.0142
    1TCq1    C114094   0.306   1.935  11.385 -0.3650 -0.6607  0.7446
    1TCq1    O214095   0.270   2.040  11.340 -0.2316  0.4670 -0.1234
    1TCq1    C214096   0.224   1.830  11.434  0.3276 -0.0408 -1.0309
    1TCq1    C314097   0.271   1.778  11.556  0.1295  0.4894 -0.1376
    1TCq1    C414098   0.181   1.715  11.632  0.1581 -0.1153 -0.2968
    1TCq1    C514099   0.046   1.716  11.614  0.1730 -0.1174  0.3492
    1TCq1    C614100   0.005   1.786  11.506  0.0744 -0.3513 -0.4591
    1TCq1    C714101   0.092   1.854  11.424  0.4081  0.2096  0.9959
    1TCq1    C814102   4.605   1.837  11.491  0.5166 -0.4859  0.4695
    1TCq1    O414103   4.574   1.881  11.380  0.1630  0.0168  0.3882
    1TCq1    C914104   0.214   1.670  11.765  0.7146 -0.0031 -0.0067
    1TCq1    O514105   0.338   1.652  11.790 -0.0860 -0.0081 -0.8093
    1TCq1    O614106   0.120   1.658  11.843  0.2529  0.2510 -0.2024
    1TCq1    H114107   0.418   1.783  11.395 -1.6662 -0.4636 -1.2166
    1TCq1    H214108   0.376   1.775  11.585 -0.0586 -2.5512  0.2420
    1TCq1    H314109   4.709   1.659  11.667 -1.3594  1.1610 -0.4028
    1TCq1    H414110   0.056   1.924  11.350  2.6943 -2.5191 -2.6571
    2MPD1     C14111   4.163   1.998  11.691  0.0339 -0.3490  0.6582
    2MPD1    C114112   4.230   1.942  11.788 -0.5015  0.0041  0.0281
    2MPD1    C214113   4.359   1.894  11.760  0.2330  0.4401  0.3899
    2MPD1    C314114   4.408   1.895  11.635  0.4453  0.1101  0.3028
    2MPD1    C414115   4.330   1.946  11.536  0.6816  0.5956  0.5197
    2MPD1    C514116   4.203   1.982  11.559 -0.1908 -0.9514 -0.8743
    2MPD1     H14117   4.417   1.859  11.845 -1.3502 -1.8683  0.5135
    2MPD1    H114118   4.366   1.954  11.434 -1.1014  1.2743 -0.0522
    2MPD1    H214119   4.068   2.049  11.707  0.1814  0.1695 -0.1052
    2MPD1    H314120   4.155   2.029  11.473  1.7948 -0.7440 -1.8688
    2MPD1     N14121   4.543   1.848  11.618  0.2625  0.2905  0.2296
    2MPD1    H514122   4.596   1.814  11.697  4.1287  0.3810 -2.3170
    2MPD1    N114123   4.204   1.980  11.922  0.1980 -0.0325 -0.5135
    2MPD1    H614124   4.265   1.922  11.980  0.3147 -1.9032 -2.5058
    2MPD1    H714125   4.108   1.983  11.956  1.1283 -0.9527  2.2188
    1TMC1    C114126   1.808   2.988   0.255 -0.4066  0.6799  0.4748
    1TMC1    C214127   1.923   2.910   0.242 -0.3728  0.8101 -0.4225
    1TMC1    C314128   1.971   2.886   0.119  0.0771 -0.7906 -0.1312
    1TMC1    C414129   1.755   3.055   0.150 -0.2711  0.3192 -0.8486
    1TMC1    C514130   1.811   3.031   0.026  0.3367  0.2180 -0.6749
    1TMC1    C614131   1.914   2.947   0.012 -0.2315  0.0462 -0.2840
    1TMC1     C14132   1.767   3.021   0.391  0.5587 -0.2389 -0.0740
    1TMC1     O14133   1.855   2.987   0.472 -0.0954  0.0070 -0.5839
    1TMC1     H14134   1.976   2.860   0.323  0.8223 -2.6243 -3.2880
    1TMC1    H114135   1.658   3.105   0.153  0.5181  1.7344  1.2585
    1TMC1    H214136   1.957   2.934  17.659 -1.2006  2.3971 -1.0277
    1TMC1    C714137   1.781   3.121  17.667  0.2135 -0.3759  0.4676
    1TMC1    C814138   2.080   2.796   0.088 -0.8702  0.2142 -0.6033
    1TMC1    O114139   1.761   3.081  17.553 -0.5388 -0.3340  0.5292
    1TMC1    O214140   2.157   2.823   0.002  0.0747  0.6241 -0.5931
    1TMC1    O314141   1.757   3.251  17.707 -0.5279 -0.3318  0.1600
    1TMC1    H314142   1.784   3.264   0.054  1.1560 -1.6230 -0.1446
    1TMC1    O514143   2.025   2.675   0.100  0.6915 -0.0188 -0.2012
    1TMC1    H514144   1.940   2.670   0.150  0.3526 -0.6178 -0.8369
    2MPD1     C14145   1.419   3.175   0.750  0.2225 -0.1788  0.4724
    2MPD1    C114146   1.381   3.217   0.627  1.0622 -0.1089  0.5801
    2MPD1    C214147   1.466   3.200   0.515  0.2505  0.5241  0.0836
    2MPD1    C314148   1.584   3.130   0.527 -0.1559 -0.2920  0.0726
    2MPD1    C414149   1.612   3.074   0.646 -0.0723  0.1147  0.2038
    2MPD1    C514150   1.541   3.099   0.757 -0.5408 -0.9989  0.0273
    2MPD1     H14151   1.449   3.254   0.422 -0.3582 -2.1431 -1.3530
    2MPD1    H114152   1.691   3.000   0.648  0.4429  0.6514 -0.0305
    2MPD1    H214153   1.348   3.186   0.831  1.8954  1.6979  1.6922
    2MPD1    H314154   1.580   3.064   0.852  0.2495  1.2422  0.5283
    2MPD1     N14155   1.655   3.103   0.408 -0.1796  0.1324 -0.4276
    2MPD1    H514156   1.617   3.134   0.320 -0.7756  3.2050  0.9089
    2MPD1    N114157   1.284   3.313   0.618  0.3286  0.0491 -0.2584
    2MPD1    H614158   1.205   3.309   0.683  0.3789  1.1530 -0.1390
    2MPD1    H714159   1.240   3.308   0.526 -1.8379  1.2726  0.6972
    1MPD1     C14160   1.878   0.577  12.095 -0.6843  0.5906  1.1388
    1MPD1    C114161   1.762   0.642  12.046  0.1018 -0.2773  0.2027
    1MPD1    C214162   1.751   0.778  12.071  0.1140  0.4783  0.6708
    1MPD1    C314163   1.857   0.862  12.114 -0.2832  0.0780 -0.1889
    1MPD1    C414164   1.972   0.799  12.139 -0.1073  0.0759  0.1073
    1MPD1    C514165   1.978   0.658  12.135  0.4452 -0.2482 -0.1216
    1MPD1     H14166   1.659   0.826  12.041 -0.9298 -1.8509  0.1799
    1MPD1    H114167   2.054   0.850  12.188  0.6573 -0.4485 -0.6451
    1MPD1    H214168   1.884   0.469  12.098 -1.1711  0.5339  0.1808
    1MPD1    H314169   2.076   0.617  12.153 -0.5675 -1.6178  2.2497
    1MPD1     N14170   1.821   0.996  12.148  0.6264  0.4472 -0.6542
    1MPD1    H514171   1.723   1.023  12.139  0.9100  1.6849  0.1491
    1MPD1    N114172   1.651   0.567  12.006 -0.3562 -1.1700 -0.8375
    1MPD1    H614173   1.685   0.477  11.973  0.7431 -0.0565 -2.7302
    1MPD1    H714174   1.608   0.613  11.926 -1.6280  0.4175  0.7666
    2MPD1     C14175   0.994   3.093  10.889 -0.5687  0.0489 -0.3338
    2MPD1    C114176   1.048   3.070  10.763  0.0001  0.5889  0.5878
    2MPD1    C214177   1.122   2.954  10.748 -0.4729  0.3924  0.1580
    2MPD1    C314178   1.120   2.858  10.844 -0.6811  0.0952 -0.5622
    2MPD1    C414179   1.056   2.884  10.967 -0.3417  0.4607 -0.2199
    2MPD1    C514180   0.988   2.997  10.989  0.4412  0.3302  0.2544
    2MPD1     H14181   1.175   2.933  10.656  2.4758  0.4549  1.8231
    2MPD1    H114182   1.050   2.811  11.047 -0.3592  0.5680 -0.1230
    2MPD1    H214183   0.954   3.193  10.899 -3.1080 -1.1866  1.7758
    2MPD1    H314184   0.956   3.016  11.091  0.2899 -0.4450  0.3450
    2MPD1     N14185   1.185   2.732  10.818  0.4234  0.5508  0.1424
    2MPD1    H514186   1.221   2.721  10.724 -2.0565 -2.0175 -0.5375
    2MPD1    N114187   1.044   3.173  10.670  0.0364 -0.5039  0.7626
    2MPD1    H614188   1.063   3.145  10.574 -0.4909  0.1041  0.4795
    2MPD1    H714189   0.952   3.216  10.674  0.1862 -0.0975 -0.0356
    3MPD1     C14190   1.303   2.441   9.995  0.6182  0.6069 -0.3310
    3MPD1    C114191   1.315   2.566  10.049  0.5647 -0.1936 -0.4483
    3MPD1    C214192   1.318   2.566  10.191 -0.2942 -0.1914  0.0223
    3MPD1    C314193   1.301   2.449  10.271 -0.4098  0.2999 -0.0834
    3MPD1    C414194   1.272   2.327  10.204 -0.0232 -0.1335  0.3277
    3MPD1    C514195   1.290   2.324  10.070  0.1086 -0.1708 -0.1775
    3MPD1     H14196   1.337   2.659  10.243  1.6741  1.0151 -2.8738
    3MPD1    H114197   1.240   2.237  10.255  1.1027 -0.5977  0.2118
    3MPD1    H214198   1.305   2.430   9.887 -0.8485 -1.5482 -0.1382
    3MPD1    H314199   1.276   2.225  10.028  0.9550 -0.0775 -0.6738
    3MPD1     N14200   1.306   2.456  10.407 -0.0486 -0.1909 -0.8325
    3MPD1    H514201   1.309   2.546  10.453  1.7140 -0.9059  0.4443
    3MPD1    N114202   1.343   2.675   9.970 -0.4157 -0.3544  0.0544
    3MPD1    H614203   1.315   2.660   9.874  1.4001  0.6930 -0.6382
    3MPD1    H714204   1.317   2.765  10.011 -3.7172 -1.7853  1.1200
    4MPD2     C14205   1.474   1.623  11.900 -0.4857  0.3485  0.3528
    4MPD2    C114206   1.607   1.640  11.948 -0.5839  0.5187  0.7551
    4MPD2    C214207   1.675   1.752  11.906  0.3529 -0.1885  0.5727
    4MPD2    C314208   1.627   1.839  11.811 -0.0364 -0.3651 -0.0157
    4MPD2    C414209   1.496   1.823  11.767 -0.0115  0.5358  0.6935
    4MPD2    C514210   1.425   1.721  11.819 -0.1289 -0.2627  0.1197
    4MPD2     H14211   1.774   1.776  11.944  0.2459 -0.1646  0.8372
    4MPD2    H114212   1.444   1.885  11.695  1.6742  3.0816  1.6579
    4MPD2    H214213   1.420   1.530  11.916  1.3721 -0.5706  1.3323
    4MPD2    H314214   1.324   1.701  11.784 -1.0503  0.4345  2.3436
    4MPD2     N14215   1.699   1.942  11.750 -0.5420  0.2171  0.1462
    4MPD2    H514216   1.647   1.989  11.677 -0.5551 -1.1339 -0.7161
    4MPD2    N114217   1.669   1.560  12.044  0.4628 -0.4194  0.5322
    4MPD2    H714218   1.758   1.588  12.084  0.2646  1.3045 -0.2303
    5TMC3    C114219   1.706   1.391  12.205 -0.2042  0.7540  0.4976
    5TMC3    C214220   1.745   1.264  12.173 -0.1719  0.8771  0.8218
    5TMC3    C314221   1.873   1.233  12.195  0.0229 -0.0073  0.3103
    5TMC3    C414222   1.802   1.483  12.247 -0.2106  0.0806 -0.5742
    5TMC3    C514223   1.930   1.451  12.252 -0.1102  0.1788  0.1668
    5TMC3    C614224   1.971   1.319  12.239 -0.5089  0.3464 -0.6883
    5TMC3     C14225   1.620   1.441  12.096 -0.0156 -1.0154  0.0351
    5TMC3     O14226   1.520   1.379  12.058 -0.2375 -0.0391 -0.2015
    5TMC3     H14227   1.684   1.195  12.116  1.3642  1.7842 -1.9137
    5TMC3    H114228   1.765   1.578  12.284  0.6396  0.2257 -0.0898
    5TMC3    H214229   2.075   1.293  12.256 -1.0534 -0.8697  0.6752
    5TMC3    C714230   2.009   1.548  12.174  0.0586 -0.1310  0.4379
    5TMC3    C814231   1.917   1.091  12.178 -0.1791  0.0256 -0.1597
    5TMC3    O114232   1.952   1.656  12.164  0.3680 -0.1151 -0.0139
    5TMC3    O214233   2.038   1.073  12.182 -0.2707 -0.2304  0.0324
    6TMC3    C114234   1.289   2.523  10.822 -1.1158 -0.0652  0.3247
    6TMC3    C214235   1.276   2.496  10.691 -0.2248  0.2672 -0.1721
    6TMC3    C314236   1.346   2.399  10.636  0.5020 -0.1867  0.2409
    6TMC3    C414237   1.363   2.439  10.898  0.3183 -0.0892  0.0158
    6TMC3    C514238   1.435   2.339  10.843  0.2456  0.3805 -0.6571
    6TMC3    C614239   1.428   2.311  10.707 -0.2195  0.4126 -0.2174
    6TMC3     C14240   1.200   2.619  10.892  0.5227 -0.8609  0.0760
    6TMC3     O14241   1.172   2.604  11.006  0.0919 -0.3581  0.3217
    6TMC3     H14242   1.200   2.551  10.637 -0.1458  0.6522  0.1021
    6TMC3    H114243   1.395   2.465  10.998  0.1604  0.7683 -0.1611
    6TMC3    H214244   1.474   2.220  10.670 -1.2711 -0.0345 -0.4296
    6TMC3    C714245   1.541   2.265  10.916 -0.7896  0.4458  0.0228
    6TMC3    C814246   1.325   2.351  10.496 -0.8214  0.1383 -0.2300
    6TMC3    O114247   1.527   2.253  11.039  0.0983 -0.4264 -0.5210
    6TMC3    O214248   1.338   2.231  10.468 -0.1573 -0.6965  0.0296
    7MPD2     C14249   2.252   1.598  11.719 -1.1553 -0.3165 -0.0108
    7MPD2    C114250   2.155   1.678  11.771 -0.1183 -0.3782  0.6066
    7MPD2    C214251   2.097   1.632  11.892  0.2516 -0.3542 -0.0990
    7MPD2    C314252   2.149   1.519  11.960 -1.1568 -0.5469 -0.0537
    7MPD2    C414253   2.236   1.437  11.894 -0.5289  0.3829  0.2535
    7MPD2    C514254   2.296   1.481  11.778  0.2148  0.2976 -0.0496
    7MPD2     H14255   2.014   1.677  11.946 -0.4060 -0.5270 -0.9664
    7MPD2    H114256   2.281   1.357  11.951  0.4983  0.6265 -0.2232
    7MPD2    H214257   2.292   1.608  11.618  2.1605  1.2038  1.4731
    7MPD2    H314258   2.366   1.418  11.724 -0.7433  0.6151 -1.6377
    7MPD2     N14259   2.098   1.476  12.090 -0.1423 -0.6707  0.5822
    7MPD2    H514260   2.135   1.386  12.120 -0.4574 -1.1473 -0.4560
    7MPD2    N114261   2.108   1.794  11.714  0.4301  0.0386 -0.2647
    7MPD2    H714262   2.032   1.843  11.761  2.0059  1.6748  0.5602
    8TMC3    C114263   2.094   1.973  11.565  0.3105 -0.0149 -0.4422
    8TMC3    C214264   2.037   1.977  11.439 -0.0950 -0.9129  0.4722
    8TMC3    C314265   1.913   2.027  11.435  0.1902  0.5508 -0.3018
    8TMC3    C414266   2.030   2.023  11.673 -0.6156 -0.1290  0.4287
    8TMC3    C514267   1.904   2.045  11.669 -0.4302  0.2253 -0.0998
    8TMC3    C614268   1.843   2.052  11.548  0.3325  0.2561 -0.2895
    8TMC3     C14269   2.165   1.853  11.600  0.7201  0.0775 -0.0208
    8TMC3     O14270   2.241   1.811  11.516 -0.6113 -0.0108 -0.2265
    8TMC3     H14271   2.083   1.934  11.350  0.3561 -0.4603  0.4882
    8TMC3    H114272   2.094   2.028  11.760  0.4544 -0.1851 -0.3466
    8TMC3    H214273   1.737   2.067  11.538  0.1430 -0.8812 -0.0375
    8TMC3    C714274   1.834   1.965  11.768  0.6684 -0.0366  0.2419
    8TMC3    C814275   1.861   2.091  11.314 -0.5336  0.1632  0.6529
    8TMC3    O114276   1.914   1.911  11.844  0.2160 -0.5906 -0.3399
    8TMC3    O214277   1.754   2.149  11.315  0.3236  0.0717 -0.7588
    9MPD2     C14278   2.030   2.129  10.991  0.2682 -0.0209 -0.3616
    9MPD2    C114279   1.924   2.140  11.081  0.1909 -0.8367 -0.1430
    9MPD2    C214280   1.800   2.175  11.031  0.4146  0.2612 -0.1986
    9MPD2    C314281   1.785   2.205  10.898  0.2745  0.4066 -0.1720
    9MPD2    C414282   1.897   2.208  10.819  0.0533  0.6465 -0.4277
    9MPD2    C514283   2.013   2.153  10.860 -0.2452 -0.0694  0.4451
    9MPD2     H14284   1.720   2.192  11.102  1.0463  0.1151  0.5481
    9MPD2    H114285   1.894   2.218  10.711 -0.5691  1.2632 -0.3494
    9MPD2    H214286   2.125   2.087  11.022 -0.7500  0.2455  3.1492
    9MPD2    H314287   2.089   2.170  10.785 -1.1798 -1.1045 -0.7227
    9MPD2     N14288   1.661   2.247  10.840 -0.3230 -0.2330 -0.0632
    9MPD2    H514289   1.668   2.280  10.744  1.8192 -2.2685 -0.5919
    9MPD2    N114290   1.950   2.086  11.207 -0.0293 -0.5571 -0.2738
    9MPD2    H714291   2.045   2.055  11.225 -0.2042 -0.4647  0.8324
    1MPD1     C14292   1.844   0.608  16.589  0.4727 -0.6660 -0.9133
    1MPD1    C114293   1.746   0.535  16.525 -0.6948 -0.9275  0.2516
    1MPD1    C214294   1.613   0.586  16.528 -0.1862  0.5508  0.7159
    1MPD1    C314295   1.581   0.693  16.605  0.0673  0.4383  0.5739
    1MPD1    C414296   1.681   0.758  16.675  0.2947 -0.1951 -0.4007
    1MPD1    C514297   1.815   0.723  16.654 -0.0995  0.1037  0.6404
    1MPD1     H14298   1.537   0.532  16.474  0.7460  0.0018 -0.0557
    1MPD1    H114299   1.665   0.846  16.737 -0.0965 -1.6373  1.5447
    1MPD1    H214300   1.951   0.589  16.581  0.4713 -0.1687 -2.1839
    1MPD1    H314301   1.888   0.781  16.709  0.1966  1.0243 -0.7288
    1MPD1     N14302   1.450   0.751  16.623 -0.1374 -0.4836  0.1564
    1MPD1    H514303   1.433   0.819  16.696  1.9483  0.6967 -0.4447
    1MPD1    N114304   1.787   0.432  16.435  0.1507  0.3464  0.0675
    1MPD1    H614305   1.718   0.367  16.398  0.3959  0.0042  0.2168
    1MPD1    H714306   1.868   0.378  16.466  1.2742  1.9742 -0.0104
    2TMC2    C114307   1.016   0.748  16.681  0.2762  0.2486  0.2491
    2TMC2    C214308   1.009   0.878  16.724 -0.0891 -0.0115  0.2817
    2TMC2    C314309   1.129   0.954  16.711 -0.1423  0.1043 -0.3355
    2TMC2    C414310   1.125   0.702  16.609  1.2038 -0.3315  0.1045
    2TMC2    C514311   1.227   0.787  16.580  0.2365  0.6103  0.0265
    2TMC2    C614312   1.239   0.909  16.643  0.2987 -0.4312  1.3891
    2TMC2     C14313   0.910   0.658  16.736 -0.5260 -0.2237 -0.0595
    2TMC2     O14314   0.820   0.706  16.802 -0.3201 -0.0289  0.6524
    2TMC2     H14315   0.919   0.925  16.760 -0.9146 -1.8458  0.6099
    2TMC2    H114316   1.141   0.598  16.584 -1.9443 -1.1934  1.5863
    2TMC2    H214317   1.324   0.972  16.617 -0.8820  0.3431 -0.5670
    2TMC2    C714318   1.345   0.721  16.541 -0.3445  0.3487  0.0023
    2TMC2    C814319   1.129   1.091  16.747 -0.0185 -0.1987  0.2455
    2TMC2    O114320   1.339   0.646  16.442  0.1901  0.3089 -0.0603
    2TMC2    O214321   1.201   1.175  16.693 -0.3582  0.2450  0.2658
    2TMC2    O514322   1.113   1.080  16.880  0.1181  0.2054  0.4288
    2TMC2    H514323   1.051   1.014  16.917  1.5871 -0.9994  0.7578
    3MPD1     C14324   0.686   0.191  16.780  0.4711  0.2178  0.6665
    3MPD1    C114325   0.777   0.186  16.678  0.0841  0.5577  0.0456
    3MPD1    C214326   0.854   0.301  16.643  0.0620 -0.3352 -0.2357
    3MPD1    C314327   0.828   0.422  16.713 -0.7040 -0.1914  0.7018
    3MPD1    C414328   0.734   0.420  16.814  0.4232 -0.3646 -0.3475
    3MPD1    C514329   0.666   0.305  16.845  0.2230 -0.2173  0.4352
    3MPD1     H14330   0.932   0.284  16.570 -0.9739 -1.5501 -1.0743
    3MPD1    H114331   0.698   0.513  16.858  0.6097  0.0311 -1.0395
    3MPD1    H214332   0.626   0.104  16.805 -0.1403  1.1016  2.2459
    3MPD1    H314333   0.592   0.312  16.924 -0.4563 -0.1897 -0.2074
    3MPD1     N14334   0.910   0.533  16.684  0.0830  0.1632 -0.0248
    3MPD1    H514335   0.976   0.514  16.609 -0.3519 -0.5333 -0.2410
    3MPD1    N114336   0.806   0.066  16.615 -0.4524  0.3979  0.1145
    3MPD1    H614337   0.716   0.018  16.623  0.0116 -0.7269 -1.6767
    3MPD1    H714338   0.836   0.075  16.519 -0.0179 -0.1530  0.2007
    1TMC1    C114339   3.401   4.490  13.064  0.9257 -0.0473 -0.3652
    1TMC1    C214340   3.441   4.369  13.101  0.9196  0.2490 -0.4134
    1TMC1    C314341   3.464   4.275  13.011 -0.4528  0.0809 -0.0438
    1TMC1    C414342   3.383   4.518  12.929 -0.3553  0.3391 -0.2031
    1TMC1    C514343   3.409   4.427  12.838  0.5206 -0.0921 -0.4449
    1TMC1    C614344   3.446   4.301  12.877  0.6943 -0.3996 -0.1376
    1TMC1     C14345   3.393   4.599  13.158  0.0531 -0.4198 -0.1992
    1TMC1     O14346   3.335   4.702  13.124 -0.8043 -0.1763  0.2182
    1TMC1     H14347   3.423   4.333  13.202  0.8079  0.2023 -0.4501
    1TMC1    H114348   3.364   4.621  12.898  0.5841  0.6809  0.3616
    1TMC1    H214349   3.453   4.224  12.801  0.5524  0.4526 -1.0056
    1TMC1    C714350   3.355   4.465  12.704  0.2960  0.4543 -0.6384
    1TMC1    C814351   3.423   4.151  13.052  0.3928 -1.1617  0.0931
    1TMC1    O114352   3.250   4.527  12.705 -0.5521 -0.3289 -0.2985
    1TMC1    O214353   3.333   4.107  13.122 -0.0069 -0.0060 -0.3628
    1TMC1    O314354   3.395   4.363  12.622  0.2184  0.6286  0.4769
    1TMC1    H314355   3.484   4.335  12.653  0.0109  0.2353  0.7176
    1TMC1    O514356   3.517   4.075  12.984 -0.2436 -0.2351  0.2459
    1TMC1    H514357   3.591   4.131  12.952 -2.3602  2.1710 -0.4630
    2MPD2     C14358   3.365   4.732  13.418  0.0566 -0.4427 -0.4314
    2MPD2    C114359   3.450   4.632  13.397  0.6064  0.3048 -0.7153
    2MPD2    C214360   3.536   4.589  13.496 -0.2717 -0.5029 -0.0130
    2MPD2    C314361   3.526   4.648  13.624  0.1289  0.0151 -0.1294
    2MPD2    C414362   3.429   0.004  13.648 -0.3402 -0.6703 -0.5446
    2MPD2    C514363   3.357   0.053  13.544 -0.5048 -0.4400 -0.1961
    2MPD2     H14364   3.610   4.511  13.481  0.0688 -0.2925  0.5679
    2MPD2    H114365   3.388   0.035  13.743 -0.8607  0.3168 -1.0913
    2MPD2    H214366   3.303   0.045  13.345  0.6114 -1.4050 -1.5592
    2MPD2    H314367   3.277   0.122  13.570 -0.0646  0.2195 -0.5901
    2MPD2     N14368   3.620   4.612  13.725 -0.0215 -0.2408 -0.1396
    2MPD2    H514369   3.675   4.529  13.704  1.3911  0.6243  0.1213
    2MPD2    N114370   3.453   4.563  13.275 -0.1591 -0.2591 -0.2634
    2MPD2    H714371   3.520   4.487  13.281 -0.7874 -0.7436  0.6777
    3TCq1    O114372   3.920   4.478  14.325 -0.0249 -0.3603  0.3827
    3TCq1    C114373   3.800   4.463  14.265  0.0540 -0.0624  0.0915
    3TCq1    O214374   3.695   4.439  14.320 -0.0151  0.2628  0.1425
    3TCq1    C214375   3.816   4.502  14.121  0.5288 -0.1827  0.7113
    3TCq1    C314376   3.930   4.476  14.056  0.2099 -0.1057  0.3815
    3TCq1    C414377   3.951   4.525  13.930  0.0976  0.3968  0.6803
    3TCq1    C514378   3.850   4.580  13.865  0.3160  0.2245 -0.3805
    3TCq1    C614379   3.727   4.588  13.922 -0.4340 -0.0224  0.8962
    3TCq1    C714380   3.710   4.563  14.057  0.0695  0.3560  0.4276
    3TCq1    C814381   3.629   4.663  13.852 -0.8070  0.3379  0.1253
    3TCq1    O414382   3.561   0.010  13.908  0.4941 -0.7698  0.5505
    3TCq1    C914383   4.081   4.514  13.872  0.3640 -0.1138  0.3925
    3TCq1    O514384   4.166   4.452  13.939  0.5258 -0.3127  0.0445
    3TCq1    O614385   4.088   4.551  13.751  0.4604  0.0406 -0.1681
    3TCq1    H114386   3.990   4.510  14.264 -0.5042  1.4210  0.7674
    3TCq1    H214387   4.013   4.428  14.106 -1.5030 -2.1366  1.2791
    3TCq1    H314388   3.872   4.614  13.764 -0.2508  0.9050 -0.2724
    3TCq1    H414389   3.620   4.593  14.110 -1.3486  0.4175 -2.0166
    1MPD2     C14390   3.817   1.072  15.223 -0.0188 -0.6027  0.4529
    1MPD2    C114391   3.693   1.011  15.193  0.2757  0.6820 -0.6638
    1MPD2    C214392   3.689   0.914  15.092  0.0377 -0.3702  0.0366
    1MPD2    C314393   3.803   0.883  15.017  0.4181 -0.1098 -0.9373
    1MPD2    C414394   3.918   0.946  15.049 -0.7553 -0.0199 -0.6365
    1MPD2    C514395   3.933   1.033  15.151  0.5206  0.3457 -0.0244
    1MPD2     H14396   3.590   0.882  15.062  0.9717 -1.7124 -1.5658
    1MPD2    H114397   4.016   0.922  15.011  0.1574  1.7269  0.5952
    1MPD2    H214398   3.814   1.155  15.293  0.6858 -1.2184  1.2106
    1MPD2    H314399   4.025   1.088  15.165  0.2494  0.6424  0.5674
    1MPD2     N14400   3.793   0.782  14.916 -0.6749  0.0459  0.0018
    1MPD2    H514401   3.874   0.746  14.867  1.0655  1.0050  2.1869
    1MPD2    N114402   3.575   1.053  15.260 -0.4322 -0.0384 -0.2325
    1MPD2    H714403   3.585   1.130  15.326 -0.4680  2.0534 -2.6723
    2TMC3    C114404   3.338   1.060  15.273  0.1858  0.2104  0.1839
    2TMC3    C214405   3.231   0.977  15.267 -1.1452  1.0975 -1.0278
    2TMC3    C314406   3.134   1.015  15.189 -0.2413 -0.6421  0.2062
    2TMC3    C414407   3.346   1.185  15.213 -0.1462  0.5109  0.2373
    2TMC3    C514408   3.242   1.219  15.138  0.5875  0.4156 -0.1310
    2TMC3    C614409   3.136   1.139  15.128  1.0087 -0.1462  0.4656
    2TMC3     C14410   3.455   0.984  15.258  0.8139  0.7181 -0.6477
    2TMC3     O14411   3.431   0.873  15.225 -0.1587 -0.1410 -0.6998
    2TMC3     H14412   3.229   0.880  15.316  0.5480  1.3315 -0.5236
    2TMC3    H114413   3.438   1.241  15.219  1.2589 -1.8975  1.3719
    2TMC3    H214414   3.062   1.168  15.054 -0.5678 -0.2475  2.0235
    2TMC3    C714415   3.239   1.342  15.065 -0.4503  0.2876 -0.6467
    2TMC3    C814416   3.055   0.913  15.127 -0.3889 -0.7958 -0.6382
    2TMC3    O114417   3.133   1.395  15.035 -0.1104  0.0746  0.0266
    2TMC3    O214418   2.943   0.932  15.085 -0.1238  0.5403 -0.1510
    3TCq1    O114419   4.249   1.951  14.550 -0.1504  0.5405 -0.4702
    3TCq1    C114420   4.178   1.849  14.507  0.6697 -0.1129  0.1896
    3TCq1    O214421   4.132   1.845  14.392  0.1825 -0.0804 -0.1885
    3TCq1    C214422   4.100   1.818  14.627  0.3705 -0.7540 -0.2572
    3TCq1    C314423   4.174   1.753  14.721 -0.0879  0.4376 -0.3369
    3TCq1    C414424   4.114   1.658  14.804  0.2591  0.7265  0.2763
    3TCq1    C514425   3.973   1.653  14.812 -0.0723  0.4456 -0.1276
    3TCq1    C614426   3.898   1.716  14.709  0.2194 -0.1174  0.6489
    3TCq1    C714427   3.963   1.799  14.622 -0.3358  0.2267  1.0482
    3TCq1    C814428   3.753   1.700  14.700  0.0699  0.1422 -0.4019
    3TCq1    O414429   3.697   1.777  14.627 -0.3273 -0.4165  0.3376
    3TCq1    C914430   4.191   1.580  14.895  0.2086 -0.0385  0.3626
    3TCq1    O514431   4.315   1.589  14.890 -0.1165 -0.0172  0.1070
    3TCq1    O614432   4.121   1.505  14.965  0.0595 -0.1462 -0.4902
    3TCq1    H114433   4.259   1.949  14.647  2.3487  0.8196 -0.7303
    3TCq1    H214434   4.281   1.764  14.720  0.0627 -0.7999  1.1034
    3TCq1    H314435   3.932   1.599  14.896 -1.2795  0.3168 -0.8020
    3TCq1    H414436   3.918   1.833  14.529  1.7405 -3.3564 -1.2949
    4MPD2     C14437   3.466   1.692  14.763 -0.7640  0.1235 -0.2777
    4MPD2    C114438   3.562   1.601  14.808  0.2036  0.4178 -0.2934
    4MPD2    C214439   3.516   1.514  14.901 -0.4387 -0.5353  0.4668
    4MPD2    C314440   3.383   1.486  14.931 -0.0782  0.4028 -0.4682
    4MPD2    C414441   3.292   1.566  14.876 -0.1137  0.6430 -0.0902
    4MPD2    C514442   3.333   1.668  14.791  0.8002  0.5835  0.6521
    4MPD2     H14443   3.591   1.445  14.939 -0.1244  0.1643  1.1123
    4MPD2    H114444   3.186   1.553  14.896 -0.8166  1.8176 -2.9067
    4MPD2    H214445   3.482   1.770  14.688 -3.2041  1.1445  0.2831
    4MPD2    H314446   3.251   1.721  14.744 -0.7771 -2.0435  0.4052
    4MPD2     N14447   3.364   1.390  15.028  0.0430  0.1691  0.1171
    4MPD2    H514448   3.445   1.333  15.051  0.5133  0.8191  0.0821
    4MPD2    N114449   3.699   1.614  14.786  0.2118 -0.0279  0.2874
    4MPD2    H714450   3.763   1.552  14.834 -0.4639  0.1939  1.4615
    5TMC2    C114451   3.542   0.408  14.858  0.0544 -0.0936 -0.6964
    5TMC2    C214452   3.641   0.345  14.921  0.0042 -0.3829  0.0449
    5TMC2    C314453   3.762   0.397  14.927  0.2871 -0.6268 -0.2900
    5TMC2    C414454   3.578   0.520  14.794  0.5240  0.3671  0.0114
    5TMC2    C514455   3.691   0.581  14.819 -0.6421 -0.3554  0.0894
    5TMC2    C614456   3.793   0.515  14.876  0.1178 -0.7695 -0.1122
    5TMC2     C14457   3.420   0.428  14.931 -0.6125 -0.2660 -0.4204
    5TMC2     O14458   3.435   0.451  15.051 -0.4715 -0.7436 -0.3365
    5TMC2     H14459   3.616   0.244  14.954  0.9522 -0.2694  1.1176
    5TMC2    H114460   3.506   0.586  14.747 -0.0497  0.3642  0.8875
    5TMC2    H214461   3.890   0.561  14.890  0.8492 -1.9438 -1.3112
    5TMC2    C714462   3.676   0.715  14.880 -0.0999  1.1530 -0.0190
    5TMC2    C814463   3.875   0.310  14.957 -0.0727  0.7936 -0.3534
    5TMC2    O114464   3.557   0.744  14.895  0.1779 -0.1848 -0.4723
    5TMC2    O214465   3.982   0.334  14.901  0.0843  0.3844 -0.2026
    5TMC2    O514466   3.855   0.253  15.079 -0.2522  0.1442  0.4770
    5TMC2    H514467   3.775   0.277  15.130  0.3976  2.6467  0.3030
    6MPD2     C14468   2.990   0.685  14.936  0.0260 -0.6209  0.2009
    6MPD2    C114469   3.113   0.710  14.999 -0.1525 -0.8867 -0.0674
    6MPD2    C214470   3.220   0.642  14.962 -0.4394  0.0013  0.2759
    6MPD2    C314471   3.213   0.540  14.872  0.4421  0.1497 -0.2873
    6MPD2    C414472   3.095   0.518  14.803 -0.3463  0.3629 -0.4010
    6MPD2    C514473   2.985   0.593  14.831  0.3570 -0.3526 -0.6011
    6MPD2     H14474   3.309   0.658  15.022 -0.7634  0.8526  0.5126
    6MPD2    H114475   3.085   0.436  14.733  0.5721 -1.0441  1.1280
    6MPD2    H214476   2.899   0.741  14.953  0.3384 -0.0024 -0.1597
    6MPD2    H314477   2.883   0.584  14.794  0.9173  0.4542 -2.3300
    6MPD2     N14478   3.319   0.447  14.843 -0.3819  0.2239  0.2241
    6MPD2    H514479   3.324   0.394  14.757  0.1069  2.4279 -1.1045
    6MPD2    N114480   3.135   0.808  15.099 -0.0836 -0.1662 -0.2477
    6MPD2    H714481   3.226   0.810  15.144 -0.2092  0.1679 -0.0051
  945NH3     N114482   3.200   2.465   9.489 -0.1724  0.3564 -0.1044
  945NH3     H214483   3.278   2.403   9.509  0.3454  0.9854 -0.1601
  945NH3     H314484   3.136   2.401   9.444 -1.1969  2.9112 -2.3107
  945NH3     H414485   3.232   2.522   9.411  3.7615 -0.4970  0.8810
  946SOD     NA14486   3.773   0.605  15.391 -0.2756 -0.0643 -0.2934
  947SOD     NA14487   2.359   1.620  13.219 -0.3055 -0.0411  0.0953
  948SOD     NA14488   3.103   2.616   7.309 -0.6924  0.5137  0.0246
  949SOD     NA14489   1.870   3.725  13.006 -0.1671  0.1285  0.0432
  950SOD     NA14490   1.555   2.259  11.286 -0.1710 -0.1582 -0.2570
  951SOD     NA14491   1.057   3.776   8.534 -0.4037 -0.5208 -0.3778
  952SOD     NA14492   3.007   3.791  16.693  0.1265 -0.1068  0.3975
  953SOD     NA14493   4.220   1.903  16.188  0.2800  0.0852  0.5754
  954SOL     OW14494   4.257   4.324   8.832 -0.1725 -0.4453  0.1960
  954SOL    HW114495   4.207   4.361   8.760  1.8186 -1.4497 -1.7052
  954SOL    HW214496   4.346   4.320   8.795 -0.8426 -3.1344 -1.1137
  955SOL     OW14497   0.881   3.755  11.194  0.1848 -0.6901  0.3729
  955SOL    HW114498   0.967   3.742  11.156 -0.1462 -1.4578 -0.1121
  955SOL    HW214499   0.856   3.830  11.141  3.0413  0.3432  0.5011
  956SOL     OW14500   2.529   3.176  17.561 -0.0230  0.1470  0.0340
  956SOL    HW114501   2.576   3.226  17.627 -0.5836 -0.3791  0.8299
  956SOL    HW214502   2.457   3.142  17.614  1.3603 -0.4111  1.5726
  957SOL     OW14503   3.301   1.104  14.849  0.2235  0.4183 -0.1489
  957SOL    HW114504   3.273   1.161  14.777  2.8116  0.2560 -1.2969
  957SOL    HW214505   3.248   1.033  14.815 -0.3784  1.1957 -0.8196
  958SOL     OW14506   2.362   2.520   7.832 -0.0042  0.1964 -0.5110
  958SOL    HW114507   2.440   2.465   7.834 -0.1185  0.0273 -0.6671
  958SOL    HW214508   2.412   2.600   7.849  0.0543 -0.0792  0.6083
  959SOL     OW14509   2.883   2.351  16.027  0.9315  0.1826 -0.2316
  959SOL    HW114510   2.952   2.319  16.086 -1.2651 -1.4004  1.4468
  959SOL    HW214511   2.904   2.445  16.025  0.4810  0.3191  1.6107
  960SOL     OW14512   1.080   3.499   5.119  0.1055  0.3553 -0.4301
  960SOL    HW114513   0.987   3.474   5.115 -0.2107  1.0744  2.5097
  960SOL    HW214514   1.098   3.448   5.198  0.1219  0.9944 -0.0286
  961SOL     OW14515   4.260   4.102   9.070 -0.2476 -0.0786  0.4089
  961SOL    HW114516   4.244   4.183   9.119  1.7522 -0.4708  1.7194
  961SOL    HW214517   4.218   4.044   9.133 -1.6632 -1.2440 -1.6248
  962SOL     OW14518   4.572   4.321   7.630  0.0033  0.0715 -0.0754
  962SOL    HW114519   4.588   4.238   7.585  1.6758  0.5779 -0.4281
  962SOL    HW214520   4.482   4.308   7.661  0.2922  1.3364  1.3196
  963SOL     OW14521   1.192   0.013   5.437 -0.3509  0.2409 -0.4500
  963SOL    HW114522   1.233   0.078   5.493 -1.6351 -1.1174  2.0723
  963SOL    HW214523   1.119   0.065   5.403  0.4082  2.1609  0.9005
  964SOL     OW14524   4.542   1.661  12.514  0.4751 -0.2728  0.0146
  964SOL    HW114525   4.624   1.640  12.470  0.9218 -1.1165  1.2349
  964SOL    HW214526   4.480   1.645  12.443  0.2348 -1.0788  0.4058
  965SOL     OW14527   3.718   4.660   9.832 -0.5756  0.2656  0.3324
  965SOL    HW114528   3.705   0.015   9.809  0.2519  0.8341  2.1973
  965SOL    HW214529   3.689   4.662   9.923  0.3726 -1.7244  0.6816
  966SOL     OW14530   2.965   2.111   4.868 -0.1763 -0.1538  0.0927
  966SOL    HW114531   2.955   2.108   4.963  0.6163 -1.2322  0.1470
  966SOL    HW214532   2.900   2.047   4.841  0.6237  0.1588 -2.6173
  967SOL     OW14533   1.169   4.335   9.726  0.2979 -0.1605  0.5276
  967SOL    HW114534   1.232   4.306   9.661 -0.8486 -2.4150  0.4434
  967SOL    HW214535   1.112   4.390   9.673 -0.0209  0.5995  1.6495
  968SOL     OW14536   0.979   0.214   5.373  0.0059  0.0163 -0.2282
  968SOL    HW114537   0.997   0.291   5.318 -0.6324 -0.5523 -1.2223
  968SOL    HW214538   0.906   0.237   5.431  2.0619  3.1686  1.1548
  969SOL     OW14539   0.039   1.628  14.947  0.0948  0.1032 -0.2064
  969SOL    HW114540   0.080   1.714  14.933  2.5186 -1.3397 -1.8341
  969SOL    HW214541   4.713   1.655  15.014 -0.1221  2.9546 -1.5314
  970SOL     OW14542   0.651   3.155   8.427 -0.0678  0.1026  0.0063
  970SOL    HW114543   0.705   3.085   8.465  0.7114  0.9659  0.4886
  970SOL    HW214544   0.668   3.232   8.481 -0.7477 -1.1554  2.0060
  971SOL     OW14545   1.758   3.933   3.497  0.4585 -0.1436  0.0084
  971SOL    HW114546   1.750   3.914   3.404  2.3423 -1.0407  0.0183
  971SOL    HW214547   1.674   3.976   3.513  0.4558 -0.0379 -0.3048
  972SOL     OW14548   0.362   2.472   4.270  0.4853  0.2332 -0.0743
  972SOL    HW114549   0.347   2.488   4.176  2.4353  1.6292 -0.1540
  972SOL    HW214550   0.322   2.554   4.298 -0.9741 -0.2350 -0.7907
  973SOL     OW14551   1.136   4.034  13.074 -0.3038 -0.2196  0.4118
  973SOL    HW114552   1.097   4.072  13.153 -3.4678 -2.1973 -0.1683
  973SOL    HW214553   1.142   4.106  13.011 -0.8165 -0.3849  0.1695
  974SOL     OW14554   2.823   1.928   8.131 -0.1627  0.3028 -0.5264
  974SOL    HW114555   2.822   2.015   8.090 -2.7218 -0.3085 -1.7709
  974SOL    HW214556   2.757   1.939   8.200  0.4632 -1.9318  0.4258
  975SOL     OW14557   3.048   2.348   9.194 -0.1557  0.3009 -0.0776
  975SOL    HW114558   3.132   2.386   9.169 -1.3437  2.7086 -0.4426
  975SOL    HW214559   3.049   2.277   9.130 -2.6970 -1.3511  1.6923
  976SOL     OW14560   2.157   1.694   7.279 -0.4697  0.4200 -0.1960
  976SOL    HW114561   2.140   1.733   7.193 -0.0955  0.7440 -0.1284
  976SOL    HW214562   2.236   1.735   7.314 -0.7593  0.8672 -0.0565
  977SOL     OW14563   1.408   3.537   9.361 -0.2319 -0.3934  0.1907
  977SOL    HW114564   1.391   3.621   9.318  1.1026  0.6113  1.6166
  977SOL    HW214565   1.342   3.539   9.431  0.3287 -0.9018  0.7308
  978SOL     OW14566   0.684   0.555   6.364  0.1316 -0.1915 -0.0656
  978SOL    HW114567   0.760   0.540   6.420  1.7230  0.2309 -2.1003
  978SOL    HW214568   0.674   0.650   6.370  1.5145  0.0016 -0.8095
  979SOL     OW14569   2.197   2.602  13.256  0.5379 -0.0390 -0.3294
  979SOL    HW114570   2.136   2.670  13.283 -0.4605 -1.8498  2.0450
  979SOL    HW214571   2.278   2.652  13.272  0.1524  0.9175 -1.3802
  980SOL     OW14572   3.783   2.498  15.728 -0.6001 -0.4082 -0.0461
  980SOL    HW114573   3.823   2.573  15.683 -1.3349 -1.1031 -1.8395
  980SOL    HW214574   3.828   2.434  15.673 -0.5342 -0.8441  0.5170
  981SOL     OW14575   0.068   3.675   4.088 -0.0138  0.6692  0.1357
  981SOL    HW114576   0.000   3.743   4.093  0.1714  0.9260 -0.9233
  981SOL    HW214577   0.046   3.633   4.005  0.6250  0.0950  0.2632
  982SOL     OW14578   4.406   1.885  16.071  0.2232  0.3552 -0.4022
  982SOL    HW114579   4.386   1.930  15.990  1.2651  0.4910 -0.5893
  982SOL    HW214580   4.491   1.842  16.056 -0.4637 -0.7455 -1.1113
  983SOL     OW14581   3.413   0.804   4.396  0.1775  0.4802  0.1640
  983SOL    HW114582   3.484   0.839   4.450  2.1996 -0.7105 -1.7100
  983SOL    HW214583   3.338   0.806   4.456 -0.2536  0.1704 -0.3613
  984SOL     OW14584   2.914   1.787   3.056 -0.1252 -0.1710  0.4160
  984SOL    HW114585   2.954   1.870   3.031  1.1386 -0.2064  2.2951
  984SOL    HW214586   2.821   1.806   3.045  0.5205  2.3348 -0.7684
  985SOL     OW14587   1.346   1.388  14.321 -0.2601 -0.3206  0.1573
  985SOL    HW114588   1.300   1.311  14.354 -0.3501 -0.0026  0.7678
  985SOL    HW214589   1.398   1.417  14.396  1.2405 -0.1150 -0.9526
  986SOL     OW14590   2.094   3.206   5.122 -0.3869 -0.1584 -0.4071
  986SOL    HW114591   2.120   3.132   5.068  1.8586  0.3423 -0.0199
  986SOL    HW214592   2.092   3.276   5.057 -4.4745  1.1676  1.1031
  987SOL     OW14593   4.608   4.699   1.496  0.3371 -0.0013  0.3096
  987SOL    HW114594   4.574   0.051   1.510  1.0739  0.3184  0.1077
  987SOL    HW214595   4.702   4.701   1.516  0.2496  1.2330  0.6229
  988SOL     OW14596   4.709   0.498   5.997 -0.0094  0.6108  0.4783
  988SOL    HW114597   0.000   0.413   6.030 -0.7173  0.8135  1.6227
  988SOL    HW214598   4.702   0.551   6.076  0.2055 -1.1302  1.6678
  989SOL     OW14599   2.604   3.191   7.397 -0.3240  0.0294  0.6545
  989SOL    HW114600   2.611   3.265   7.337  1.7517 -0.7495 -0.0545
  989SOL    HW214601   2.545   3.133   7.349 -2.1533  2.7659 -0.4103
  990SOL     OW14602   0.656   1.418  15.988 -0.1293  0.0669  0.1540
  990SOL    HW114603   0.597   1.491  15.971 -1.1975 -1.3174 -2.0703
  990SOL    HW214604   0.691   1.426  16.077  0.5206 -1.0494  0.0039
  991SOL     OW14605   4.077   3.746   9.383 -0.1262 -0.3748 -1.0538
  991SOL    HW114606   4.074   3.657   9.347  1.5317 -1.0065  0.3861
  991SOL    HW214607   4.094   3.739   9.477  0.8324 -0.8113 -1.2511
  992SOL     OW14608   3.146   2.033   4.503  0.4338  0.3533  0.0894
  992SOL    HW114609   3.225   2.081   4.528 -0.8035  2.2996  0.2612
  992SOL    HW214610   3.186   1.949   4.527 -2.2658 -0.8455  0.3914
  993SOL     OW14611   3.295   1.161   5.909 -0.2206 -0.3318  0.3615
  993SOL    HW114612   3.211   1.197   5.938  0.4994  0.8350  1.0032
  993SOL    HW214613   3.344   1.161   5.991  0.3640  2.8224  0.0131
  994SOL     OW14614   0.160   0.894  13.939  0.0371 -0.3938  0.5993
  994SOL    HW114615   0.091   0.934  13.886 -1.5664 -1.5345  1.8408
  994SOL    HW214616   0.116   0.823  13.984 -0.9497 -1.4991 -2.1112
  995SOL     OW14617   0.935   0.323   9.645  0.0748  0.8918  0.4047
  995SOL    HW114618   0.841   0.336   9.629 -0.0585 -0.1837  0.3499
  995SOL    HW214619   0.934   0.248   9.704  0.0412 -0.3407 -1.1733
  996SOL     OW14620   2.451   2.414   2.720 -0.1103 -0.0981 -0.0784
  996SOL    HW114621   2.364   2.450   2.706 -0.4776 -1.3700 -1.0813
  996SOL    HW214622   2.434   2.398   2.813  4.0123  0.1968  0.7308
  997SOL     OW14623   4.502   1.277  16.876  0.1411 -0.3538  0.0841
  997SOL    HW114624   4.453   1.241  16.950  2.3690  1.4276  2.3984
  997SOL    HW214625   4.541   1.190  16.861  0.7339 -0.2199  0.8554
  998SOL     OW14626   0.726   3.864   4.222  0.4077 -0.1710  0.0885
  998SOL    HW114627   0.816   3.860   4.188 -0.2987  1.1466 -1.9884
  998SOL    HW214628   0.743   3.880   4.315  0.6810  0.2317 -0.0259
  999SOL     OW14629   2.154   0.238   5.208 -0.1166  0.0292  0.0520
  999SOL    HW114630   2.231   0.209   5.159 -1.6680 -1.9059 -1.2489
  999SOL    HW214631   2.137   0.323   5.167 -0.5863  0.8925  2.0599
 1000SOL     OW14632   1.614   2.082   6.857  0.4227  0.6327 -0.0910
 1000SOL    HW114633   1.545   2.107   6.796 -0.7900 -0.2155  0.9253
 1000SOL    HW214634   1.656   2.009   6.811 -1.2367 -0.9758  0.9237
 1001SOL     OW14635   1.967   0.756   4.115  0.5781 -0.2489 -0.6727
 1001SOL    HW114636   2.048   0.787   4.075 -0.2046  1.6311 -0.8169
 1001SOL    HW214637   1.950   0.678   4.063  1.4773 -0.3775 -0.7816
 1002SOL     OW14638   3.058   1.071   7.632  0.0447 -0.0529 -0.4908
 1002SOL    HW114639   3.067   0.978   7.653 -0.3966 -0.0072 -0.0933
 1002SOL    HW214640   3.146   1.101   7.656  0.1083 -0.7952  0.2140
 1003SOL     OW14641   2.954   4.193   5.785 -0.3872  0.5624  0.1302
 1003SOL    HW114642   2.930   4.105   5.754 -2.0252  0.9892  0.1739
 1003SOL    HW214643   3.049   4.184   5.789 -0.4308 -0.2379 -0.5083
 1004SOL     OW14644   3.988   3.334  11.961 -0.3553  0.2483  1.3509
 1004SOL    HW114645   3.966   3.418  12.000  3.0173  1.7105  0.1459
 1004SOL    HW214646   3.917   3.271  11.972 -0.3730  0.2036  0.9840
 1005SOL     OW14647   1.364   1.460   6.458  0.0059  0.0150 -0.3794
 1005SOL    HW114648   1.401   1.377   6.487 -0.5526 -0.5988 -1.3931
 1005SOL    HW214649   1.436   1.500   6.408  0.1974  0.9690  0.6626
 1006SOL     OW14650   0.967   2.120   5.293  0.3326 -0.1319 -0.2211
 1006SOL    HW114651   0.879   2.084   5.286 -0.4369  2.3836 -3.9429
 1006SOL    HW214652   1.009   2.072   5.221  0.1954  0.0011 -0.3915
 1007SOL     OW14653   4.250   0.943   4.817  0.4025  0.2725 -0.1983
 1007SOL    HW114654   4.217   1.030   4.840  0.3580  0.5259 -1.1935
 1007SOL    HW214655   4.339   0.974   4.797 -0.9973  2.3103 -3.4748
 1008SOL     OW14656   0.281   2.134   6.866  0.2444  0.7089 -0.2026
 1008SOL    HW114657   0.304   2.158   6.955  1.3309  2.5006 -0.9612
 1008SOL    HW214658   0.334   2.056   6.851 -0.9275 -0.2356  0.6627
 1009SOL     OW14659   3.690   4.138   9.202 -0.0737 -0.1726 -0.2434
 1009SOL    HW114660   3.639   4.218   9.200  0.3809  0.1283  0.2343
 1009SOL    HW214661   3.621   4.071   9.208 -0.9282  0.6292 -1.1719
 1010SOL     OW14662   2.763   0.061   6.439  0.6273 -1.2340  0.2405
 1010SOL    HW114663   2.723   0.023   6.361 -0.2416  2.1474 -0.9532
 1010SOL    HW214664   2.721   0.006   6.505 -0.0684  1.9331  2.4096
 1011SOL     OW14665   3.910   1.860   7.469 -0.3321  0.2299 -0.3473
 1011SOL    HW114666   3.956   1.924   7.523 -0.7333 -1.1335  1.6148
 1011SOL    HW214667   3.838   1.918   7.444 -0.9112 -0.1934  0.3633
 1012SOL     OW14668   1.308   2.717   5.134  0.1554  0.5454  0.6315
 1012SOL    HW114669   1.252   2.687   5.206  1.7660  0.3382  1.7982
 1012SOL    HW214670   1.387   2.684   5.177 -0.3158  0.3868  1.3797
 1013SOL     OW14671   4.508   3.946   1.467 -0.4966 -0.1897  0.1052
 1013SOL    HW114672   4.568   3.926   1.395 -0.8377  1.0735 -0.5317
 1013SOL    HW214673   4.441   4.002   1.427 -0.1695  0.3423  0.3013
 1014SOL     OW14674   1.763   4.692   9.130 -0.3379 -0.3806 -0.4117
 1014SOL    HW114675   1.836   0.002   9.088 -0.3315  0.3258  0.3842
 1014SOL    HW214676   1.742   4.624   9.067  0.5193 -0.6195 -0.4372
 1015SOL     OW14677   3.723   4.114   6.319  0.8929 -0.0655  0.0248
 1015SOL    HW114678   3.672   4.054   6.374 -0.4997  1.3106  0.2667
 1015SOL    HW214679   3.814   4.087   6.328  0.9937  0.0535 -0.6572
 1016SOL     OW14680   3.810   2.001   7.790 -0.3416 -0.2704 -0.4620
 1016SOL    HW114681   3.817   1.981   7.883  2.0820 -0.4681 -0.6871
 1016SOL    HW214682   3.749   1.932   7.764 -0.4827 -0.1774 -0.3721
 1017SOL     OW14683   2.914   2.969   9.409 -0.0015  0.5749  0.3887
 1017SOL    HW114684   2.886   2.974   9.500  0.4450  0.2530  0.5427
 1017SOL    HW214685   3.009   2.974   9.417  0.1819  1.4314 -2.0711
 1018SOL     OW14686   2.179   3.158   6.242 -0.1771 -0.2791  0.2405
 1018SOL    HW114687   2.167   3.223   6.311 -0.3505 -0.1814  0.1175
 1018SOL    HW214688   2.249   3.203   6.193 -0.8686  0.4585 -0.0664
 1019SOL     OW14689   4.641   1.317  12.517 -0.2172 -0.3712 -0.1303
 1019SOL    HW114690   4.728   1.340  12.483  0.2720 -1.0466  0.6781
 1019SOL    HW214691   4.587   1.341  12.442 -1.9060  0.9076  1.4849
 1020SOL     OW14692   2.723   3.007  14.499 -0.2369 -0.2001 -0.1514
 1020SOL    HW114693   2.669   3.086  14.509  1.6778  1.0104  0.4878
 1020SOL    HW214694   2.795   3.029  14.558 -0.2627 -0.9232  0.1464
 1021SOL     OW14695   4.252   0.789  14.020 -0.4925 -0.0833 -0.1110
 1021SOL    HW114696   4.206   0.873  14.017 -1.0463 -0.3121  1.7977
 1021SOL    HW214697   4.313   0.781  13.947  1.2266 -0.4590  1.3632
 1022SOL     OW14698   3.932   2.311  15.573 -0.1322 -1.4001 -0.1738
 1022SOL    HW114699   3.942   2.217  15.559  1.0548 -1.2075 -0.5862
 1022SOL    HW214700   4.017   2.345  15.546 -1.4336  1.6328 -0.5722
 1023SOL     OW14701   3.798   2.466   1.691 -0.4964 -0.4280  0.0289
 1023SOL    HW114702   3.750   2.529   1.638  0.7110 -0.1717 -0.7675
 1023SOL    HW214703   3.801   2.388   1.634 -0.0706 -0.3345 -0.0783
 1024SOL     OW14704   1.281   0.726   8.515 -0.0027  0.1904 -0.7997
 1024SOL    HW114705   1.355   0.744   8.458 -0.4893  0.9688 -1.1930
 1024SOL    HW214706   1.287   0.630   8.521 -1.6101  0.1297 -0.0380
 1025SOL     OW14707   0.093   3.361  12.332 -0.3666  0.9902 -0.0696
 1025SOL    HW114708   0.012   3.354  12.382 -0.3156 -2.0516 -0.4034
 1025SOL    HW214709   0.098   3.454  12.310 -2.0553  0.8097 -1.2196
 1026SOL     OW14710   2.465   1.762   1.730  0.3476  0.0567 -0.3549
 1026SOL    HW114711   2.449   1.853   1.755 -1.1346 -0.1062 -0.7447
 1026SOL    HW214712   2.557   1.763   1.702  0.8389 -2.1995  1.1515
 1027SOL     OW14713   3.571   0.246   0.824  0.3994  0.1147  0.0895
 1027SOL    HW114714   3.609   0.303   0.757  0.3635 -1.4902 -1.2899
 1027SOL    HW214715   3.652   0.206   0.855  1.3939 -0.0124 -2.6547
 1028SOL     OW14716   2.817   3.692   3.012  0.5726 -0.2440  0.2374
 1028SOL    HW114717   2.798   3.698   2.918  0.5060  0.5178  0.3000
 1028SOL    HW214718   2.823   3.597   3.017 -0.0942 -0.2627  0.7234
 1029SOL     OW14719   4.726   1.533   2.892  1.0974  0.6621 -0.7724
 1029SOL    HW114720   0.052   1.519   2.822 -0.4592  1.9840 -2.4261
 1029SOL    HW214721   4.694   1.622   2.876  0.6861  1.1198  2.5526
 1030SOL     OW14722   3.932   3.501   6.630  0.3616 -0.9857 -0.6542
 1030SOL    HW114723   3.856   3.558   6.615  1.9910  1.9391  2.2201
 1030SOL    HW214724   3.911   3.445   6.555  2.8695 -1.0523 -1.3057
 1031SOL     OW14725   4.369   2.314   4.652 -0.6019 -0.2928  0.1560
 1031SOL    HW114726   4.357   2.379   4.583  0.1461  0.5590  0.8362
 1031SOL    HW214727   4.311   2.340   4.724 -0.5225 -0.8969  0.4389
 1032SOL     OW14728   3.406   3.559   2.953 -0.3262  0.1973 -0.4532
 1032SOL    HW114729   3.417   3.588   3.044  2.2544 -1.9813 -0.0872
 1032SOL    HW214730   3.374   3.639   2.912 -0.2213  0.3434 -0.2514
 1033SOL     OW14731   0.179   3.227   5.490  0.2953  0.1065 -0.2253
 1033SOL    HW114732   0.252   3.238   5.429 -0.5176  2.1030 -0.8119
 1033SOL    HW214733   0.229   3.185   5.560  0.6092  0.7403 -0.0668
 1034SOL     OW14734   2.319   3.726   4.671 -0.1273 -0.7502  0.7062
 1034SOL    HW114735   2.276   3.765   4.595 -0.4226  0.3375  1.4377
 1034SOL    HW214736   2.311   3.799   4.733 -2.4926 -0.2484 -0.1689
 1035SOL     OW14737   3.392   4.058   3.639 -0.3625  0.4009  0.3851
 1035SOL    HW114738   3.404   4.069   3.734  0.0865  0.4070  0.3301
 1035SOL    HW214739   3.475   4.016   3.619  0.0632  2.3335 -1.8684
 1036SOL     OW14740   4.292   4.501  17.300 -0.2437  0.1825 -0.3811
 1036SOL    HW114741   4.351   4.535  17.233  1.8166  1.2261  1.9585
 1036SOL    HW214742   4.250   4.429  17.254 -2.7740  2.4150 -1.5624
 1037SOL     OW14743   2.603   4.289   8.108 -0.0013  0.0814 -0.5213
 1037SOL    HW114744   2.654   4.368   8.128 -1.5985  0.4760  2.0168
 1037SOL    HW214745   2.511   4.313   8.122  0.1312  1.6969 -2.4566
 1038SOL     OW14746   3.149   2.190   8.669  0.2919 -0.3613  0.1427
 1038SOL    HW114747   3.071   2.228   8.710  0.2066 -1.1071  0.6644
 1038SOL    HW214748   3.124   2.110   8.623  1.1815 -0.7151  0.2852
 1039SOL     OW14749   3.634   1.132  11.066 -0.1712 -0.3180 -0.0218
 1039SOL    HW114750   3.655   1.117  10.974 -0.4897  1.9387 -0.4517
 1039SOL    HW214751   3.701   1.076  11.106 -1.1420 -0.0732  1.9623
 1040SOL     OW14752   1.531   3.453   6.614 -0.0200 -0.0469  0.0176
 1040SOL    HW114753   1.464   3.462   6.682 -1.6647 -1.1838 -1.4404
 1040SOL    HW214754   1.607   3.421   6.663 -0.5859  1.2725  1.7365
 1041SOL     OW14755   4.393   0.114  13.709  0.0057  0.4290  0.5806
 1041SOL    HW114756   4.413   0.166  13.631  0.8508 -0.3137  0.2969
 1041SOL    HW214757   4.298   0.112  13.696  0.0068  1.6610  0.4553
 1042SOL     OW14758   2.314   0.519   9.695  0.5253  0.2863  1.1620
 1042SOL    HW114759   2.240   0.459   9.684  1.5222 -0.6701 -0.4396
 1042SOL    HW214760   2.304   0.544   9.786 -1.8446  0.2422  0.9250
 1043SOL     OW14761   1.787   3.889   7.937 -0.5037 -0.3586 -0.1024
 1043SOL    HW114762   1.711   3.936   7.971  0.4524 -0.8735  2.7896
 1043SOL    HW214763   1.805   3.933   7.855  0.8342 -0.7775 -0.0406
 1044SOL     OW14764   3.344   4.199   8.387  0.0198  0.0361 -0.7790
 1044SOL    HW114765   3.311   4.285   8.412  0.3882 -0.2190  0.5886
 1044SOL    HW214766   3.299   4.152   8.457  0.1011  1.1611  0.0474
 1045SOL     OW14767   1.175   0.364   2.901  0.2916  0.3450  0.0649
 1045SOL    HW114768   1.205   0.437   2.846  0.0636 -1.2708 -2.1921
 1045SOL    HW214769   1.250   0.305   2.897 -0.3642 -0.4037 -1.1177
 1046SOL     OW14770   1.598   3.274   8.420 -0.0323  0.2554 -0.3455
 1046SOL    HW114771   1.587   3.182   8.395  2.3436 -0.4044  1.0301
 1046SOL    HW214772   1.670   3.261   8.483 -0.5970 -3.3553 -0.4362
 1047SOL     OW14773   0.419   3.151   3.725  0.1008  0.4951 -0.4001
 1047SOL    HW114774   0.331   3.125   3.754  0.2559 -0.3659 -0.7132
 1047SOL    HW214775   0.423   3.245   3.742 -3.3088  0.3859  1.1791
 1048SOL     OW14776   1.080   2.286   2.278  0.0508  0.5872 -0.8591
 1048SOL    HW114777   1.012   2.218   2.275  0.4692  0.1206  0.2279
 1048SOL    HW214778   1.100   2.302   2.370  0.1921  0.2206 -0.8249
 1049SOL     OW14779   3.183   1.365   4.445  0.0830  0.2596 -0.0332
 1049SOL    HW114780   3.188   1.447   4.396 -0.7040 -0.6124 -1.5934
 1049SOL    HW214781   3.249   1.317   4.395  0.2164  0.4190 -0.0095
 1050SOL     OW14782   3.817   3.813   3.606  0.9695  0.7035  0.7406
 1050SOL    HW114783   3.780   3.738   3.560 -0.7820  1.8260  0.3129
 1050SOL    HW214784   3.818   3.773   3.693  1.5199 -1.8112 -0.4378
 1051SOL     OW14785   4.218   3.053  11.787 -0.3835  0.4601  0.3251
 1051SOL    HW114786   4.256   3.131  11.828 -2.1412  2.2328 -1.3627
 1051SOL    HW214787   4.139   3.083  11.742 -2.4446 -1.1014  2.9251
 1052SOL     OW14788   0.299   1.773   7.526 -0.7494 -0.0301 -0.5006
 1052SOL    HW114789   0.273   1.684   7.553  1.6684 -1.0516 -1.5890
 1052SOL    HW214790   0.266   1.778   7.436 -0.9370 -1.3771 -0.5182
 1053SOL     OW14791   2.363   1.091   5.831 -0.0970 -0.1180  0.1025
 1053SOL    HW114792   2.443   1.040   5.839  0.2545  0.2816 -0.8570
 1053SOL    HW214793   2.302   1.038   5.883 -1.4421  0.5373 -0.7927
 1054SOL     OW14794   1.566   0.899   9.089 -0.1267  0.2688  0.0209
 1054SOL    HW114795   1.482   0.902   9.136 -0.2363 -2.2824 -0.0057
 1054SOL    HW214796   1.578   0.992   9.069  1.1841  0.2194  0.5883
 1055SOL     OW14797   4.053   4.164   7.931  0.1498 -0.1326  0.2711
 1055SOL    HW114798   4.000   4.102   7.980 -0.2253 -0.6303 -0.7475
 1055SOL    HW214799   4.123   4.105   7.902  1.0595  0.9536  0.2696
 1056SOL     OW14800   2.948   0.207   1.781  0.2059  0.4067 -0.2082
 1056SOL    HW114801   2.874   0.174   1.833 -1.4963  0.3602 -2.6480
 1056SOL    HW214802   3.003   0.260   1.837  1.8690 -1.9775  0.4204
 1057SOL     OW14803   4.721   0.463  16.061 -0.2151 -0.0216 -0.0689
 1057SOL    HW114804   0.021   0.530  16.003  0.3741  1.3472  1.9090
 1057SOL    HW214805   0.014   0.490  16.148  1.9453 -1.7959 -0.2632
 1058SOL     OW14806   4.085   4.668   2.920  0.0070 -0.4790  0.1488
 1058SOL    HW114807   4.126   4.582   2.926  1.8144  0.2122 -2.4878
 1058SOL    HW214808   4.091   4.702   3.009 -2.7390 -1.7933  0.8237
 1059SOL     OW14809   1.076   2.442  13.773 -0.0190  0.7613  0.6096
 1059SOL    HW114810   1.017   2.379  13.813  2.3690 -1.5517  0.4914
 1059SOL    HW214811   1.024   2.466  13.696  0.1343  0.1518  0.3176
 1060SOL     OW14812   0.725   1.509  12.253  0.4109  0.0379 -0.4853
 1060SOL    HW114813   0.746   1.560  12.175  1.1972 -0.4825 -0.6162
 1060SOL    HW214814   0.661   1.450  12.212 -0.0061  0.4928 -0.4793
 1061SOL     OW14815   0.049   2.279  10.790  0.0098 -0.6114  0.4094
 1061SOL    HW114816   4.712   2.326  10.751  0.6859 -0.0162 -0.1621
 1061SOL    HW214817   0.060   2.226  10.711  1.2822 -1.9140  1.4811
 1062SOL     OW14818   1.404   4.514   1.984 -0.4018 -0.1249  0.0505
 1062SOL    HW114819   1.380   4.584   1.923 -0.9249  1.0851  1.6489
 1062SOL    HW214820   1.323   4.464   1.994 -0.2972 -0.1780  0.6082
 1063SOL     OW14821   3.618   2.448   2.317 -0.0931  0.6041  0.6346
 1063SOL    HW114822   3.556   2.416   2.252  1.2024 -1.5852  0.4615
 1063SOL    HW214823   3.556   2.461   2.389  2.5622  0.2888  2.9594
 1064SOL     OW14824   4.651   1.777  15.961 -0.2592 -0.2094  0.4481
 1064SOL    HW114825   4.737   1.811  15.936 -0.5434  0.1584 -0.0245
 1064SOL    HW214826   4.634   1.703  15.903  0.0489 -0.9164  1.2662
 1065SOL     OW14827   0.262   2.135   3.462  0.1732  0.3113  0.6835
 1065SOL    HW114828   0.212   2.057   3.488  0.9047  0.0261  1.2205
 1065SOL    HW214829   0.352   2.113   3.483  0.6918  2.7408  1.0596
 1066SOL     OW14830   4.119   2.146   3.468  0.0908 -0.0822 -0.0245
 1066SOL    HW114831   4.062   2.170   3.541 -0.8170  1.2415 -1.1917
 1066SOL    HW214832   4.201   2.193   3.485 -1.1430  2.3613 -0.9552
 1067SOL     OW14833   3.934   0.721   3.234  0.0770 -0.1943 -0.6595
 1067SOL    HW114834   3.969   0.807   3.257 -1.9578  0.4083  0.2773
 1067SOL    HW214835   3.858   0.748   3.183  0.9988 -0.1583 -2.0168
 1068SOL     OW14836   3.034   1.646   6.322 -0.3323  0.1121 -0.2752
 1068SOL    HW114837   3.045   1.598   6.240 -0.5294 -1.6736  0.7490
 1068SOL    HW214838   2.959   1.592   6.349  1.2389 -3.2183 -2.5630
 1069SOL     OW14839   0.616   3.577   2.261  0.0581 -0.5038 -0.2004
 1069SOL    HW114840   0.647   3.592   2.171 -1.2478 -0.4430 -0.6347
 1069SOL    HW214841   0.554   3.647   2.279  0.2462 -0.3330 -0.2131
 1070SOL     OW14842   0.333   0.088   5.395  0.0242  0.0051  0.1379
 1070SOL    HW114843   0.254   0.142   5.383  0.3139  0.4170  0.0913
 1070SOL    HW214844   0.303   0.021   5.334 -0.8150  0.3222  0.1888
 1071SOL     OW14845   2.148   1.736   8.191 -0.1687  0.6293  0.0367
 1071SOL    HW114846   2.189   1.661   8.235 -0.3140 -1.1305 -2.8860
 1071SOL    HW214847   2.097   1.779   8.260  1.9117 -0.8672  2.5163
 1072SOL     OW14848   1.983   4.265  13.915  0.0223 -0.8555  0.5228
 1072SOL    HW114849   1.951   4.176  13.926 -0.8447 -0.6308 -0.1278
 1072SOL    HW214850   1.927   4.300  13.844  0.2977  0.6401  1.0388
 1073SOL     OW14851   2.583   2.764   2.549  0.6727  0.6949 -0.3911
 1073SOL    HW114852   2.641   2.809   2.610 -0.0103  0.1742  0.6381
 1073SOL    HW214853   2.602   2.671   2.553 -0.0644  0.5216 -0.9757
 1074SOL     OW14854   4.159   0.073   7.294 -0.2694 -0.1969 -0.3842
 1074SOL    HW114855   4.167   4.724   7.252 -0.7436  0.3218 -1.5326
 1074SOL    HW214856   4.136   0.047   7.384  2.6149 -0.0869  0.3911
 1075SOL     OW14857   0.892   4.693  16.337 -0.2062  0.3660  0.4905
 1075SOL    HW114858   0.880   0.047  16.310 -0.6143 -0.7141 -2.8970
 1075SOL    HW214859   0.802   4.660  16.331 -0.0227  0.1082 -0.7701
 1076SOL     OW14860   1.535   2.028   5.367 -0.3113  0.3346  0.4964
 1076SOL    HW114861   1.482   2.072   5.301 -1.4869 -0.5875  0.8376
 1076SOL    HW214862   1.572   1.964   5.307  2.1802  0.3045  2.0668
 1077SOL     OW14863   3.290   3.502   4.103 -0.1870 -0.0278  0.3220
 1077SOL    HW114864   3.256   3.450   4.176 -0.6851 -1.0816 -0.6571
 1077SOL    HW214865   3.217   3.507   4.041  1.0915  0.3095 -1.1734
 1078SOL     OW14866   0.558   4.125  15.848 -0.3493  0.2588  0.2211
 1078SOL    HW114867   0.528   4.035  15.851  1.3757 -0.4061 -1.7326
 1078SOL    HW214868   0.582   4.136  15.755  0.9359  0.7209  0.5979
 1079SOL     OW14869   1.681   3.917   1.746  0.2772 -0.5199  0.1288
 1079SOL    HW114870   1.600   3.940   1.793  0.6118 -2.2550  1.5519
 1079SOL    HW214871   1.732   3.876   1.816  1.4124 -1.0293 -1.0170
 1080SOL     OW14872   2.603   3.410  13.507 -0.7592  0.4041 -0.1293
 1080SOL    HW114873   2.611   3.500  13.474 -0.4812  1.1569  2.0316
 1080SOL    HW214874   2.692   3.396  13.539 -0.1917  1.9359 -1.0528
 1081SOL     OW14875   3.682   4.703   3.575 -0.2562  0.4492  0.3499
 1081SOL    HW114876   3.699   0.060   3.589 -5.3277  1.3532  0.4561
 1081SOL    HW214877   3.596   4.699   3.533  0.2934  0.0365 -0.7089
 1082SOL     OW14878   4.644   4.188   0.742  0.2108 -0.6849 -0.4256
 1082SOL    HW114879   4.686   4.255   0.796  2.9255 -1.8244 -1.0973
 1082SOL    HW214880   4.720   4.143   0.705  2.6253  2.8157  0.2200
 1083SOL     OW14881   2.245   4.356  13.997 -0.0024 -0.5151  0.0660
 1083SOL    HW114882   2.203   4.314  13.922 -1.3120 -2.4090  1.8569
 1083SOL    HW214883   2.175   4.413  14.029  0.4850 -0.8019  1.6358
 1084SOL     OW14884   2.178   4.199   0.832 -0.4624  0.3158  0.2013
 1084SOL    HW114885   2.244   4.183   0.764  0.5988  0.5787  1.1791
 1084SOL    HW214886   2.105   4.150   0.792 -1.2092 -0.5129  2.5787
 1085SOL     OW14887   3.484   4.364   9.257  0.2823 -0.3327 -0.0339
 1085SOL    HW114888   3.409   4.305   9.263  0.1661  0.0289  2.0429
 1085SOL    HW214889   3.473   4.407   9.342  1.9395  3.0854 -1.5191
 1086SOL     OW14890   0.657   4.294   5.751 -0.0272  0.8614  0.3489
 1086SOL    HW114891   0.683   4.266   5.839 -0.4224 -0.5684  0.0159
 1086SOL    HW214892   0.670   4.213   5.702 -1.4002  0.7039  0.2487
 1087SOL     OW14893   2.966   4.621  10.124  0.2714 -0.2520 -0.6626
 1087SOL    HW114894   2.983   4.555  10.191  0.1950  2.0893  1.6799
 1087SOL    HW214895   2.921   4.577  10.052  0.3745  1.0207 -1.4955
 1088SOL     OW14896   1.019   0.823   8.476  0.0167  0.2701 -0.4358
 1088SOL    HW114897   1.107   0.786   8.480  0.2109  0.8148  0.2172
 1088SOL    HW214898   0.995   0.822   8.568  0.5177 -0.0031 -0.3124
 1089SOL     OW14899   1.264   4.495   5.157  0.4744  0.3933  0.2780
 1089SOL    HW114900   1.241   4.403   5.154 -1.5219  0.9166 -0.2617
 1089SOL    HW214901   1.178   4.534   5.169  0.3294  0.4458 -0.9533
 1090SOL     OW14902   4.173   3.734   3.273  0.0381  0.3270  0.1011
 1090SOL    HW114903   4.253   3.687   3.293 -0.5669  0.4161  2.7526
 1090SOL    HW214904   4.140   3.754   3.361  1.1786 -0.5853  0.7370
 1091SOL     OW14905   2.024   3.712  13.526 -0.1142  0.2844  0.2736
 1091SOL    HW114906   2.020   3.630  13.574  0.5888 -0.0543 -0.2375
 1091SOL    HW214907   2.088   3.766  13.572 -2.1517  1.5446  1.6095
 1092SOL     OW14908   3.302   3.744   9.586 -0.3480  0.7337  0.7377
 1092SOL    HW114909   3.393   3.774   9.584  0.4052 -1.7349 -1.1488
 1092SOL    HW214910   3.313   3.654   9.556  0.1875  0.3822  1.9605
 1093SOL     OW14911   0.129   2.351   4.135  0.0218 -0.2211 -0.2518
 1093SOL    HW114912   0.077   2.277   4.165 -1.2102  0.3781 -0.9127
 1093SOL    HW214913   0.198   2.341   4.200 -0.3603  1.5637  0.4243
 1094SOL     OW14914   3.254   0.398   6.211 -0.1548  0.0579  0.0954
 1094SOL    HW114915   3.240   0.408   6.116 -0.6301 -2.1269 -0.0551
 1094SOL    HW214916   3.340   0.356   6.213 -0.6298 -0.8715  0.7711
 1095SOL     OW14917   3.229   2.048  16.700  0.4094 -0.2236 -0.8784
 1095SOL    HW114918   3.229   2.142  16.720  1.6713 -0.9357  2.4166
 1095SOL    HW214919   3.200   2.066  16.610 -0.0565  0.8147 -0.5242
 1096SOL     OW14920   0.803   3.208  10.033 -0.3042  0.1514  0.1356
 1096SOL    HW114921   0.826   3.143  10.099  0.1070  0.7248  0.5537
 1096SOL    HW214922   0.865   3.274  10.063 -1.4129  0.7345  1.1426
 1097SOL     OW14923   3.588   3.800   8.097 -0.0840  0.0104 -0.0324
 1097SOL    HW114924   3.512   3.852   8.124 -0.1029  0.1808 -0.4086
 1097SOL    HW214925   3.601   3.761   8.183  1.2235  1.3379  0.3548
 1098SOL     OW14926   0.156   0.761   9.103  0.3695 -0.2822  0.7088
 1098SOL    HW114927   0.201   0.844   9.089  1.5610 -1.4535 -2.4355
 1098SOL    HW214928   0.194   0.719   9.180  1.4971  0.9365  0.8019
 1099SOL     OW14929   1.396   4.269   5.807  0.4846  0.7522  0.1329
 1099SOL    HW114930   1.315   4.304   5.843  1.9139  2.2495  1.8677
 1099SOL    HW214931   1.383   4.265   5.712 -2.0106 -1.5184  0.5871
 1100SOL     OW14932   0.282   4.504   2.675 -0.7810  0.0383  0.4111
 1100SOL    HW114933   0.269   4.590   2.715 -0.0597  0.3147  0.0387
 1100SOL    HW214934   0.279   4.456   2.758  0.7887  0.0031  0.4494
 1101SOL     OW14935   3.993   1.088   9.017 -0.4164 -0.5217  0.0043
 1101SOL    HW114936   4.077   1.042   9.014 -1.6833 -2.8605  0.2033
 1101SOL    HW214937   3.934   1.022   8.981 -1.5945  1.0634 -0.9470
 1102SOL     OW14938   2.246   3.469  12.579 -0.1189 -0.0608 -0.4883
 1102SOL    HW114939   2.191   3.454  12.656 -0.6228 -0.6269 -0.9685
 1102SOL    HW214940   2.233   3.389  12.529 -2.0565  0.5094 -0.9210
 1103SOL     OW14941   3.404   2.632   6.915 -0.3306  0.1696  0.4710
 1103SOL    HW114942   3.363   2.718   6.907 -1.1709 -0.3731 -0.9673
 1103SOL    HW214943   3.446   2.645   7.000  3.1419 -2.4789 -0.7945
 1104SOL     OW14944   1.523   0.701   5.148 -0.7208  0.0264 -0.0932
 1104SOL    HW114945   1.548   0.644   5.221 -1.2301 -0.7367 -0.5185
 1104SOL    HW214946   1.575   0.669   5.074  1.7441  0.7380  1.3057
 1105SOL     OW14947   4.290   3.715   6.762 -0.2781  0.3947  0.2087
 1105SOL    HW114948   4.308   3.622   6.775  2.5519  0.9316  0.0634
 1105SOL    HW214949   4.198   3.717   6.788 -0.3281 -0.0702  0.0739
 1106SOL     OW14950   2.270   0.801   8.477  0.2092  0.2770  0.2925
 1106SOL    HW114951   2.190   0.749   8.470 -0.6569  1.6013  0.2511
 1106SOL    HW214952   2.249   0.864   8.546  1.9232 -0.0610  1.1233
 1107SOL     OW14953   1.146   2.719   8.146 -0.4921  0.3906 -0.3615
 1107SOL    HW114954   1.090   2.654   8.105  0.0579 -0.4682  0.2347
 1107SOL    HW214955   1.147   2.782   8.075 -0.9909 -0.2519 -0.9328
 1108SOL     OW14956   1.259   3.467  10.151  0.3094  0.0014 -0.5220
 1108SOL    HW114957   1.309   3.523  10.210 -0.8313 -0.6211  1.0415
 1108SOL    HW214958   1.315   3.392  10.131 -0.8002 -0.9479 -0.1510
 1109SOL     OW14959   4.541   4.447   3.609  0.6102 -0.1087  0.2701
 1109SOL    HW114960   4.560   4.406   3.524  0.0294 -2.4840  1.2690
 1109SOL    HW214961   4.481   4.515   3.580 -0.2115 -0.2602  1.6662
 1110SOL     OW14962   2.050   4.052   3.301  0.0147 -0.4387 -0.2625
 1110SOL    HW114963   1.956   4.064   3.290  0.0315  0.5797  0.6686
 1110SOL    HW214964   2.059   4.074   3.394  0.3605 -1.3767 -0.0641
 1111SOL     OW14965   3.216   3.412   7.228  0.2517 -0.1215  0.0054
 1111SOL    HW114966   3.284   3.359   7.269  1.7023  2.3726  0.7969
 1111SOL    HW214967   3.257   3.498   7.220 -0.1440  0.1661  1.0949
 1112SOL     OW14968   4.686   1.869  16.787  0.0891 -0.9911  0.7230
 1112SOL    HW114969   0.013   1.928  16.826 -0.0038 -1.1716  1.1443
 1112SOL    HW214970   0.006   1.794  16.768  4.4619  2.1121  1.7394
 1113SOL     OW14971   3.025   3.529   2.594 -0.0468  0.3238  0.1654
 1113SOL    HW114972   2.978   3.446   2.603 -1.6782  1.1775 -0.4681
 1113SOL    HW214973   3.110   3.515   2.635  0.4184 -1.8932 -1.5809
 1114SOL     OW14974   2.793   0.335   8.503  0.1174 -0.0841 -0.2956
 1114SOL    HW114975   2.826   0.369   8.586  0.8801 -1.2139 -0.1429
 1114SOL    HW214976   2.823   0.398   8.438 -0.3599 -1.2092 -1.6012
 1115SOL     OW14977   2.635   4.044   9.107 -0.1946  0.1295 -0.0105
 1115SOL    HW114978   2.652   3.959   9.066 -2.8595  0.1668 -1.1647
 1115SOL    HW214979   2.586   4.090   9.039  1.0034  1.1645 -0.1748
 1116SOL     OW14980   3.215   2.049   6.279 -0.1857  0.0648  0.1111
 1116SOL    HW114981   3.144   1.990   6.255 -0.8233  0.9071 -0.0736
 1116SOL    HW214982   3.176   2.069   6.364 -0.0116  0.7697  0.0254
 1117SOL     OW14983   2.375   1.780   9.335  0.1011 -0.3360  0.2150
 1117SOL    HW114984   2.417   1.810   9.254 -0.6020  1.4984  0.5086
 1117SOL    HW214985   2.287   1.810   9.312  1.3157  3.5925  0.6784
 1118SOL     OW14986   2.024   3.533   8.492  0.1080  0.3114  0.0693
 1118SOL    HW114987   2.039   3.438   8.487  0.8290  0.4299 -0.0512
 1118SOL    HW214988   1.941   3.531   8.539  0.1729  0.1149  0.1744
 1119SOL     OW14989   1.580   1.096   4.872  0.2454  0.4375  0.0216
 1119SOL    HW114990   1.576   1.115   4.778 -0.3051 -0.2059 -0.0819
 1119SOL    HW214991   1.673   1.111   4.889  0.8650 -1.4725 -1.5446
 1120SOL     OW14992   2.747   3.696   1.044 -0.1779 -0.0671  0.1856
 1120SOL    HW114993   2.677   3.633   1.023 -0.6470  0.0729  1.3542
 1120SOL    HW214994   2.788   3.721   0.961  0.4354 -0.7277  0.2803
 1121SOL     OW14995   2.340   4.393   3.892 -0.2674  0.2441  0.0979
 1121SOL    HW114996   2.430   4.394   3.923 -0.4760 -1.5012  0.7471
 1121SOL    HW214997   2.332   4.358   3.803 -2.3481  3.6502 -1.0568
 1122SOL     OW14998   3.092   3.281   5.164 -0.4960 -0.3183  0.1243
 1122SOL    HW114999   3.122   3.284   5.074  0.2093 -2.6281  0.2846
 1122SOL    HW215000   3.035   3.358   5.173 -0.3207 -0.3738  1.8292
 1123SOL     OW15001   3.149   3.126   7.264  0.1329 -0.5466 -0.3453
 1123SOL    HW115002   3.071   3.090   7.307  0.6200  0.2300  1.1674
 1123SOL    HW215003   3.216   3.129   7.333  0.2273  1.8544 -0.5474
 1124SOL     OW15004   2.016   3.852   1.193  0.3666  0.4989  0.5108
 1124SOL    HW115005   2.013   3.930   1.250 -1.3312  0.0685  1.0088
 1124SOL    HW215006   2.000   3.884   1.104  1.4095  3.0255  1.2256
 1125SOL     OW15007   3.695   0.694  10.881  0.0087 -0.5090 -0.6815
 1125SOL    HW115008   3.631   0.624  10.876  1.1918 -1.8673  2.8112
 1125SOL    HW215009   3.666   0.742  10.959 -3.2198 -2.4917 -0.6677
 1126SOL     OW15010   4.539   3.614   5.227  0.4532  0.1195 -0.2233
 1126SOL    HW115011   4.493   3.556   5.288  0.0988 -0.8952 -1.4490
 1126SOL    HW215012   4.465   3.664   5.193  0.7833  1.0060  0.3842
 1127SOL     OW15013   1.565   2.507   8.347 -0.0737 -0.5679  0.2706
 1127SOL    HW115014   1.614   2.536   8.270 -2.0079  1.6039 -0.1451
 1127SOL    HW215015   1.617   2.534   8.423 -1.0375  2.7044 -0.2012
 1128SOL     OW15016   4.370   1.629   2.905  0.5721 -0.0544  0.0080
 1128SOL    HW115017   4.281   1.657   2.924  0.2523 -0.5238 -0.8145
 1128SOL    HW215018   4.389   1.565   2.975  1.0087  0.2745  0.1887
 1129SOL     OW15019   4.689   2.968   1.982 -0.2095  0.1091 -0.3938
 1129SOL    HW115020   0.039   2.969   2.022 -1.5210  0.9440  2.4796
 1129SOL    HW215021   4.645   2.937   2.061 -0.0980  0.6327 -0.1243
 1130SOL     OW15022   1.632   0.714   6.778 -0.4651 -0.2417  0.1614
 1130SOL    HW115023   1.623   0.702   6.873  1.5355  2.4933  0.6972
 1130SOL    HW215024   1.599   0.804   6.766  1.3546  0.2324 -1.2714
 1131SOL     OW15025   0.997   1.130   4.831  0.0131  0.3806 -0.1352
 1131SOL    HW115026   1.023   1.128   4.923  0.8755 -1.9092 -0.4340
 1131SOL    HW215027   1.080   1.100   4.795  0.7336  2.0717  0.1465
 1132SOL     OW15028   4.040   2.259   9.894  0.2130  0.6274 -0.5132
 1132SOL    HW115029   4.071   2.188   9.951  0.6258  1.9691  0.9460
 1132SOL    HW215030   4.090   2.252   9.813 -0.4375 -0.8447 -0.7899
 1133SOL     OW15031   0.460   1.316   7.972  0.1535  0.2874  0.4004
 1133SOL    HW115032   0.447   1.222   7.960 -0.7056  0.5312 -0.5232
 1133SOL    HW215033   0.448   1.344   8.063 -0.6889  4.0814 -0.8552
 1134SOL     OW15034   3.770   1.135   1.576 -0.5995 -0.2850 -0.4939
 1134SOL    HW115035   3.712   1.061   1.556  2.0433 -3.0081  1.9914
 1134SOL    HW215036   3.826   1.154   1.501  0.4017  1.0775  0.6119
 1135SOL     OW15037   3.960   0.400  11.396 -1.0769  0.4557  0.2784
 1135SOL    HW115038   3.917   0.318  11.421 -0.1899  0.7268  2.7548
 1135SOL    HW215039   3.988   0.388  11.306  1.3939 -0.6218  1.2071
 1136SOL     OW15040   4.600   0.524   3.611  0.3140  0.4769 -0.0533
 1136SOL    HW115041   4.605   0.438   3.653 -3.7814  0.9203  1.2965
 1136SOL    HW215042   4.564   0.577   3.682  0.4517 -0.4627  0.7291
 1137SOL     OW15043   2.515   1.867   4.955 -0.0968  0.6326  0.1673
 1137SOL    HW115044   2.446   1.858   5.021  0.1166  0.1871  0.3256
 1137SOL    HW215045   2.522   1.776   4.929 -0.3008 -0.1785  2.9275
 1138SOL     OW15046   3.540   2.831  15.328  0.5470  0.4845 -0.0496
 1138SOL    HW115047   3.562   2.859  15.238 -1.4705 -0.9343 -0.9844
 1138SOL    HW215048   3.522   2.742  15.299 -2.1678  1.6351 -1.9865
 1139SOL     OW15049   4.641   0.839  16.584  0.2710 -0.5555 -0.0451
 1139SOL    HW115050   4.638   0.886  16.501  0.5885 -0.2766  0.1014
 1139SOL    HW215051   4.562   0.879  16.621  0.6759 -0.6714  0.9407
 1140SOL     OW15052   3.828   2.736  14.227  0.3440 -0.8144  0.3471
 1140SOL    HW115053   3.843   2.655  14.277  1.9574  0.2827  1.6452
 1140SOL    HW215054   3.768   2.787  14.280 -0.4402  2.1403 -3.4193
 1141SOL     OW15055   1.792   1.369   1.443  0.5495 -0.4501 -0.0506
 1141SOL    HW115056   1.779   1.456   1.405  0.1144 -1.3340 -1.8978
 1141SOL    HW215057   1.817   1.389   1.534  2.7454 -0.0110 -0.7691
 1142SOL     OW15058   2.260   2.620   2.644 -0.4256 -0.1592 -0.0085
 1142SOL    HW115059   2.285   2.556   2.578 -0.9706 -2.5103  2.0824
 1142SOL    HW215060   2.170   2.627   2.614 -0.4125 -0.6985 -0.1757
 1143SOL     OW15061   2.828   3.296   8.675  0.0957 -0.0229 -0.0852
 1143SOL    HW115062   2.826   3.205   8.703  1.1406 -0.5113 -1.6003
 1143SOL    HW215063   2.737   3.326   8.677  0.5449  1.1031  2.4967
 1144SOL     OW15064   3.587   2.407  12.742 -0.3234  0.0929  0.1872
 1144SOL    HW115065   3.524   2.480  12.745 -0.6977 -0.1369 -1.9257
 1144SOL    HW215066   3.633   2.432  12.822  0.6113 -1.9282  0.2757
 1145SOL     OW15067   1.033   3.655   0.041  0.0606 -0.2115 -0.2359
 1145SOL    HW115068   1.111   3.634  17.735 -0.3770  0.0630 -1.0041
 1145SOL    HW215069   1.021   3.750   0.038 -0.0826 -0.1821  1.1893
 1146SOL     OW15070   2.499   1.954  13.495  0.0849 -0.0557 -0.7090
 1146SOL    HW115071   2.528   1.899  13.567 -2.5995  1.9464  1.9288
 1146SOL    HW215072   2.484   2.042  13.530 -2.3313 -0.0579 -1.7176
 1147SOL     OW15073   4.662   2.462   5.824 -0.7809 -0.4459  0.7080
 1147SOL    HW115074   4.724   2.429   5.759 -0.0854 -0.1200  1.2164
 1147SOL    HW215075   4.687   2.417   5.905  0.5565 -1.2830 -0.1752
 1148SOL     OW15076   2.225   2.845   9.770 -0.0211 -0.4811  0.3127
 1148SOL    HW115077   2.152   2.805   9.818 -1.4325  0.7209 -0.8303
 1148SOL    HW215078   2.297   2.825   9.830 -0.5294 -0.2406  0.9947
 1149SOL     OW15079   4.330   2.301   3.861 -0.0934  0.1400 -0.4379
 1149SOL    HW115080   4.354   2.216   3.822 -2.7859 -1.7594  2.0813
 1149SOL    HW215081   4.261   2.273   3.921  0.5031  1.1855  0.7395
 1150SOL     OW15082   1.781   1.870   2.609 -0.2744  0.0946 -0.1619
 1150SOL    HW115083   1.759   1.944   2.666 -1.0017  0.0463 -0.3845
 1150SOL    HW215084   1.695   1.828   2.611  0.1743 -0.7854  0.3870
 1151SOL     OW15085   1.584   0.414   9.458  0.4940  0.2762 -0.4947
 1151SOL    HW115086   1.568   0.417   9.364 -2.1125 -2.1560 -0.1139
 1151SOL    HW215087   1.533   0.339   9.486  0.7591 -0.3802 -1.7764
 1152SOL     OW15088   2.234   4.576   8.588 -0.4708  0.0606  0.0700
 1152SOL    HW115089   2.323   4.608   8.603 -0.9338  1.0465  0.7096
 1152SOL    HW215090   2.248   4.494   8.541 -0.8811 -0.8091  1.4954
 1153SOL     OW15091   4.253   4.056   6.403  0.0240 -0.0680 -0.0752
 1153SOL    HW115092   4.215   4.091   6.484 -1.8378 -0.5580 -0.7381
 1153SOL    HW215093   4.296   3.974   6.426  0.2256 -0.1812 -0.8719
 1154SOL     OW15094   3.277   4.220  11.175 -0.3640 -0.0276  0.2996
 1154SOL    HW115095   3.190   4.188  11.199 -0.2762 -1.6478 -1.5077
 1154SOL    HW215096   3.266   4.313  11.191  1.3491  0.4286 -1.2938
 1155SOL     OW15097   3.526   0.745   8.829 -0.1483 -0.5530 -0.1408
 1155SOL    HW115098   3.538   0.668   8.774  0.0121 -2.0856  2.0455
 1155SOL    HW215099   3.514   0.813   8.762  0.2016 -1.4642 -1.1265
 1156SOL     OW15100   4.697   4.646   6.439  0.2468  0.0625 -0.1565
 1156SOL    HW115101   4.611   4.646   6.396 -0.3198 -2.5727  0.9819
 1156SOL    HW215102   4.670   4.643   6.531 -1.3231  1.0106 -0.5758
 1157SOL     OW15103   4.059   4.316  15.262 -0.1570 -0.4996 -0.1707
 1157SOL    HW115104   4.061   4.316  15.166 -5.3100 -1.4596 -0.2974
 1157SOL    HW215105   4.125   4.253  15.289  0.0076 -1.0374 -1.8347
 1158SOL     OW15106   0.279   3.929   6.803  0.5641  0.0046 -0.3006
 1158SOL    HW115107   0.286   3.929   6.708  1.9794 -1.7622 -0.1919
 1158SOL    HW215108   0.293   3.836   6.821  1.5281  0.6268  2.1331
 1159SOL     OW15109   3.699   1.422   1.703 -0.7926 -0.6899 -0.4555
 1159SOL    HW115110   3.706   1.359   1.631 -1.1668 -1.6435  0.3391
 1159SOL    HW215111   3.772   1.481   1.686 -1.3060  0.3995  1.1247
 1160SOL     OW15112   3.199   1.833   9.613  0.1574 -0.0619 -0.3432
 1160SOL    HW115113   3.107   1.861   9.616  0.1520 -0.2293  0.8589
 1160SOL    HW215114   3.229   1.867   9.528  0.5783  0.3889 -0.0155
 1161SOL     OW15115   4.232   3.943  13.483 -0.0410 -0.7080 -0.1987
 1161SOL    HW115116   4.253   3.874  13.420 -0.0521 -1.1866  0.3247
 1161SOL    HW215117   4.295   4.009  13.455  1.1194 -1.0987  1.5077
 1162SOL     OW15118   3.419   0.954   4.173 -0.2133  0.0643 -0.0749
 1162SOL    HW115119   3.402   0.890   4.243 -1.0607 -0.3066 -0.6143
 1162SOL    HW215120   3.472   0.906   4.110  4.0551  2.8441  1.4094
 1163SOL     OW15121   4.507   2.757   2.501  0.3834 -0.2795 -0.4308
 1163SOL    HW115122   4.420   2.739   2.465 -0.1857 -0.9701  1.3177
 1163SOL    HW215123   4.481   2.797   2.584 -1.8128 -1.6412 -0.4698
 1164SOL     OW15124   3.271   1.270   7.430 -0.1954  0.6200 -0.4457
 1164SOL    HW115125   3.311   1.188   7.458  1.1330  0.9494 -1.3911
 1164SOL    HW215126   3.217   1.243   7.356 -0.9617 -0.9105  0.6842
 1165SOL     OW15127   0.569   3.932   9.494  0.2588 -0.1020  0.4909
 1165SOL    HW115128   0.649   3.916   9.443 -0.0862 -0.1280 -0.0458
 1165SOL    HW215129   0.563   3.848   9.539 -0.4555 -0.4433 -0.2400
 1166SOL     OW15130   1.630   3.326   9.496  0.5152 -0.4211  0.5201
 1166SOL    HW115131   1.695   3.360   9.557  0.5923 -0.2069  0.3214
 1166SOL    HW215132   1.641   3.393   9.428 -1.0779  0.6351  1.3158
 1167SOL     OW15133   0.263   1.450   1.633 -0.3095  0.3499 -0.8583
 1167SOL    HW115134   0.340   1.464   1.689 -0.4520 -0.5846 -0.4221
 1167SOL    HW215135   0.245   1.539   1.603  2.1802  1.1924  0.1396
 1168SOL     OW15136   3.423   3.066   4.331  0.4161 -0.0950  0.4134
 1168SOL    HW115137   3.335   3.094   4.356  0.5040  0.7380 -0.1646
 1168SOL    HW215138   3.466   3.146   4.299  1.5276  0.7166  3.9082
 1169SOL     OW15139   3.945   3.592   3.250 -0.1018 -0.4527 -0.1759
 1169SOL    HW115140   3.952   3.564   3.341 -1.6181 -1.7694 -0.4742
 1169SOL    HW215141   4.032   3.631   3.239 -0.9128  1.9426  2.0010
 1170SOL     OW15142   0.491   4.717   3.099 -0.2496  0.1822  0.1052
 1170SOL    HW115143   0.583   0.005   3.104 -0.5443  0.9968  1.4896
 1170SOL    HW215144   0.492   4.622   3.114  0.4228  0.0211 -0.9515
 1171SOL     OW15145   0.190   3.258   2.081 -0.4704 -0.4053  0.3178
 1171SOL    HW115146   0.195   3.167   2.110 -2.4850 -0.3269  0.9084
 1171SOL    HW215147   0.260   3.293   2.136 -0.9437 -1.3536  1.5179
 1172SOL     OW15148   3.786   3.497   9.147 -0.3962 -0.5705  0.5023
 1172SOL    HW115149   3.796   3.477   9.054 -1.8983 -0.3189  0.2733
 1172SOL    HW215150   3.871   3.519   9.184  0.2227 -2.9371  0.4569
 1173SOL     OW15151   2.539   1.760  13.193  0.2031  0.2497  0.1071
 1173SOL    HW115152   2.598   1.824  13.233  0.5914 -0.3287  0.4449
 1173SOL    HW215153   2.582   1.748  13.108  0.3140 -0.1798  0.2278
 1174SOL     OW15154   3.686   0.685   2.597 -0.5137  0.1069 -0.0942
 1174SOL    HW115155   3.714   0.775   2.579 -1.6945  0.6252  0.6793
 1174SOL    HW215156   3.768   0.636   2.594 -0.7268 -0.2990  0.8165
 1175SOL     OW15157   0.898   3.929   1.520 -0.2233  0.0255 -0.7093
 1175SOL    HW115158   0.853   3.872   1.457 -0.0489  1.0538 -1.7534
 1175SOL    HW215159   0.825   3.949   1.579 -0.7778 -1.0005 -1.0352
 1176SOL     OW15160   3.049   1.741   4.784 -0.2853  0.0906 -0.0521
 1176SOL    HW115161   3.089   1.656   4.767 -2.0639 -0.3744 -1.9114
 1176SOL    HW215162   3.026   1.770   4.696 -0.5612  1.2873  0.4129
 1177SOL     OW15163   2.174   3.233   5.382 -0.8628  0.8554 -0.1073
 1177SOL    HW115164   2.183   3.139   5.399 -1.7961  0.9957  1.1271
 1177SOL    HW215165   2.157   3.224   5.289 -1.2387 -0.7478  0.1164
 1178SOL     OW15166   2.624   3.256  10.208 -0.9555  0.3010  0.0016
 1178SOL    HW115167   2.674   3.285  10.284 -0.0942 -2.8950  0.6324
 1178SOL    HW215168   2.641   3.162  10.210 -1.3800  0.2236  0.0623
 1179SOL     OW15169   0.042   0.982   3.739  0.0658 -0.2616 -0.4797
 1179SOL    HW115170   4.700   1.004   3.789  0.0980  0.2381 -0.6522
 1179SOL    HW215171   0.108   1.040   3.776 -2.1595  2.1987 -0.3903
 1180SOL     OW15172   3.190   3.158   5.450  0.4102 -0.8552  0.4633
 1180SOL    HW115173   3.112   3.115   5.486 -0.1880  0.1320  0.3388
 1180SOL    HW215174   3.157   3.211   5.377  0.8628 -0.7819  0.3094
 1181SOL     OW15175   2.581   2.998   3.461 -0.2988  0.2009  0.2517
 1181SOL    HW115176   2.661   2.987   3.512  0.9227 -0.3743 -1.7961
 1181SOL    HW215177   2.601   2.955   3.378  0.3270 -1.0571  1.0682
 1182SOL     OW15178   3.979   2.220  16.046  0.5825  0.0301 -0.2140
 1182SOL    HW115179   4.028   2.250  15.969  1.4617 -0.9958 -0.0607
 1182SOL    HW215180   3.895   2.264  16.031  1.1228  0.4016 -2.1840
 1183SOL     OW15181   0.992   0.703   2.736  0.1703  0.0809  0.4805
 1183SOL    HW115182   0.920   0.641   2.727 -0.1672  0.4656  0.5579
 1183SOL    HW215183   1.066   0.642   2.740 -0.4246 -0.5296  2.0596
 1184SOL     OW15184   4.588   0.588   6.622 -0.1270 -0.1945  0.1465
 1184SOL    HW115185   4.587   0.643   6.700 -0.0100 -1.6694  1.1788
 1184SOL    HW215186   4.650   0.638   6.569  0.0884 -0.6574 -0.0405
 1185SOL     OW15187   1.142   2.901   7.943 -0.0418  0.0299 -0.4760
 1185SOL    HW115188   1.064   2.853   7.914  0.7100 -0.0354 -2.3707
 1185SOL    HW215189   1.154   2.959   7.869  0.5252  1.1728  0.5061
 1186SOL     OW15190   2.919   2.536   8.496  0.5618  0.3377 -0.4492
 1186SOL    HW115191   2.980   2.480   8.448  0.7775  0.6686 -0.5650
 1186SOL    HW215192   2.835   2.492   8.501  1.3373 -0.6428  3.4919
 1187SOL     OW15193   2.898   0.622   6.130 -0.1366 -0.7771 -0.3916
 1187SOL    HW115194   2.963   0.552   6.127 -1.4945 -2.0838  0.5548
 1187SOL    HW215195   2.822   0.573   6.102 -1.4845  1.3181 -0.3866
 1188SOL     OW15196   2.381   2.751   9.586  0.0587 -0.2973 -0.3633
 1188SOL    HW115197   2.308   2.790   9.633  2.2832 -0.0565  2.9323
 1188SOL    HW215198   2.358   2.777   9.497 -0.1014 -0.3570 -0.3398
 1189SOL     OW15199   2.552   0.129   8.757 -0.3277  0.3588  0.0391
 1189SOL    HW115200   2.560   0.220   8.727 -1.7296  1.5903  3.4048
 1189SOL    HW215201   2.641   0.099   8.737 -0.0291  1.9131 -1.0156
 1190SOL     OW15202   0.615   1.043   7.113  0.1353 -0.2958  0.2143
 1190SOL    HW115203   0.590   1.037   7.205 -1.2610 -0.6232 -0.1730
 1190SOL    HW215204   0.549   1.104   7.079 -0.1237  0.4833  2.1105
 1191SOL     OW15205   1.466   2.429   6.254  0.2203  0.1128  0.4898
 1191SOL    HW115206   1.435   2.339   6.268  1.7530 -0.5669 -0.4753
 1191SOL    HW215207   1.391   2.468   6.210 -0.0260 -0.4230  0.4243
 1192SOL     OW15208   3.718   4.681   4.106 -0.2823 -0.5503 -0.0756
 1192SOL    HW115209   3.718   0.026   4.156 -0.8966  0.1247 -1.1901
 1192SOL    HW215210   3.713   4.714   4.017 -0.7477 -0.4218 -0.0031
 1193SOL     OW15211   0.010   3.690   3.570  0.1341 -0.0744 -0.0871
 1193SOL    HW115212   4.674   3.651   3.523 -1.0403  1.0389  0.8238
 1193SOL    HW215213   0.004   3.783   3.547  1.3953  0.2091  0.7032
 1194SOL     OW15214   2.649   1.845   8.761  0.4301 -0.1302  0.2459
 1194SOL    HW115215   2.620   1.908   8.827  0.3059  0.1792 -0.1072
 1194SOL    HW215216   2.739   1.877   8.749 -0.3333  1.9569  0.0193
 1195SOL     OW15217   3.292   4.005   6.532  0.1534  0.0805  0.2588
 1195SOL    HW115218   3.223   3.959   6.485 -0.5906  0.9671  0.4902
 1195SOL    HW215219   3.257   3.995   6.620  0.4651 -0.7647  0.2838
 1196SOL     OW15220   2.595   0.770   4.252  0.2399  0.1538 -0.0343
 1196SOL    HW115221   2.589   0.849   4.306 -0.2569 -1.4386  2.2552
 1196SOL    HW215222   2.530   0.719   4.301  0.8437 -0.8682 -0.2797
 1197SOL     OW15223   0.347   2.857   7.849 -0.5747 -0.0797  0.2658
 1197SOL    HW115224   0.418   2.904   7.805  0.0336  0.0594  1.3993
 1197SOL    HW215225   0.404   2.785   7.877 -0.9160  0.0025  1.1807
 1198SOL     OW15226   2.699   4.075   2.494 -0.3433 -0.2873  0.3389
 1198SOL    HW115227   2.688   4.000   2.552 -1.4485  0.2113  0.7779
 1198SOL    HW215228   2.738   4.030   2.419  0.2008  1.3919 -0.3732
 1199SOL     OW15229   0.907   1.817   8.402  0.3045 -0.2273  0.2772
 1199SOL    HW115230   0.889   1.750   8.336 -1.2958  1.3597 -0.8778
 1199SOL    HW215231   0.982   1.859   8.359  0.4268  0.1261  0.8369
 1200SOL     OW15232   3.152   0.884   4.452 -0.0193  0.1613 -0.3318
 1200SOL    HW115233   3.184   0.890   4.542 -0.0981  1.2914 -0.3849
 1200SOL    HW215234   3.065   0.845   4.462 -1.3180  3.3063  0.6800
 1201SOL     OW15235   2.298   3.549  16.921 -0.0333 -0.5981  0.3162
 1201SOL    HW115236   2.233   3.584  16.982  0.5614  0.2806  0.4446
 1201SOL    HW215237   2.365   3.507  16.975  1.2699  0.9563 -0.0762
 1202SOL     OW15238   2.217   3.076  12.183  0.2432 -0.2215 -0.3206
 1202SOL    HW115239   2.219   2.996  12.130  2.2512 -1.0088  0.9358
 1202SOL    HW215240   2.259   3.040  12.261  0.2264  0.0384 -0.1923
 1203SOL     OW15241   1.591   4.192   4.408 -0.0858  0.2680 -0.5265
 1203SOL    HW115242   1.620   4.281   4.388 -0.6413  0.7035  0.6359
 1203SOL    HW215243   1.523   4.187   4.340  0.6031  1.1819 -1.2900
 1204SOL     OW15244   1.495   2.984   7.232 -0.0859 -0.4818 -0.1546
 1204SOL    HW115245   1.524   3.010   7.320 -0.6203  0.9807 -0.4074
 1204SOL    HW215246   1.576   3.001   7.185 -0.8025  0.9522 -0.8828
 1205SOL     OW15247   3.526   1.255   4.833  0.1282  1.1736  0.4688
 1205SOL    HW115248   3.445   1.231   4.879 -1.5627 -1.2090 -3.7293
 1205SOL    HW215249   3.584   1.259   4.909  1.6694  2.4331 -0.7886
 1206SOL     OW15250   1.861   1.635   2.323  0.2482  0.0088 -0.2524
 1206SOL    HW115251   1.766   1.644   2.337  0.4924  0.6938  0.9531
 1206SOL    HW215252   1.876   1.546   2.355 -1.5949  0.4483  1.8444
 1207SOL     OW15253   3.091   4.453  15.312  0.2660 -0.1211  0.3660
 1207SOL    HW115254   3.114   4.453  15.219 -1.7076  0.3347 -0.1140
 1207SOL    HW215255   3.163   4.500  15.355  2.8965 -1.2057 -2.8207
 1208SOL     OW15256   1.830   0.973   8.184  0.2251 -0.4650 -0.2324
 1208SOL    HW115257   1.795   0.949   8.270 -0.7181  1.2935 -0.1196
 1208SOL    HW215258   1.923   0.979   8.207 -0.2046  1.2019  1.0904
 1209SOL     OW15259   3.637   2.762   5.359 -0.5034 -0.6345 -0.1270
 1209SOL    HW115260   3.695   2.746   5.285  0.0713  1.8943 -0.2290
 1209SOL    HW215261   3.692   2.755   5.437 -0.1846  1.3884 -0.1602
 1210SOL     OW15262   1.621   1.564   3.687  0.6859  0.1325 -0.3164
 1210SOL    HW115263   1.547   1.535   3.635  0.3972  0.0333  0.1522
 1210SOL    HW215264   1.673   1.610   3.621 -0.5429 -0.0724 -1.4284
 1211SOL     OW15265   4.105   0.934   1.621 -0.5548  0.3281  0.1091
 1211SOL    HW115266   4.101   0.998   1.550  1.7551  1.2760  0.8439
 1211SOL    HW215267   4.011   0.942   1.639 -0.2207  1.6653  1.2493
 1212SOL     OW15268   0.972   0.548  15.024 -0.5757  0.0496 -0.3807
 1212SOL    HW115269   0.981   0.513  14.935 -0.4337  0.6954 -0.6218
 1212SOL    HW215270   0.924   0.479  15.069  0.8624 -1.3497 -0.9937
 1213SOL     OW15271   3.528   1.941   3.305  0.0809  0.6695  0.3630
 1213SOL    HW115272   3.445   1.892   3.316  0.2835  0.5441  1.3565
 1213SOL    HW215273   3.489   2.021   3.272  0.3947  1.0296  0.8706
 1214SOL     OW15274   4.049   3.445   8.798 -0.6580  0.0781 -0.9840
 1214SOL    HW115275   3.958   3.448   8.827  0.5762 -0.1752  2.9733
 1214SOL    HW215276   4.055   3.368   8.741 -2.0095 -0.9736  0.3065
 1215SOL     OW15277   0.346   4.254   9.873 -0.3433 -0.5718  0.1476
 1215SOL    HW115278   0.257   4.249   9.839 -0.7350  2.2871  0.7900
 1215SOL    HW215279   0.393   4.187   9.823  0.1007  0.0701 -0.3001
 1216SOL     OW15280   3.804   3.403   5.468 -1.2389  0.5194 -0.2074
 1216SOL    HW115281   3.857   3.349   5.527  0.3323  0.9970 -1.2106
 1216SOL    HW215282   3.729   3.424   5.525 -0.0042  1.8548  0.9396
 1217SOL     OW15283   4.334   0.096   8.208 -0.3130 -0.2202 -0.6053
 1217SOL    HW115284   4.283   0.158   8.156 -1.2688 -0.0706  0.5195
 1217SOL    HW215285   4.385   0.153   8.265 -1.1199 -0.4994  0.3964
 1218SOL     OW15286   1.182   2.696   4.002 -0.0225  0.0607 -0.5583
 1218SOL    HW115287   1.144   2.616   3.965  1.3590 -1.0252  0.3814
 1218SOL    HW215288   1.270   2.667   4.028  0.4475 -0.0707 -2.2450
 1219SOL     OW15289   4.102   1.430  14.126 -0.4773 -0.6237 -0.1428
 1219SOL    HW115290   4.008   1.414  14.123 -0.9098  1.8762 -0.1074
 1219SOL    HW215291   4.095   1.514  14.171 -0.6612 -1.5103  1.4501
 1220SOL     OW15292   3.258   0.431   5.947 -0.5461 -0.0784 -0.4172
 1220SOL    HW115293   3.337   0.420   5.893 -0.2903  2.6861 -0.6151
 1220SOL    HW215294   3.206   0.362   5.907  0.5861 -1.9024  1.2642
 1221SOL     OW15295   2.325   2.669   6.389  0.1243 -0.4449  0.4824
 1221SOL    HW115296   2.354   2.585   6.423 -0.7033 -0.6056  0.7966
 1221SOL    HW215297   2.404   2.721   6.404  1.1144 -2.0590  0.7539
 1222SOL     OW15298   1.911   3.983   8.522  0.0431 -0.0539  0.3556
 1222SOL    HW115299   1.939   3.998   8.612  0.7226 -0.4198  0.2127
 1222SOL    HW215300   1.984   3.927   8.494 -1.0047 -1.6761  0.8884
 1223SOL     OW15301   0.259   3.049   5.249 -0.8714  0.5194  0.1430
 1223SOL    HW115302   0.203   3.027   5.323 -2.0066 -1.5358 -1.3076
 1223SOL    HW215303   0.201   3.016   5.180  0.5177 -0.8697 -0.3691
 1224SOL     OW15304   2.565   0.141   8.357 -0.0976  0.3699 -0.3842
 1224SOL    HW115305   2.566   0.110   8.266  1.6075  0.3869 -0.3728
 1224SOL    HW215306   2.557   0.236   8.347  0.8207  0.1432 -3.4179
 1225SOL     OW15307   2.026   3.019   7.210  0.2408 -0.1288  0.0335
 1225SOL    HW115308   2.080   3.024   7.288 -2.5162  0.0404  1.9197
 1225SOL    HW215309   2.059   2.947   7.156  1.7807  1.8274 -1.6467
 1226SOL     OW15310   4.362   0.052  16.909  0.1747 -0.0780  0.4929
 1226SOL    HW115311   4.355   4.721  16.842  1.3632  0.6414 -0.3838
 1226SOL    HW215312   4.303   0.116  16.870  0.5589 -1.0988 -1.7632
 1227SOL     OW15313   1.534   1.879  16.614 -0.9293  0.3733  0.3203
 1227SOL    HW115314   1.518   1.972  16.601 -0.2009  0.1870 -1.8120
 1227SOL    HW215315   1.515   1.855  16.523  1.1123  0.1370 -0.0555
 1228SOL     OW15316   1.769   0.299   4.579 -0.8372 -0.1165 -0.1359
 1228SOL    HW115317   1.828   0.236   4.620 -0.7946 -1.0866 -1.6576
 1228SOL    HW215318   1.708   0.312   4.652 -0.2448 -3.7424  1.0127
 1229SOL     OW15319   2.186   3.584  11.085  0.2485  0.0251  0.0230
 1229SOL    HW115320   2.134   3.662  11.066 -0.9997 -0.9477 -0.5384
 1229SOL    HW215321   2.119   3.515  11.088  0.9887 -0.7597 -1.1875
 1230SOL     OW15322   0.052   3.779   8.888  0.1905 -0.3972 -0.1761
 1230SOL    HW115323   0.003   3.754   8.966  0.0897 -2.3326 -0.8804
 1230SOL    HW215324   0.140   3.764   8.921 -1.0759 -2.0495  2.3872
 1231SOL     OW15325   4.049   2.340   4.414  0.1483 -0.1667  0.4507
 1231SOL    HW115326   4.015   2.429   4.401 -0.7620 -0.6536 -0.4570
 1231SOL    HW215327   4.135   2.364   4.377  0.1076 -1.3925 -0.4297
 1232SOL     OW15328   1.291   2.029   9.223 -0.4407  0.2551  0.0642
 1232SOL    HW115329   1.333   1.948   9.251  0.8798  0.7860 -0.3696
 1232SOL    HW215330   1.199   2.007   9.209 -0.4711 -0.0610  0.7372
 1233SOL     OW15331   1.995   3.110   2.723  0.1212  0.0042  0.4727
 1233SOL    HW115332   2.055   3.041   2.751 -0.5643 -0.3607  1.0488
 1233SOL    HW215333   1.910   3.066   2.725 -0.3913  0.8446 -2.7337
 1234SOL     OW15334   2.428   4.174   7.578 -0.2446  0.4333  0.4751
 1234SOL    HW115335   2.500   4.145   7.634  0.1257 -0.1846 -0.3206
 1234SOL    HW215336   2.463   4.177   7.489 -1.4051 -2.0070 -0.0727
 1235SOL     OW15337   2.482   1.028   3.735  1.0142  0.2037 -0.5077
 1235SOL    HW115338   2.484   1.111   3.781 -1.5108  0.4364 -0.8009
 1235SOL    HW215339   2.519   1.055   3.651 -1.1107  0.3657 -1.3952
 1236SOL     OW15340   2.085   3.549   6.006  0.0542  0.7097  0.5266
 1236SOL    HW115341   2.032   3.624   6.032 -2.3760 -0.3092 -1.5081
 1236SOL    HW215342   2.013   3.490   5.985  0.2784  0.7349 -0.3105
 1237SOL     OW15343   3.086   2.556   6.989 -0.7464  0.5508 -0.1675
 1237SOL    HW115344   3.049   2.612   6.920 -0.2007  1.6352  0.4305
 1237SOL    HW215345   3.178   2.557   6.964 -0.3117 -0.3452  1.3913
 1238SOL     OW15346   0.679   1.098   3.970  0.7699  0.1964 -0.3931
 1238SOL    HW115347   0.743   1.087   3.899 -1.0881 -1.0257 -1.8880
 1238SOL    HW215348   0.628   1.017   3.969 -0.4047  0.9464 -0.9010
 1239SOL     OW15349   2.396   3.209   3.405  0.3617 -0.4298 -0.1533
 1239SOL    HW115350   2.386   3.227   3.498 -2.8514 -0.3589 -0.5238
 1239SOL    HW215351   2.462   3.140   3.401  2.1167  1.2036  0.6067
 1240SOL     OW15352   0.207   0.504   7.791  0.0596 -0.4106 -0.5181
 1240SOL    HW115353   0.298   0.515   7.762 -0.2605 -1.1708 -1.8157
 1240SOL    HW215354   0.149   0.521   7.717 -2.5046 -1.9567  1.1471
 1241SOL     OW15355   4.661   1.325   6.612  0.4710  0.0199  0.4902
 1241SOL    HW115356   0.017   1.342   6.597  0.1843 -0.5478 -2.0324
 1241SOL    HW215357   4.658   1.275   6.693  1.6210 -0.0315  0.5045
 1242SOL     OW15358   3.389   0.182   8.197 -0.1559 -0.2904 -0.2459
 1242SOL    HW115359   3.421   0.252   8.141  2.0810 -1.5559 -0.5414
 1242SOL    HW215360   3.298   0.179   8.166 -1.1659 -0.1241  2.7843
 1243SOL     OW15361   3.187   1.299   8.105  0.8110  0.3001 -0.0915
 1243SOL    HW115362   3.142   1.273   8.024  0.4018 -0.6446  0.4343
 1243SOL    HW215363   3.255   1.233   8.111 -0.2282 -0.8263 -0.5582
 1244SOL     OW15364   0.612   4.276   4.287 -0.2769  0.5776 -0.2194
 1244SOL    HW115365   0.619   4.223   4.208 -1.6139  0.0900 -0.0091
 1244SOL    HW215366   0.672   4.350   4.273  0.1562  0.5037  1.2064
 1245SOL     OW15367   3.394   2.624   2.780  0.3255  0.2176 -0.1589
 1245SOL    HW115368   3.411   2.688   2.711  0.1348  0.9814  0.4960
 1245SOL    HW215369   3.468   2.564   2.777  0.2555  0.2242 -1.7567
 1246SOL     OW15370   2.341   3.652   5.130 -0.2086  0.1928  0.0011
 1246SOL    HW115371   2.319   3.640   5.223 -0.2989  1.0130  0.0880
 1246SOL    HW215372   2.428   3.691   5.138 -0.2608 -0.3092  3.3042
 1247SOL     OW15373   1.663   3.103   2.015  0.2388 -0.2373  0.4430
 1247SOL    HW115374   1.759   3.110   2.022  0.3877  0.0063 -1.7120
 1247SOL    HW215375   1.650   3.027   2.072 -0.7929  0.1564  0.7282
 1248SOL     OW15376   4.544   2.162  11.198  0.1033 -0.2417  0.1991
 1248SOL    HW115377   4.597   2.107  11.140 -0.4949  2.1922 -2.7033
 1248SOL    HW215378   4.458   2.121  11.192 -0.7485  1.5230  0.5034
 1249SOL     OW15379   2.048   1.420   9.049 -0.1890  0.0803  0.1759
 1249SOL    HW115380   2.140   1.392   9.050  0.1629  1.2064 -0.3976
 1249SOL    HW215381   2.039   1.504   9.094  1.3728 -0.3150  1.2352
 1250SOL     OW15382   2.905   3.687   1.725  0.2210 -0.3175  0.1159
 1250SOL    HW115383   2.996   3.673   1.751  0.4167  1.4135  0.3624
 1250SOL    HW215384   2.892   3.599   1.690  0.3748 -1.2458  2.3770
 1251SOL     OW15385   3.412   0.492   4.862 -0.5759  0.3329  0.1751
 1251SOL    HW115386   3.502   0.508   4.834 -0.6978 -1.2879 -1.1225
 1251SOL    HW215387   3.377   0.454   4.781 -0.2417  0.2916  0.0519
 1252SOL     OW15388   1.231   0.528  12.353  0.4164  0.4654 -0.3145
 1252SOL    HW115389   1.248   0.472  12.277  0.5275  1.0580 -0.7275
 1252SOL    HW215390   1.283   0.607  12.336  0.7897  0.8490  2.6036
 1253SOL     OW15391   1.530   1.706   0.873 -0.1438 -0.1571  0.0480
 1253SOL    HW115392   1.581   1.701   0.792 -1.2970 -1.8344 -0.5743
 1253SOL    HW215393   1.567   1.791   0.896 -0.1699 -0.8097  2.5786
 1254SOL     OW15394   1.723   4.652   7.088 -0.0140  0.3218 -0.1750
 1254SOL    HW115395   1.758   0.004   7.077  1.1957 -0.1527 -0.1647
 1254SOL    HW215396   1.673   4.647   7.006  0.8403 -1.0979 -0.6123
 1255SOL     OW15397   3.645   1.240   6.998 -0.3544  0.7478 -0.2974
 1255SOL    HW115398   3.686   1.326   7.003 -0.0477  0.5859 -0.0545
 1255SOL    HW215399   3.631   1.227   6.904  0.1613  1.6207 -0.4942
 1256SOL     OW15400   2.643   1.561  11.648  0.3065  0.3398 -0.3336
 1256SOL    HW115401   2.710   1.493  11.657 -0.5557 -0.6226 -1.2152
 1256SOL    HW215402   2.639   1.596  11.737 -0.8103 -0.0137 -0.2560
 1257SOL     OW15403   2.001   1.642   7.949 -0.2292 -0.0931 -0.1169
 1257SOL    HW115404   2.058   1.692   8.008 -1.9063  0.5632  0.9352
 1257SOL    HW215405   2.065   1.580   7.913 -1.4152 -1.1301 -0.4088
 1258SOL     OW15406   0.028   1.066   1.280 -0.1614  0.2275  0.0655
 1258SOL    HW115407   0.073   0.994   1.236  2.5783  2.0836 -0.1803
 1258SOL    HW215408   0.045   1.062   1.374  3.2291 -0.5144 -0.5613
 1259SOL     OW15409   2.723   2.275  17.116  0.3693 -0.0298 -1.5150
 1259SOL    HW115410   2.774   2.214  17.168 -2.4912 -0.9292  0.2676
 1259SOL    HW215411   2.643   2.222  17.115  0.4973 -0.2349 -1.0178
 1260SOL     OW15412   4.390   3.942   6.640 -0.6345  0.5031  1.1073
 1260SOL    HW115413   4.360   3.858   6.676 -1.4389 -0.1520 -1.0941
 1260SOL    HW215414   4.318   3.994   6.676  0.0181  2.4576 -0.4708
 1261SOL     OW15415   2.348   0.828   2.065 -0.7342  0.8141  0.0169
 1261SOL    HW115416   2.419   0.892   2.059 -0.0096 -0.0571 -0.9120
 1261SOL    HW215417   2.287   0.876   2.120 -0.5624 -1.2627  2.0580
 1262SOL     OW15418   3.252   0.954   1.679  0.1937 -0.3369  0.6973
 1262SOL    HW115419   3.336   0.980   1.715  1.6380 -1.9172 -1.5712
 1262SOL    HW215420   3.198   1.032   1.693 -2.1729 -2.2195  2.0430
 1263SOL     OW15421   1.751   0.233  12.806 -0.4911  0.2135  0.5606
 1263SOL    HW115422   1.738   0.140  12.823  1.7563 -0.7464 -2.8921
 1263SOL    HW215423   1.728   0.234  12.713 -1.0534  1.0125  0.7064
 1264SOL     OW15424   0.432   2.333   4.484 -0.2698 -0.4950 -0.2778
 1264SOL    HW115425   0.408   2.375   4.402  0.2196  3.7334  1.7565
 1264SOL    HW215426   0.477   2.399   4.536 -1.8058  1.6512 -1.6843
 1265SOL     OW15427   2.901   2.796   4.357  0.2163 -0.4235  0.0911
 1265SOL    HW115428   2.980   2.779   4.409 -1.3152 -3.0634  1.5787
 1265SOL    HW215429   2.871   2.709   4.331  1.9021 -1.4137  1.3726
 1266SOL     OW15430   4.517   3.230   2.038  0.3872 -0.1555 -0.1675
 1266SOL    HW115431   4.571   3.281   1.977  1.6027 -0.1136  0.9397
 1266SOL    HW215432   4.572   3.218   2.115 -0.8404 -2.7714  0.3052
 1267SOL     OW15433   3.204   3.267   7.578 -0.4075 -0.5180 -0.0794
 1267SOL    HW115434   3.263   3.255   7.504  0.7817 -0.2363  0.8135
 1267SOL    HW215435   3.249   3.338   7.624  0.1341 -1.3819  0.7442
 1268SOL     OW15436   1.884   3.484   8.195 -0.4676  0.1193  0.4381
 1268SOL    HW115437   1.871   3.505   8.287  0.8643 -0.4176  0.7457
 1268SOL    HW215438   1.808   3.530   8.159 -1.6514 -1.0499  1.4210
 1269SOL     OW15439   2.520   2.284   3.113 -0.5421  0.0311 -0.1354
 1269SOL    HW115440   2.607   2.317   3.135  0.5338 -2.4507 -0.7148
 1269SOL    HW215441   2.464   2.359   3.094 -1.3927 -0.8990 -1.3190
 1270SOL     OW15442   2.146   3.394   8.208  0.2099 -0.0014 -0.3776
 1270SOL    HW115443   2.056   3.417   8.186  0.5395  0.3032 -1.3986
 1270SOL    HW215444   2.134   3.349   8.291 -2.8192 -3.9416 -2.9561
 1271SOL     OW15445   2.457   1.395   1.990 -0.1924  0.2124 -0.4503
 1271SOL    HW115446   2.362   1.391   1.975 -0.1869 -0.4726 -0.3060
 1271SOL    HW215447   2.494   1.422   1.906 -1.9556  0.7803 -1.0431
 1272SOL     OW15448   2.808   2.229   5.700 -0.6338 -0.4166  0.8412
 1272SOL    HW115449   2.848   2.157   5.749 -0.4839 -1.4197 -0.7652
 1272SOL    HW215450   2.740   2.257   5.762 -0.6408  1.8919 -0.2355
 1273SOL     OW15451   3.117   1.138   4.004 -0.4350 -0.3988 -0.3546
 1273SOL    HW115452   3.023   1.137   3.983 -0.5856 -0.2333  0.3068
 1273SOL    HW215453   3.131   1.048   4.033 -2.9103 -1.0468 -1.0914
 1274SOL     OW15454   4.584   0.757   8.603 -0.5754 -0.4225 -0.1396
 1274SOL    HW115455   4.560   0.708   8.524 -2.6925 -0.9361  0.8157
 1274SOL    HW215456   4.667   0.788   8.568 -1.8344  2.6264 -0.4470
 1275SOL     OW15457   2.563   3.180  11.295  0.6954  0.3360  0.6432
 1275SOL    HW115458   2.578   3.165  11.389 -1.3559  1.5065  1.1641
 1275SOL    HW215459   2.645   3.223  11.271  0.7504  0.6722  1.4155
 1276SOL     OW15460   0.515   0.322  15.413  0.2363 -0.7205 -0.3357
 1276SOL    HW115461   0.461   0.382  15.361 -0.1068  0.8252  1.7906
 1276SOL    HW215462   0.583   0.310  15.346 -0.2355  0.7764 -1.0867
 1277SOL     OW15463   0.911   0.235  11.947 -0.1879 -0.0786 -0.1911
 1277SOL    HW115464   0.942   0.318  11.912 -0.6999  0.2477  0.1328
 1277SOL    HW215465   0.971   0.168  11.916 -0.9058 -0.8157  0.0192
 1278SOL     OW15466   0.632   4.044   5.280  0.4372  0.1390 -0.1801
 1278SOL    HW115467   0.545   4.078   5.256  0.3000  1.0798  1.6641
 1278SOL    HW215468   0.628   4.054   5.375  0.7040 -1.8063  0.0342
 1279SOL     OW15469   3.315   0.309   0.332 -0.1946  0.4250  0.3906
 1279SOL    HW115470   3.313   0.283   0.240  1.1394  0.5539  0.3163
 1279SOL    HW215471   3.405   0.310   0.364 -0.7009  1.7030  1.7556
 1280SOL     OW15472   0.928   3.754   7.284 -0.2602  0.0987 -0.3531
 1280SOL    HW115473   0.918   3.745   7.189 -1.2633  3.8309 -0.6275
 1280SOL    HW215474   0.854   3.701   7.311 -0.4373  0.0380 -0.9556
 1281SOL     OW15475   4.124   1.029  13.916  0.0672  0.3344  0.1383
 1281SOL    HW115476   4.066   1.067  13.850 -0.4128 -0.5269  0.0755
 1281SOL    HW215477   4.197   1.003  13.859  0.2505  2.4304 -0.6080
 1282SOL     OW15478   4.468   4.345   2.864 -0.1011  0.5809  0.4581
 1282SOL    HW115479   4.399   4.360   2.800 -0.2215  0.5649  0.5846
 1282SOL    HW215480   4.535   4.314   2.803 -0.4641 -1.7243  1.2099
 1283SOL     OW15481   1.567   4.036  10.987  1.2240 -0.0916 -0.2595
 1283SOL    HW115482   1.581   3.963  10.926 -0.2665  0.1047 -0.8315
 1283SOL    HW215483   1.589   4.110  10.930 -1.3544  1.9008  1.3321
 1284SOL     OW15484   2.335   2.204   9.186 -0.2569 -0.4550 -0.0589
 1284SOL    HW115485   2.425   2.196   9.217  0.3403 -0.8162 -1.8987
 1284SOL    HW215486   2.312   2.297   9.198 -0.5009 -0.6864  1.3636
 1285SOL     OW15487   3.571   2.074   8.724 -0.3563 -0.2460 -0.0826
 1285SOL    HW115488   3.658   2.097   8.758 -1.2705  0.5989  1.6821
 1285SOL    HW215489   3.587   2.105   8.635 -0.6809 -0.0889 -0.0838
 1286SOL     OW15490   4.582   0.777   4.035 -1.0537  0.4260  0.6836
 1286SOL    HW115491   4.653   0.739   3.984 -1.0735  2.2714 -0.7140
 1286SOL    HW215492   4.637   0.795   4.111 -0.8504  4.2365 -0.3637
 1287SOL     OW15493   4.117   2.289  15.822  0.1333  0.1050 -0.4481
 1287SOL    HW115494   4.172   2.365  15.807 -0.3223  0.2317 -1.4256
 1287SOL    HW215495   4.051   2.286  15.753 -0.8476  1.9762  0.4143
 1288SOL     OW15496   2.997   1.940   2.493 -0.0869  0.6582 -0.0980
 1288SOL    HW115497   3.013   1.849   2.515  2.6913  1.0989 -0.2266
 1288SOL    HW215498   3.016   1.991   2.572 -2.0829  1.7348 -0.3235
 1289SOL     OW15499   3.505   1.413   9.020 -0.8664 -0.0618 -0.0753
 1289SOL    HW115500   3.540   1.347   9.080  0.4994 -1.5744 -2.5486
 1289SOL    HW215501   3.410   1.396   9.023 -0.9370  0.3993  0.2487
 1290SOL     OW15502   0.846   3.869   6.532 -0.5002 -0.4689  0.3947
 1290SOL    HW115503   0.814   3.906   6.615 -1.6686  0.1963 -0.3484
 1290SOL    HW215504   0.843   3.942   6.471 -0.4918 -1.0308 -0.2775
 1291SOL     OW15505   3.017   1.528   8.815 -0.4437 -0.3956  0.0808
 1291SOL    HW115506   2.955   1.588   8.858 -1.4193 -1.4007  0.0744
 1291SOL    HW215507   2.987   1.522   8.725  0.0403  1.0367 -0.1749
 1292SOL     OW15508   4.179   3.290   9.412  0.4693 -0.2395 -0.3465
 1292SOL    HW115509   4.174   3.194   9.402 -0.6542 -0.0064 -2.0392
 1292SOL    HW215510   4.271   3.305   9.434  0.9599 -2.4985 -0.8381
 1293SOL     OW15511   1.426   2.485   2.021  0.0380  0.3214  0.1960
 1293SOL    HW115512   1.341   2.441   2.027  0.4685 -0.3188  1.8854
 1293SOL    HW215513   1.419   2.560   2.081  0.0863  1.5732 -1.3648
 1294SOL     OW15514   0.845   2.152   3.833  0.3097 -0.0554 -0.4698
 1294SOL    HW115515   0.854   2.112   3.746  2.1161  1.5979 -1.0480
 1294SOL    HW215516   0.783   2.095   3.878  1.7275 -1.8771 -0.8194
 1295SOL     OW15517   2.902   2.646   8.733  0.1058 -0.2827  0.7022
 1295SOL    HW115518   2.968   2.582   8.758  2.5115  1.6822 -0.5150
 1295SOL    HW215519   2.907   2.631   8.638 -1.0243  1.3128  0.3797
 1296SOL     OW15520   4.173   4.195  16.668 -0.2030 -0.0601  0.6973
 1296SOL    HW115521   4.216   4.111  16.653 -0.3824 -0.0251 -0.0423
 1296SOL    HW215522   4.206   4.255  16.601  1.6219 -1.4306  0.3754
 1297SOL     OW15523   0.668   4.183  10.950 -0.5702  0.4270 -0.1433
 1297SOL    HW115524   0.742   4.193  10.892  1.7259 -0.2791  2.6564
 1297SOL    HW215525   0.670   4.273  10.983  1.4368  1.9924 -4.6886
 1298SOL     OW15526   0.985   1.848   8.860 -0.1568  0.3652 -0.1461
 1298SOL    HW115527   1.010   1.768   8.907  0.8108  0.3841 -0.6234
 1298SOL    HW215528   0.936   1.814   8.785  0.9331 -0.4346 -0.4917
 1299SOL     OW15529   3.285   3.697  10.888 -0.1443  0.0378  0.0084
 1299SOL    HW115530   3.296   3.766  10.953  0.4286  0.9344 -1.0302
 1299SOL    HW215531   3.347   3.719  10.818  0.7927  0.9866  1.1350
 1300SOL     OW15532   2.790   2.818   2.277 -1.1312  0.1460  0.4877
 1300SOL    HW115533   2.759   2.728   2.287 -2.1928  0.3534 -0.8602
 1300SOL    HW215534   2.719   2.857   2.226 -0.0880  1.2720 -0.0959
 1301SOL     OW15535   0.134   4.711   1.541 -0.2866 -0.2025  0.3018
 1301SOL    HW115536   0.204   4.662   1.584  1.2764  1.9868  0.2945
 1301SOL    HW215537   0.186   0.043   1.499 -0.1982 -0.8842 -0.7008
 1302SOL     OW15538   4.022   2.180   8.016  0.1181  0.0566  0.7936
 1302SOL    HW115539   4.068   2.204   7.935 -1.0448  0.0256  0.1242
 1302SOL    HW215540   4.069   2.101   8.042  0.4646 -0.2040 -0.6066
 1303SOL     OW15541   1.172   1.562   5.391 -0.2449  0.0667  0.5209
 1303SOL    HW115542   1.151   1.572   5.484  0.4656  2.7845  0.3688
 1303SOL    HW215543   1.088   1.542   5.349  0.7031 -2.3959 -0.1895
 1304SOL     OW15544   0.474   1.255   9.282 -0.1989  0.2851  0.4117
 1304SOL    HW115545   0.565   1.264   9.310 -0.9408  3.4401  1.9025
 1304SOL    HW215546   0.460   1.162   9.300 -0.1051  0.4252  1.2318
 1305SOL     OW15547   1.725   1.578   9.217  0.6406  0.1607  0.5463
 1305SOL    HW115548   1.741   1.503   9.274 -0.9363 -1.6787 -1.4126
 1305SOL    HW215549   1.768   1.560   9.134 -1.6704 -0.3020 -0.5535
 1306SOL     OW15550   2.725   1.316   4.034  0.1111  0.5837 -0.5190
 1306SOL    HW115551   2.766   1.255   3.973  0.1342  0.8725 -0.7914
 1306SOL    HW215552   2.791   1.386   4.039  1.3170 -0.4039 -2.8612
 1307SOL     OW15553   0.473   1.898   5.809  0.4063  0.1871 -0.4834
 1307SOL    HW115554   0.479   1.830   5.742 -1.7162 -1.7519  1.2684
 1307SOL    HW215555   0.471   1.850   5.892  1.7298  1.5717  0.3601
 1308SOL     OW15556   1.026   3.694   1.630 -0.1779 -0.3821 -0.1420
 1308SOL    HW115557   1.102   3.750   1.615 -2.3687  2.4712 -0.4445
 1308SOL    HW215558   0.957   3.750   1.596  1.0995  1.2194 -0.0667
 1309SOL     OW15559   0.797   1.330  16.229  0.3135  0.1258 -0.0112
 1309SOL    HW115560   0.844   1.344  16.311  0.4879 -1.4461  0.1430
 1309SOL    HW215561   0.707   1.309  16.253  0.1534  1.4134  0.5375
 1310SOL     OW15562   3.660   0.747   7.923  0.3499 -0.0627  0.2725
 1310SOL    HW115563   3.679   0.686   7.995 -0.7377 -1.4950 -0.6538
 1310SOL    HW215564   3.740   0.798   7.920  1.3950 -1.5493  2.6652
 1311SOL     OW15565   3.725   2.689  12.252  0.3549 -0.0719  0.0669
 1311SOL    HW115566   3.773   2.772  12.244 -2.3665  1.5194  0.1801
 1311SOL    HW215567   3.791   2.635  12.296 -1.0585 -0.6845  1.4240
 1312SOL     OW15568   1.041   3.115  14.715 -0.0708  0.3599 -0.1618
 1312SOL    HW115569   1.096   3.193  14.709  0.0940  0.0796 -2.3631
 1312SOL    HW215570   0.986   3.112  14.637  0.0613 -0.2807 -0.2356
 1313SOL     OW15571   1.144   4.276   2.533  0.1216  0.3278 -0.0752
 1313SOL    HW115572   1.181   4.273   2.444 -0.0905  2.9977 -0.2435
 1313SOL    HW215573   1.223   4.273   2.586  0.6574  0.7027 -0.8545
 1314SOL     OW15574   0.288   3.169  12.317  0.8010 -0.2535 -0.0027
 1314SOL    HW115575   0.274   3.184  12.223  0.2942 -3.1347 -0.3980
 1314SOL    HW215576   0.235   3.246  12.337  1.2088 -0.1165  0.5370
 1315SOL     OW15577   1.457   1.970  10.960 -0.2001  0.6327 -0.4158
 1315SOL    HW115578   1.543   2.001  10.987  1.0449  0.6730 -4.4369
 1315SOL    HW215579   1.404   2.039  11.000  0.0575  0.1271  0.7971
 1316SOL     OW15580   3.141   4.329   9.745 -0.2657  0.6543  0.4740
 1316SOL    HW115581   3.213   4.379   9.783  0.6089 -0.7578  0.6366
 1316SOL    HW215582   3.130   4.365   9.656 -0.2942 -0.7853 -0.1073
 1317SOL     OW15583   2.444   3.739   2.578  0.2943 -0.7919  0.4540
 1317SOL    HW115584   2.393   3.763   2.655 -0.5404  0.8057 -0.5914
 1317SOL    HW215585   2.397   3.661   2.549  2.2689 -2.0085  0.5451
 1318SOL     OW15586   2.181   3.987   9.483 -0.3509  0.4470 -0.5825
 1318SOL    HW115587   2.151   4.008   9.394 -1.1843 -2.0296 -0.8825
 1318SOL    HW215588   2.121   3.923   9.520 -2.5220  3.3689  1.0143
 1319SOL     OW15589   3.627   1.269  15.059 -0.1904 -0.1855  0.2630
 1319SOL    HW115590   3.666   1.191  15.020  0.1530  1.4842 -2.7235
 1319SOL    HW215591   3.709   1.303  15.096 -0.1221  1.4625 -1.3780
 1320SOL     OW15592   1.844   4.185   9.633 -0.1916  0.0035 -0.0202
 1320SOL    HW115593   1.796   4.217   9.710 -0.3671  1.4062 -0.7235
 1320SOL    HW215594   1.937   4.190   9.655 -0.2081 -0.5852  0.1996
 1321SOL     OW15595   0.250   3.009   9.799 -0.0487  0.3651 -0.5689
 1321SOL    HW115596   0.285   2.971   9.718  0.2745 -1.6772  0.5541
 1321SOL    HW215597   0.157   2.997   9.784  0.2535 -1.1911 -1.1728
 1322SOL     OW15598   2.436   2.188  17.153 -0.9050 -0.2809  0.0031
 1322SOL    HW115599   2.378   2.171  17.227 -0.5896  2.3224  0.8444
 1322SOL    HW215600   2.416   2.279  17.132 -0.4755 -0.0949  0.4082
 1323SOL     OW15601   0.895   4.099   7.168 -0.5719 -0.5558 -0.3541
 1323SOL    HW115602   0.900   4.174   7.109  3.2029  0.1210  0.8184
 1323SOL    HW215603   0.909   4.147   7.250  0.9667  0.2338 -1.0826
 1324SOL     OW15604   3.837   0.659  11.428  0.2485  0.0173 -0.3750
 1324SOL    HW115605   3.883   0.676  11.346  0.9386  1.1440  0.2477
 1324SOL    HW215606   3.834   0.563  11.425  1.5919  0.0347 -2.8043
 1325SOL     OW15607   0.109   3.422   3.014  0.3719 -0.5134 -0.6944
 1325SOL    HW115608   0.191   3.421   3.063  0.3985 -0.8163 -0.7431
 1325SOL    HW215609   0.076   3.332   3.018  0.9075 -0.7838 -2.3465
 1326SOL     OW15610   4.122   4.380   1.693  0.4822 -0.2068 -0.3987
 1326SOL    HW115611   4.147   4.368   1.601 -2.6397 -1.2579 -1.1297
 1326SOL    HW215612   4.157   4.296   1.724 -0.2398 -0.1187  0.6721
 1327SOL     OW15613   0.816   0.205   3.001  0.0202 -0.1063 -0.1463
 1327SOL    HW115614   0.897   0.246   3.034 -0.6758 -1.0096  2.6696
 1327SOL    HW215615   0.856   0.119   2.991 -1.3096 -0.7188 -0.0932
 1328SOL     OW15616   1.175   4.338   7.088 -0.4783  0.2370 -0.1337
 1328SOL    HW115617   1.191   4.428   7.114 -1.6779  0.6158 -0.7664
 1328SOL    HW215618   1.100   4.341   7.029  1.7542  3.9209 -2.7496
 1329SOL     OW15619   1.771   3.096   1.706 -0.7715 -0.0730 -0.5743
 1329SOL    HW115620   1.827   3.019   1.694  1.2518  1.1876  0.7951
 1329SOL    HW215621   1.782   3.103   1.801  2.9767  0.3541 -1.0320
 1330SOL     OW15622   1.682   4.085   3.840 -0.2779  0.3850 -0.0520
 1330SOL    HW115623   1.640   4.033   3.772 -0.4358  0.8763 -0.3347
 1330SOL    HW215624   1.637   4.168   3.826  2.4638  1.8094 -0.5221
 1331SOL     OW15625   0.343   3.593   9.177  0.3242 -0.3637 -0.2425
 1331SOL    HW115626   0.320   3.592   9.084 -2.1679 -1.4578  0.3896
 1331SOL    HW215627   0.308   3.678   9.202  0.3451  0.2485 -2.3057
 1332SOL     OW15628   3.312   0.645  10.238  0.0008  0.3746  0.5003
 1332SOL    HW115629   3.369   0.708  10.282  0.3535  1.1404 -1.0425
 1332SOL    HW215630   3.236   0.652  10.296 -1.8008  1.6551 -1.9903
 1333SOL     OW15631   1.625   1.365   7.080 -0.3865 -0.1607  0.4424
 1333SOL    HW115632   1.658   1.282   7.114 -1.3565 -0.6775  0.1383
 1333SOL    HW215633   1.691   1.383   7.013 -2.5125 -0.8433 -1.8489
 1334SOL     OW15634   3.969   0.151   1.121  0.0165 -0.0162 -0.1782
 1334SOL    HW115635   4.032   0.209   1.078  0.6573  0.2070  1.0458
 1334SOL    HW215636   4.016   0.072   1.145  0.7875  0.8176  1.0891
 1335SOL     OW15637   2.199   1.218  16.440  0.3857 -0.1425  0.0296
 1335SOL    HW115638   2.113   1.239  16.404  0.2989  0.2491  0.4657
 1335SOL    HW215639   2.232   1.170  16.364  1.4910  0.5315  0.0797
 1336SOL     OW15640   0.961   0.298   2.435  0.2256 -0.8836  0.0564
 1336SOL    HW115641   0.980   0.210   2.466  1.4553 -1.8489 -3.3563
 1336SOL    HW215642   0.868   0.309   2.453 -0.1792  0.3425 -2.6520
 1337SOL     OW15643   3.299   2.270   2.678  0.3967 -0.1488  0.3470
 1337SOL    HW115644   3.262   2.259   2.590  3.2005 -0.5751 -0.7833
 1337SOL    HW215645   3.320   2.182   2.708  0.4912 -0.3243 -0.2369
 1338SOL     OW15646   2.669   2.005  17.629 -0.1765  1.0863  0.4779
 1338SOL    HW115647   2.752   2.015  17.582 -0.6745  1.1294 -0.3934
 1338SOL    HW215648   2.612   2.071  17.588 -1.7662  0.1611  1.2342
 1339SOL     OW15649   1.245   4.538   4.504 -0.6735 -0.9140 -0.0118
 1339SOL    HW115650   1.239   4.443   4.500  1.8530 -1.1694  2.3161
 1339SOL    HW215651   1.238   4.575   4.416  0.2731 -3.7529 -1.2539
 1340SOL     OW15652   1.789   1.723   8.231  0.3427 -0.2810  0.2757
 1340SOL    HW115653   1.851   1.794   8.243  0.2744 -0.4650  1.6951
 1340SOL    HW215654   1.709   1.769   8.254  1.1763  1.2095  0.1860
 1341SOL     OW15655   3.547   0.302   0.465  0.0749 -0.2558  0.2327
 1341SOL    HW115656   3.604   0.318   0.390  1.1842  0.2448  1.1811
 1341SOL    HW215657   3.597   0.358   0.524  0.3894 -2.0767  1.7186
 1342SOL     OW15658   4.370   0.918   4.014  0.2420 -0.3245 -0.3814
 1342SOL    HW115659   4.439   0.854   4.034 -0.9681 -0.8178  2.2394
 1342SOL    HW215660   4.291   0.880   4.053  0.2872  0.7429  0.7471
 1343SOL     OW15661   0.751   0.080  12.297  0.4576  0.1908 -0.5406
 1343SOL    HW115662   0.816   0.150  12.287 -0.6240  1.6300  2.8179
 1343SOL    HW215663   0.665   0.120  12.289  0.7546  1.2632  1.7306
 1344SOL     OW15664   2.379   1.933   4.324  0.4225 -0.1402  0.2515
 1344SOL    HW115665   2.441   1.976   4.265  0.5490  0.4984  0.8512
 1344SOL    HW215666   2.293   1.954   4.285  0.6275  4.8432  2.4035
 1345SOL     OW15667   1.750   3.939   2.325  0.2752  0.0746 -0.3770
 1345SOL    HW115668   1.783   3.928   2.236  1.0829 -0.7044  0.0260
 1345SOL    HW215669   1.715   4.027   2.311  1.5606  0.8120  0.9853
 1346SOL     OW15670   1.114   1.440   2.319 -0.4892 -0.1668  0.4805
 1346SOL    HW115671   1.198   1.402   2.292 -1.3345 -2.1607  0.6871
 1346SOL    HW215672   1.115   1.416   2.412  2.3684 -0.0167  0.5051
 1347SOL     OW15673   0.012   3.856   7.736  0.0487 -0.5236 -0.5100
 1347SOL    HW115674   0.025   3.812   7.652 -0.7802  0.3923 -1.1313
 1347SOL    HW215675   4.708   3.792   7.794  0.4256 -0.3252 -0.0271
 1348SOL     OW15676   2.543   4.199   5.016  0.4072  0.7215 -0.4740
 1348SOL    HW115677   2.628   4.240   5.004  2.3638 -3.3883 -0.3739
 1348SOL    HW215678   2.569   4.122   5.067  0.1299  0.4482 -0.7420
 1349SOL     OW15679   1.542   0.005   8.642 -0.3115  0.2419 -0.2890
 1349SOL    HW115680   1.580   4.679   8.581 -1.1160 -1.0099  0.5061
 1349SOL    HW215681   1.623   0.040   8.680 -0.1499  0.6722 -1.0215
 1350SOL     OW15682   2.357   4.378   8.847 -0.5904  0.2859 -0.6369
 1350SOL    HW115683   2.388   4.463   8.879 -1.3951 -0.5726  2.4298
 1350SOL    HW215684   2.421   4.342   8.786  0.9170  0.8153  0.6318
 1351SOL     OW15685   3.963   2.168   7.200 -0.0862  0.3131 -0.1111
 1351SOL    HW115686   3.889   2.225   7.223  0.7265  1.4912 -0.3954
 1351SOL    HW215687   3.922   2.104   7.142  0.6852 -0.2669 -0.0122
 1352SOL     OW15688   3.552   2.333  11.326 -0.3513  0.0758  0.4632
 1352SOL    HW115689   3.525   2.414  11.284 -0.2904  0.1259  0.5197
 1352SOL    HW215690   3.631   2.369  11.366 -1.1891  0.9801  1.2936
 1353SOL     OW15691   1.761   3.794  13.186 -0.3320 -0.5476 -0.0926
 1353SOL    HW115692   1.759   3.845  13.267 -1.1583 -1.7025  0.6255
 1353SOL    HW215693   1.668   3.795  13.165 -0.0306  0.4596 -1.3617
 1354SOL     OW15694   0.228   0.077   4.206 -0.6231 -0.0420  0.4275
 1354SOL    HW115695   0.213   0.152   4.147  0.0630 -2.0909 -2.3320
 1354SOL    HW215696   0.171   0.013   4.164 -0.0982 -0.5857  0.5435
 1355SOL     OW15697   4.622   0.903  11.466  0.1726 -0.4055  0.8336
 1355SOL    HW115698   4.658   0.946  11.544 -1.2621  0.5216  0.9869
 1355SOL    HW215699   4.661   0.816  11.476 -0.5696 -0.8541 -0.1708
 1356SOL     OW15700   0.587   3.772   8.353 -0.4553  0.0492 -1.0494
 1356SOL    HW115701   0.512   3.713   8.361  0.8089 -1.4530 -0.1776
 1356SOL    HW215702   0.549   3.849   8.396 -0.4849  0.1270 -1.2164
 1357SOL     OW15703   1.209   4.654  16.750 -0.2034 -0.0297 -0.0901
 1357SOL    HW115704   1.162   4.597  16.690 -1.9745  0.6790  0.6412
 1357SOL    HW215705   1.209   4.601  16.830  1.4261 -0.2704 -0.2307
 1358SOL     OW15706   4.517   2.292  15.945 -0.1938 -0.3171  0.0411
 1358SOL    HW115707   4.451   2.337  15.891 -1.7064  0.9831  2.9574
 1358SOL    HW215708   4.559   2.363  15.994 -1.4486 -0.2403  1.0210
 1359SOL     OW15709   3.475   0.616  12.533  0.5841 -0.5871  0.1221
 1359SOL    HW115710   3.479   0.642  12.624 -0.9288  1.8753 -0.5195
 1359SOL    HW215711   3.550   0.556  12.534  0.8907 -0.1624  1.9857
 1360SOL     OW15712   3.930   0.399   3.685 -0.3391 -0.0322 -0.3531
 1360SOL    HW115713   3.933   0.446   3.601 -1.4170 -0.5922 -0.7017
 1360SOL    HW215714   3.965   0.315   3.655  0.2190  0.4091 -0.9614
 1361SOL     OW15715   0.511   2.823  13.091 -0.2769 -0.1681 -0.0762
 1361SOL    HW115716   0.540   2.736  13.064 -1.5509 -1.0349  1.3427
 1361SOL    HW215717   0.583   2.860  13.143 -0.6321  0.5019 -0.0504
 1362SOL     OW15718   4.029   3.247   8.574 -0.1585  0.5056 -0.6985
 1362SOL    HW115719   4.069   3.172   8.618  0.8481  0.5531 -1.5506
 1362SOL    HW215720   3.940   3.228   8.543 -1.0259 -0.2038  2.2356
 1363SOL     OW15721   0.834   3.392   5.067 -0.1845 -0.3283 -0.2237
 1363SOL    HW115722   0.770   3.462   5.051 -0.5618 -0.2723  1.5826
 1363SOL    HW215723   0.799   3.325   5.008  3.1907 -2.0092 -0.3040
 1364SOL     OW15724   3.788   3.864   5.815  0.1905 -0.1360  0.0037
 1364SOL    HW115725   3.707   3.912   5.832  1.2626  1.0032  1.9504
 1364SOL    HW215726   3.827   3.924   5.750 -0.3849 -1.3249 -1.4501
 1365SOL     OW15727   4.370   3.934   8.894 -0.3414 -0.0298  0.1011
 1365SOL    HW115728   4.367   3.994   8.968  1.0575 -1.2847  1.1773
 1365SOL    HW215729   4.278   3.907   8.890 -0.9885  2.4969 -1.6307
 1366SOL     OW15730   4.014   1.565   8.174 -0.1419 -0.1575  0.5339
 1366SOL    HW115731   4.082   1.596   8.115 -0.1830 -0.3703  0.3758
 1366SOL    HW215732   3.938   1.615   8.145  0.7747  0.8163 -0.1730
 1367SOL     OW15733   0.161   3.044   3.394  0.0332 -0.2547 -0.5990
 1367SOL    HW115734   0.087   3.084   3.439 -0.2813 -0.8706 -0.5712
 1367SOL    HW215735   0.228   3.111   3.381 -1.6110  1.6588  0.9745
 1368SOL     OW15736   0.290   0.632   1.462  0.1111  0.1141 -0.5205
 1368SOL    HW115737   0.317   0.549   1.422  1.6827 -0.1175  1.0258
 1368SOL    HW215738   0.367   0.687   1.449  0.2703  0.8249  3.3207
 1369SOL     OW15739   4.696   0.591   9.249  0.1137 -0.2998 -0.0398
 1369SOL    HW115740   4.726   0.516   9.198  0.4778  0.3860 -0.8465
 1369SOL    HW215741   4.622   0.622   9.197 -0.1610  1.1464  1.2185
 1370SOL     OW15742   1.275   4.232  14.508 -0.8832  0.3621 -0.5065
 1370SOL    HW115743   1.287   4.316  14.463 -0.7310 -0.0299 -1.1953
 1370SOL    HW215744   1.180   4.230  14.499 -0.8760 -1.2380 -0.1303
 1371SOL     OW15745   4.594   4.285   3.347 -0.3355 -0.1509  0.5014
 1371SOL    HW115746   4.555   4.344   3.283 -0.7508  0.3339  1.2135
 1371SOL    HW215747   4.688   4.280   3.326 -0.0107  2.4516  1.3642
 1372SOL     OW15748   0.769   1.412   6.328 -0.6366  1.0684  0.4042
 1372SOL    HW115749   0.817   1.331   6.311 -2.4956  0.1222 -0.3105
 1372SOL    HW215750   0.827   1.464   6.384 -0.8681  0.7329  0.9531
 1373SOL     OW15751   4.108   0.847  12.209 -0.6040 -0.4197 -0.2005
 1373SOL    HW115752   4.022   0.869  12.175 -1.0726 -1.0085  0.6103
 1373SOL    HW215753   4.137   0.769  12.162 -2.7354 -1.5871  0.4391
 1374SOL     OW15754   4.468   2.429  15.682  0.1771 -0.2320  0.3055
 1374SOL    HW115755   4.387   2.477  15.698 -0.4230 -1.8290  2.0266
 1374SOL    HW215756   4.535   2.497  15.690 -1.8425  1.4821  2.9421
 1375SOL     OW15757   2.134   4.313  16.672  0.1861 -0.3339  0.2288
 1375SOL    HW115758   2.111   4.403  16.694 -0.7112 -0.4573 -0.2002
 1375SOL    HW215759   2.127   4.264  16.753 -2.5495 -0.2867  0.0095
 1376SOL     OW15760   1.690   2.246   2.566 -0.2906 -0.0058  0.1140
 1376SOL    HW115761   1.653   2.231   2.479  0.2717 -0.8192  0.0125
 1376SOL    HW215762   1.781   2.243   2.539 -0.1347  2.2826  0.3568
 1377SOL     OW15763   3.218   1.526   7.942  0.6494 -0.3675 -0.1617
 1377SOL    HW115764   3.125   1.530   7.923  0.7958  2.0049 -0.3593
 1377SOL    HW215765   3.206   1.464   8.014  0.8413 -0.5173 -0.2571
 1378SOL     OW15766   3.552   0.327   2.052 -0.4600  0.2462  0.3427
 1378SOL    HW115767   3.618   0.375   2.101  0.9173  0.5025 -1.7446
 1378SOL    HW215768   3.576   0.346   1.961  0.8305  0.5834  0.7546
 1379SOL     OW15769   0.771   4.438   6.494 -0.1611 -0.2211  0.1076
 1379SOL    HW115770   0.853   4.482   6.472 -0.9747  0.1861 -2.0620
 1379SOL    HW215771   0.734   4.508   6.549  1.0648  0.8029 -0.3629
 1380SOL     OW15772   1.131   0.347   1.984 -0.0231 -0.3106 -0.5880
 1380SOL    HW115773   1.061   0.295   2.023 -0.8928  0.3772 -1.2299
 1380SOL    HW215774   1.205   0.329   2.042  0.9277  0.0583 -1.6801
 1381SOL     OW15775   2.459   1.728  16.615 -0.9734 -0.9843 -0.1625
 1381SOL    HW115776   2.413   1.783  16.552 -1.1110  0.3137  1.0770
 1381SOL    HW215777   2.383   1.690  16.658 -0.1961 -1.0669  1.1537
 1382SOL     OW15778   1.179   2.740   7.103  0.0813  0.1057 -0.4804
 1382SOL    HW115779   1.151   2.652   7.129 -2.5863  1.0371 -0.2717
 1382SOL    HW215780   1.234   2.777   7.171 -1.0887  1.5993 -0.3509
 1383SOL     OW15781   2.891   0.341   0.077  0.1588  0.1687  0.2843
 1383SOL    HW115782   2.832   0.266   0.081 -0.4252  0.5660 -0.7891
 1383SOL    HW215783   2.929   0.340   0.165  2.2545  0.9960 -0.6188
 1384SOL     OW15784   2.798   2.592   5.768 -0.4481  0.0963 -0.1702
 1384SOL    HW115785   2.754   2.617   5.687  0.5341 -0.9398 -1.0295
 1384SOL    HW215786   2.753   2.511   5.791  0.1956 -0.1979  0.0641
 1385SOL     OW15787   4.554   4.457  16.590  0.1786 -0.2119  0.3617
 1385SOL    HW115788   4.561   4.482  16.682 -2.3425  1.9357 -0.0436
 1385SOL    HW215789   4.623   4.518  16.563  1.9113 -1.2937  2.3016
 1386SOL     OW15790   0.453   0.383  14.299 -0.9714 -0.0291 -0.2111
 1386SOL    HW115791   0.445   0.362  14.207  0.5212 -2.1289  0.1616
 1386SOL    HW215792   0.360   0.399  14.315 -0.4711  0.2592  2.4426
 1387SOL     OW15793   2.191   1.334  10.480 -0.9810 -0.0405 -0.3109
 1387SOL    HW115794   2.191   1.262  10.544 -1.2880 -0.2076 -0.4999
 1387SOL    HW215795   2.219   1.401  10.542 -1.1953 -0.7872  0.6059
 1388SOL     OW15796   0.306   2.687   2.109  0.0895 -0.2757  0.1368
 1388SOL    HW115797   0.360   2.609   2.096  0.8840  0.1190  1.0999
 1388SOL    HW215798   0.336   2.710   2.197 -1.9314 -1.5164  1.1365
 1389SOL     OW15799   4.459   0.313  13.149  0.0984  0.0844 -0.1157
 1389SOL    HW115800   4.376   0.331  13.193 -1.2861 -1.2202 -2.1690
 1389SOL    HW215801   4.504   0.395  13.169 -1.4523  0.6796  0.9038
 1390SOL     OW15802   4.211   0.540   3.553 -0.6347 -0.1255 -0.2495
 1390SOL    HW115803   4.234   0.455   3.592 -1.2980 -0.1166  0.1591
 1390SOL    HW215804   4.287   0.561   3.499 -1.6919  2.0666 -0.8748
 1391SOL     OW15805   1.899   2.968   9.547  0.2770  0.4215  0.0906
 1391SOL    HW115806   1.920   3.059   9.526  0.2685  0.5199  0.5146
 1391SOL    HW215807   1.956   2.956   9.622  1.6397  2.3212 -0.6585
 1392SOL     OW15808   2.714   2.551  10.541 -0.1962 -0.4891  0.3041
 1392SOL    HW115809   2.770   2.492  10.491 -0.8759 -0.5818 -0.3618
 1392SOL    HW215810   2.776   2.621  10.557 -0.5319 -0.7866  2.9079
 1393SOL     OW15811   0.800   2.021   4.944 -0.3871  0.3352 -0.4193
 1393SOL    HW115812   0.714   2.052   4.972 -0.0722  0.7538  0.0839
 1393SOL    HW215813   0.787   1.971   4.863 -1.7904 -0.7489  0.4835
 1394SOL     OW15814   2.134   4.242  14.342  0.6639 -0.0047  0.3436
 1394SOL    HW115815   2.167   4.328  14.315 -0.1950  0.0854 -0.4360
 1394SOL    HW215816   2.063   4.232  14.278 -0.2866 -2.6842  1.8317
 1395SOL     OW15817   2.830   3.768   4.785 -0.1259 -0.5753 -0.3327
 1395SOL    HW115818   2.767   3.697   4.800 -0.4986 -0.5275 -1.6054
 1395SOL    HW215819   2.866   3.766   4.873  1.3497  3.7344 -0.8509
 1396SOL     OW15820   4.434   0.886   3.603 -0.2456  0.0648 -0.0778
 1396SOL    HW115821   4.479   0.966   3.630  1.5000 -0.1446 -2.3695
 1396SOL    HW215822   4.452   0.829   3.677 -1.2736 -2.8690 -2.0886
 1397SOL     OW15823   4.557   0.569   2.923  0.2254  0.4140 -0.8249
 1397SOL    HW115824   4.503   0.491   2.935  1.2021 -0.2381 -0.6374
 1397SOL    HW215825   4.496   0.633   2.959  0.0685  0.2387 -0.7781
 1398SOL     OW15826   3.761   0.857   1.918 -0.1090 -0.3091  0.2862
 1398SOL    HW115827   3.811   0.932   1.888 -2.3765  0.4029 -1.6676
 1398SOL    HW215828   3.780   0.855   2.012 -3.9657 -0.7620  1.0862
 1399SOL     OW15829   1.396   4.215   4.214 -0.2249 -1.1596  0.4326
 1399SOL    HW115830   1.390   4.286   4.149 -1.8425 -0.1209  1.7101
 1399SOL    HW215831   1.407   4.136   4.162 -0.4698 -1.8438  1.4340
 1400SOL     OW15832   3.010   3.118   6.023  0.3633 -0.7555 -0.2966
 1400SOL    HW115833   2.962   3.043   5.988  2.4621 -2.9354  1.4648
 1400SOL    HW215834   3.091   3.103   5.975  1.2602 -2.9631  1.8968
 1401SOL     OW15835   3.381   2.738   3.727  0.5193 -0.3936 -0.3591
 1401SOL    HW115836   3.306   2.683   3.749 -0.2866  0.7858 -0.1579
 1401SOL    HW215837   3.374   2.805   3.795  0.0678 -1.5569  0.7332
 1402SOL     OW15838   0.044   2.245   7.213 -0.3040 -0.0039  0.4555
 1402SOL    HW115839   0.092   2.163   7.202  0.9417  0.9314 -1.0524
 1402SOL    HW215840   4.698   2.233   7.167  0.8558  0.8415 -1.8522
 1403SOL     OW15841   0.627   2.735   4.119  0.0701 -0.2778  0.6493
 1403SOL    HW115842   0.610   2.716   4.027  1.5300 -0.1552  0.3449
 1403SOL    HW215843   0.642   2.643   4.144  1.2151 -0.3991 -0.4904
 1404SOL     OW15844   0.527   2.762   6.574  0.4465 -0.2538  0.3020
 1404SOL    HW115845   0.531   2.840   6.519  2.1100 -0.1470  0.5848
 1404SOL    HW215846   0.438   2.759   6.610  0.8100  1.6988  1.3576
 1405SOL     OW15847   2.170   0.687  16.688 -0.2631 -0.0542  0.0449
 1405SOL    HW115848   2.251   0.696  16.738  0.2343 -0.1656 -0.7463
 1405SOL    HW215849   2.111   0.639  16.746 -0.1730 -0.8382 -0.5086
 1406SOL     OW15850   3.696   1.301   0.761  0.0457  0.1218  0.1628
 1406SOL    HW115851   3.674   1.284   0.853 -0.4668 -0.5170 -0.0825
 1406SOL    HW215852   3.621   1.353   0.735  0.8271 -0.1592 -2.5851
 1407SOL     OW15853   4.485   0.996   8.238  0.6820  0.3812  1.0158
 1407SOL    HW115854   4.490   0.901   8.234  2.3481  0.5775 -1.4529
 1407SOL    HW215855   4.498   1.018   8.330  1.6372  0.2302  0.9081
 1408SOL     OW15856   4.371   0.937   2.889  0.1136  0.0679 -0.4273
 1408SOL    HW115857   4.356   0.966   2.979 -0.4144 -0.0332 -0.4827
 1408SOL    HW215858   4.285   0.961   2.854  0.7968  2.1627 -0.7019
 1409SOL     OW15859   1.926   0.663   8.191  0.1662  0.0688 -0.5266
 1409SOL    HW115860   1.914   0.666   8.286 -1.3781 -0.3763 -0.7007
 1409SOL    HW215861   1.837   0.673   8.156 -0.2466 -0.2662  0.4375
 1410SOL     OW15862   2.001   4.539   2.310 -0.3440 -0.5162  0.0867
 1410SOL    HW115863   1.978   4.586   2.230  0.1475 -2.0684 -0.9612
 1410SOL    HW215864   1.958   4.453   2.312 -2.9334  0.7867  0.4565
 1411SOL     OW15865   3.129   4.214   2.647  0.4430 -0.0076 -0.1836
 1411SOL    HW115866   3.095   4.212   2.558 -1.4932  1.8847  0.4998
 1411SOL    HW215867   3.045   4.211   2.694 -0.2954  0.0101 -1.5124
 1412SOL     OW15868   1.349   2.471   6.793  0.4920  0.1535  0.4923
 1412SOL    HW115869   1.370   2.417   6.717 -1.0541 -0.6895  0.6731
 1412SOL    HW215870   1.427   2.450   6.844  1.4321  1.3451 -0.4532
 1413SOL     OW15871   1.741   1.112   8.609  0.6200  0.0518 -0.2195
 1413SOL    HW115872   1.701   1.042   8.660  1.9279 -0.9187 -0.5305
 1413SOL    HW215873   1.680   1.184   8.622 -0.5568 -1.0722  0.5691
 1414SOL     OW15874   4.572   2.270   5.190  0.3604  0.0154  0.1669
 1414SOL    HW115875   4.644   2.324   5.222  2.0970 -1.8275 -0.5953
 1414SOL    HW215876   4.496   2.326   5.208  1.6758  1.5262  1.0678
 1415SOL     OW15877   1.689   4.475   6.124  0.2125  0.4382  0.9966
 1415SOL    HW115878   1.686   4.454   6.031  4.0060 -2.2666  1.4640
 1415SOL    HW215879   1.597   4.474   6.150  0.1033 -0.3731  0.5630
 1416SOL     OW15880   4.148   0.390   5.021  0.3540  0.1724  0.2744
 1416SOL    HW115881   4.105   0.396   4.936  0.1535  1.5863  0.4824
 1416SOL    HW215882   4.235   0.429   5.022  0.0618  0.8521 -1.5077
 1417SOL     OW15883   3.826   2.636   3.840 -0.0606  0.4516  0.1665
 1417SOL    HW115884   3.884   2.708   3.815  1.6789 -1.3540 -1.0008
 1417SOL    HW215885   3.744   2.679   3.866  0.6616  0.1134  2.9963
 1418SOL     OW15886   3.170   1.516   5.443  0.1518  0.3402  0.1089
 1418SOL    HW115887   3.084   1.499   5.403  0.2753 -1.4353  0.6246
 1418SOL    HW215888   3.156   1.469   5.524  1.2662  2.6567  1.6431
 1419SOL     OW15889   0.994   1.572   4.514  0.1259 -0.2825  0.1686
 1419SOL    HW115890   0.901   1.563   4.493  0.4084 -1.7917 -0.4145
 1419SOL    HW215891   0.985   1.609   4.602  0.8405  1.9762 -0.6923
 1420SOL     OW15892   4.213   1.190   5.660 -0.2105  0.2036 -0.1210
 1420SOL    HW115893   4.190   1.282   5.672 -3.6460 -0.8866  1.5017
 1420SOL    HW215894   4.179   1.156   5.743 -1.8476 -0.9261 -1.2764
 1421SOL     OW15895   0.443   1.999   2.961  0.3804  0.3229 -0.2140
 1421SOL    HW115896   0.397   1.945   2.897 -0.6623  1.4213 -0.3994
 1421SOL    HW215897   0.420   1.960   3.046 -0.1583 -0.3812 -0.6826
 1422SOL     OW15898   0.826   0.959  12.580 -0.4037 -0.0432  0.0645
 1422SOL    HW115899   0.920   0.949  12.593 -0.8122 -0.3478  2.6871
 1422SOL    HW215900   0.800   0.869  12.600 -3.1160  0.6697 -0.1605
 1423SOL     OW15901   2.383   4.498   1.481  0.6379  0.0280 -0.1833
 1423SOL    HW115902   2.359   4.406   1.489  1.2584 -0.0754  0.4344
 1423SOL    HW215903   2.353   4.538   1.563  2.1219  2.4554 -0.8239
 1424SOL     OW15904   1.714   0.874   8.418 -0.0898 -0.1510 -0.5949
 1424SOL    HW115905   1.644   0.811   8.434 -1.1340  1.5129  1.4066
 1424SOL    HW215906   1.678   0.959   8.443  1.3438 -0.0404  1.1147
 1425SOL     OW15907   3.082   2.738  15.814  0.3165 -0.3564 -0.1874
 1425SOL    HW115908   3.167   2.695  15.809  0.2636 -0.4687 -0.1292
 1425SOL    HW215909   3.098   2.829  15.789  0.4227  0.2116  1.9532
 1426SOL     OW15910   1.909   0.467  16.057  0.0135  0.3265 -0.1313
 1426SOL    HW115911   1.939   0.425  15.976 -0.1842  0.7143 -0.4085
 1426SOL    HW215912   1.848   0.517  16.002  0.4356 -0.7417 -1.5439
 1427SOL     OW15913   1.709   0.434   7.300 -0.6830  0.0941 -0.4665
 1427SOL    HW115914   1.635   0.373   7.307 -3.1511  3.1981  0.5871
 1427SOL    HW215915   1.729   0.471   7.386  1.9181 -1.4931 -0.4185
 1428SOL     OW15916   3.009   1.525   6.656  0.0567 -0.1539  0.3600
 1428SOL    HW115917   3.040   1.517   6.566 -1.1495  3.3433 -0.3545
 1428SOL    HW215918   2.966   1.610   6.647 -2.3610 -1.3407  0.5552
 1429SOL     OW15919   1.728   1.047   9.622 -0.5674 -0.1530  0.6776
 1429SOL    HW115920   1.760   1.137   9.633  1.9015 -0.4315 -4.1936
 1429SOL    HW215921   1.798   1.004   9.573 -1.5138  0.2262 -1.0122
 1430SOL     OW15922   1.080   0.221   7.952 -0.3103 -0.5920  0.6911
 1430SOL    HW115923   1.150   0.184   7.898 -1.7289  2.1247 -2.9410
 1430SOL    HW215924   1.056   0.145   8.005  0.2788 -0.9277  0.4814
 1431SOL     OW15925   1.903   2.148   8.237  0.1547 -0.9258 -0.1218
 1431SOL    HW115926   1.831   2.181   8.292  1.4408  1.1639  0.3137
 1431SOL    HW215927   1.970   2.202   8.280  1.8658 -1.4883 -2.1218
 1432SOL     OW15928   1.531   1.659  14.573  0.2814  0.3989 -0.6466
 1432SOL    HW115929   1.566   1.572  14.555  0.8454  1.0944 -2.9076
 1432SOL    HW215930   1.437   1.643  14.569  0.4992 -1.2150  0.9438
 1433SOL     OW15931   1.687   2.954  16.957 -0.2955 -0.1810 -0.4372
 1433SOL    HW115932   1.599   2.987  16.939 -1.2776 -2.0555  0.9996
 1433SOL    HW215933   1.662   2.874  17.003  0.0267 -0.2962 -0.4629
 1434SOL     OW15934   4.260   4.725   0.529  0.2174 -0.1257  0.4493
 1434SOL    HW115935   4.289   4.721   0.437 -0.8613  1.1339  0.0634
 1434SOL    HW215936   4.333   4.684   0.576  0.2398 -1.8502 -1.0855
 1435SOL     OW15937   3.118   3.635   9.754 -0.3640 -0.3955 -0.1673
 1435SOL    HW115938   3.066   3.708   9.786 -1.6834 -0.9390 -1.0545
 1435SOL    HW215939   3.191   3.676   9.707  0.7446 -1.1070  0.9314
 1436SOL     OW15940   4.587   0.909   7.751 -0.9898  0.6073  0.0900
 1436SOL    HW115941   4.504   0.901   7.798  0.8279 -1.3445  2.9937
 1436SOL    HW215942   4.614   0.997   7.777 -0.2663  0.7611 -1.2031
 1437SOL     OW15943   1.319   3.078  10.998  0.2006 -0.1759 -0.0756
 1437SOL    HW115944   1.246   3.057  10.939 -0.4015  0.4207  0.4590
 1437SOL    HW215945   1.288   3.140  11.063  1.3515 -1.2235  1.4692
 1438SOL     OW15946   4.268   1.229  14.028 -0.0573 -0.4390  0.7361
 1438SOL    HW115947   4.218   1.150  14.007 -1.7526  0.9174 -0.3516
 1438SOL    HW215948   4.202   1.284  14.069 -1.7927 -0.8089 -1.5930
 1439SOL     OW15949   2.084   3.979  11.702  0.0559 -0.0818 -0.2877
 1439SOL    HW115950   1.991   3.956  11.698  0.0949 -0.4522  0.7950
 1439SOL    HW215951   2.101   3.982  11.797 -0.4197 -1.4502 -0.1583
 1440SOL     OW15952   0.344   4.635   9.957  0.8225 -0.1617  0.6353
 1440SOL    HW115953   0.362   4.550   9.997 -0.7655 -1.1892 -0.8565
 1440SOL    HW215954   0.286   4.607   9.886  1.6746 -2.5913  0.9167
 1441SOL     OW15955   0.245   0.797  10.150  0.5353  0.3664 -0.1908
 1441SOL    HW115956   0.218   0.725  10.207  0.4413 -2.2133 -3.4896
 1441SOL    HW215957   0.240   0.872  10.210 -1.1765  0.1189 -0.0205
 1442SOL     OW15958   4.230   0.690   5.962  0.2436  0.2448 -0.0824
 1442SOL    HW115959   4.217   0.745   5.885  1.5740 -0.5999 -0.8917
 1442SOL    HW215960   4.252   0.760   6.024  0.4984 -0.8268  1.0451
 1443SOL     OW15961   4.654   2.505   6.380 -0.3726  0.8276  0.1814
 1443SOL    HW115962   4.709   2.583   6.372  0.2418  0.3232 -0.4670
 1443SOL    HW215963   4.725   2.444   6.396  0.2645  1.6968  0.6702
 1444SOL     OW15964   2.950   0.934   2.650  0.0998 -0.5655 -0.3954
 1444SOL    HW115965   2.991   1.002   2.703  1.0268 -1.2570 -0.2181
 1444SOL    HW215966   2.940   0.976   2.565  0.3741  2.0663  0.8872
 1445SOL     OW15967   4.343   4.241  15.924  0.3216  0.2424  0.4042
 1445SOL    HW115968   4.418   4.181  15.918  2.4326  2.7374  2.0293
 1445SOL    HW215969   4.385   4.325  15.907 -0.5800  0.0415 -2.8405
 1446SOL     OW15970   3.809   4.013   8.349 -0.3721  0.1062 -0.0033
 1446SOL    HW115971   3.849   4.056   8.425  0.2474 -0.4088 -0.0356
 1446SOL    HW215972   3.721   3.992   8.381 -0.8040  1.0691 -0.5755
 1447SOL     OW15973   1.910   0.015  16.568 -0.3657  0.0616 -0.2206
 1447SOL    HW115974   1.939   0.100  16.533 -0.9125 -0.0635 -0.9728
 1447SOL    HW215975   1.956   4.690  16.511  0.1804 -0.4243  0.7554
 1448SOL     OW15976   4.458   2.091   7.858 -0.3606  0.0063 -0.5223
 1448SOL    HW115977   4.541   2.111   7.903  0.2160 -0.5255 -1.3543
 1448SOL    HW215978   4.489   2.076   7.769  1.9355  0.2943  0.2190
 1449SOL     OW15979   3.572   3.871   2.799 -0.4755 -0.3411 -0.2239
 1449SOL    HW115980   3.491   3.889   2.845 -1.1672  1.1908 -2.0453
 1449SOL    HW215981   3.586   3.786   2.842  1.6484 -0.1040 -0.4417
 1450SOL     OW15982   3.298   0.933   4.678  0.2738  0.2453  0.8802
 1450SOL    HW115983   3.374   0.878   4.696 -2.2154 -3.6115 -0.4468
 1450SOL    HW215984   3.347   1.011   4.651  0.3589 -0.0037  0.3180
 1451SOL     OW15985   2.009   3.158   9.152 -0.6123  0.0194  0.2993
 1451SOL    HW115986   1.997   3.069   9.185  1.8062 -1.3979 -2.6602
 1451SOL    HW215987   1.920   3.192   9.152 -0.3064  0.8276  0.2704
 1452SOL     OW15988   4.054   4.600   4.095 -0.2849 -0.0493 -0.2241
 1452SOL    HW115989   4.004   4.604   4.013  1.0481  0.6821 -1.0045
 1452SOL    HW215990   4.093   4.687   4.098 -1.2724  0.5408 -3.9277
 1453SOL     OW15991   1.756   0.226   3.261 -0.6116 -0.3524 -0.0115
 1453SOL    HW115992   1.779   0.255   3.173  0.6242  2.4702  1.2318
 1453SOL    HW215993   1.784   0.135   3.268  2.7057  0.5942 -1.0338
 1454SOL     OW15994   1.255   0.579   2.747 -0.0640  0.1192 -0.0275
 1454SOL    HW115995   1.310   0.650   2.780 -0.0640 -0.2412  0.7536
 1454SOL    HW215996   1.285   0.572   2.657  1.4931 -1.3435  0.6032
 1455SOL     OW15997   3.516   1.177  11.520 -0.2087 -0.0857 -0.3202
 1455SOL    HW115998   3.575   1.103  11.506  0.2091  0.8413 -3.3764
 1455SOL    HW215999   3.430   1.134  11.521  0.0562 -0.5965  0.6996
 1456SOL     OW16000   0.540   0.002   5.075 -0.3821  0.6527  0.6019
 1456SOL    HW116001   0.580   0.001   4.988  0.6361  1.1078  1.0666
 1456SOL    HW216002   0.477   0.074   5.068 -0.0162  0.9873  0.7827
 1457SOL     OW16003   3.944   4.688   3.155 -0.8610 -0.9226  0.0793
 1457SOL    HW116004   3.913   4.620   3.095  0.0584 -0.4165 -0.9525
 1457SOL    HW216005   3.860   4.730   3.176 -0.4358  0.7478 -1.5843
 1458SOL     OW16006   0.103   0.756  12.029 -0.0803  0.0796 -0.3910
 1458SOL    HW116007   0.020   0.792  12.063  0.6644  0.5204  0.9713
 1458SOL    HW216008   0.149   0.837  12.007 -0.9639  0.4962 -0.7019
 1459SOL     OW16009   0.941   1.284   7.471  0.5519 -0.2868 -0.1760
 1459SOL    HW116010   0.967   1.210   7.525  1.2616  0.0797 -0.0168
 1459SOL    HW216011   1.016   1.300   7.413  0.6398 -0.0590  0.0004
 1460SOL     OW16012   4.635   3.230   5.693  0.0251 -0.0845  0.8788
 1460SOL    HW116013   4.692   3.212   5.619 -1.1731  0.5158 -0.1877
 1460SOL    HW216014   4.682   3.172   5.753 -0.0059 -0.2601  0.7331
 1461SOL     OW16015   3.034   4.544   7.832 -0.3066 -0.1914 -0.0390
 1461SOL    HW116016   2.967   4.479   7.809 -1.5079  0.1817  2.4880
 1461SOL    HW216017   3.112   4.491   7.844  0.1629  0.4057 -0.4487
 1462SOL     OW16018   2.246   0.122   9.298 -0.7322 -0.2073 -0.0106
 1462SOL    HW116019   2.260   0.216   9.302  1.2028 -0.4509 -1.3363
 1462SOL    HW216020   2.329   0.087   9.330  0.1550 -0.2877 -2.4841
 1463SOL     OW16021   4.026   0.295   8.233  0.1203 -0.2174 -0.2830
 1463SOL    HW116022   4.053   0.290   8.141  0.6131 -2.0229 -0.0326
 1463SOL    HW216023   4.063   0.380   8.257  0.2369  0.1378 -1.6876
 1464SOL     OW16024   0.509   3.638   3.123 -0.4462  0.3807 -0.3225
 1464SOL    HW116025   0.467   3.552   3.119  3.1105 -1.4308  0.6252
 1464SOL    HW216026   0.598   3.613   3.098 -0.6752  1.6352 -2.4491
 1465SOL     OW16027   1.188   3.905   3.073 -0.5133  0.3296  0.1873
 1465SOL    HW116028   1.154   3.920   3.162  0.8005 -2.0347  1.0824
 1465SOL    HW216029   1.170   3.813   3.058  0.4008  0.2776 -0.5822
 1466SOL     OW16030   3.672   0.589   6.176 -0.1571 -0.0799  0.0105
 1466SOL    HW116031   3.711   0.657   6.122  1.4288  1.0879  2.6694
 1466SOL    HW216032   3.665   0.634   6.260  1.9545 -2.7861  1.6192
 1467SOL     OW16033   1.587   3.889   4.270  0.7862  0.3711  0.3382
 1467SOL    HW116034   1.542   3.951   4.212  1.2474  1.6260  1.3052
 1467SOL    HW216035   1.514   3.877   4.331  2.0268 -1.5461  1.4375
 1468SOL     OW16036   3.449   3.101  12.830 -0.7053 -0.4260 -0.7863
 1468SOL    HW116037   3.403   3.051  12.762  1.4675 -1.0176 -1.8083
 1468SOL    HW216038   3.397   3.076  12.906 -1.5404  0.1723 -1.1546
 1469SOL     OW16039   1.073   3.937   9.964 -0.0228  0.0407 -0.0108
 1469SOL    HW116040   1.054   4.018  10.009 -2.3703  0.2420 -1.3662
 1469SOL    HW216041   1.165   3.948   9.941 -0.0127 -1.7374 -0.8709
 1470SOL     OW16042   0.107   1.942   3.176  0.4282 -0.9560  0.0834
 1470SOL    HW116043   0.020   1.931   3.137 -0.1032 -1.3011  1.3354
 1470SOL    HW216044   0.107   2.037   3.176 -0.3620 -0.9417  2.9690
 1471SOL     OW16045   0.938   1.571   6.515 -0.0424 -0.9176  0.7322
 1471SOL    HW116046   0.895   1.546   6.596 -3.1004 -0.1830 -0.6668
 1471SOL    HW216047   1.027   1.552   6.545 -0.4096 -0.6888  1.9607
 1472SOL     OW16048   2.244   2.205   2.047 -0.0294 -0.3183 -0.4193
 1472SOL    HW116049   2.264   2.134   2.107 -1.1685 -0.0903  0.2186
 1472SOL    HW216050   2.335   2.234   2.034  0.1505 -0.5230  0.3922
 1473SOL     OW16051   2.913   1.509  10.414 -0.7147 -0.4801 -0.3627
 1473SOL    HW116052   2.914   1.414  10.410 -1.1284 -0.4899 -0.2332
 1473SOL    HW216053   2.969   1.533  10.339 -0.4468  3.0769  0.9517
 1474SOL     OW16054   4.205   3.630   7.738  0.1924  0.3047  0.2262
 1474SOL    HW116055   4.182   3.571   7.810 -1.7670 -0.4129 -0.9935
 1474SOL    HW216056   4.248   3.562   7.687  2.2471  1.0136  1.0332
 1475SOL     OW16057   1.854   2.986  15.332  0.4950  0.5624 -0.1395
 1475SOL    HW116058   1.872   2.892  15.328  1.4810  0.6439  2.5363
 1475SOL    HW216059   1.844   3.021  15.243 -0.4178  2.3790  0.6924
 1476SOL     OW16060   3.112   1.095   8.872 -0.3860  0.8584  0.1903
 1476SOL    HW116061   3.203   1.065   8.871 -0.3919  0.8394  0.2181
 1476SOL    HW216062   3.100   1.131   8.784  1.8360  0.2470 -0.3516
 1477SOL     OW16063   1.911   3.073   6.311 -0.2556 -0.2896  0.3036
 1477SOL    HW116064   1.856   3.022   6.251 -0.5177  1.4447 -0.9183
 1477SOL    HW216065   2.001   3.060   6.282  0.0357  0.4867  0.8842
 1478SOL     OW16066   0.493   3.339   4.087 -0.6747 -0.3329 -0.4776
 1478SOL    HW116067   0.436   3.263   4.098 -0.1331 -0.7616 -0.6229
 1478SOL    HW216068   0.424   3.401   4.109  1.4854  3.0024 -3.0401
 1479SOL     OW16069   3.615   4.430   6.646  0.3843 -0.5611 -0.2819
 1479SOL    HW116070   3.590   4.428   6.554 -1.3084 -1.4665  0.2007
 1479SOL    HW216071   3.649   4.341   6.654 -0.6198 -0.7563  1.8460
 1480SOL     OW16072   1.241   2.178  11.965  0.2101 -0.2797  0.0047
 1480SOL    HW116073   1.226   2.216  12.052  0.9866  0.1670 -0.0577
 1480SOL    HW216074   1.188   2.235  11.909  3.0204  1.1258 -1.2437
 1481SOL     OW16075   1.690   0.530   4.074 -0.5161 -0.1485 -0.3807
 1481SOL    HW116076   1.650   0.495   4.155  0.7548  0.0298  0.3195
 1481SOL    HW216077   1.760   0.465   4.067 -0.1813 -0.0091  1.6906
 1482SOL     OW16078   4.229   2.225  16.688  0.3792  0.2341 -0.2815
 1482SOL    HW116079   4.226   2.140  16.645 -0.9856  1.4773 -2.6440
 1482SOL    HW216080   4.138   2.244  16.710  0.3356  1.3419 -1.3865
 1483SOL     OW16081   1.460   4.095   2.163 -0.1433 -0.5329  1.2011
 1483SOL    HW116082   1.509   4.037   2.105 -0.4932 -1.0957  1.4638
 1483SOL    HW216083   1.462   4.173   2.107 -0.3665 -0.8151  0.8008
 1484SOL     OW16084   0.394   4.369   6.572 -0.4487 -0.4312 -0.3177
 1484SOL    HW116085   0.379   4.364   6.667  2.0443  0.3324  0.1170
 1484SOL    HW216086   0.369   4.282   6.539  3.2738 -2.2434  1.6922
 1485SOL     OW16087   3.415   1.350   8.700 -0.4612 -0.2092 -0.3870
 1485SOL    HW116088   3.341   1.290   8.707 -0.1121 -0.2028  3.2174
 1485SOL    HW216089   3.395   1.405   8.776 -0.0455  0.9055 -1.0715
 1486SOL     OW16090   1.301   1.230   7.703  0.0780  0.3568  0.5677
 1486SOL    HW116091   1.340   1.257   7.620  1.8398 -1.2646  0.8660
 1486SOL    HW216092   1.253   1.311   7.721  0.6864  0.9998 -0.6912
 1487SOL     OW16093   0.622   0.969  12.413  0.4922  0.4245 -0.1918
 1487SOL    HW116094   0.707   0.974  12.457 -0.9340  1.3410  2.4306
 1487SOL    HW216095   0.566   1.034  12.454 -0.4639  1.2638 -2.8805
 1488SOL     OW16096   3.170   3.171   1.491  0.6912  0.2841 -0.0534
 1488SOL    HW116097   3.138   3.201   1.576  0.0570 -0.6750  0.0466
 1488SOL    HW216098   3.207   3.252   1.454  0.8645  0.2633  0.0734
 1489SOL     OW16099   1.009   0.122   7.409 -0.5203 -0.4984  0.0980
 1489SOL    HW116100   1.033   0.035   7.377 -1.6169 -0.4979 -0.7096
 1489SOL    HW216101   0.914   0.124   7.404 -0.4564 -1.7805 -1.7392
 1490SOL     OW16102   0.776   1.291   6.607 -0.4689 -0.2600 -0.1813
 1490SOL    HW116103   0.691   1.275   6.567 -0.5405  0.6979 -0.4068
 1490SOL    HW216104   0.835   1.261   6.538 -1.6945 -0.6807 -1.0309
 1491SOL     OW16105   3.177   2.379   1.833 -0.5873  0.1661  0.2104
 1491SOL    HW116106   3.263   2.344   1.809  0.3903  2.6995  0.0177
 1491SOL    HW216107   3.204   2.456   1.883  0.2047 -0.3539  0.5874
 1492SOL     OW16108   2.679   3.795   8.984  0.2422 -0.6955 -0.2214
 1492SOL    HW116109   2.589   3.816   8.961  0.4411 -1.4549 -1.6763
 1492SOL    HW216110   2.721   3.860   8.929 -2.2161 -0.5139 -1.8430
 1493SOL     OW16111   0.891   4.566   1.264 -0.1819  0.0595  0.6069
 1493SOL    HW116112   0.940   4.584   1.344  0.2654  0.3985  0.2562
 1493SOL    HW216113   0.807   4.586   1.306 -0.6512  1.1652 -0.8506
 1494SOL     OW16114   3.721   1.359   4.319 -0.4097  0.0293 -0.3201
 1494SOL    HW116115   3.692   1.350   4.409 -0.3866 -0.5120 -0.3645
 1494SOL    HW216116   3.804   1.403   4.339 -0.5209 -0.3241  0.9286
 1495SOL     OW16117   0.810   0.674  17.634 -0.0293  0.1063  0.2172
 1495SOL    HW116118   0.814   0.600  17.572  0.1882  0.3812 -0.0926
 1495SOL    HW216119   0.732   0.716  17.598  1.1568  1.8605 -0.3088
 1496SOL     OW16120   2.897   2.222   2.883 -0.0962  0.0476  0.2738
 1496SOL    HW116121   2.934   2.298   2.928 -1.2629  0.1219  1.0947
 1496SOL    HW216122   2.888   2.274   2.803 -0.3690 -1.0731 -0.4221
 1497SOL     OW16123   2.109   3.114   5.845 -0.5450 -0.0493 -0.1369
 1497SOL    HW116124   2.138   3.194   5.801  1.9730 -0.9628 -0.1329
 1497SOL    HW216125   2.200   3.084   5.849 -0.8196 -0.8676 -0.1187
 1498SOL     OW16126   1.539   3.205   7.566 -0.1115 -0.4303 -0.3481
 1498SOL    HW116127   1.633   3.224   7.576 -0.4577 -0.2218  2.4700
 1498SOL    HW216128   1.503   3.274   7.621 -2.2360 -1.6585 -0.1755
 1499SOL     OW16129   4.053   0.491  11.137  0.2558 -0.1891  0.0758
 1499SOL    HW116130   4.146   0.471  11.140 -0.1570 -2.4922 -2.4398
 1499SOL    HW216131   4.045   0.585  11.154  1.7877 -0.6064  3.0377
 1500SOL     OW16132   3.542   0.258  14.058 -0.0244 -0.0997 -0.7770
 1500SOL    HW116133   3.599   0.267  14.134 -0.2076 -0.2449 -0.6219
 1500SOL    HW216134   3.581   0.190  14.003 -0.8337 -0.3125 -1.0897
 1501SOL     OW16135   0.474   2.687  13.668 -0.0217  0.0607 -0.1480
 1501SOL    HW116136   0.514   2.648  13.590 -1.5007 -1.3111 -0.2213
 1501SOL    HW216137   0.445   2.607  13.712 -0.8589 -0.8762 -2.4080
 1502SOL     OW16138   3.323   2.022   4.199  0.1228  0.2238  0.1638
 1502SOL    HW116139   3.302   2.102   4.151  0.9586  0.9804  1.0473
 1502SOL    HW216140   3.369   2.058   4.276 -2.8600  0.6150  1.7556
 1503SOL     OW16141   2.375   2.713   6.850  0.0052  0.1841 -0.1510
 1503SOL    HW116142   2.428   2.642   6.813 -0.2233  0.2135 -0.5370
 1503SOL    HW216143   2.295   2.671   6.879  0.4272  0.6702  1.7202
 1504SOL     OW16144   3.011   0.354   0.316 -0.1969  0.3055  0.1009
 1504SOL    HW116145   3.093   0.313   0.342 -0.3503 -1.6842 -2.5244
 1504SOL    HW216146   2.961   0.355   0.398 -0.2372  3.2485  0.0227
 1505SOL     OW16147   3.630   2.195   4.226 -0.2167  0.8670  0.2301
 1505SOL    HW116148   3.547   2.243   4.221 -0.2492  0.7177 -0.6155
 1505SOL    HW216149   3.669   2.214   4.141 -1.3367 -0.0721 -0.4983
 1506SOL     OW16150   3.658   4.426   6.043 -0.3715 -0.8163  0.1280
 1506SOL    HW116151   3.616   4.351   6.083 -0.6311 -1.8557 -2.0742
 1506SOL    HW216152   3.587   4.489   6.058 -1.9089 -2.2734 -1.0658
 1507SOL     OW16153   1.499   0.933   6.781 -0.3272 -0.0581  0.0689
 1507SOL    HW116154   1.492   0.985   6.861  0.3265  1.4800 -0.8553
 1507SOL    HW216155   1.559   0.982   6.724 -1.5624  1.2928 -0.0687
 1508SOL     OW16156   1.202   4.587   2.573 -0.2444  0.2792  0.0971
 1508SOL    HW116157   1.157   4.630   2.646 -0.3574 -0.2552  0.3407
 1508SOL    HW216158   1.141   4.518   2.545  0.4395 -1.0224  1.8481
 1509SOL     OW16159   0.157   1.430   1.867  0.3758 -0.0587 -0.0178
 1509SOL    HW116160   0.158   1.437   1.772 -4.1756 -3.9786 -0.3941
 1509SOL    HW216161   0.085   1.368   1.878  0.9477 -0.8483 -0.7894
 1510SOL     OW16162   1.761   1.714   3.944 -0.5355  0.0607  0.2531
 1510SOL    HW116163   1.703   1.661   3.889 -3.4181  3.0471  0.5093
 1510SOL    HW216164   1.789   1.637   3.994  0.5339 -0.7365 -1.5389
 1511SOL     OW16165   3.601   4.667   9.344  0.1196  0.0340 -0.6411
 1511SOL    HW116166   3.537   4.716   9.292 -0.8740  0.6546  1.1867
 1511SOL    HW216167   3.528   4.623   9.387 -0.1088  0.4397 -0.6250
 1512SOL     OW16168   0.083   3.271  15.196  0.4906  0.1584  0.4728
 1512SOL    HW116169   0.147   3.281  15.266  1.8917 -0.0729 -0.7697
 1512SOL    HW216170   0.018   3.333  15.229  0.1435  0.1392 -0.1593
 1513SOL     OW16171   0.576   4.096   4.084 -0.3179  0.1018  0.0484
 1513SOL    HW116172   0.502   4.040   4.061 -1.6450  1.5082  0.9087
 1513SOL    HW216173   0.649   4.034   4.081 -0.4292 -0.0447  0.4004
 1514SOL     OW16174   1.070   2.314   8.358 -0.1176 -0.2003 -0.2276
 1514SOL    HW116175   1.126   2.390   8.343  1.3094 -1.8644 -3.2731
 1514SOL    HW216176   0.982   2.351   8.371 -0.2214 -1.1544  1.7356
 1515SOL     OW16177   4.483   4.413   9.307 -0.5179 -0.1522 -0.3631
 1515SOL    HW116178   4.442   4.478   9.364  2.3100 -2.0564  3.8178
 1515SOL    HW216179   4.416   4.391   9.243  1.7084 -2.4757 -1.9064
 1516SOL     OW16180   0.100   0.007   7.283  0.0467  0.4684 -0.5099
 1516SOL    HW116181   0.063   4.722   7.198  0.2601  2.6526 -1.1622
 1516SOL    HW216182   0.029   0.060   7.320  1.0559 -0.0368  2.1285
 1517SOL     OW16183   0.296   2.095   0.015 -0.3814  0.0447 -0.3424
 1517SOL    HW116184   0.327   2.116   0.103 -2.2999 -0.7596  0.5292
 1517SOL    HW216185   0.382   2.101  17.721 -0.4459 -1.2146 -0.6516
 1518SOL     OW16186   1.082   0.650  15.571  0.3055  0.0774 -0.2121
 1518SOL    HW116187   1.174   0.634  15.594  0.4353  0.3605 -0.5281
 1518SOL    HW216188   1.057   0.738  15.597  0.3435  0.7399 -2.4219
 1519SOL     OW16189   1.309   4.246  13.519 -0.3734  0.1077 -0.2259
 1519SOL    HW116190   1.331   4.262  13.611  0.8732 -1.2598 -0.2962
 1519SOL    HW216191   1.289   4.332  13.481  0.3997  0.3351 -0.1174
 1520SOL     OW16192   4.235   4.599   5.180 -0.3666  0.5463 -0.4626
 1520SOL    HW116193   4.227   4.504   5.166  1.0173  0.3030  0.3640
 1520SOL    HW216194   4.205   4.601   5.271 -0.2918  1.2996 -0.4563
 1521SOL     OW16195   0.627   0.924   5.146  0.1692  0.0575  0.0549
 1521SOL    HW116196   0.659   0.927   5.236 -2.9774 -0.5085  1.2192
 1521SOL    HW216197   0.664   0.841   5.119  2.6895  1.2397 -0.1236
 1522SOL     OW16198   0.009   0.476   2.086  0.3431  0.3802 -0.2926
 1522SOL    HW116199   4.652   0.481   2.066 -0.2781  1.0561  2.8204
 1522SOL    HW216200   0.015   0.508   2.176  0.9002  1.1030 -0.5973
 1523SOL     OW16201   3.264   1.426  16.251 -0.0468  0.4631  0.4004
 1523SOL    HW116202   3.289   1.485  16.181  1.3645 -0.3866  0.1850
 1523SOL    HW216203   3.343   1.421  16.304 -0.1673 -1.4429  0.4110
 1524SOL     OW16204   2.892   1.331   1.832 -0.0509 -0.2122  0.3086
 1524SOL    HW116205   2.882   1.309   1.925 -1.0033  0.1286  0.2829
 1524SOL    HW216206   2.984   1.305   1.823  0.4368  1.6023 -0.0990
 1525SOL     OW16207   2.190   0.015   3.512  0.2352 -0.1748 -0.2482
 1525SOL    HW116208   2.128   0.028   3.439 -0.0218  1.1939  0.2173
 1525SOL    HW216209   2.244   4.684   3.471  0.3467  0.5352 -1.2936
 1526SOL     OW16210   0.969   2.509   8.050  0.2048 -0.2541  0.1280
 1526SOL    HW116211   1.042   2.448   8.061  0.1602 -0.6130 -1.5686
 1526SOL    HW216212   0.933   2.481   7.966 -0.0146 -1.6792  0.6943
 1527SOL     OW16213   1.753   4.101   5.116 -0.0837  0.1019  0.6318
 1527SOL    HW116214   1.838   4.103   5.159  0.9218 -0.4935 -1.2834
 1527SOL    HW216215   1.750   4.185   5.069  0.1171 -0.3093 -0.1188
 1528SOL     OW16216   1.859   3.714   8.873 -0.1568 -0.5156  0.3857
 1528SOL    HW116217   1.778   3.760   8.894  2.0240  2.5294  2.0490
 1528SOL    HW216218   1.925   3.780   8.894 -1.1824 -0.3653  3.0790
 1529SOL     OW16219   0.476   3.155   6.777  0.1708 -0.1303 -0.1193
 1529SOL    HW116220   0.520   3.072   6.793 -0.3275 -0.6804 -1.5968
 1529SOL    HW216221   0.540   3.191   6.715  0.0526  2.3533  1.1978
 1530SOL     OW16222   2.437   2.682   8.937  0.3299  0.1971  0.7035
 1530SOL    HW116223   2.491   2.714   8.865 -0.0761  1.2920  0.8737
 1530SOL    HW216224   2.385   2.617   8.891  2.3200 -0.4376 -0.6533
 1531SOL     OW16225   2.021   3.796   0.767  0.6063 -0.6693 -0.2408
 1531SOL    HW116226   2.061   3.825   0.685 -1.7771  1.7816 -0.5194
 1531SOL    HW216227   2.092   3.750   0.812 -0.0282 -0.0371  1.4330
 1532SOL     OW16228   4.278   3.287   2.540  0.1767  0.2220 -0.0129
 1532SOL    HW116229   4.341   3.334   2.485 -1.3493 -0.8064 -2.6173
 1532SOL    HW216230   4.248   3.356   2.598 -0.1936  0.7772 -0.8740
 1533SOL     OW16231   2.711   4.713  10.003  0.1450 -0.5016 -0.8866
 1533SOL    HW116232   2.709   4.677   9.914  1.3859 -1.1020 -0.6735
 1533SOL    HW216233   2.635   4.661  10.031 -0.0853  0.4037  0.1462
 1534SOL     OW16234   4.679   3.136   3.533 -0.4181 -0.2054  0.1583
 1534SOL    HW116235   4.653   3.135   3.625  0.3092 -2.4620  0.3415
 1534SOL    HW216236   4.603   3.091   3.495  0.5852 -0.9569 -0.9715
 1535SOL     OW16237   2.161   4.133   6.031  0.5282  0.3288 -0.3420
 1535SOL    HW116238   2.153   4.047   6.071  1.7126  0.3640 -0.0264
 1535SOL    HW216239   2.091   4.175   6.081  0.4394 -0.3840  0.1269
 1536SOL     OW16240   2.358   0.598  14.987  0.1627 -0.7536 -0.3007
 1536SOL    HW116241   2.364   0.546  15.068 -0.3525 -0.6430 -0.1932
 1536SOL    HW216242   2.437   0.579  14.936 -0.5432  3.1303 -2.8021
 1537SOL     OW16243   1.719   2.926  13.425 -0.7994 -0.8616 -0.7055
 1537SOL    HW116244   1.709   2.871  13.503  1.6562  0.7117  0.7312
 1537SOL    HW216245   1.804   2.965  13.445 -1.5523  0.6946 -0.6223
 1538SOL     OW16246   1.319   4.596   6.102 -0.0918  0.2720  0.5715
 1538SOL    HW116247   1.352   4.643   6.025  1.2516  0.3309  1.1808
 1538SOL    HW216248   1.227   4.623   6.101 -0.4823 -1.0794  1.1061
 1539SOL     OW16249   2.469   1.739   7.670 -0.0539 -0.5611  0.2789
 1539SOL    HW116250   2.386   1.784   7.654 -0.2280 -1.0537 -0.1971
 1539SOL    HW216251   2.525   1.816   7.659 -0.0025 -0.9333 -2.0722
 1540SOL     OW16252   0.975   1.216   5.717 -0.0146  0.5985 -0.2822
 1540SOL    HW116253   1.055   1.177   5.751  0.7145 -0.1199 -2.8592
 1540SOL    HW216254   0.974   1.306   5.749  0.1904  0.4084  0.2684
 1541SOL     OW16255   0.831   3.484   0.197  0.5839  0.3479 -0.4108
 1541SOL    HW116256   0.809   3.563   0.247 -1.1921 -1.0774  1.0587
 1541SOL    HW216257   0.853   3.529   0.115 -0.0115 -1.6250 -1.6403
 1542SOL     OW16258   1.876   3.842   2.098  0.0440  0.4735  0.1941
 1542SOL    HW116259   1.966   3.863   2.124  0.2870 -0.9446  0.4914
 1542SOL    HW216260   1.892   3.824   2.005 -0.3707 -1.3637  0.4837
 1543SOL     OW16261   4.421   2.603   7.262 -0.2042  0.1812  0.4844
 1543SOL    HW116262   4.437   2.668   7.330 -2.8685 -0.4102  1.6559
 1543SOL    HW216263   4.406   2.527   7.318  0.2248 -0.3622 -0.1271
 1544SOL     OW16264   0.337   1.888   4.709  0.2664  0.0619  0.7341
 1544SOL    HW116265   0.318   1.981   4.722 -0.0270  0.5234 -3.0004
 1544SOL    HW216266   0.376   1.871   4.795  1.6312  1.0421  0.3172
 1545SOL     OW16267   2.266   0.143   1.449  0.2179 -0.3828  0.0726
 1545SOL    HW116268   2.301   0.194   1.522  2.4961 -0.1157 -1.2192
 1545SOL    HW216269   2.337   0.149   1.385 -0.9070  1.3068 -1.0145
 1546SOL     OW16270   4.358   2.806  17.241 -0.3860 -0.0010  0.1770
 1546SOL    HW116271   4.443   2.762  17.249 -1.5965 -2.5114 -0.8311
 1546SOL    HW216272   4.319   2.811  17.328 -0.1992 -1.2291  0.3290
 1547SOL     OW16273   3.498   2.276  17.363  0.2700 -0.1937  0.5067
 1547SOL    HW116274   3.499   2.189  17.323  0.7757  0.8136 -1.6988
 1547SOL    HW216275   3.508   2.265  17.457 -0.9504  3.2994  1.0304
 1548SOL     OW16276   1.501   0.802  14.322 -0.5007 -0.4819 -0.0553
 1548SOL    HW116277   1.549   0.806  14.239 -0.0350  0.3157  0.2579
 1548SOL    HW216278   1.561   0.833  14.389 -0.9809 -0.3626  0.3180
 1549SOL     OW16279   0.097   2.097   5.295 -0.1748  0.0250  0.9130
 1549SOL    HW116280   0.074   2.094   5.387 -0.4094  1.2749  0.8936
 1549SOL    HW216281   0.081   2.007   5.268 -0.1310  0.7281 -1.5245
 1550SOL     OW16282   3.862   4.023   9.375  0.2004 -0.5158 -0.8075
 1550SOL    HW116283   3.808   3.948   9.400 -0.2994 -0.3195 -1.3031
 1550SOL    HW216284   3.807   4.070   9.312 -0.1804 -0.2798 -0.2953
 1551SOL     OW16285   3.396   0.130   5.374 -0.5808 -0.3548  0.8753
 1551SOL    HW116286   3.465   0.168   5.428  1.1924  0.2631 -1.8380
 1551SOL    HW216287   3.359   0.070   5.439  1.6392  0.0572  2.5156
 1552SOL     OW16288   4.441   0.012   7.444 -0.1683 -0.6809  0.2543
 1552SOL    HW116289   4.444   0.013   7.540 -0.1829 -0.3858  0.2523
 1552SOL    HW216290   4.384   0.088   7.428 -2.5630 -2.5355 -0.0904
 1553SOL     OW16291   0.542   1.002   3.030  0.2350  0.0227  0.3965
 1553SOL    HW116292   0.477   0.996   2.960 -0.7025 -0.7836  1.3312
 1553SOL    HW216293   0.604   1.060   2.985  0.9265  0.0107  1.3173
 1554SOL     OW16294   2.321   1.918   5.227 -0.2790  0.0164  0.3051
 1554SOL    HW116295   2.410   1.951   5.243 -0.3938  0.0579  0.8719
 1554SOL    HW216296   2.278   1.950   5.306  0.6109  1.7146  0.1067
 1555SOL     OW16297   1.853   0.995   3.471  0.5071 -0.2897  0.5649
 1555SOL    HW116298   1.761   0.975   3.457 -0.0213  1.6421  1.2223
 1555SOL    HW216299   1.872   0.943   3.549 -0.6764 -0.2763  0.8582
 1556SOL     OW16300   4.217   4.277   4.068  0.0499 -0.2186  0.8521
 1556SOL    HW116301   4.214   4.338   4.141 -0.7073  0.7491  0.0075
 1556SOL    HW216302   4.129   4.288   4.033  0.7528  1.5894 -0.3346
 1557SOL     OW16303   2.512   0.587  10.528  0.4074  0.5313  0.7473
 1557SOL    HW116304   2.595   0.621  10.494  0.5707  2.5670  3.2321
 1557SOL    HW216305   2.537   0.505  10.569 -1.3354  0.6359  2.0208
 1558SOL     OW16306   2.788   0.876   3.417  0.2489  0.3462 -0.3913
 1558SOL    HW116307   2.754   0.861   3.505 -1.5095 -1.9220 -1.4922
 1558SOL    HW216308   2.778   0.972   3.420  1.7364  0.3965  2.6807
 1559SOL     OW16309   1.209   0.421  13.153 -0.3113  0.0584 -0.2337
 1559SOL    HW116310   1.234   0.495  13.099  0.0179 -0.4953 -0.8378
 1559SOL    HW216311   1.285   0.420  13.211 -1.3586 -0.0203  1.1396
 1560SOL     OW16312   0.666   1.679   4.441  0.4357  0.3272  0.3371
 1560SOL    HW116313   0.608   1.612   4.478 -3.1874  3.1059 -0.2652
 1560SOL    HW216314   0.686   1.636   4.358 -2.5046  0.1723 -0.2941
 1561SOL     OW16315   3.321   4.419   5.392  0.1063 -0.0960 -0.6331
 1561SOL    HW116316   3.401   4.428   5.340  1.0870 -0.1293  0.8848
 1561SOL    HW216317   3.344   4.351   5.455 -1.1573  1.7409  1.7979
 1562SOL     OW16318   2.770   0.241   4.372  0.8246 -0.0384 -0.0508
 1562SOL    HW116319   2.693   0.278   4.330 -0.0763  0.9304  2.4453
 1562SOL    HW216320   2.827   0.268   4.300 -0.1164 -1.6872 -1.4253
 1563SOL     OW16321   3.705   0.158   2.545 -0.5815 -0.5110  0.2276
 1563SOL    HW116322   3.759   0.122   2.616  3.5258  0.8801 -2.2029
 1563SOL    HW216323   3.702   0.251   2.569  2.5914 -0.4837  0.5549
 1564SOL     OW16324   3.280   4.006   7.769  0.2365  0.4033 -0.4515
 1564SOL    HW116325   3.349   4.058   7.810  0.1497 -1.2912  1.8363
 1564SOL    HW216326   3.300   3.915   7.792 -0.7682  0.3479  0.2096
 1565SOL     OW16327   0.944   0.390   7.524 -0.4639  0.4314  0.1993
 1565SOL    HW116328   1.011   0.453   7.548 -0.6333  0.3386  0.9183
 1565SOL    HW216329   0.982   0.341   7.451  2.0069  0.4780  1.4734
 1566SOL     OW16330   4.143   2.834   8.537  0.4497  0.1286  0.4998
 1566SOL    HW116331   4.089   2.908   8.563 -2.8196 -2.6369  1.5356
 1566SOL    HW216332   4.186   2.814   8.620  0.8347 -0.2518  0.2118
 1567SOL     OW16333   1.852   2.010  12.521  0.1630 -0.2552 -0.2250
 1567SOL    HW116334   1.913   1.938  12.504 -0.9226 -0.6830 -2.3119
 1567SOL    HW216335   1.781   1.963  12.565  1.2593 -1.0502  0.6948
 1568SOL     OW16336   4.599   2.675   3.705 -0.3793 -0.0475 -0.3104
 1568SOL    HW116337   4.601   2.581   3.685 -1.4027 -0.9456  3.5971
 1568SOL    HW216338   4.515   2.681   3.751 -0.8697 -3.7253 -0.6725
 1569SOL     OW16339   0.683   0.004   4.827 -0.6048  0.3827  0.2223
 1569SOL    HW116340   0.774   0.012   4.855 -0.3968 -1.8048  0.1812
 1569SOL    HW216341   0.698   0.028   4.735 -0.8431 -0.8236 -0.1301
 1570SOL     OW16342   0.377   2.172   7.111  0.3256 -0.5465  0.0496
 1570SOL    HW116343   0.437   2.150   7.184 -0.8633 -0.4857  1.0439
 1570SOL    HW216344   0.307   2.123   7.154  0.4252 -0.2513  0.5487
 1571SOL     OW16345   2.743   3.197   3.557  0.1093  0.1324 -0.6716
 1571SOL    HW116346   2.732   3.203   3.462  0.0980 -1.7489 -0.7901
 1571SOL    HW216347   2.749   3.291   3.576  1.6394 -0.4809  1.8930
 1572SOL     OW16348   4.359   0.246   4.704 -0.3102 -0.2124  0.2558
 1572SOL    HW116349   4.420   0.210   4.768  1.1838 -0.2438 -1.1849
 1572SOL    HW216350   4.421   0.276   4.637 -1.9549  1.8085 -0.3579
 1573SOL     OW16351   2.093   1.589   8.711  0.1787 -0.7353  0.4906
 1573SOL    HW116352   2.023   1.524   8.718  0.2498 -0.6757  1.8935
 1573SOL    HW216353   2.117   1.592   8.619 -1.0346 -0.4541  0.1786
 1574SOL     OW16354   3.620   0.324  15.247  0.0082  0.1883  0.4042
 1574SOL    HW116355   3.595   0.239  15.211  4.3353 -1.6916  1.7859
 1574SOL    HW216356   3.539   0.372  15.232 -0.4626 -0.7934 -0.2225
 1575SOL     OW16357   0.062   3.198   7.433 -0.1594 -0.2134  0.0929
 1575SOL    HW116358   0.083   3.292   7.432 -1.6239  0.1227 -0.4373
 1575SOL    HW216359   0.035   3.194   7.525  1.2931 -0.8628  0.4802
 1576SOL     OW16360   0.402   0.393   4.242 -0.2878 -0.6777  0.0942
 1576SOL    HW116361   0.380   0.339   4.165  0.0142 -1.2162  0.3836
 1576SOL    HW216362   0.497   0.378   4.246 -0.0216  1.2646  0.7672
 1577SOL     OW16363   3.049   4.023  11.261 -0.0984  0.1090 -0.6365
 1577SOL    HW116364   2.967   4.040  11.213  0.0269 -1.9375 -1.5653
 1577SOL    HW216365   3.017   3.964  11.330 -1.3884  3.7638  1.9174
 1578SOL     OW16366   0.951   2.547   9.449 -0.7394 -0.0736  0.6631
 1578SOL    HW116367   0.891   2.617   9.476  0.7438  0.8840  1.4631
 1578SOL    HW216368   1.030   2.562   9.501  1.4555  2.3195 -3.3264
 1579SOL     OW16369   0.702   0.942   8.327 -0.0106  0.4304  0.0706
 1579SOL    HW116370   0.735   0.904   8.245  1.0926  3.2221 -0.8219
 1579SOL    HW216371   0.713   0.866   8.383  0.5425  1.1407  0.9376
 1580SOL     OW16372   3.514   1.600   1.444 -0.2064  0.4280  0.0290
 1580SOL    HW116373   3.445   1.537   1.426  1.6245 -2.3083  2.6738
 1580SOL    HW216374   3.583   1.539   1.419 -0.1440  0.5612 -0.1307
 1581SOL     OW16375   4.473   2.360  16.604 -0.1231 -0.1619  0.3627
 1581SOL    HW116376   4.498   2.306  16.529 -2.4178  0.6818 -1.0299
 1581SOL    HW216377   4.391   2.316  16.626 -0.4712 -0.3314 -1.2695
 1582SOL     OW16378   3.311   0.530   9.205  0.1323  0.1549 -0.6894
 1582SOL    HW116379   3.348   0.473   9.273 -0.2426 -0.4860 -1.0235
 1582SOL    HW216380   3.379   0.581   9.162  1.7819 -0.5860  1.0155
 1583SOL     OW16381   0.320   0.010   4.499  0.3621 -0.3428 -0.2601
 1583SOL    HW116382   0.261   0.010   4.424  0.6617  0.6278 -0.4877
 1583SOL    HW216383   0.351   0.100   4.497 -1.2981  0.2498  0.4438
 1584SOL     OW16384   2.595   3.731  12.312 -0.5869  0.1908  0.5785
 1584SOL    HW116385   2.605   3.657  12.252  0.5196 -1.3968  2.7323
 1584SOL    HW216386   2.681   3.745  12.351  0.8934 -0.4997 -2.4629
 1585SOL     OW16387   3.885   3.248   4.945  0.5622 -0.2434  0.6758
 1585SOL    HW116388   3.882   3.296   5.027  0.5003 -1.7890  1.5765
 1585SOL    HW216389   3.890   3.326   4.889 -0.0086 -0.3654  0.4574
 1586SOL     OW16390   1.035   2.883   3.402 -0.0153  0.6902 -0.0620
 1586SOL    HW116391   1.125   2.851   3.411  0.1027  0.9762 -0.2458
 1586SOL    HW216392   1.046   2.978   3.403 -1.5450  0.8198  2.9963
 1587SOL     OW16393   2.211   3.851   3.020  0.5361 -0.1306 -0.0615
 1587SOL    HW116394   2.251   3.908   3.086  0.7449 -0.3826  0.0296
 1587SOL    HW216395   2.188   3.769   3.063  1.6361  0.2545  1.2625
 1588SOL     OW16396   2.507   0.107  12.312  0.3553 -0.4376  0.8446
 1588SOL    HW116397   2.502   0.134  12.404  0.7198 -2.2159  1.3972
 1588SOL    HW216398   2.549   0.183  12.274  0.2272 -1.2327 -0.8931
 1589SOL     OW16399   3.307   2.926  15.517 -0.4441  0.0955  0.1416
 1589SOL    HW116400   3.239   2.981  15.478 -0.4895  1.4083  2.0642
 1589SOL    HW216401   3.364   2.913  15.442 -1.2926  2.1729 -0.8517
 1590SOL     OW16402   2.858   3.718   7.703 -0.4279 -0.0957  0.4680
 1590SOL    HW116403   2.798   3.749   7.770 -1.7923  0.2326 -0.9066
 1590SOL    HW216404   2.840   3.780   7.633  0.9204  2.4551  2.4125
 1591SOL     OW16405   1.520   1.969   7.293 -0.4680 -0.7081 -0.3392
 1591SOL    HW116406   1.459   1.966   7.367  0.3945 -1.5230  0.3390
 1591SOL    HW216407   1.500   2.049   7.246  0.5247  0.7394  1.6684
 1592SOL     OW16408   3.698   0.400  17.541 -0.5396 -0.2664  0.4160
 1592SOL    HW116409   3.649   0.350  17.607  1.0813 -0.0626  1.7930
 1592SOL    HW216410   3.764   0.444  17.596 -0.5439  2.8265 -2.0552
 1593SOL     OW16411   4.101   2.482   3.780  0.3267  0.2020  0.0869
 1593SOL    HW116412   4.161   2.549   3.749  0.5045 -0.1009 -0.2259
 1593SOL    HW216413   4.093   2.500   3.874  1.2506  0.2531  0.1500
 1594SOL     OW16414   1.351   2.970   2.135  0.1815 -0.1007 -0.8090
 1594SOL    HW116415   1.446   2.959   2.128  0.1459 -0.6201 -0.4317
 1594SOL    HW216416   1.340   3.057   2.096 -1.0947 -0.0604 -0.3641
 1595SOL     OW16417   0.935   4.326  12.158  0.3450  0.5923 -0.4408
 1595SOL    HW116418   0.869   4.266  12.123  1.2723 -0.9918  0.5096
 1595SOL    HW216419   0.880   4.404  12.166  0.8107  0.7784  0.9881
 1596SOL     OW16420   2.289   4.362   8.450  0.3637  0.3301  0.4661
 1596SOL    HW116421   2.304   4.358   8.355  0.3401  0.0916  0.4725
 1596SOL    HW216422   2.299   4.270   8.476  1.7603 -0.2442 -2.0383
 1597SOL     OW16423   4.297   0.441   2.401 -0.0519  0.2846  0.3857
 1597SOL    HW116424   4.333   0.529   2.411 -0.4465  0.7473 -2.2072
 1597SOL    HW216425   4.278   0.406   2.488  0.7783 -2.0465 -0.3616
 1598SOL     OW16426   2.193   3.795   5.504 -0.2473 -0.0967  0.5198
 1598SOL    HW116427   2.206   3.748   5.587 -1.1255 -0.2153  0.5925
 1598SOL    HW216428   2.210   3.717   5.451 -0.8006 -0.1239  0.3844
 1599SOL     OW16429   0.922   0.771   9.243 -0.5799  0.2224 -0.0084
 1599SOL    HW116430   0.990   0.803   9.302 -0.1359  1.3067 -1.1088
 1599SOL    HW216431   0.866   0.849   9.244 -1.0090 -0.0832 -0.1266
 1600SOL     OW16432   3.889   0.679   9.742 -0.8905  0.1667  0.4317
 1600SOL    HW116433   3.875   0.643   9.655 -0.0440  0.1692  0.2904
 1600SOL    HW216434   3.812   0.735   9.744 -0.8673  0.2306 -0.6108
 1601SOL     OW16435   1.178   4.441  10.557  0.2783 -0.0621 -0.2233
 1601SOL    HW116436   1.207   4.481  10.639 -0.5190  0.4684 -0.1947
 1601SOL    HW216437   1.095   4.399  10.577  0.2827  0.3096  0.5829
 1602SOL     OW16438   0.332   1.724   7.962  0.3227  0.2017  0.1447
 1602SOL    HW116439   0.272   1.779   7.912 -0.9381  1.9628  3.6098
 1602SOL    HW216440   0.340   1.773   8.043 -2.4859 -1.0256  1.1751
 1603SOL     OW16441   1.352   1.716   6.132 -0.3261 -1.0004  0.2498
 1603SOL    HW116442   1.370   1.762   6.214  0.7008 -1.9324  0.5464
 1603SOL    HW216443   1.414   1.755   6.070  1.0684 -2.6093  0.6163
 1604SOL     OW16444   0.648   4.391   7.743  0.1126 -0.0488  0.3580
 1604SOL    HW116445   0.575   4.378   7.804  0.2050  0.6212  0.6163
 1604SOL    HW216446   0.680   4.481   7.755  0.4249  0.0272 -1.0508
 1605SOL     OW16447   3.000   0.719   0.050 -0.2912 -0.0656  0.4321
 1605SOL    HW116448   2.973   0.808   0.029  2.0468  0.3242 -0.8455
 1605SOL    HW216449   3.057   0.734   0.125  0.7450  2.6991 -0.9219
 1606SOL     OW16450   4.520   1.318   0.708 -0.5853  0.5956  0.2574
 1606SOL    HW116451   4.477   1.338   0.624  1.2278 -1.4147 -1.1671
 1606SOL    HW216452   4.498   1.397   0.757 -3.5792 -0.2243  0.2099
 1607SOL     OW16453   0.678   1.802  15.058  0.2626 -0.3131  0.1496
 1607SOL    HW116454   0.631   1.825  15.138  2.4339  3.0864  0.4443
 1607SOL    HW216455   0.714   1.888  15.036 -1.8036 -0.2999 -3.3355
 1608SOL     OW16456   0.501   0.171  13.632  0.2750  0.5203  0.0553
 1608SOL    HW116457   0.448   0.141  13.558 -0.4761  2.5106 -0.2035
 1608SOL    HW216458   0.464   0.113  13.699 -2.9423 -0.2525 -2.4017
 1609SOL     OW16459   4.258   1.645  15.455 -0.2590  0.2384  0.9291
 1609SOL    HW116460   4.270   1.563  15.503 -0.6119 -1.5438 -1.9784
 1609SOL    HW216461   4.287   1.619  15.367  1.6594 -0.4345  1.7671
 1610SOL     OW16462   3.891   2.527   8.868  0.1240  0.1108 -0.0658
 1610SOL    HW116463   3.851   2.486   8.945  0.6385  1.5218  0.9660
 1610SOL    HW216464   3.874   2.620   8.885  0.3821 -0.2662  2.3089
 1611SOL     OW16465   3.053   0.297   3.345 -0.9777 -0.3108  0.2862
 1611SOL    HW116466   3.093   0.381   3.323 -0.6870 -0.0720  1.7752
 1611SOL    HW216467   3.108   0.258   3.413 -0.1342  3.3007  1.6342
 1612SOL     OW16468   1.283   0.213   3.660 -0.6786  0.2350 -0.0924
 1612SOL    HW116469   1.196   0.189   3.693 -1.2114 -1.0755 -2.4621
 1612SOL    HW216470   1.262   0.223   3.567 -1.5325 -3.1263 -0.2435
 1613SOL     OW16471   4.120   3.330   5.515  0.8551 -0.1432 -0.1467
 1613SOL    HW116472   4.173   3.251   5.524  0.8447  0.0044  1.2619
 1613SOL    HW216473   4.189   3.391   5.487  0.2100  1.0694  0.8621
 1614SOL     OW16474   3.093   0.822   9.215  0.2701  0.1741 -0.9549
 1614SOL    HW116475   3.009   0.811   9.259 -0.5545 -0.4394 -2.6672
 1614SOL    HW216476   3.142   0.834   9.297  1.4561  0.8545 -1.7530
 1615SOL     OW16477   3.011   3.088   7.660  0.5208 -0.3215 -0.3168
 1615SOL    HW116478   2.923   3.125   7.657  0.0605 -1.4974 -1.0292
 1615SOL    HW216479   3.067   3.164   7.641  2.1568 -1.2836  0.5477
 1616SOL     OW16480   2.023   0.477  17.622  0.1714 -0.1401 -0.1444
 1616SOL    HW116481   2.021   0.572  17.620 -3.2611 -0.2254  0.1068
 1616SOL    HW216482   1.952   0.473  17.557  0.5877 -2.1583 -0.4802
 1617SOL     OW16483   3.922   1.747   5.453  0.3921 -0.1529  0.2075
 1617SOL    HW116484   3.846   1.690   5.459  0.2939 -0.2433 -1.7667
 1617SOL    HW216485   3.978   1.683   5.409  1.6603  0.8362  0.3669
 1618SOL     OW16486   1.182   1.458   7.687 -0.2205 -0.2128 -0.1497
 1618SOL    HW116487   1.125   1.517   7.638 -0.3582  0.2572  0.5705
 1618SOL    HW216488   1.153   1.483   7.774  0.2659  1.1146 -0.3711
 1619SOL     OW16489   0.187   0.820  11.666  0.0538 -0.1535  0.2339
 1619SOL    HW116490   0.120   0.888  11.673  0.2461  0.1351 -0.8193
 1619SOL    HW216491   0.145   0.738  11.640 -1.2262  0.7957 -0.7045
 1620SOL     OW16492   0.055   1.223  16.642 -0.1019 -0.1979 -0.3332
 1620SOL    HW116493   4.734   1.193  16.712  1.8169 -0.5411  1.1177
 1620SOL    HW216494   0.085   1.307  16.678  1.8847 -1.1466  0.2712
 1621SOL     OW16495   3.670   1.538   1.016  0.3609 -0.4449 -0.1426
 1621SOL    HW116496   3.649   1.445   1.021 -0.2613 -0.4033 -1.8122
 1621SOL    HW216497   3.594   1.578   1.058  0.8021 -1.2211  1.3814
 1622SOL     OW16498   3.346   1.515   6.084  0.6137 -0.0998  0.0137
 1622SOL    HW116499   3.369   1.606   6.104  1.4132 -0.3318  0.1874
 1622SOL    HW216500   3.428   1.487   6.043 -0.3862 -3.8288  0.5844
 1623SOL     OW16501   3.352   1.914   2.430 -0.3800 -0.4188 -0.1070
 1623SOL    HW116502   3.290   1.892   2.499 -0.3034  1.0299  0.4177
 1623SOL    HW216503   3.404   1.987   2.463  1.3996 -1.6325 -0.1914
 1624SOL     OW16504   1.245   2.499   8.897 -0.2228  0.1862  0.2125
 1624SOL    HW116505   1.288   2.423   8.858 -0.6265  0.0988 -0.0602
 1624SOL    HW216506   1.225   2.557   8.823  0.6466 -0.5139 -0.5692
 1625SOL     OW16507   4.157   0.386   1.873 -0.0665 -0.3523 -0.1950
 1625SOL    HW116508   4.075   0.349   1.906  0.1969  0.2174  1.0907
 1625SOL    HW216509   4.225   0.339   1.922 -2.7535 -3.7269  0.2999
 1626SOL     OW16510   1.477   3.301   2.110  0.0180  0.2487 -0.1162
 1626SOL    HW116511   1.524   3.234   2.060 -2.1175 -0.4963 -1.1731
 1626SOL    HW216512   1.482   3.374   2.048 -0.5917  0.9847  0.7005
 1627SOL     OW16513   0.193   0.921   6.989  0.0046 -0.3881  0.4165
 1627SOL    HW116514   0.103   0.936   7.019 -0.4341 -1.1739 -0.5085
 1627SOL    HW216515   0.241   0.965   7.059 -1.5852 -0.2421  1.4158
 1628SOL     OW16516   2.039   3.433   1.974 -0.1523  0.0994 -0.0654
 1628SOL    HW116517   2.096   3.493   2.022  0.1815  0.3263 -0.7557
 1628SOL    HW216518   2.096   3.391   1.909 -0.0873 -0.7361  0.5288
 1629SOL     OW16519   3.954   2.876  10.190 -0.3135  0.5949 -0.0527
 1629SOL    HW116520   4.022   2.856  10.254 -1.1869 -0.1667  0.6399
 1629SOL    HW216521   4.000   2.833  10.118  2.4457  2.1171  0.8092
 1630SOL     OW16522   4.039   0.769  10.825 -0.1848  0.0632  0.4286
 1630SOL    HW116523   4.025   0.716  10.903  1.5904  1.5888  1.7943
 1630SOL    HW216524   4.050   0.705  10.755  2.4284 -0.7387  1.5509
 1631SOL     OW16525   3.045   2.306  16.272  0.2627 -0.5465  0.0694
 1631SOL    HW116526   2.983   2.345  16.334  0.9169 -1.3795  1.2365
 1631SOL    HW216527   3.100   2.257  16.332  0.6826 -0.2955 -0.1095
 1632SOL     OW16528   2.258   4.547   2.428 -0.0198  0.3845 -0.8645
 1632SOL    HW116529   2.170   4.535   2.392  0.0887 -0.6027 -0.8037
 1632SOL    HW216530   2.270   4.454   2.447 -0.9021  0.9648  2.5115
 1633SOL     OW16531   1.450   2.939   3.114 -0.5834 -0.1094 -0.4710
 1633SOL    HW116532   1.542   2.939   3.087 -1.2219 -1.1846 -2.6473
 1633SOL    HW216533   1.463   2.954   3.207  0.8501 -1.7808 -0.4237
 1634SOL     OW16534   3.537   2.378   2.769 -0.0220  0.1591  0.6333
 1634SOL    HW116535   3.484   2.325   2.709 -1.8683  0.0273  2.3885
 1634SOL    HW216536   3.599   2.410   2.702 -2.1341  0.3684 -1.2330
 1635SOL     OW16537   0.863   1.322   7.865 -0.4439 -0.1434 -0.1904
 1635SOL    HW116538   0.797   1.391   7.874 -0.2748  0.0970 -0.7991
 1635SOL    HW216539   0.816   1.275   7.797 -2.7718  3.7023 -1.2755
 1636SOL     OW16540   2.406   4.480   6.315 -0.3106  0.3661 -0.4258
 1636SOL    HW116541   2.362   4.484   6.400  0.0204 -0.7359 -0.2095
 1636SOL    HW216542   2.419   4.573   6.297  0.5049  0.4248  0.5070
 1637SOL     OW16543   0.451   2.088   8.069  0.0438 -0.4843  0.2617
 1637SOL    HW116544   0.474   2.049   8.153 -0.0224  0.3332  0.6539
 1637SOL    HW216545   0.523   2.149   8.053  0.3711 -0.7605  0.6797
 1638SOL     OW16546   3.186   3.483   4.922  0.0358 -0.5348 -0.1532
 1638SOL    HW116547   3.212   3.575   4.923 -1.2671 -0.1521 -0.5943
 1638SOL    HW216548   3.091   3.487   4.909  0.1755 -2.3566 -1.6709
 1639SOL     OW16549   3.631   3.441  11.295  0.1139 -0.5325  0.6273
 1639SOL    HW116550   3.717   3.440  11.338 -1.0265 -0.0403  2.9216
 1639SOL    HW216551   3.665   3.478  11.214 -2.0876  0.6454  0.2650
 1640SOL     OW16552   1.470   4.576   9.712 -0.2114 -0.2837 -0.0210
 1640SOL    HW116553   1.515   4.661   9.709 -2.2119  0.7286 -1.6433
 1640SOL    HW216554   1.483   4.551   9.620  0.2938  0.2942 -0.1100
 1641SOL     OW16555   2.640   1.415   7.970  0.1622 -0.4430 -0.3193
 1641SOL    HW116556   2.710   1.454   7.917 -0.7874 -0.0845 -1.3190
 1641SOL    HW216557   2.575   1.485   7.973  0.2404 -0.3559 -0.6663
 1642SOL     OW16558   2.043   0.719  12.500  0.5431 -0.0533  0.4378
 1642SOL    HW116559   2.106   0.758  12.440 -2.0697 -0.1239 -2.3733
 1642SOL    HW216560   2.016   0.794  12.553 -2.4262 -0.1610 -0.8995
 1643SOL     OW16561   4.399   1.906   0.914  0.2751  0.6114  0.0859
 1643SOL    HW116562   4.317   1.896   0.963  0.0194  0.0193 -0.4765
 1643SOL    HW216563   4.364   1.891   0.827  2.2525 -1.3933 -0.3604
 1644SOL     OW16564   4.391   2.068   3.758  0.3927  0.3348  0.2436
 1644SOL    HW116565   4.368   1.988   3.805 -1.2988 -1.6791 -4.0257
 1644SOL    HW216566   4.372   2.034   3.670 -3.1971  0.2075  1.0713
 1645SOL     OW16567   1.042   4.707   8.129  0.6499  0.1317 -0.0562
 1645SOL    HW116568   1.054   0.014   8.213 -2.3557  2.7766 -1.0294
 1645SOL    HW216569   1.098   4.630   8.139  0.2444 -0.1772 -0.1394
 1646SOL     OW16570   0.799   3.851   9.343  0.2601 -0.8536 -0.1657
 1646SOL    HW116571   0.801   3.925   9.282 -3.4158 -0.1290  0.6302
 1646SOL    HW216572   0.889   3.837   9.373  0.6209  0.5452 -0.5971
 1647SOL     OW16573   0.234   3.302  14.233  0.1412 -0.0041  0.3026
 1647SOL    HW116574   0.303   3.301  14.166 -1.4397 -0.6023 -1.3111
 1647SOL    HW216575   0.154   3.304  14.180 -0.6633  0.1757  1.5358
 1648SOL     OW16576   2.328   2.159  16.023 -0.0528  0.6013  0.2406
 1648SOL    HW116577   2.356   2.139  15.933  2.4382  1.8614  0.7388
 1648SOL    HW216578   2.364   2.246  16.039  2.1026 -0.4797  1.2735
 1649SOL     OW16579   2.853   4.266   1.708 -0.4640 -0.7345 -0.2485
 1649SOL    HW116580   2.899   4.262   1.792 -1.7347 -0.4887  0.4712
 1649SOL    HW216581   2.932   4.289   1.659 -0.0683 -2.3849 -0.3889
 1650SOL     OW16582   4.348   0.183  12.050  0.3305 -0.3118 -0.0816
 1650SOL    HW116583   4.409   0.151  12.117 -1.3466 -0.6584  1.2672
 1650SOL    HW216584   4.288   0.109  12.049 -0.0611  0.0413 -2.2956
 1651SOL     OW16585   1.891   0.063   2.470 -0.4337  0.0444  0.1021
 1651SOL    HW116586   1.826   0.040   2.404 -0.3304  1.1188 -0.3700
 1651SOL    HW216587   1.842   0.036   2.548 -0.4614 -0.2909 -0.0282
 1652SOL     OW16588   0.860   2.560  12.738  0.1419 -0.1806  0.5934
 1652SOL    HW116589   0.769   2.531  12.730  0.5688 -0.7169 -2.1620
 1652SOL    HW216590   0.887   2.492  12.799 -1.4441 -0.9079  0.4981
 1653SOL     OW16591   3.836   1.365   7.890  0.1318  0.0253 -0.1205
 1653SOL    HW116592   3.834   1.319   7.807 -0.1740  0.0716 -0.1398
 1653SOL    HW216593   3.752   1.345   7.930  0.8839 -1.2270  0.8437
 1654SOL     OW16594   0.305   2.308  14.268 -0.4831 -0.0878  0.4679
 1654SOL    HW116595   0.226   2.344  14.308 -0.6754  2.0712 -1.8746
 1654SOL    HW216596   0.322   2.239  14.333  0.1983 -0.7696 -0.4304
 1655SOL     OW16597   3.599   1.210   6.134 -0.2156  0.3682 -0.0801
 1655SOL    HW116598   3.582   1.151   6.208  0.7839 -1.7485 -1.5599
 1655SOL    HW216599   3.620   1.291   6.182  0.1453  0.3533 -0.2140
 1656SOL     OW16600   2.402   3.147   5.079  0.2885 -0.4209 -0.0784
 1656SOL    HW116601   2.308   3.126   5.081  0.3179 -0.4717  0.8610
 1656SOL    HW216602   2.440   3.068   5.040 -1.0608 -0.2839 -1.7057
 1657SOL     OW16603   2.941   0.536   2.209 -0.2763 -0.5442  0.2491
 1657SOL    HW116604   2.848   0.560   2.210 -0.2726 -0.2702 -4.1550
 1657SOL    HW216605   2.982   0.608   2.257  0.2273  0.4972 -1.7290
 1658SOL     OW16606   0.715   0.428  16.125  0.3042  0.3963  0.1820
 1658SOL    HW116607   0.703   0.453  16.216  0.7671  1.4217 -0.0354
 1658SOL    HW216608   0.687   0.510  16.084  0.1111 -0.6516 -1.8158
 1659SOL     OW16609   2.306   3.147  11.411 -0.4681  0.0377 -0.5554
 1659SOL    HW116610   2.277   3.058  11.390  1.4410 -0.6921 -0.0381
 1659SOL    HW216611   2.383   3.161  11.357 -0.6568  1.8398 -0.3623
 1660SOL     OW16612   3.379   0.179   1.852 -0.4234  0.3019  0.5868
 1660SOL    HW116613   3.315   0.250   1.853 -1.1232 -0.2983 -0.6736
 1660SOL    HW216614   3.452   0.221   1.896 -1.0928  1.5498  0.5185
 1661SOL     OW16615   4.631   4.556  17.701 -0.2779  0.0671  0.1992
 1661SOL    HW116616   4.634   4.554   0.051 -1.3347 -0.1229  0.2286
 1661SOL    HW216617   4.540   4.536  17.680 -0.4967 -0.0758  1.3044
 1662SOL     OW16618   1.105   1.589   2.621 -1.3869 -0.2185  0.3395
 1662SOL    HW116619   1.130   1.655   2.686 -0.8879 -0.7837  0.7189
 1662SOL    HW216620   1.135   1.509   2.663 -2.3708 -0.1745  1.1214
 1663SOL     OW16621   0.987   4.167   6.690 -0.0512  0.1403  0.3488
 1663SOL    HW116622   0.973   4.260   6.704  0.7442  0.2129  0.6693
 1663SOL    HW216623   0.904   4.136   6.727 -0.3121  1.9490  1.2602
 1664SOL     OW16624   4.678   3.985   5.883 -0.0873 -0.1226  0.1158
 1664SOL    HW116625   4.695   3.921   5.952  0.8467 -1.1518 -1.0719
 1664SOL    HW216626   4.712   3.933   5.811  0.0460 -1.7699  1.3824
 1665SOL     OW16627   3.698   2.005   6.071  0.4150  0.2813  0.6521
 1665SOL    HW116628   3.629   2.029   6.132 -2.2878 -2.0722 -1.4893
 1665SOL    HW216629   3.769   2.039   6.126  2.3550  0.4829 -1.9486
 1666SOL     OW16630   3.227   2.261   9.831 -0.1667  0.1463  0.1302
 1666SOL    HW116631   3.260   2.198   9.896 -0.2151 -1.5960 -1.5330
 1666SOL    HW216632   3.146   2.283   9.876 -0.3212 -0.1020 -0.0241
 1667SOL     OW16633   0.939   0.079   9.818  0.1090 -0.0665 -0.5463
 1667SOL    HW116634   0.856   0.041   9.847  0.3456  0.2762  0.5878
 1667SOL    HW216635   0.988   0.004   9.783  1.0430  1.2706 -2.0964
 1668SOL     OW16636   3.490   0.119   4.414  0.2287 -0.7762  0.7046
 1668SOL    HW116637   3.523   0.195   4.463 -0.5112 -0.7578  1.1855
 1668SOL    HW216638   3.403   0.114   4.456 -0.2967 -1.5654 -0.4927
 1669SOL     OW16639   0.543   2.003   6.898 -0.1274 -0.2897  0.0777
 1669SOL    HW116640   0.589   2.085   6.920 -0.7740  0.1565 -0.2470
 1669SOL    HW216641   0.483   1.986   6.971 -0.0319  0.3254  0.3004
 1670SOL     OW16642   3.164   0.546   3.541  0.1335 -0.5529 -0.0246
 1670SOL    HW116643   3.219   0.595   3.480 -0.8987  0.7398  0.0826
 1670SOL    HW216644   3.233   0.505   3.593 -0.2178 -0.5887  0.4129
 1671SOL     OW16645   3.264   0.952   2.435  0.1604  0.4744  0.3710
 1671SOL    HW116646   3.345   1.000   2.450  0.9438  0.1783 -2.8827
 1671SOL    HW216647   3.232   0.932   2.523 -3.6485  0.2519 -1.0671
 1672SOL     OW16648   1.486   0.486  15.427  0.3514 -0.4000  0.0685
 1672SOL    HW116649   1.453   0.560  15.375 -1.0591 -1.2895 -0.3041
 1672SOL    HW216650   1.403   0.442  15.446  0.6416 -0.0918  2.0593
 1673SOL     OW16651   0.643   1.605   7.487  0.1117  0.1000  0.1077
 1673SOL    HW116652   0.615   1.514   7.488  0.5022 -0.0116  0.5472
 1673SOL    HW216653   0.707   1.604   7.415 -0.3290 -0.7709 -0.2785
 1674SOL     OW16654   3.457   4.560   7.932  0.0953 -0.2803  0.3761
 1674SOL    HW116655   3.430   4.644   7.894  0.5496 -0.5166 -0.4724
 1674SOL    HW216656   3.395   4.499   7.892 -0.4422 -1.1720  2.5776
 1675SOL     OW16657   1.518   4.071   8.332  0.2123  0.3781  0.6103
 1675SOL    HW116658   1.540   4.032   8.416  0.1215 -2.4728 -0.6926
 1675SOL    HW216659   1.603   4.060   8.288  0.9915  1.6529  1.7857
 1676SOL     OW16660   2.408   0.490   1.996  0.2681  0.0865 -0.1792
 1676SOL    HW116661   2.340   0.533   1.944  1.4482 -0.3496 -2.0729
 1676SOL    HW216662   2.358   0.457   2.071  0.6225 -2.0737 -0.8746
 1677SOL     OW16663   3.798   3.352  17.023 -0.1182 -0.6312 -0.1162
 1677SOL    HW116664   3.825   3.429  17.074 -1.2797  1.4422 -2.6276
 1677SOL    HW216665   3.820   3.386  16.936  2.6506 -3.4367 -0.5299
 1678SOL     OW16666   0.143   0.130   4.925  0.9194  0.0538 -0.0058
 1678SOL    HW116667   0.168   0.085   4.844 -2.2072  0.6405 -1.2940
 1678SOL    HW216668   0.139   0.065   4.995  1.0893 -2.0875 -2.0082
 1679SOL     OW16669   4.515   4.432   7.959  0.5188 -0.3629  0.3719
 1679SOL    HW116670   4.525   4.425   8.054  0.4198  0.1964  0.4221
 1679SOL    HW216671   4.602   4.413   7.924  1.2029  0.0086  1.8668
 1680SOL     OW16672   4.110   3.454  17.171 -0.3823 -0.3076 -0.0836
 1680SOL    HW116673   4.025   3.468  17.214  0.3444  0.7359  0.9980
 1680SOL    HW216674   4.171   3.501  17.229 -1.8287  0.4029  0.8747
 1681SOL     OW16675   3.160   1.427   2.203 -0.0599  0.3554  0.1710
 1681SOL    HW116676   3.200   1.390   2.282  1.8069  1.3472 -0.3267
 1681SOL    HW216677   3.237   1.457   2.155 -0.3147  1.7203  0.6146
 1682SOL     OW16678   3.731   0.225   4.182 -0.4569 -0.5036 -0.3879
 1682SOL    HW116679   3.687   0.306   4.205 -2.6484 -2.2028  1.3994
 1682SOL    HW216680   3.822   0.255   4.176 -0.2627 -0.7149  1.5291
 1683SOL     OW16681   4.510   2.368  17.413  0.0097 -0.5015 -0.9076
 1683SOL    HW116682   4.511   2.311  17.336 -1.4556 -0.7714 -0.7195
 1683SOL    HW216683   4.517   2.454  17.373  1.3030  0.7380  1.9549
 1684SOL     OW16684   0.173   2.797   9.252  0.2256  0.0736  0.2779
 1684SOL    HW116685   0.194   2.865   9.188 -1.0119  0.1978 -0.0079
 1684SOL    HW216686   0.123   2.731   9.204  0.3656  1.0549 -1.2354
 1685SOL     OW16687   4.423   3.483   9.090 -0.3388 -0.1288  0.5910
 1685SOL    HW116688   4.395   3.575   9.085  0.5916  0.1447  0.3512
 1685SOL    HW216689   4.343   3.433   9.075 -0.1543  0.1205 -1.3084
 1686SOL     OW16690   3.926   3.802   6.214  0.0621  0.3158  0.3096
 1686SOL    HW116691   3.963   3.738   6.274  1.6658 -1.7843 -2.9554
 1686SOL    HW216692   3.848   3.755   6.184  0.3711  1.0996 -1.7027
 1687SOL     OW16693   1.438   1.837   3.509 -0.3439 -0.0525  0.1171
 1687SOL    HW116694   1.448   1.772   3.439 -0.7292  0.5783 -0.5146
 1687SOL    HW216695   1.376   1.798   3.570 -1.1450  0.3844 -0.4261
 1688SOL     OW16696   3.080   1.163   5.131 -0.4374  0.2209 -0.2073
 1688SOL    HW116697   2.994   1.205   5.140  0.0821  0.8989  1.5885
 1688SOL    HW216698   3.061   1.070   5.126 -0.9551  0.3567 -0.8107
 1689SOL     OW16699   0.972   4.104   3.719  0.3705  0.0077 -0.1220
 1689SOL    HW116700   0.928   4.024   3.691 -0.8335  0.4175  0.6056
 1689SOL    HW216701   0.928   4.179   3.679 -0.4729 -0.4090  0.0266
 1690SOL     OW16702   4.223   0.162   1.407  0.4349 -0.4888 -0.3228
 1690SOL    HW116703   4.159   0.168   1.336 -1.1963  1.4899  1.3070
 1690SOL    HW216704   4.168   0.159   1.485  0.7962  0.4413 -0.0455
 1691SOL     OW16705   0.325   1.283   5.080  0.7077  0.3143 -0.1902
 1691SOL    HW116706   0.420   1.297   5.076  0.9556 -1.1019  0.5692
 1691SOL    HW216707   0.327   1.188   5.067  2.7740  0.1490  1.2665
 1692SOL     OW16708   1.297   0.973  17.657 -0.2285 -0.2408 -0.5400
 1692SOL    HW116709   1.207   0.993  17.632 -0.2030  0.7034  0.1334
 1692SOL    HW216710   1.296   1.003   0.002  0.3987  0.9975 -0.9406
 1693SOL     OW16711   4.037   3.181   6.505  0.0093  0.2980  0.0280
 1693SOL    HW116712   3.970   3.222   6.450  1.5419  3.0095  0.2074
 1693SOL    HW216713   4.103   3.186   6.435  2.1857 -1.7484  1.9370
 1694SOL     OW16714   3.165   2.172  14.909 -0.2036 -0.2181  0.4386
 1694SOL    HW116715   3.202   2.182  14.821  2.5900  0.3565  1.7137
 1694SOL    HW216716   3.241   2.193  14.963 -0.1097 -0.4287  0.3878
 1695SOL     OW16717   1.259   0.850   1.372 -0.1503  0.2012 -0.5305
 1695SOL    HW116718   1.280   0.761   1.342 -3.0756  0.2037 -2.6748
 1695SOL    HW216719   1.340   0.868   1.419 -0.7551 -0.3512  0.7137
 1696SOL     OW16720   4.717   0.282  14.045 -0.0250 -0.4090  0.1049
 1696SOL    HW116721   0.021   0.342  13.982 -1.3247 -1.2620 -1.5641
 1696SOL    HW216722   4.669   0.221  13.989 -2.4260  0.2128  1.5152
 1697SOL     OW16723   1.645   4.318   2.641 -0.5770 -0.5664  0.3555
 1697SOL    HW116724   1.672   4.288   2.555 -1.5392 -0.9451  0.1811
 1697SOL    HW216725   1.641   4.233   2.685  2.8423 -0.4186  0.9426
 1698SOL     OW16726   1.734   0.740   1.738  0.1305  0.3077  0.5223
 1698SOL    HW116727   1.799   0.694   1.685 -0.6592 -0.0321 -0.1474
 1698SOL    HW216728   1.654   0.687   1.727 -0.3577  1.2565 -0.4311
 1699SOL     OW16729   2.961   2.774   2.060  0.7686  0.4558  1.0011
 1699SOL    HW116730   2.925   2.808   2.142  0.0140  0.6510  0.5868
 1699SOL    HW216731   2.881   2.736   2.023  0.6654  1.8662 -0.2119
 1700SOL     OW16732   0.631   1.186  15.206 -0.1048  0.3232  0.9678
 1700SOL    HW116733   0.579   1.201  15.127  3.2915  0.5868 -1.2411
 1700SOL    HW216734   0.722   1.203  15.183 -0.4376 -1.2909 -1.6283
 1701SOL     OW16735   0.789   3.456   1.149  0.0128  0.0241 -0.2192
 1701SOL    HW116736   0.693   3.449   1.144 -0.2184  1.7192  1.4507
 1701SOL    HW216737   0.803   3.446   1.243  1.1281  1.4185 -0.2491
 1702SOL     OW16738   2.670   0.407   3.751 -0.4035  0.3135  0.1955
 1702SOL    HW116739   2.671   0.346   3.825  1.7997  1.3003  0.9814
 1702SOL    HW216740   2.758   0.443   3.753  0.1052 -0.8639 -1.3823
 1703SOL     OW16741   2.156   2.397   5.043  0.0978  0.6879  0.3972
 1703SOL    HW116742   2.218   2.466   5.020 -1.1449  1.1284 -1.6867
 1703SOL    HW216743   2.220   2.351   5.097 -0.5759 -2.4748 -1.4885
 1704SOL     OW16744   3.687   3.407   2.267 -0.2901  0.1365 -0.0277
 1704SOL    HW116745   3.649   3.495   2.276 -2.8449 -0.6438 -3.2057
 1704SOL    HW216746   3.780   3.423   2.282 -0.3797  0.0408  0.6323
 1705SOL     OW16747   1.868   2.597   3.452  0.9765  0.5495 -0.1934
 1705SOL    HW116748   1.809   2.535   3.410  0.2244  0.2299  1.3168
 1705SOL    HW216749   1.827   2.604   3.538  1.5802  0.2881  0.1131
 1706SOL     OW16750   3.169   2.922   6.615  0.1965  0.0675 -0.3062
 1706SOL    HW116751   3.206   2.856   6.673 -1.1453  0.6835  1.2620
 1706SOL    HW216752   3.223   2.916   6.536 -1.5071 -2.2419 -1.2985
 1707SOL     OW16753   1.069   0.505   5.519  0.6037 -0.2709  0.9521
 1707SOL    HW116754   1.110   0.583   5.555  0.2977  0.3349 -0.0206
 1707SOL    HW216755   1.079   0.519   5.425 -2.1712  2.7848  1.1254
 1708SOL     OW16756   0.227   0.880   3.333 -0.1898 -0.4132  0.1020
 1708SOL    HW116757   0.187   0.808   3.380  1.3163 -0.8225  0.7568
 1708SOL    HW216758   0.218   0.847   3.243 -1.3241  1.9587 -0.6482
 1709SOL     OW16759   1.212   0.135   8.288  0.2411 -0.0123  0.5659
 1709SOL    HW116760   1.263   0.158   8.366 -0.4136 -0.6173  1.1739
 1709SOL    HW216761   1.280   0.104   8.229 -1.2942  0.6637 -1.5911
 1710SOL     OW16762   4.155   0.386  15.102 -0.1323 -0.3039  0.5294
 1710SOL    HW116763   4.192   0.305  15.137 -0.7201 -1.3335 -1.2843
 1710SOL    HW216764   4.090   0.352  15.041 -0.8030 -2.1717  2.2971
 1711SOL     OW16765   0.560   0.245  14.509 -0.1698 -0.1905 -0.0657
 1711SOL    HW116766   0.518   0.299  14.442  1.8956  1.4435 -0.0633
 1711SOL    HW216767   0.546   0.158  14.473  0.9133 -1.7406  3.2687
 1712SOL     OW16768   0.297   1.075   6.583  0.8199 -0.4694  0.0716
 1712SOL    HW116769   0.289   1.113   6.495  0.5904 -1.0402 -0.1539
 1712SOL    HW216770   0.368   1.011   6.578 -0.0128 -1.2498 -1.8741
 1713SOL     OW16771   1.263   3.073   5.892  0.0862 -0.3521 -0.2812
 1713SOL    HW116772   1.307   2.988   5.888 -1.0361 -0.8292 -2.6360
 1713SOL    HW216773   1.326   3.133   5.932 -0.3070 -0.1833  0.0840
 1714SOL     OW16774   3.735   4.696  13.279  0.0794 -0.5753  0.1433
 1714SOL    HW116775   3.777   0.018  13.343 -0.7660  0.6151 -0.3918
 1714SOL    HW216776   3.655   4.676  13.328  1.9599 -1.0817  2.9942
 1715SOL     OW16777   1.624   2.146   5.578  0.0130  0.0202 -0.1365
 1715SOL    HW116778   1.564   2.100   5.520  1.8420 -0.3299 -1.7697
 1715SOL    HW216779   1.637   2.225   5.526 -0.2876  1.0459  1.3459
 1716SOL     OW16780   2.246   4.224  10.100  0.3682  0.2659  0.4336
 1716SOL    HW116781   2.237   4.303  10.047 -0.6457 -0.8797 -1.1098
 1716SOL    HW216782   2.195   4.232  10.180  0.7107 -1.2429  0.8028
 1717SOL     OW16783   1.365   4.381  12.863 -0.0322  0.2175 -0.2957
 1717SOL    HW116784   1.287   4.329  12.881  0.6463 -0.4548  0.6693
 1717SOL    HW216785   1.375   4.443  12.935  0.1890 -1.5810  1.1956
 1718SOL     OW16786   0.824   2.395   8.446 -0.2140 -0.1876  0.2893
 1718SOL    HW116787   0.823   2.481   8.402 -0.3878 -0.5678 -0.4507
 1718SOL    HW216788   0.832   2.436   8.532  0.7302 -2.9289  1.4798
 1719SOL     OW16789   1.752   4.014   8.230 -0.2784 -0.3571  0.1212
 1719SOL    HW116790   1.818   3.946   8.238 -2.1977 -2.2302 -0.0075
 1719SOL    HW216791   1.807   4.083   8.193  0.6054 -0.4014  1.3472
 1720SOL     OW16792   1.212   3.467   3.615  0.5187 -0.1289  0.1868
 1720SOL    HW116793   1.236   3.557   3.636 -1.3476  0.4192 -0.0402
 1720SOL    HW216794   1.224   3.424   3.700  0.1109 -0.4415  0.0867
 1721SOL     OW16795   4.419   3.090   7.655 -0.0445  0.3491 -0.4042
 1721SOL    HW116796   4.369   3.086   7.736 -1.4773 -0.1936 -1.3074
 1721SOL    HW216797   4.490   3.027   7.670 -0.5001 -0.3520 -1.1587
 1722SOL     OW16798   2.790   2.696   9.385  0.0618 -0.4773  0.3298
 1722SOL    HW116799   2.885   2.688   9.372  0.0514 -0.0863  0.0012
 1722SOL    HW216800   2.780   2.790   9.405 -0.8658 -0.1247 -1.8290
 1723SOL     OW16801   0.589   0.515   1.612  0.2773  0.1851 -0.7104
 1723SOL    HW116802   0.618   0.489   1.524  1.0887 -0.6017 -0.2204
 1723SOL    HW216803   0.600   0.609   1.596 -3.6312  0.9311  0.9605
 1724SOL     OW16804   4.395   4.467   0.825  0.3635  0.0498  0.4499
 1724SOL    HW116805   4.410   4.550   0.870  0.8421 -0.3345  0.9933
 1724SOL    HW216806   4.396   4.393   0.886  1.3545 -0.1727  0.1671
 1725SOL     OW16807   1.777   1.529   8.043 -0.0171  0.1565  0.2161
 1725SOL    HW116808   1.856   1.567   8.003 -0.3671  0.9295  0.2660
 1725SOL    HW216809   1.764   1.594   8.112 -1.1290 -1.4740  1.5195
 1726SOL     OW16810   1.198   1.731  13.443 -0.0249  0.0874 -0.0860
 1726SOL    HW116811   1.216   1.697  13.531  0.5987  0.9592  0.1195
 1726SOL    HW216812   1.253   1.685  13.380 -1.4149  0.1328 -1.3322
 1727SOL     OW16813   0.617   2.632   5.444  0.2360 -0.4531  0.1321
 1727SOL    HW116814   0.614   2.727   5.457 -0.5402 -0.6635  1.5023
 1727SOL    HW216815   0.708   2.619   5.469  0.0957 -0.4281  0.6606
 1728SOL     OW16816   1.401   0.247  13.615 -0.2186  0.0342 -0.6955
 1728SOL    HW116817   1.477   0.242  13.557  0.7687  0.0370  0.6001
 1728SOL    HW216818   1.358   0.329  13.590 -0.9939 -0.1645  0.0062
 1729SOL     OW16819   2.646   4.468   6.949 -0.6804  0.1011  0.0432
 1729SOL    HW116820   2.643   4.543   7.009  0.8514 -1.2722  1.8510
 1729SOL    HW216821   2.729   4.423   6.968 -0.1524  0.9961 -0.1299
 1730SOL     OW16822   1.688   3.395   3.519  0.2511 -0.2810  0.3004
 1730SOL    HW116823   1.758   3.347   3.474 -0.3370  0.6789 -1.6341
 1730SOL    HW216824   1.678   3.349   3.603  1.3616  0.6671  0.9587
 1731SOL     OW16825   1.065   1.331   4.028  0.2713  0.5182 -0.2433
 1731SOL    HW116826   1.061   1.423   4.051  2.4613  1.2950 -2.9564
 1731SOL    HW216827   0.979   1.298   4.055  0.5070 -0.7246 -1.0261
 1732SOL     OW16828   4.201   2.397  15.539 -0.2065 -0.4409  0.3871
 1732SOL    HW116829   4.274   2.431  15.488  1.0828 -1.0134  1.8397
 1732SOL    HW216830   4.176   2.480  15.581  2.0233  0.4853 -0.1024
 1733SOL     OW16831   3.923   4.546  11.654  0.6017  0.0537 -0.0599
 1733SOL    HW116832   3.993   4.609  11.673  0.5908  0.1685 -0.3816
 1733SOL    HW216833   3.963   4.485  11.592 -0.5239 -0.4545 -0.2831
 1734SOL     OW16834   0.401   0.968   3.629  0.1732  0.1409  0.0142
 1734SOL    HW116835   0.333   1.029   3.658 -0.6229  0.5272 -2.7467
 1734SOL    HW216836   0.368   0.894   3.680 -2.0617  1.8228  1.0174
 1735SOL     OW16837   4.493   1.048   8.506 -0.1494  0.2835  0.1273
 1735SOL    HW116838   4.525   1.136   8.487 -0.0006 -0.1215 -1.4765
 1735SOL    HW216839   4.562   1.020   8.568  0.8021  1.1979 -0.5266
 1736SOL     OW16840   0.694   2.575   6.249 -0.0071  0.6632 -0.2766
 1736SOL    HW116841   0.752   2.651   6.234 -0.0408  1.0027  1.3156
 1736SOL    HW216842   0.625   2.624   6.205  0.8888  0.2636 -2.1708
 1737SOL     OW16843   2.202   4.596   4.306  0.4711  0.4005  0.0139
 1737SOL    HW116844   2.167   4.550   4.230  0.7087  0.4408 -0.1178
 1737SOL    HW216845   2.145   4.563   4.376 -0.6255 -1.2035 -1.6603
 1738SOL     OW16846   0.765   4.365  11.862 -0.5537 -0.1089  0.5394
 1738SOL    HW116847   0.795   4.332  11.777  0.1423  0.9822  0.3636
 1738SOL    HW216848   0.732   4.288  11.908 -0.5418 -0.1331  0.5077
 1739SOL     OW16849   3.367   1.261   6.335 -0.0418  0.0607  0.0493
 1739SOL    HW116850   3.361   1.333   6.272 -0.3631  0.4200  0.4957
 1739SOL    HW216851   3.282   1.267   6.378  1.6845 -0.4026  3.5114
 1740SOL     OW16852   1.500   2.420   6.544 -0.4181  0.2154 -0.4423
 1740SOL    HW116853   1.580   2.467   6.569  0.6703 -1.6019 -0.5430
 1740SOL    HW216854   1.478   2.453   6.457 -2.3986  2.7439  1.0100
 1741SOL     OW16855   0.235   1.009   1.087 -0.2543 -0.1387 -0.8225
 1741SOL    HW116856   0.311   0.951   1.078  2.0110  2.0540  3.7967
 1741SOL    HW216857   0.189   0.996   1.004 -0.9073  0.6623 -0.5867
 1742SOL     OW16858   3.901   0.694   4.435 -0.1755 -0.5453  0.1693
 1742SOL    HW116859   3.867   0.757   4.498  0.3426 -0.9907  0.8873
 1742SOL    HW216860   3.929   0.749   4.361  1.1080 -1.0347  0.2941
 1743SOL     OW16861   4.347   2.786   6.080 -0.1240  0.5357  0.3522
 1743SOL    HW116862   4.407   2.712   6.084 -0.1153  0.6914  3.1930
 1743SOL    HW216863   4.265   2.739   6.093 -0.6398  1.2546 -0.3705
 1744SOL     OW16864   1.937   3.601   1.091 -0.2621 -0.1732 -0.0932
 1744SOL    HW116865   1.960   3.693   1.107  1.4911 -0.2648 -1.9452
 1744SOL    HW216866   1.842   3.614   1.084  0.0723  2.1089 -0.4157
 1745SOL     OW16867   0.856   0.889   6.486  0.0438 -0.1939 -0.1306
 1745SOL    HW116868   0.781   0.896   6.546  1.0333 -0.0468  1.0863
 1745SOL    HW216869   0.813   0.873   6.402  0.4013 -1.7986 -0.0002
 1746SOL     OW16870   0.923   4.357  10.604  0.4116  0.4071 -0.2274
 1746SOL    HW116871   0.915   4.365  10.509 -0.2912  0.1053 -0.1928
 1746SOL    HW216872   0.830   4.350  10.624  0.0336 -1.1244 -2.4590
 1747SOL     OW16873   0.717   2.278  17.147  0.2588 -0.3010 -0.0115
 1747SOL    HW116874   0.664   2.199  17.152  1.0719 -0.9195 -1.1475
 1747SOL    HW216875   0.787   2.246  17.205 -2.5945 -1.0069  3.0073
 1748SOL     OW16876   2.228   1.279   3.454 -0.0676  0.1141  0.3749
 1748SOL    HW116877   2.160   1.278   3.388 -0.7748 -0.2287  1.1141
 1748SOL    HW216878   2.237   1.185   3.469  0.9498 -0.1669 -1.9506
 1749SOL     OW16879   0.263   4.303   4.286  0.4979  0.1470 -0.1962
 1749SOL    HW116880   0.308   4.360   4.223 -0.3652 -1.0347 -1.8640
 1749SOL    HW216881   0.173   4.333   4.271  1.7970  5.0116  1.6017
 1750SOL     OW16882   2.506   2.218   4.390 -0.3913  0.1552  0.0453
 1750SOL    HW116883   2.427   2.271   4.399 -0.3124 -0.2737  3.3860
 1750SOL    HW216884   2.507   2.208   4.295  0.9774 -0.6244  0.1342
 1751SOL     OW16885   4.225   0.598   4.805  0.3341 -0.3222  0.1229
 1751SOL    HW116886   4.298   0.616   4.864  1.5006 -1.1843 -1.0523
 1751SOL    HW216887   4.184   0.684   4.800  1.3696  0.2658  1.6674
 1752SOL     OW16888   3.552   4.002   5.756  0.0619  0.5630 -0.5123
 1752SOL    HW116889   3.471   3.957   5.778  0.8259  0.0767  1.3937
 1752SOL    HW216890   3.550   4.087   5.800  0.0178  1.6016 -2.5595
 1753SOL     OW16891   2.406   1.237   2.385  0.3493 -0.1118  0.2618
 1753SOL    HW116892   2.386   1.320   2.343 -2.3383  0.0262  1.8087
 1753SOL    HW216893   2.339   1.241   2.453  0.8328  0.2993  0.7049
 1754SOL     OW16894   4.381   1.895   6.666 -0.0480 -0.1002  0.4853
 1754SOL    HW116895   4.396   1.804   6.639  0.5582 -0.0796  0.7603
 1754SOL    HW216896   4.397   1.951   6.590 -1.4921  1.6043  1.4369
 1755SOL     OW16897   1.751   3.317   4.521  0.0921 -0.2207  0.0438
 1755SOL    HW116898   1.824   3.322   4.459  2.0596 -3.1651  2.1117
 1755SOL    HW216899   1.679   3.291   4.463 -0.1140  0.3631  0.0439
 1756SOL     OW16900   3.961   1.135   2.500  0.2257  0.4525  0.1602
 1756SOL    HW116901   3.948   1.117   2.407 -0.7809  1.0747  0.1816
 1756SOL    HW216902   4.048   1.175   2.507  0.2166  0.0024  2.7967
 1757SOL     OW16903   2.210   4.632   7.374  0.4123  0.5157  0.2636
 1757SOL    HW116904   2.206   4.694   7.447  1.0486 -1.0068  1.6231
 1757SOL    HW216905   2.161   4.678   7.307  0.3877 -0.3042 -0.2815
 1758SOL     OW16906   3.432   3.083   3.035  0.0768  0.4267 -0.0770
 1758SOL    HW116907   3.459   3.152   2.975 -0.5490  1.5851  0.9703
 1758SOL    HW216908   3.480   3.014   2.988  1.0418 -1.0486  3.0422
 1759SOL     OW16909   4.228   0.916   6.129 -0.3762 -0.2816 -0.4253
 1759SOL    HW116910   4.308   0.906   6.179 -0.8604 -0.5664  0.2889
 1759SOL    HW216911   4.173   0.961   6.193  0.8067  0.3889  0.1086
 1760SOL     OW16912   0.839   0.762   8.990 -0.1120 -0.5879  0.0487
 1760SOL    HW116913   0.852   0.735   9.081  0.4444  1.3919  0.5604
 1760SOL    HW216914   0.921   0.732   8.951  0.5144 -0.0700  0.9763
 1761SOL     OW16915   4.108   0.853   8.651 -0.5168  0.3034 -0.4151
 1761SOL    HW116916   4.084   0.764   8.677 -1.8844  0.7887 -0.0371
 1761SOL    HW216917   4.185   0.858   8.708 -1.1835  2.1437  0.3164
 1762SOL     OW16918   2.182   0.354   8.886 -0.5997  0.4636 -0.0831
 1762SOL    HW116919   2.133   0.431   8.856  0.7322  1.0378 -0.7812
 1762SOL    HW216920   2.228   0.397   8.957  1.0129 -0.4489 -0.5772
 1763SOL     OW16921   0.268   4.356   2.919  0.3515  0.4349 -0.6903
 1763SOL    HW116922   0.333   4.285   2.918 -0.2894 -0.1572 -0.7522
 1763SOL    HW216923   0.192   4.304   2.946  1.8824 -3.2949 -3.5426
 1764SOL     OW16924   0.319   3.988   1.877 -0.9491  0.5652  0.3973
 1764SOL    HW116925   0.285   3.968   1.964 -2.4084  2.1495  0.1851
 1764SOL    HW216926   0.239   4.015   1.832  0.2234  0.7431 -1.5660
 1765SOL     OW16927   3.407   1.758   4.120 -0.1709 -0.5869  0.2247
 1765SOL    HW116928   3.441   1.726   4.036  0.8793 -0.1553  0.4815
 1765SOL    HW216929   3.355   1.827   4.080 -0.5548 -0.3435  1.1529
 1766SOL     OW16930   0.174   2.970   2.139 -0.0557 -0.5208 -0.0910
 1766SOL    HW116931   0.163   2.907   2.211 -3.2587 -0.4207 -0.5078
 1766SOL    HW216932   0.269   2.980   2.150  0.4968 -3.0589 -2.6897
 1767SOL     OW16933   4.521   4.142   9.487 -0.3597 -0.3305  0.8383
 1767SOL    HW116934   4.438   4.189   9.486 -0.3440 -0.3549 -0.8322
 1767SOL    HW216935   4.500   4.063   9.437 -1.1629 -0.1851  0.9361
 1768SOL     OW16936   1.213   3.811   3.640 -0.6612 -0.3147  0.2141
 1768SOL    HW116937   1.164   3.855   3.709  0.7172  1.4854  0.0512
 1768SOL    HW216938   1.149   3.802   3.570 -0.5634 -0.8800  0.1971
 1769SOL     OW16939   3.403   2.561   5.147 -0.1489 -0.4030  0.0214
 1769SOL    HW116940   3.433   2.474   5.175  1.8948  0.0854 -0.7121
 1769SOL    HW216941   3.419   2.602   5.232 -2.5094  1.1548 -0.3045
 1770SOL     OW16942   3.463   0.688   2.902 -0.4080  0.4069 -0.6855
 1770SOL    HW116943   3.441   0.697   2.809  0.8128 -0.9695 -1.1068
 1770SOL    HW216944   3.441   0.596   2.917 -1.4101  0.6430 -0.6838
 1771SOL     OW16945   2.017   3.656   7.150 -0.8170  0.2506 -0.1754
 1771SOL    HW116946   1.991   3.691   7.065 -0.7422 -1.5072 -0.9291
 1771SOL    HW216947   2.100   3.701   7.164  0.6860 -2.3263 -0.7535
 1772SOL     OW16948   0.770   0.594   2.053 -0.4294 -0.3266 -0.2869
 1772SOL    HW116949   0.800   0.649   1.981 -2.3846 -1.8278 -2.2586
 1772SOL    HW216950   0.847   0.566   2.102 -0.0386 -0.6467 -1.0799
 1773SOL     OW16951   0.502   0.999   9.354 -0.6434 -0.2174 -0.1836
 1773SOL    HW116952   0.459   0.980   9.271 -0.3638  1.8046 -0.7862
 1773SOL    HW216953   0.476   0.922   9.403 -0.1985 -0.3978 -0.2329
 1774SOL     OW16954   4.149   1.174   7.969 -0.2047 -0.7083  0.2106
 1774SOL    HW116955   4.074   1.143   8.020  0.3400  0.0146  1.4487
 1774SOL    HW216956   4.125   1.267   7.971  1.8129 -0.1665 -0.9051
 1775SOL     OW16957   0.530   3.640   9.594 -0.3536 -0.4467  0.1115
 1775SOL    HW116958   0.590   3.608   9.661  1.9553  2.5252 -0.5140
 1775SOL    HW216959   0.534   3.571   9.528  0.8689 -0.9485  0.7133
 1776SOL     OW16960   0.899   4.720   5.694 -0.0052  0.2502 -0.5974
 1776SOL    HW116961   0.816   4.692   5.732  1.0272 -1.3156  0.5063
 1776SOL    HW216962   0.889   4.710   5.599 -0.5260 -1.6484 -0.3378
 1777SOL     OW16963   0.362   2.668   5.144  0.1166  0.1951 -0.0575
 1777SOL    HW116964   0.298   2.686   5.212  0.9272 -0.9593  1.0049
 1777SOL    HW216965   0.406   2.594   5.187  1.1805  0.3018 -0.9565
 1778SOL     OW16966   1.265   1.125  14.434  0.4421  0.0633  0.4948
 1778SOL    HW116967   1.254   1.065  14.360  0.5685 -0.6370  1.0409
 1778SOL    HW216968   1.194   1.098  14.493 -0.7374 -2.7585 -2.1955
 1779SOL     OW16969   1.645   0.311  17.292 -0.1620  0.0436 -0.4622
 1779SOL    HW116970   1.590   0.233  17.280  0.5653 -0.4884 -0.3406
 1779SOL    HW216971   1.725   0.261  17.304  0.4568  1.1303 -0.1283
 1780SOL     OW16972   1.891   4.246   1.020  0.0098 -0.2381 -0.2740
 1780SOL    HW116973   1.943   4.316   0.981 -0.2759  0.1780  0.0832
 1780SOL    HW216974   1.803   4.260   0.985 -0.4494 -0.5291  0.7415
 1781SOL     OW16975   4.559   1.690   3.212 -0.2470  0.0087  0.7193
 1781SOL    HW116976   4.507   1.737   3.277 -1.6418  0.3034 -0.6165
 1781SOL    HW216977   4.581   1.609   3.257 -0.0067 -2.3351 -3.6247
 1782SOL     OW16978   0.687   3.338   1.470 -0.0213 -0.0913 -0.3215
 1782SOL    HW116979   0.717   3.309   1.556 -0.2122  0.6701 -0.0017
 1782SOL    HW216980   0.616   3.389   1.508 -0.2098 -0.8337  0.3337
 1783SOL     OW16981   1.784   1.343   3.529 -0.1388 -0.1000 -0.2074
 1783SOL    HW116982   1.866   1.302   3.556 -1.2194 -2.4009 -0.4244
 1783SOL    HW216983   1.733   1.262   3.526 -0.4699  0.0779  0.5043
 1784SOL     OW16984   1.469   1.194   7.422  0.1810  0.1606 -0.5924
 1784SOL    HW116985   1.506   1.109   7.446 -0.0530  1.1835  3.5315
 1784SOL    HW216986   1.525   1.253   7.474  1.0393  0.7544 -2.1967
 1785SOL     OW16987   1.479   0.421   5.077  0.2306 -0.4263 -0.1308
 1785SOL    HW116988   1.385   0.405   5.089 -0.2613  1.3857 -1.6249
 1785SOL    HW216989   1.510   0.353   5.137 -0.4119 -0.9272 -0.3590
 1786SOL     OW16990   4.396   4.403   0.092  0.0684  0.2887  0.6151
 1786SOL    HW116991   4.370   4.401   0.000  0.6192 -0.2806  0.4721
 1786SOL    HW216992   4.351   4.323   0.120  0.9409 -1.0603 -1.8757
 1787SOL     OW16993   3.523   0.276   6.537 -0.0068  0.0432 -0.7436
 1787SOL    HW116994   3.479   0.249   6.456 -0.4591 -0.9267 -0.1737
 1787SOL    HW216995   3.606   0.238   6.509  0.4791  0.7184 -0.1912
 1788SOL     OW16996   0.736   0.003   7.029 -0.2327  0.1885  0.2067
 1788SOL    HW116997   0.660   0.061   7.038  0.6492  0.7472  3.8408
 1788SOL    HW216998   0.724   4.670   7.093 -0.7973  0.8684  0.8447
 1789SOL     OW16999   2.346   1.510   9.420 -0.2902 -0.0296  0.1691
 1789SOL    HW117000   2.333   1.468   9.335  1.3768  0.8118 -0.4734
 1789SOL    HW217001   2.323   1.601   9.403 -0.5502 -0.2978 -0.8868
 1790SOL     OW17002   0.260   3.841   9.220 -0.1895  0.0066 -0.2614
 1790SOL    HW117003   0.191   3.890   9.176  0.4600  0.7030 -0.5110
 1790SOL    HW217004   0.297   3.901   9.285  2.2457  1.4773 -3.0182
 1791SOL     OW17005   2.410   2.147   0.776  0.4164 -0.1151  0.6429
 1791SOL    HW117006   2.371   2.070   0.734  0.2577 -0.7565  1.9615
 1791SOL    HW217007   2.466   2.175   0.704  0.8809  1.8102  1.7606
 1792SOL     OW17008   0.147   4.259   8.866 -0.2719 -0.3070  0.3705
 1792SOL    HW117009   0.089   4.279   8.939  0.7728 -0.5184  1.2505
 1792SOL    HW217010   0.233   4.236   8.901  0.1400 -0.8670 -0.9968
 1793SOL     OW17011   2.431   3.934  12.341 -0.3099  0.5943 -0.4465
 1793SOL    HW117012   2.492   3.861  12.334  1.0117  1.5682  1.0074
 1793SOL    HW217013   2.405   3.922  12.250  1.6974  1.2876 -1.1185
 1794SOL     OW17014   0.795   2.895   3.837 -0.1038 -0.0322  0.2874
 1794SOL    HW117015   0.747   2.905   3.754  0.8351 -0.7446 -0.3410
 1794SOL    HW217016   0.766   2.813   3.876 -0.1282 -0.3387 -0.3719
 1795SOL     OW17017   2.561   2.772   5.363 -0.0310  0.0759  0.0261
 1795SOL    HW117018   2.619   2.816   5.301 -2.5431 -0.3065 -2.5549
 1795SOL    HW217019   2.535   2.856   5.402  0.8779 -0.0521  0.9388
 1796SOL     OW17020   1.968   3.811   9.641 -0.1851  0.3431 -0.3099
 1796SOL    HW117021   1.888   3.861   9.629 -0.6134 -0.1853  0.3809
 1796SOL    HW217022   2.012   3.849   9.717 -1.5802  2.5560 -0.6135
 1797SOL     OW17023   2.319   1.485   8.894  0.6892  0.3098 -0.4528
 1797SOL    HW117024   2.269   1.556   8.855 -0.7699 -1.0226 -0.9935
 1797SOL    HW217025   2.368   1.448   8.820 -0.1945 -1.1576 -0.2946
 1798SOL     OW17026   2.452   0.020   2.475  0.9399  0.5110  0.0730
 1798SOL    HW117027   2.381   4.695   2.465 -0.9995  2.5780  1.1075
 1798SOL    HW217028   2.499   0.002   2.393 -0.3389 -4.1174  0.3900
 1799SOL     OW17029   1.913   2.292   4.960  0.2681 -0.0468 -0.1720
 1799SOL    HW117030   1.859   2.231   5.010 -1.3382 -1.7412 -3.9591
 1799SOL    HW217031   1.985   2.306   5.021  0.3815  1.8766 -0.7597
 1800SOL     OW17032   3.646   1.713   9.828  0.7817  0.2189 -0.7606
 1800SOL    HW117033   3.613   1.645   9.769 -0.8343 -0.6341  1.1528
 1800SOL    HW217034   3.569   1.769   9.825  0.9146  0.4963  1.1755
 1801SOL     OW17035   4.322   2.078   8.516  0.3462 -0.4757 -0.3139
 1801SOL    HW117036   4.380   2.099   8.443  0.5721 -1.8347 -0.5357
 1801SOL    HW217037   4.368   2.010   8.566  1.1465  0.1545 -0.1852
 1802SOL     OW17038   2.824   3.523   8.229 -0.4595 -0.7980  0.2045
 1802SOL    HW117039   2.809   3.472   8.150  3.8305  0.9838 -1.7805
 1802SOL    HW217040   2.784   3.466   8.294 -1.1517  0.6131  1.0066
 1803SOL     OW17041   3.645   3.445   1.894  0.2613 -0.1016  0.0916
 1803SOL    HW117042   3.593   3.475   1.819  0.1630 -0.2508  0.1013
 1803SOL    HW217043   3.587   3.468   1.967  0.0854 -0.7124  0.1425
 1804SOL     OW17044   3.875   4.280  11.310 -0.6814  0.4365  0.2888
 1804SOL    HW117045   3.856   4.297  11.218  0.4139 -1.5462 -0.3078
 1804SOL    HW217046   3.847   4.189  11.312  1.4619 -0.2418 -0.2032
 1805SOL     OW17047   1.998   3.851   5.878 -0.8543 -0.1624 -0.1007
 1805SOL    HW117048   1.914   3.896   5.871 -0.3740  0.7231 -0.1124
 1805SOL    HW217049   2.020   3.869   5.969 -0.2438  0.5349 -0.3866
 1806SOL     OW17050   1.506   4.695   5.629  0.3133 -0.3353 -0.1820
 1806SOL    HW117051   1.590   4.728   5.596  0.5911 -0.4395  0.4156
 1806SOL    HW217052   1.460   4.676   5.548 -0.5827  0.0896  0.2310
 1807SOL     OW17053   2.200   1.151  14.278 -0.2238  0.4066  0.3727
 1807SOL    HW117054   2.189   1.084  14.347 -0.2513 -0.0960 -0.1184
 1807SOL    HW217055   2.244   1.222  14.324 -1.9679  0.7359  1.5575
 1808SOL     OW17056   3.527   0.982   2.726  0.2909  0.9910 -1.2023
 1808SOL    HW117057   3.567   0.981   2.813 -0.0763  0.9618 -1.0346
 1808SOL    HW217058   3.462   0.912   2.736  0.5964  0.7573 -0.8396
 1809SOL     OW17059   0.714   0.914   5.877  0.1275  0.0585 -0.5608
 1809SOL    HW117060   0.623   0.941   5.864 -0.7349 -2.8479 -0.5602
 1809SOL    HW217061   0.744   0.959   5.956 -1.7603  2.5201 -1.2363
 1810SOL     OW17062   3.309   2.891   2.840 -0.6407 -0.0206 -0.1149
 1810SOL    HW117063   3.344   2.913   2.927 -0.2542  2.3106 -0.8684
 1810SOL    HW217064   3.362   2.814   2.819  0.1621  0.0412  1.6894
 1811SOL     OW17065   2.823   3.386  11.560  0.0419 -0.5391 -0.3252
 1811SOL    HW117066   2.897   3.350  11.609  0.7082  0.9227 -0.2485
 1811SOL    HW217067   2.807   3.468  11.607 -0.7095 -1.9364  1.8396
 1812SOL     OW17068   1.553   2.749   6.781  0.1762 -0.6943 -0.2920
 1812SOL    HW117069   1.597   2.790   6.707  0.9045 -0.2613  0.3790
 1812SOL    HW217070   1.472   2.722   6.736 -0.1985  2.5554 -1.5709
 1813SOL     OW17071   4.355   2.900  13.204 -0.1017 -0.2160  0.2695
 1813SOL    HW117072   4.431   2.892  13.147  1.4480  2.9619  1.8672
 1813SOL    HW217073   4.321   2.811  13.204  0.2865 -0.3683  0.5946
 1814SOL     OW17074   3.960   4.693  11.334  0.2220 -0.1895  0.4926
 1814SOL    HW117075   4.029   0.014  11.303 -0.0676  0.1675  0.5108
 1814SOL    HW217076   3.903   0.013  11.386 -1.2186 -1.2035  0.0210
 1815SOL     OW17077   0.782   3.266   2.904  0.4086 -0.3933 -0.0539
 1815SOL    HW117078   0.758   3.243   2.814  0.0651  0.0808 -0.0803
 1815SOL    HW217079   0.871   3.297   2.891  1.7263 -3.8060  0.7168
 1816SOL     OW17080   2.364   0.288   1.205 -0.5262 -0.0919 -0.2526
 1816SOL    HW117081   2.306   0.362   1.190 -0.1528  0.4861  1.1324
 1816SOL    HW217082   2.453   0.324   1.208  0.0216 -1.4373 -0.4113
 1817SOL     OW17083   0.818   2.774  10.811 -0.1237  0.1926  0.2533
 1817SOL    HW117084   0.913   2.769  10.807 -0.1003  1.8073 -1.4200
 1817SOL    HW217085   0.806   2.839  10.742  0.0346  1.0122  1.0006
 1818SOL     OW17086   1.216   3.659   1.299 -0.7630 -0.8327 -0.5473
 1818SOL    HW117087   1.272   3.643   1.375  0.3874  0.1668 -1.1831
 1818SOL    HW217088   1.220   3.572   1.261 -0.8847 -1.6003  1.2270
 1819SOL     OW17089   4.712   2.330  13.425 -0.0538  0.1988 -0.6742
 1819SOL    HW117090   0.045   2.273  13.394  2.1130  1.7298  1.3127
 1819SOL    HW217091   4.657   2.345  13.349 -1.9201  0.3783  0.6984
 1820SOL     OW17092   0.668   0.911   7.635 -0.2575  0.0733 -0.1863
 1820SOL    HW117093   0.580   0.890   7.602 -0.4478 -0.0927  0.4299
 1820SOL    HW217094   0.722   0.875   7.565 -0.4807 -0.1559 -0.2412
 1821SOL     OW17095   4.125   1.858   5.030 -0.3521  0.0960  1.0437
 1821SOL    HW117096   4.138   1.942   5.074  0.9019  0.7616 -0.6215
 1821SOL    HW217097   4.177   1.864   4.950 -1.4703 -0.4149  0.2745
 1822SOL     OW17098   4.542   3.056   6.558 -0.2192 -0.1688 -0.1215
 1822SOL    HW117099   4.486   2.998   6.507 -0.5305 -0.4531  0.5394
 1822SOL    HW217100   4.534   3.013   6.643  2.8617  2.8527  1.7180
 1823SOL     OW17101   1.459   0.646   7.386  0.2386  0.4267 -0.5219
 1823SOL    HW117102   1.373   0.619   7.353  0.5570 -0.8289 -0.3154
 1823SOL    HW217103   1.505   0.563   7.394 -1.9525 -0.7493 -0.1363
 1824SOL     OW17104   2.045   3.527  11.342 -0.1390  0.9788  0.2155
 1824SOL    HW117105   2.034   3.471  11.265  2.0012  2.3319 -1.0707
 1824SOL    HW217106   2.080   3.609  11.306 -0.6091  0.6304 -1.0286
 1825SOL     OW17107   3.195   3.128   3.189 -0.7892  0.0069 -0.3482
 1825SOL    HW117108   3.203   3.098   3.279 -1.0024 -2.3047 -1.0948
 1825SOL    HW217109   3.264   3.077   3.146  1.1237  2.0405  0.3425
 1826SOL     OW17110   4.399   4.482   4.991  0.3902 -0.1005  0.5263
 1826SOL    HW117111   4.388   4.387   4.993  2.3164 -0.3302 -0.3557
 1826SOL    HW217112   4.389   4.503   5.083  0.7021  0.3558  0.4574
 1827SOL     OW17113   3.412   2.834   5.617  0.0775  0.6943  0.2279
 1827SOL    HW117114   3.354   2.854   5.690 -0.0558  0.3876  0.2069
 1827SOL    HW217115   3.494   2.831   5.666  1.0315 -0.2313 -1.3989
 1828SOL     OW17116   0.542   2.662  11.528  0.3287 -0.1872  0.2280
 1828SOL    HW117117   0.587   2.659  11.612  1.3979 -2.1205 -0.4357
 1828SOL    HW217118   0.490   2.583  11.513 -4.0017  2.7834 -0.4106
 1829SOL     OW17119   2.632   2.329  10.138  0.2394 -0.4089 -0.1980
 1829SOL    HW117120   2.602   2.238  10.134  1.6121 -0.8134 -0.9856
 1829SOL    HW217121   2.580   2.369  10.207  1.9216  1.8236 -0.2399
 1830SOL     OW17122   0.893   4.392   9.640  0.6501 -0.1682 -0.4200
 1830SOL    HW117123   0.803   4.378   9.610  0.0854 -0.1134  1.2603
 1830SOL    HW217124   0.937   4.318   9.597  0.6754  0.1271 -0.8994
 1831SOL     OW17125   2.096   1.315  13.282  0.1595  0.8389  0.1120
 1831SOL    HW117126   2.164   1.277  13.226  2.3535  2.3081  1.8015
 1831SOL    HW217127   2.028   1.248  13.284  0.1568  0.8971  2.0731
 1832SOL     OW17128   3.557   2.512  10.303 -0.3229 -0.3527  0.9421
 1832SOL    HW117129   3.596   2.592  10.268  1.4178 -1.5632  0.0983
 1832SOL    HW217130   3.464   2.526  10.287  0.1590  0.0492 -1.5296
 1833SOL     OW17131   3.661   0.401   2.710  0.1223 -0.3173  0.1818
 1833SOL    HW117132   3.655   0.395   2.806  1.0301  1.3571  0.3371
 1833SOL    HW217133   3.613   0.482   2.694 -0.5893 -0.3380  2.1762
 1834SOL     OW17134   3.668   0.911   6.105 -0.7644 -0.1395 -0.2756
 1834SOL    HW117135   3.615   0.905   6.026  1.2971  0.2455 -1.6970
 1834SOL    HW217136   3.609   0.938   6.175  0.3294 -0.8645  0.9203
 1835SOL     OW17137   2.612   2.083   6.063 -0.0560 -0.6762 -0.3785
 1835SOL    HW117138   2.559   2.015   6.103 -0.0656  0.2035  1.0831
 1835SOL    HW217139   2.605   2.062   5.970  0.2394  0.8716 -0.7514
 1836SOL     OW17140   1.313   0.862   3.702 -0.4403 -0.1474 -0.1063
 1836SOL    HW117141   1.245   0.875   3.768 -1.8512 -2.0816 -1.1723
 1836SOL    HW217142   1.256   0.855   3.626 -0.7601 -1.0475  0.2227
 1837SOL     OW17143   2.969   1.700  12.570  0.1758  0.5701  0.1709
 1837SOL    HW117144   3.050   1.681  12.523 -0.2158 -2.6481  0.7899
 1837SOL    HW217145   2.934   1.612  12.586 -3.1781  2.1453  1.7061
 1838SOL     OW17146   3.656   3.193   5.329  0.5015 -0.2512  0.2817
 1838SOL    HW117147   3.604   3.178   5.409 -0.3184 -1.1164 -0.4219
 1838SOL    HW217148   3.696   3.277   5.351 -0.0336 -0.1228  0.7965
 1839SOL     OW17149   2.026   3.562   6.562 -0.6985  0.8197 -0.0452
 1839SOL    HW117150   2.031   3.623   6.489  1.4944  0.6387 -0.0667
 1839SOL    HW217151   1.944   3.516   6.546  0.2008 -1.3842  1.4917
 1840SOL     OW17152   1.754   4.064   4.777 -0.1730  0.2971 -0.5872
 1840SOL    HW117153   1.730   4.024   4.694 -0.3770 -0.7333 -0.0438
 1840SOL    HW217154   1.758   4.159   4.767 -0.1379  0.0896 -2.4591
 1841SOL     OW17155   4.096   1.895  17.195  0.2922 -0.5371  0.2080
 1841SOL    HW117156   4.018   1.924  17.242  0.5971 -0.2249  0.5182
 1841SOL    HW217157   4.146   1.861  17.269  0.5861  0.1080  0.3024
 1842SOL     OW17158   4.342   2.198  16.968  0.1458 -0.4861 -0.1282
 1842SOL    HW117159   4.304   2.214  16.882  0.1345  0.2450  0.0151
 1842SOL    HW217160   4.349   2.288  16.998  0.9482 -0.2016 -1.1781
 1843SOL     OW17161   4.160   3.963   9.276 -0.1570 -0.5925 -0.3696
 1843SOL    HW117162   4.069   3.987   9.263  0.4731  3.0863  1.9487
 1843SOL    HW217163   4.143   3.895   9.341  0.2647 -1.2501 -0.9428
 1844SOL     OW17164   4.382   4.292   4.639 -0.0375 -0.0173 -0.1665
 1844SOL    HW117165   4.451   4.258   4.695  0.3487  0.6514 -0.2319
 1844SOL    HW217166   4.322   4.219   4.624 -0.0029 -0.0496 -0.1489
 1845SOL     OW17167   1.955   0.508   3.999  0.5499  0.3289  0.6445
 1845SOL    HW117168   1.954   0.459   3.917  0.0180  0.7642  0.3908
 1845SOL    HW217169   2.046   0.514   4.027  0.4629 -0.8211  1.1738
 1846SOL     OW17170   2.197   4.217   3.145  0.2936 -0.1360  0.3958
 1846SOL    HW117171   2.268   4.170   3.101 -1.2408 -0.8469 -1.2880
 1846SOL    HW217172   2.154   4.146   3.193  0.9722  0.0831  1.3250
 1847SOL     OW17173   4.234   1.744   3.650 -0.0955  0.0297  0.0540
 1847SOL    HW117174   4.164   1.696   3.604  0.4841 -0.8593  0.0986
 1847SOL    HW217175   4.312   1.691   3.634  0.2631  0.6554 -0.2464
 1848SOL     OW17176   2.749   3.426   5.201  0.4678  0.7791  0.0744
 1848SOL    HW117177   2.703   3.445   5.282  0.8210 -1.2229  0.7610
 1848SOL    HW217178   2.679   3.426   5.136  0.5379 -2.9657 -0.0287
 1849SOL     OW17179   0.869   1.545   2.213 -0.1592  0.3037 -0.1443
 1849SOL    HW117180   0.862   1.598   2.293 -0.7471 -1.3686  0.9127
 1849SOL    HW217181   0.939   1.489   2.247 -1.1935  1.9167  4.7109
 1850SOL     OW17182   0.737   2.038   8.289 -0.7253 -0.4164 -0.0130
 1850SOL    HW117183   0.792   1.979   8.342 -0.1210  0.5487  0.4483
 1850SOL    HW217184   0.778   2.039   8.203  0.2305 -0.0024  0.4463
 1851SOL     OW17185   3.661   3.540  12.015 -0.4144 -0.7593  0.2885
 1851SOL    HW117186   3.654   3.494  11.931  0.3829 -0.7162  0.1980
 1851SOL    HW217187   3.660   3.464  12.074  0.6885  0.3215  1.6721
 1852SOL     OW17188   2.766   2.299   2.119 -0.2607 -0.0288  0.1319
 1852SOL    HW117189   2.804   2.242   2.053 -1.1423 -1.3325  0.7437
 1852SOL    HW217190   2.819   2.269   2.193  1.0332  0.9565 -0.4137
 1853SOL     OW17191   3.632   0.205  16.995 -0.3256  0.4042  0.3544
 1853SOL    HW117192   3.614   0.297  17.014 -1.1781  0.1331  0.8876
 1853SOL    HW217193   3.723   0.211  17.021 -0.1518  2.3846 -0.6902
 1854SOL     OW17194   4.088   3.411   6.841  0.1426 -0.0615 -0.1512
 1854SOL    HW117195   4.048   3.419   6.754  2.0564 -1.2344 -1.1436
 1854SOL    HW217196   4.159   3.350   6.822  0.4032  0.0645  0.4028
 1855SOL     OW17197   3.597   2.828   5.806 -0.3954  0.1564 -0.1264
 1855SOL    HW117198   3.666   2.894   5.808  1.2971 -1.6823  1.6112
 1855SOL    HW217199   3.640   2.743   5.819  0.6821  0.7392  0.0875
 1856SOL     OW17200   2.120   3.800   8.490  0.6133  0.2171 -0.5042
 1856SOL    HW117201   2.076   3.720   8.518 -0.1559  1.6588  2.4577
 1856SOL    HW217202   2.168   3.766   8.415 -0.6475 -1.5038 -0.5377
 1857SOL     OW17203   0.896   3.985   2.556 -0.1731 -0.8375 -0.4979
 1857SOL    HW117204   0.985   3.950   2.558  0.5470  1.0595  0.6897
 1857SOL    HW217205   0.855   3.905   2.523 -1.6749  0.1003 -0.9202
 1858SOL     OW17206   1.247   4.078   7.192  0.2239 -0.3003 -0.3876
 1858SOL    HW117207   1.187   4.021   7.145 -0.4171  0.3090 -0.3240
 1858SOL    HW217208   1.233   4.164   7.152 -1.8926 -0.9473 -1.0750
 1859SOL     OW17209   3.883   1.893   2.014  0.2636 -0.4674 -0.0675
 1859SOL    HW117210   3.929   1.948   2.077 -1.4872  1.3598 -0.3873
 1859SOL    HW217211   3.899   1.806   2.051 -0.0968 -0.9141 -0.9526
 1860SOL     OW17212   3.014   4.553   3.807 -0.1729  0.2683 -0.3933
 1860SOL    HW117213   2.956   4.539   3.882  0.1629  2.4231  0.2600
 1860SOL    HW217214   2.959   4.597   3.742 -1.2969 -1.6434 -0.7199
 1861SOL     OW17215   4.441   3.447   2.334 -0.7234  0.7829 -0.6619
 1861SOL    HW117216   4.376   3.499   2.286 -0.8626  2.0312  0.8700
 1861SOL    HW217217   4.463   3.381   2.268  2.1309 -0.7097  1.7769
 1862SOL     OW17218   2.700   2.874   5.157  0.4455 -0.1245 -0.0282
 1862SOL    HW117219   2.727   2.965   5.146  0.1675  0.1523  1.5527
 1862SOL    HW217220   2.771   2.830   5.111 -0.4499  1.8966 -3.2996
 1863SOL     OW17221   0.030   1.388   7.191 -0.4125 -0.0357  0.0791
 1863SOL    HW117222   4.687   1.348   7.157 -0.7638  2.0877 -1.5676
 1863SOL    HW217223   0.017   1.386   7.286  1.4867  1.1828  0.3621
 1864SOL     OW17224   2.853   2.613   2.808 -0.6647 -0.0639  0.1604
 1864SOL    HW117225   2.777   2.641   2.758 -0.3949 -1.3340 -0.9756
 1864SOL    HW217226   2.914   2.681   2.779  1.0674 -2.0638 -0.9126
 1865SOL     OW17227   0.630   1.018  16.218  0.4474 -0.3651  0.1003
 1865SOL    HW117228   0.576   1.091  16.247 -0.5790 -0.5548 -1.2988
 1865SOL    HW217229   0.568   0.945  16.220  0.8332 -0.6605  0.9314
 1866SOL     OW17230   1.986   1.029  16.613  0.1991  0.1887 -0.7246
 1866SOL    HW117231   2.067   1.009  16.659  0.2900 -0.3332 -1.1101
 1866SOL    HW217232   2.008   0.995  16.526 -1.3188  0.5631 -1.2565
 1867SOL     OW17233   4.111   2.272  11.953 -0.2606  0.1628 -0.3087
 1867SOL    HW117234   4.159   2.194  11.927  0.1837  0.0473  0.8479
 1867SOL    HW217235   4.038   2.229  11.997  2.4145 -1.1041  2.8800
 1868SOL     OW17236   2.680   4.526   0.080 -0.2739 -0.6152 -0.9379
 1868SOL    HW117237   2.603   4.495   0.033 -2.3975  1.3832  1.2323
 1868SOL    HW217238   2.677   4.483   0.165 -0.6932  0.1615 -0.5549
 1869SOL     OW17239   4.733   3.817  15.012 -0.5003  0.0891  0.0384
 1869SOL    HW117240   4.658   3.858  14.970 -1.6869  0.0196  2.0931
 1869SOL    HW217241   0.011   3.743  14.953 -4.2602  0.1825 -1.0086
 1870SOL     OW17242   2.993   0.005   2.661  0.3577  0.3958 -0.5758
 1870SOL    HW117243   2.928   4.694   2.609 -0.2358 -0.2711  0.8095
 1870SOL    HW217244   2.975   0.088   2.615  0.1346 -0.2373 -1.6310
 1871SOL     OW17245   0.187   0.140   9.747 -0.0927 -0.0279 -0.5664
 1871SOL    HW117246   0.228   0.160   9.831  1.0399  1.1908 -1.3938
 1871SOL    HW217247   0.185   0.045   9.748  2.8192 -0.0777 -1.1885
 1872SOL     OW17248   3.119   0.891   5.097 -0.3373 -0.3997  0.1058
 1872SOL    HW117249   3.170   0.859   5.171 -1.6041 -0.8673  0.7849
 1872SOL    HW217250   3.162   0.843   5.027 -0.5055  1.2284 -1.1356
 1873SOL     OW17251   3.615   4.378   0.425 -0.4849  0.1828  0.5267
 1873SOL    HW117252   3.705   4.411   0.426 -1.3966  2.7274 -0.7251
 1873SOL    HW217253   3.629   4.284   0.422  2.1368  0.5622  0.7788
 1874SOL     OW17254   2.086   0.448  11.926 -0.1181 -0.3414 -0.0083
 1874SOL    HW117255   2.067   0.362  11.962 -0.5728 -0.4812 -0.5789
 1874SOL    HW217256   2.159   0.480  11.978 -2.6019 -1.1286  3.9370
 1875SOL     OW17257   1.473   0.256   7.258 -0.8501 -0.2659 -0.6303
 1875SOL    HW117258   1.380   0.273   7.275 -0.3439  0.1349  1.6278
 1875SOL    HW217259   1.485   0.161   7.259  0.6911 -0.0392  0.3895
 1876SOL     OW17260   3.858   2.370   1.956 -0.1839 -0.6678 -0.0385
 1876SOL    HW117261   3.875   2.403   1.868  4.2298 -0.0894  1.0157
 1876SOL    HW217262   3.808   2.436   2.005  0.8185 -1.4848  2.0995
 1877SOL     OW17263   0.652   4.067   7.976 -0.2429 -0.6029  0.0455
 1877SOL    HW117264   0.677   4.146   8.024 -1.7265  0.7041 -1.3336
 1877SOL    HW217265   0.584   4.034   8.035 -0.0140 -0.4744  0.3792
 1878SOL     OW17266   0.924   3.640   5.726  0.0593  0.2473  0.0669
 1878SOL    HW117267   0.876   3.649   5.809 -0.4773  1.5286 -0.3843
 1878SOL    HW217268   0.853   3.612   5.669  0.1658  0.0251  0.0455
 1879SOL     OW17269   0.513   1.688   9.041  0.1616  0.1980 -0.2557
 1879SOL    HW117270   0.477   1.613   8.994  1.7978 -1.4938  1.1633
 1879SOL    HW217271   0.433   1.715   9.087 -0.7205  0.6802 -2.0926
 1880SOL     OW17272   2.038   4.663  11.313  0.3911  0.7457 -0.0296
 1880SOL    HW117273   2.086   4.713  11.248 -1.2223  0.5071 -1.4069
 1880SOL    HW217274   2.034   4.716  11.393 -0.2790 -2.7585  2.2269
 1881SOL     OW17275   1.657   0.591   2.745  0.3210 -0.5250 -0.2808
 1881SOL    HW117276   1.658   0.687   2.745 -2.1453 -0.4990  0.1886
 1881SOL    HW217277   1.674   0.582   2.651  1.9586  0.8928 -0.1147
 1882SOL     OW17278   1.843   3.523   2.133 -0.5562 -0.2199 -0.1051
 1882SOL    HW117279   1.803   3.592   2.080  0.1701  2.3497  2.6856
 1882SOL    HW217280   1.909   3.488   2.074 -2.7768 -2.0482 -1.5381
 1883SOL     OW17281   2.961   1.906   6.280 -0.0198  0.7595 -0.4164
 1883SOL    HW117282   2.901   1.934   6.349 -1.4774  2.4879 -2.3963
 1883SOL    HW217283   2.958   1.811   6.290  0.6440  0.8068  0.3138
 1884SOL     OW17284   3.397   3.523  11.173  0.0735 -0.5994  0.0480
 1884SOL    HW117285   3.403   3.618  11.158 -0.5386 -1.0055 -2.9422
 1884SOL    HW217286   3.472   3.503  11.228 -0.6917 -0.8366  0.9915
 1885SOL     OW17287   2.527   3.269   6.957  0.0423  0.5900  0.3204
 1885SOL    HW117288   2.554   3.184   6.923 -0.5452  0.0712  1.1355
 1885SOL    HW217289   2.597   3.280   7.020  0.4537  0.9170 -0.1931
 1886SOL     OW17290   3.536   1.963  12.381  0.2661  0.9454 -0.0837
 1886SOL    HW117291   3.628   1.950  12.357  0.2392  0.2777  0.1989
 1886SOL    HW217292   3.542   1.944  12.475 -3.8491 -1.2145 -0.2615
 1887SOL     OW17293   0.349   1.191  14.634  0.1545 -0.3402 -0.1379
 1887SOL    HW117294   0.290   1.117  14.649  1.2145 -1.4770 -1.5244
 1887SOL    HW217295   0.373   1.175  14.543 -0.2378 -1.3796 -0.0584
 1888SOL     OW17296   3.038   2.217  10.178 -0.3321 -0.2554 -0.0401
 1888SOL    HW117297   3.049   2.124  10.158  0.7347 -0.4981  1.7157
 1888SOL    HW217298   3.009   2.253  10.094 -2.5457 -2.9096 -0.4197
 1889SOL     OW17299   0.491   0.953   2.060 -0.1686 -0.6713 -0.2426
 1889SOL    HW117300   0.536   1.026   2.016 -0.8943  0.9335  1.6536
 1889SOL    HW217301   0.510   0.881   2.000  0.0873 -0.4783 -0.3910
 1890SOL     OW17302   1.214   4.623   7.068  0.5196 -0.1160 -0.1980
 1890SOL    HW117303   1.127   4.655   7.044  0.7975  0.6293 -0.2081
 1890SOL    HW217304   1.262   4.692   7.023  0.7527 -0.0345  0.1728
 1891SOL     OW17305   0.801   4.503   0.403 -0.2492  0.5877  0.1205
 1891SOL    HW117306   0.747   4.499   0.482  2.2560 -1.9067  1.7552
 1891SOL    HW217307   0.747   4.549   0.340 -1.7196 -0.2426  0.7708
 1892SOL     OW17308   2.075   3.453  12.005  0.1552  0.0267  0.1906
 1892SOL    HW117309   2.161   3.488  12.028 -0.7318  2.8429 -0.7488
 1892SOL    HW217310   2.038   3.527  11.957  1.0084  0.1326 -0.2892
 1893SOL     OW17311   0.983   4.340   5.656  0.2663 -0.1318 -0.2885
 1893SOL    HW117312   0.966   4.327   5.562  0.3172 -0.8082 -0.2025
 1893SOL    HW217313   1.044   4.413   5.647  1.6244 -1.3654 -1.0395
 1894SOL     OW17314   1.881   2.727   6.705 -0.4708 -0.1455 -0.3417
 1894SOL    HW117315   1.817   2.791   6.672  1.3081  1.7604 -0.1204
 1894SOL    HW217316   1.840   2.648   6.671  2.0802 -1.4346 -0.3502
 1895SOL     OW17317   3.414   3.958   8.665 -0.2177  0.0064  0.1103
 1895SOL    HW117318   3.338   4.015   8.675 -1.3934 -0.8534 -3.8640
 1895SOL    HW217319   3.478   4.010   8.713 -1.5173  0.7713  1.0174
 1896SOL     OW17320   1.493   1.690   9.600 -0.4186 -0.8506  0.9063
 1896SOL    HW117321   1.422   1.639   9.640 -2.0824  0.6640 -0.1229
 1896SOL    HW217322   1.539   1.718   9.680 -4.0596  0.6065  2.5090
 1897SOL     OW17323   3.108   1.212  14.426 -0.0628  0.2450  0.5454
 1897SOL    HW117324   3.080   1.140  14.369 -0.2849  1.8488 -1.3887
 1897SOL    HW217325   3.137   1.166  14.505  2.7443  0.7684 -0.1797
 1898SOL     OW17326   0.434   1.590   7.290 -0.2513 -0.3753  0.2929
 1898SOL    HW117327   0.360   1.597   7.350 -0.6548 -0.5440 -0.1834
 1898SOL    HW217328   0.489   1.639   7.351 -1.5735  1.8271 -0.2770
 1899SOL     OW17329   0.427   0.901   8.143 -0.2990 -0.4541  0.3572
 1899SOL    HW117330   0.436   0.948   8.060 -2.0452  2.2195  1.6937
 1899SOL    HW217331   0.490   0.829   8.139 -0.2618 -0.3695 -0.6932
 1900SOL     OW17332   1.488   2.890   4.555  0.3384  0.0655 -0.1998
 1900SOL    HW117333   1.529   2.928   4.633  1.3068  2.5340 -1.9002
 1900SOL    HW217334   1.446   2.811   4.588  0.8679  0.8123  2.2582
 1901SOL     OW17335   0.846   0.840   3.932 -0.0902 -0.5696  0.6000
 1901SOL    HW117336   0.926   0.858   3.881  0.3455  0.8670  1.7972
 1901SOL    HW217337   0.882   0.870   4.016 -0.1444 -0.6979  0.6677
 1902SOL     OW17338   3.389   0.516  12.302 -0.2041 -0.2649  0.4869
 1902SOL    HW117339   3.422   0.555  12.383 -1.0331  0.8040  0.3072
 1902SOL    HW217340   3.421   0.427  12.321 -0.2766 -0.3697  0.1178
 1903SOL     OW17341   1.041   4.260   6.288 -0.1866  0.2155  0.0728
 1903SOL    HW117342   1.114   4.262   6.227 -0.2130 -0.8136  0.0037
 1903SOL    HW217343   0.971   4.254   6.223  0.3828 -0.2429 -0.4883
 1904SOL     OW17344   3.254   1.652   8.795 -0.1466 -0.1881  0.1564
 1904SOL    HW117345   3.262   1.654   8.890  0.3292  3.4644  0.0206
 1904SOL    HW217346   3.172   1.607   8.773 -1.5010  3.5498 -2.3258
 1905SOL     OW17347   4.592   1.753   2.806  0.3764  0.2505  0.2556
 1905SOL    HW117348   4.508   1.726   2.843  0.7687 -1.8727 -0.3438
 1905SOL    HW217349   4.593   1.700   2.725 -0.1988 -2.6598  2.1551
 1906SOL     OW17350   3.833   0.828  15.411  0.4968  0.5378  0.0055
 1906SOL    HW117351   3.815   0.869  15.326  0.1678 -0.0832 -0.2214
 1906SOL    HW217352   3.803   0.901  15.465 -0.0303 -0.8710  1.6302
 1907SOL     OW17353   4.238   2.724   0.186 -0.0787  0.1598  0.1897
 1907SOL    HW117354   4.263   2.777   0.261 -0.3903  0.7673 -0.1337
 1907SOL    HW217355   4.324   2.709   0.146  0.5361  3.0047  0.4900
 1908SOL     OW17356   0.729   3.975  13.653 -0.2744 -0.0801  0.5175
 1908SOL    HW117357   0.675   4.053  13.643 -0.4389  0.0093  2.0883
 1908SOL    HW217358   0.721   3.955  13.746 -0.3068 -1.6512  0.1862
 1909SOL     OW17359   1.651   3.593   2.578 -0.4501 -0.0285  0.5069
 1909SOL    HW117360   1.696   3.550   2.505 -2.5049 -0.6500 -0.4153
 1909SOL    HW217361   1.659   3.523   2.643  1.1851  0.5056  0.8754
 1910SOL     OW17362   0.416   1.148   2.600 -0.4090  0.1867 -0.5272
 1910SOL    HW117363   0.434   1.222   2.658 -0.9296  0.8845 -1.2507
 1910SOL    HW217364   0.366   1.195   2.533 -1.3000  0.2932  0.2127
 1911SOL     OW17365   0.906   1.015   1.977 -0.1457  0.5988  0.3188
 1911SOL    HW117366   0.971   1.064   1.927 -1.9330  1.6291 -0.9979
 1911SOL    HW217367   0.829   1.072   1.977 -0.9886 -0.5420  0.3379
 1912SOL     OW17368   0.025   3.235   8.447 -0.5903 -0.2727 -0.3142
 1912SOL    HW117369   0.026   3.305   8.513  1.9027 -1.9025  1.3881
 1912SOL    HW217370   0.046   3.285   8.368  1.2108 -0.5899 -0.0404
 1913SOL     OW17371   0.336   2.350   6.718 -0.1672  0.5523 -0.2767
 1913SOL    HW117372   0.430   2.363   6.731  0.3074 -2.8412 -0.1117
 1913SOL    HW217373   0.343   2.268   6.768 -1.7999  1.2899  1.1509
 1914SOL     OW17374   3.204   0.235   5.730  0.1622  0.3048  0.4590
 1914SOL    HW117375   3.112   0.253   5.708 -0.1868  0.3633  1.9889
 1914SOL    HW217376   3.245   0.302   5.675 -0.4909  0.4485  0.1365
 1915SOL     OW17377   0.965   0.549  12.452 -0.4234 -0.3582 -0.0444
 1915SOL    HW117378   1.043   0.505  12.417 -2.1065 -2.6703 -0.8292
 1915SOL    HW217379   0.894   0.509  12.402  0.6400 -1.4867 -0.6670
 1916SOL     OW17380   0.081   0.371   6.222  0.0255  0.7891 -0.4056
 1916SOL    HW117381   0.171   0.341   6.205 -0.1907  0.5922 -1.2001
 1916SOL    HW217382   0.036   0.297   6.261 -0.5306  1.4992  0.3007
 1917SOL     OW17383   0.576   4.022  16.513 -0.1515 -0.3097  0.1229
 1917SOL    HW117384   0.626   3.945  16.487 -1.3990 -0.9709 -0.3140
 1917SOL    HW217385   0.556   4.063  16.429 -0.7087 -0.5721  0.1244
 1918SOL     OW17386   4.065   3.526   4.543  0.3253 -0.3688 -0.1381
 1918SOL    HW117387   4.138   3.470   4.566  2.4995  2.7532  0.5583
 1918SOL    HW217388   3.998   3.521   4.612  2.9932 -1.4778  2.3471
 1919SOL     OW17389   2.879   3.334  13.514 -0.0250 -0.0062 -0.3158
 1919SOL    HW117390   2.891   3.354  13.421  1.3283 -0.2110 -0.1835
 1919SOL    HW217391   2.945   3.268  13.535 -0.2442  0.0662  0.5827
 1920SOL     OW17392   2.609   0.374   8.005 -0.3687  0.2464  0.2716
 1920SOL    HW117393   2.698   0.407   7.986 -0.0745 -0.0894  1.0828
 1920SOL    HW217394   2.598   0.312   7.933 -0.7012 -0.3189  0.8123
 1921SOL     OW17395   0.859   1.419   1.531 -0.3284 -0.5147  0.4369
 1921SOL    HW117396   0.899   1.365   1.462  1.5188 -2.3350  2.9474
 1921SOL    HW217397   0.936   1.421   1.588  0.4007  0.3102 -0.5784
 1922SOL     OW17398   3.988   1.701   4.361 -0.5019 -0.8617  0.4634
 1922SOL    HW117399   4.027   1.748   4.287 -1.6460 -1.4385 -0.5187
 1922SOL    HW217400   4.017   1.772   4.418 -0.2290 -0.0419 -0.6918
 1923SOL     OW17401   2.434   0.983   6.644 -0.0653 -0.5459 -0.0271
 1923SOL    HW117402   2.371   0.925   6.687  0.6406 -0.7483  0.7526
 1923SOL    HW217403   2.510   0.924   6.652  1.4122  1.4252  0.4085
 1924SOL     OW17404   0.745   3.583  11.556  0.7568  0.1362 -0.2890
 1924SOL    HW117405   0.785   3.566  11.641 -0.8631  0.3321  0.5213
 1924SOL    HW217406   0.661   3.541  11.574  1.4506 -1.2345 -0.3028
 1925SOL     OW17407   3.395   2.465   7.601 -0.1872  0.8881 -0.4712
 1925SOL    HW117408   3.482   2.482   7.566 -0.5891  0.1038 -1.8344
 1925SOL    HW217409   3.354   2.551   7.605  0.6409  1.2900 -0.6011
 1926SOL     OW17410   1.946   2.788   8.744  0.0479 -0.0195  0.1456
 1926SOL    HW117411   1.987   2.816   8.825  3.9036  2.3054 -2.5803
 1926SOL    HW217412   1.857   2.779   8.777 -0.5903 -0.6346 -1.7241
 1927SOL     OW17413   3.006   4.213   4.254 -0.5535  0.2563 -0.1207
 1927SOL    HW117414   3.084   4.266   4.240  1.0309 -1.9453  0.4695
 1927SOL    HW217415   2.963   4.274   4.314 -1.3013 -0.9150  0.5121
 1928SOL     OW17416   3.240   3.192   1.948  0.0781 -0.3293  0.0314
 1928SOL    HW117417   3.228   3.111   1.998 -1.2449 -1.2677 -1.8117
 1928SOL    HW217418   3.315   3.233   1.991 -1.4814  0.1625  2.2509
 1929SOL     OW17419   1.621   3.352   5.323 -0.1995 -0.7879  0.0570
 1929SOL    HW117420   1.620   3.350   5.419 -1.1056 -0.5747  0.0504
 1929SOL    HW217421   1.690   3.415   5.304 -0.2060 -0.4623  1.0903
 1930SOL     OW17422   3.728   1.307   6.472 -0.0437 -0.1440 -0.4515
 1930SOL    HW117423   3.801   1.366   6.495  0.6286 -0.5509 -1.5491
 1930SOL    HW217424   3.675   1.374   6.429  1.8158 -0.1882 -2.8350
 1931SOL     OW17425   2.768   0.844   7.062 -0.0098  0.3385  0.0789
 1931SOL    HW117426   2.723   0.762   7.040 -0.5155  0.5500  0.3234
 1931SOL    HW217427   2.729   0.909   7.003 -0.8399 -0.3169 -0.0945
 1932SOL     OW17428   3.608   0.403  15.857 -0.3755  0.8031 -0.0084
 1932SOL    HW117429   3.528   0.378  15.905 -0.9066  1.8227 -0.3646
 1932SOL    HW217430   3.570   0.468  15.798 -1.6695 -0.1270 -0.1932
 1933SOL     OW17431   2.234   1.257  17.651 -0.5434 -0.0541 -0.2004
 1933SOL    HW117432   2.299   1.287  17.714 -0.3704 -3.9046  1.4637
 1933SOL    HW217433   2.160   1.313  17.675  0.3026  0.5332  1.0383
 1934SOL     OW17434   2.679   1.313   7.176  0.1479 -0.1507 -0.0692
 1934SOL    HW117435   2.653   1.384   7.233  0.7186  1.2152 -1.5077
 1934SOL    HW217436   2.772   1.333   7.160  0.2660 -0.4017  0.2969
 1935SOL     OW17437   2.017   0.760  17.059  0.1985 -0.2242 -0.2039
 1935SOL    HW117438   1.941   0.746  17.116 -1.3452  2.7338 -1.5251
 1935SOL    HW217439   2.038   0.853  17.069 -0.2328  0.0489 -1.7223
 1936SOL     OW17440   0.837   4.547   0.718  0.2024  0.6235 -0.6757
 1936SOL    HW117441   0.750   4.542   0.678  0.9115  1.9909 -2.3498
 1936SOL    HW217442   0.804   4.503   0.796  1.4705  0.5104 -0.2033
 1937SOL     OW17443   0.816   0.954  10.907 -0.2304  0.2192 -0.0396
 1937SOL    HW117444   0.896   1.003  10.887  0.2258 -1.0271 -1.2297
 1937SOL    HW217445   0.829   0.874  10.856  1.4592 -1.2447  2.6978
 1938SOL     OW17446   2.175   3.680   5.749 -0.7920 -0.3073  0.0525
 1938SOL    HW117447   2.112   3.743   5.784  2.0692  3.3085 -1.3316
 1938SOL    HW217448   2.187   3.630   5.830  0.7389 -0.4021 -0.2288
 1939SOL     OW17449   1.015   0.015   0.705  0.1998  0.5162 -0.0955
 1939SOL    HW117450   1.030   0.011   0.610  0.9931  2.7268 -0.0444
 1939SOL    HW217451   0.960   4.673   0.709  0.3854  0.4261  0.6127
 1940SOL     OW17452   1.015   1.645   5.611 -0.0317  0.5352  0.0709
 1940SOL    HW117453   1.051   1.581   5.672 -3.5497 -0.7784  0.7867
 1940SOL    HW217454   0.925   1.645   5.645 -0.0445  0.7273  0.0406
 1941SOL     OW17455   4.348   1.581  12.338  0.5906  0.3550 -0.3838
 1941SOL    HW117456   4.254   1.597  12.327  0.5336 -1.2501 -2.4121
 1941SOL    HW217457   4.360   1.499  12.290  0.6824 -0.4191  0.9639
 1942SOL     OW17458   2.425   3.411  10.360  0.2967  0.0076  0.5059
 1942SOL    HW117459   2.476   3.492  10.370 -0.1925  0.2269  1.2265
 1942SOL    HW217460   2.480   3.365  10.297 -0.6948 -0.5847  0.0815
 1943SOL     OW17461   0.485   3.156   5.433  0.2612 -0.2840  0.4279
 1943SOL    HW117462   0.514   3.083   5.379 -0.9152 -1.3529  1.2251
 1943SOL    HW217463   0.534   3.236   5.416  0.9413 -0.8858 -0.4313
 1944SOL     OW17464   0.941   1.621   4.777 -0.5750  0.5173  0.2021
 1944SOL    HW117465   0.880   1.652   4.845  1.1848  1.4936  1.3202
 1944SOL    HW217466   1.022   1.618   4.827 -0.4345  2.2629  0.0541
 1945SOL     OW17467   4.327   1.069  15.584 -0.5139 -0.2042 -0.2230
 1945SOL    HW117468   4.410   1.117  15.586 -1.3590  1.2640 -0.8280
 1945SOL    HW217469   4.312   1.063  15.679  2.5963  3.0612  0.4701
 1946SOL     OW17470   2.611   0.681   1.265 -0.6002 -0.5503 -0.8832
 1946SOL    HW117471   2.690   0.731   1.248 -1.3968  0.8336 -0.5279
 1946SOL    HW217472   2.601   0.691   1.360 -0.1888  0.0610 -0.9091
 1947SOL     OW17473   2.731   0.663   2.553 -0.4776 -0.4656 -0.1876
 1947SOL    HW117474   2.763   0.649   2.464  1.0410 -0.4560  0.3629
 1947SOL    HW217475   2.753   0.575   2.586  0.1835  0.1853  1.0927
 1948SOL     OW17476   0.056   0.637   3.113 -0.3355 -0.1280  0.5863
 1948SOL    HW117477   0.043   0.573   3.182 -0.4286 -1.3641 -0.5831
 1948SOL    HW217478   4.703   0.648   3.081 -0.2843 -0.7654  0.2297
 1949SOL     OW17479   3.518   1.665   9.078 -0.6652  0.3379 -0.1432
 1949SOL    HW117480   3.527   1.710   8.994  2.6791  1.3434  0.7469
 1949SOL    HW217481   3.518   1.574   9.048 -1.0779 -0.2532  1.6429
 1950SOL     OW17482   4.182   1.117   6.325  0.0838  0.2811  0.1262
 1950SOL    HW117483   4.227   1.114   6.410 -1.7280 -0.0524  1.0919
 1950SOL    HW217484   4.094   1.113   6.365 -0.8802 -0.2050 -2.0511
 1951SOL     OW17485   2.121   1.665   6.458 -0.4371 -0.1630 -0.6979
 1951SOL    HW117486   2.148   1.590   6.404 -0.9730 -0.6990 -0.2115
 1951SOL    HW217487   2.199   1.682   6.511  0.7323 -1.4209 -1.9862
 1952SOL     OW17488   1.491   1.858  16.351 -0.6157  0.1426 -0.2495
 1952SOL    HW117489   1.528   1.811  16.276  0.7662  0.1322  0.4252
 1952SOL    HW217490   1.432   1.921  16.310 -0.1078  0.6609 -0.1972
 1953SOL     OW17491   1.485   2.139   0.057  0.2474 -0.0260  0.0335
 1953SOL    HW117492   1.565   2.189   0.074  0.7857 -0.6268 -0.7124
 1953SOL    HW217493   1.418   2.193   0.098 -1.4384 -2.5154  0.5575
 1954SOL     OW17494   2.557   4.407  15.448 -0.6780  0.0806  0.6273
 1954SOL    HW117495   2.614   4.404  15.370  0.1454 -2.4603  1.3223
 1954SOL    HW217496   2.478   4.455  15.422  0.1147 -0.2146 -2.4176
 1955SOL     OW17497   2.816   0.727   3.048 -0.6524 -0.4012 -0.6148
 1955SOL    HW117498   2.883   0.683   2.995 -0.3747 -1.4439  0.5888
 1955SOL    HW217499   2.789   0.661   3.112  1.3895  0.1150  0.8054
 1956SOL     OW17500   1.675   1.835  12.628  0.1075 -0.3977  0.1616
 1956SOL    HW117501   1.583   1.858  12.618 -0.0887 -1.3349 -0.1526
 1956SOL    HW217502   1.669   1.780  12.706 -1.2553 -2.1970 -1.2162
 1957SOL     OW17503   0.044   0.680   3.883  0.5912  0.0316 -0.3042
 1957SOL    HW117504   0.029   0.719   3.797  2.6651  1.9447  0.1973
 1957SOL    HW217505   0.113   0.736   3.918 -0.6905  1.5660 -0.2365
 1958SOL     OW17506   3.555   4.436   6.393 -0.0312  0.3624  0.7365
 1958SOL    HW117507   3.562   4.526   6.361 -1.4438 -0.4150 -1.8082
 1958SOL    HW217508   3.462   4.426   6.373  0.0259  0.6597  0.3198
 1959SOL     OW17509   2.007   0.915  12.682  0.0445  0.0957  0.0235
 1959SOL    HW117510   2.004   0.908  12.777 -2.1074  1.1854  0.0503
 1959SOL    HW217511   2.076   0.980  12.667 -1.4142  1.8338  0.7501
 1960SOL     OW17512   1.225   0.344   2.437 -0.6170 -0.5476 -0.3559
 1960SOL    HW117513   1.129   0.345   2.439 -0.6224  1.1849 -1.5351
 1960SOL    HW217514   1.257   0.371   2.523 -1.8367 -1.8101  0.4957
 1961SOL     OW17515   2.145   3.771   5.014 -0.5953  0.1207  0.4756
 1961SOL    HW117516   2.213   3.809   4.957  0.9425 -0.6443  1.8109
 1961SOL    HW217517   2.201   3.728   5.079 -1.3301 -1.7274 -0.1167
 1962SOL     OW17518   1.988   4.574   3.348  0.2497  0.0972 -0.3750
 1962SOL    HW117519   1.914   4.631   3.373 -0.3777 -0.1964 -1.5476
 1962SOL    HW217520   1.972   4.560   3.254 -0.7411  0.2632 -0.2328
 1963SOL     OW17521   4.446   1.842   8.002 -0.1274  0.4478 -0.8530
 1963SOL    HW117522   4.453   1.747   8.008 -0.2264  0.3859 -1.8542
 1963SOL    HW217523   4.451   1.851   7.907 -1.5575 -0.1231 -0.9716
 1964SOL     OW17524   3.703   3.458   2.706 -1.0081 -0.0271  0.0131
 1964SOL    HW117525   3.691   3.516   2.781 -2.8147  0.3046 -0.5305
 1964SOL    HW217526   3.722   3.530   2.646 -0.9766  0.3880  0.5284
 1965SOL     OW17527   3.736   1.319   2.553 -0.7115 -0.7555 -0.1426
 1965SOL    HW117528   3.803   1.280   2.495 -0.6889  0.0003 -0.6268
 1965SOL    HW217529   3.755   1.412   2.542 -1.5752 -0.8464 -2.4792
 1966SOL     OW17530   4.228   4.721   6.658  0.2522  0.0168 -0.0135
 1966SOL    HW117531   4.229   4.640   6.609 -4.0645  1.6139 -2.7312
 1966SOL    HW217532   4.322   0.004   6.654 -0.3500  2.5374 -1.7338
 1967SOL     OW17533   0.849   1.229  11.105  0.0988  0.2244  0.5933
 1967SOL    HW117534   0.776   1.219  11.165  0.5173  1.7673  1.3598
 1967SOL    HW217535   0.804   1.233  11.020 -1.2923 -0.4143  1.3140
 1968SOL     OW17536   2.730   0.091   0.562 -0.2235  0.4673 -0.2468
 1968SOL    HW117537   2.698   0.094   0.471 -1.1873 -3.4015 -0.0642
 1968SOL    HW217538   2.664   0.144   0.606 -1.1720 -0.2735 -0.7728
 1969SOL     OW17539   2.603   4.330   1.735  0.3975 -0.2717  0.1235
 1969SOL    HW117540   2.555   4.291   1.661  1.8981  0.8530 -1.4399
 1969SOL    HW217541   2.696   4.318   1.717  1.1597  1.8715  2.7358
 1970SOL     OW17542   4.436   1.009   1.680  0.4558  0.2312  0.3731
 1970SOL    HW117543   4.414   0.965   1.598 -0.2054 -0.1270  0.7394
 1970SOL    HW217544   4.527   1.033   1.663  0.3967  0.1480 -0.0482
 1971SOL     OW17545   0.911   3.850   9.774 -0.1535  0.1024 -0.3214
 1971SOL    HW117546   0.880   3.776   9.826 -2.7510 -0.9532 -3.3615
 1971SOL    HW217547   0.983   3.878   9.831  0.4031 -0.5891 -0.6741
 1972SOL     OW17548   3.083   2.804  15.199  0.0131 -0.6268  0.0711
 1972SOL    HW117549   3.126   2.733  15.247  1.0436 -0.2825 -0.3341
 1972SOL    HW217550   3.151   2.871  15.190  0.8542 -1.3782  0.7146
 1973SOL     OW17551   3.659   3.831   7.825 -0.1510 -0.1679  0.4571
 1973SOL    HW117552   3.750   3.841   7.852  0.9990 -1.5087 -2.9400
 1973SOL    HW217553   3.630   3.813   7.915  0.2393  0.9533  0.8116
 1974SOL     OW17554   1.126   4.635   5.847 -0.3126  0.1204 -0.1138
 1974SOL    HW117555   1.056   4.685   5.807 -0.9061 -1.3806 -0.9728
 1974SOL    HW217556   1.164   4.617   5.761  2.6944 -3.1941  1.8831
 1975SOL     OW17557   0.200   0.099   8.737  0.7119 -0.7783 -0.4267
 1975SOL    HW117558   0.213   0.020   8.790 -2.1163 -1.0238 -0.0678
 1975SOL    HW217559   0.135   0.061   8.678 -1.0629 -2.2228  2.4302
 1976SOL     OW17560   2.160   3.052   6.859 -0.0726  0.4360 -0.6726
 1976SOL    HW117561   2.253   3.040   6.840  0.2686  2.4539 -0.3101
 1976SOL    HW217562   2.122   3.030   6.774 -1.2311  0.3456 -0.1399
 1977SOL     OW17563   0.435   0.600  14.570  0.4087  0.2958  0.4593
 1977SOL    HW117564   0.381   0.555  14.635 -0.0597  0.4126  0.1512
 1977SOL    HW217565   0.520   0.609  14.614  0.0401  3.1565  0.5622
 1978SOL     OW17566   0.824   3.470   4.401 -0.6983  0.0830 -0.1131
 1978SOL    HW117567   0.729   3.483   4.392 -0.7746  1.6214  2.8211
 1978SOL    HW217568   0.828   3.386   4.355  0.9409  1.0664 -1.7544
 1979SOL     OW17569   2.599   2.542  11.724  0.4738 -0.4715 -0.6230
 1979SOL    HW117570   2.640   2.604  11.663  0.4402 -1.4003 -1.5969
 1979SOL    HW217571   2.574   2.606  11.790  1.8463  1.0697 -1.5937
 1980SOL     OW17572   2.082   0.135  11.987  0.5574 -0.9328  0.3587
 1980SOL    HW117573   2.109   0.049  12.019  0.2935 -2.0739 -2.4093
 1980SOL    HW217574   1.991   0.127  11.957  0.4036 -1.5244  0.9825
 1981SOL     OW17575   1.935   0.579   9.450  0.5417 -0.3667  0.1710
 1981SOL    HW117576   2.017   0.542   9.418  0.7477  1.1219 -1.0227
 1981SOL    HW217577   1.888   0.560   9.368  1.5616 -0.1298 -0.4693
 1982SOL     OW17578   1.869   0.661  16.266 -0.9686 -0.2908 -0.1499
 1982SOL    HW117579   1.882   0.586  16.209 -0.6703 -0.0249 -0.4341
 1982SOL    HW217580   1.842   0.604  16.338 -1.3023  0.6941  0.5100
 1983SOL     OW17581   0.851   4.090  10.063  0.4547 -0.3078  0.4707
 1983SOL    HW117582   0.808   4.017  10.020  0.3739 -0.3738  0.6664
 1983SOL    HW217583   0.780   4.153  10.073  1.3139  0.6163  0.7341
 1984SOL     OW17584   3.759   0.443   2.200  0.3544 -0.2245 -0.0920
 1984SOL    HW117585   3.815   0.467   2.126  0.5694  2.3015  0.8889
 1984SOL    HW217586   3.821   0.461   2.270 -0.4863 -1.7988  1.0569
 1985SOL     OW17587   4.120   2.888   8.974 -0.1573 -0.1816  0.3916
 1985SOL    HW117588   4.169   2.932   9.043  0.5271  0.0701 -0.2578
 1985SOL    HW217589   4.177   2.823   8.934  0.2406  0.4803 -0.1127
 1986SOL     OW17590   1.133   0.503   6.880 -0.3735  0.0930  0.2809
 1986SOL    HW117591   1.164   0.430   6.934 -1.7513 -0.0019  0.9385
 1986SOL    HW217592   1.174   0.580   6.920 -0.0546  0.2731 -0.3937
 1987SOL     OW17593   1.862   3.996   6.261  0.0470 -0.2475  0.1882
 1987SOL    HW117594   1.872   3.907   6.292  2.6715 -0.4629 -1.2090
 1987SOL    HW217595   1.913   4.051   6.321 -1.4701  1.9923 -0.5774
 1988SOL     OW17596   0.686   2.480   4.196 -0.4598  0.3860 -0.1304
 1988SOL    HW117597   0.592   2.472   4.212 -0.3420 -0.1734  0.2701
 1988SOL    HW217598   0.708   2.404   4.143  0.7815  0.2700  0.5642
 1989SOL     OW17599   0.596   4.510  14.517  0.1095 -0.0400 -0.3190
 1989SOL    HW117600   0.562   4.436  14.466  1.0556 -0.7814  0.1080
 1989SOL    HW217601   0.591   4.591  14.467 -0.6798 -0.2616 -0.6013
 1990SOL     OW17602   2.564   3.574  11.193  0.1875 -0.1157 -0.3956
 1990SOL    HW117603   2.526   3.557  11.106  0.7363 -1.5749 -0.3491
 1990SOL    HW217604   2.507   3.526  11.253  3.1326 -0.1603  2.3637
 1991SOL     OW17605   2.895   2.185   2.356  0.1794 -0.4922 -0.9373
 1991SOL    HW117606   2.822   2.130   2.329 -0.4839  0.1163 -0.4203
 1991SOL    HW217607   2.960   2.116   2.369  2.4849  1.7254 -0.4450
 1992SOL     OW17608   1.729   3.132   9.212 -0.0948  0.5345 -0.9974
 1992SOL    HW117609   1.658   3.181   9.253  0.9817  0.5682  0.8119
 1992SOL    HW217610   1.728   3.053   9.265 -0.7816  0.6234 -0.8762
 1993SOL     OW17611   3.965   0.663   3.900  0.6011  0.2858 -0.1108
 1993SOL    HW117612   3.905   0.590   3.916  1.7116 -0.6850 -0.3254
 1993SOL    HW217613   3.918   0.729   3.950  3.8799  0.4290  2.7696
 1994SOL     OW17614   0.895   2.984  15.555 -0.2105 -0.2678  0.2930
 1994SOL    HW117615   0.943   3.066  15.565 -1.2879  0.3440  0.5004
 1994SOL    HW217616   0.941   2.923  15.613  0.9964  0.0279 -0.3693
 1995SOL     OW17617   0.073   2.083  17.465 -0.1149 -0.4831  0.6653
 1995SOL    HW117618   0.086   2.048  17.553 -1.9401 -0.0284  1.1060
 1995SOL    HW217619   0.087   2.176  17.486 -1.2772 -0.1359 -0.1304
 1996SOL     OW17620   4.009   1.219  13.751  0.1172  0.6652 -0.0102
 1996SOL    HW117621   4.070   1.280  13.710 -0.8442  1.3357 -0.4228
 1996SOL    HW217622   3.929   1.243  13.704  0.5635  0.0623 -1.0683
 1997SOL     OW17623   1.229   1.855   5.774 -0.2381 -0.2756 -0.7475
 1997SOL    HW117624   1.195   1.944   5.766  0.1241 -0.2685 -2.1764
 1997SOL    HW217625   1.323   1.867   5.758  0.0245  0.2512  1.1808
 1998SOL     OW17626   2.102   1.237   8.830  0.2204 -0.7189 -0.5212
 1998SOL    HW117627   2.060   1.308   8.878 -0.6355 -1.2440 -0.5113
 1998SOL    HW217628   2.181   1.284   8.803  0.7203 -0.8470  0.7336
 1999SOL     OW17629   0.224   4.703   6.808  0.2722  0.3524  0.3251
 1999SOL    HW117630   0.245   4.612   6.789  0.5908  0.7002 -1.0301
 1999SOL    HW217631   0.312   0.004   6.808  0.6888 -0.5624 -1.8055
 2000SOL     OW17632   3.901   3.227   9.485  0.0988  0.0099 -0.5471
 2000SOL    HW117633   3.887   3.133   9.494  0.3159  0.0241 -0.0874
 2000SOL    HW217634   3.996   3.237   9.487 -0.0879  2.1143 -2.1690
 2001SOL     OW17635   2.799   2.310   4.712 -0.3866  0.0734 -0.2979
 2001SOL    HW117636   2.852   2.319   4.632  2.3132  2.3470  1.7533
 2001SOL    HW217637   2.842   2.233   4.751  0.2183  0.6894  0.2508
 2002SOL     OW17638   1.214   1.016  12.160 -0.2762 -0.2965 -0.3588
 2002SOL    HW117639   1.251   0.973  12.236 -2.3121 -0.0986  0.7189
 2002SOL    HW217640   1.228   1.110  12.174  1.6996 -0.4017 -1.5314
 2003SOL     OW17641   1.390   4.640   2.383  0.4445 -0.2120  0.1574
 2003SOL    HW117642   1.322   4.648   2.317  0.9954  2.5628 -0.0759
 2003SOL    HW217643   1.342   4.612   2.461 -1.5350  1.7482 -0.3746
 2004SOL     OW17644   2.523   3.892  11.125  0.5959 -0.0120  0.1473
 2004SOL    HW117645   2.521   3.810  11.077  1.5066 -1.9474  3.4210
 2004SOL    HW217646   2.427   3.887  11.133  0.6953  1.2301  2.2346
 2005SOL     OW17647   4.373   4.585  13.995 -0.3162 -0.1600  0.5356
 2005SOL    HW117648   4.301   4.527  13.969  0.4958 -0.8078 -0.2555
 2005SOL    HW217649   4.390   4.538  14.077 -0.1329  0.0410  0.6141
 2006SOL     OW17650   4.386   3.033   7.982 -0.1765  0.2490  0.0888
 2006SOL    HW117651   4.336   2.954   7.963  0.3766 -0.2245  0.5867
 2006SOL    HW217652   4.469   2.999   8.016 -0.0016 -0.2695 -0.8567
 2007SOL     OW17653   0.633   0.844   3.785  0.1949 -0.4802 -0.5048
 2007SOL    HW117654   0.669   0.879   3.703 -2.0179 -1.6206 -1.9472
 2007SOL    HW217655   0.710   0.832   3.841  0.4405 -0.2190 -0.7857
 2008SOL     OW17656   2.905   1.974   5.393  0.1856  0.8875 -0.4897
 2008SOL    HW117657   2.855   1.979   5.475 -2.3120 -0.5927 -1.9427
 2008SOL    HW217658   2.946   1.888   5.403  0.5589  1.3419  2.1016
 2009SOL     OW17659   1.019   1.058  14.485  0.0566 -0.3702 -0.0207
 2009SOL    HW117660   0.993   0.973  14.451  1.7184 -0.4751 -0.9942
 2009SOL    HW217661   0.943   1.069  14.543 -0.2863 -0.2742 -0.4825
 2010SOL     OW17662   1.907   3.604   4.174  0.8054 -0.2657 -0.1719
 2010SOL    HW117663   1.919   3.698   4.160  0.3346 -0.6344 -3.0521
 2010SOL    HW217664   1.812   3.608   4.164  0.7787  1.9929  1.0723
 2011SOL     OW17665   4.702   0.738   7.523  0.1243  0.0482  0.5878
 2011SOL    HW117666   4.714   0.774   7.611  0.7782  0.6028  0.2780
 2011SOL    HW217667   0.005   0.652   7.535  1.3137  0.3919 -0.9609
 2012SOL     OW17668   4.615   3.923   8.745 -0.5263 -0.1218  0.3849
 2012SOL    HW117669   4.658   3.877   8.817 -1.9762 -0.6788  0.8926
 2012SOL    HW217670   4.537   3.945   8.796 -0.7759  0.9430 -0.4685
 2013SOL     OW17671   1.713   0.002   1.049  0.1296  0.4748  0.3342
 2013SOL    HW117672   1.694   0.058   1.125 -1.5226 -0.9239  0.9484
 2013SOL    HW217673   1.629   4.704   1.020  0.5230  0.3891 -0.6763
 2014SOL     OW17674   0.981   0.568   2.229 -0.4832  0.6363  0.3189
 2014SOL    HW117675   1.023   0.489   2.263  2.2020  1.3190 -1.3913
 2014SOL    HW217676   1.051   0.626   2.197  1.1607 -2.1199 -1.0580
 2015SOL     OW17677   4.578   2.297  15.141  0.4923  0.6606  0.2311
 2015SOL    HW117678   4.594   2.389  15.120  2.1840  0.9898  2.9256
 2015SOL    HW217679   4.633   2.288  15.219  1.1866  0.4509 -0.2816
 2016SOL     OW17680   2.087   0.543  16.908  0.4720 -0.3812 -0.3351
 2016SOL    HW117681   2.066   0.617  16.965  0.4522  0.5949 -1.6165
 2016SOL    HW217682   2.085   0.466  16.965  1.2984 -0.7130 -0.7521
 2017SOL     OW17683   2.349   2.422   6.487 -0.3736  0.6872 -0.3468
 2017SOL    HW117684   2.254   2.419   6.495 -0.4762 -0.1847 -2.0362
 2017SOL    HW217685   2.375   2.334   6.462  0.1925  0.4067  1.2376
 2018SOL     OW17686   3.738   4.723  16.574  0.5049 -0.2782  0.3438
 2018SOL    HW117687   3.678   4.676  16.631 -0.3814 -1.2380 -1.3745
 2018SOL    HW217688   3.719   0.076  16.601  0.8463 -0.0716 -0.1039
 2019SOL     OW17689   0.068   1.882   2.449 -0.1689  0.3321  0.0440
 2019SOL    HW117690   4.726   1.830   2.465 -1.2604  1.7583 -0.6844
 2019SOL    HW217691   0.111   1.854   2.368  0.8305  1.0763  0.3183
 2020SOL     OW17692   1.020   3.456   7.283  0.1803  0.4236  0.2486
 2020SOL    HW117693   0.993   3.372   7.246  1.7763  0.5038 -1.1293
 2020SOL    HW217694   0.938   3.504   7.272  0.9992  0.8905 -4.0625
 2021SOL     OW17695   3.783   0.844   3.041  0.0137  0.3278  0.0059
 2021SOL    HW117696   3.852   0.852   2.975  0.8549 -0.5858  0.7540
 2021SOL    HW217697   3.736   0.927   3.036  0.0818  0.2261 -1.9832
 2022SOL     OW17698   0.941   2.862   7.214 -0.3703  0.3133  0.3625
 2022SOL    HW117699   1.033   2.856   7.239 -0.8034 -3.0657  1.1025
 2022SOL    HW217700   0.950   2.927   7.143 -0.2668  0.2031  0.2743
 2023SOL     OW17701   2.400   4.235  15.208 -0.1153  0.3606  0.0323
 2023SOL    HW117702   2.330   4.301  15.210 -0.3372  0.1051  0.7913
 2023SOL    HW217703   2.477   4.291  15.196 -1.2728  1.6477 -1.6361
 2024SOL     OW17704   0.191   0.333   1.117  0.2940  0.2049  0.1578
 2024SOL    HW117705   0.187   0.429   1.115 -0.4867  0.1404 -2.2246
 2024SOL    HW217706   0.097   0.324   1.103  0.0551  0.6515  1.4995
 2025SOL     OW17707   0.551   0.710  17.518 -0.5640 -0.3705  0.3444
 2025SOL    HW117708   0.554   0.804  17.540 -0.3882 -0.8069  2.1875
 2025SOL    HW217709   0.479   0.715  17.455 -0.6437  2.2866  0.6285
 2026SOL     OW17710   1.641   2.810  13.653 -0.1019  0.2914  0.4175
 2026SOL    HW117711   1.593   2.737  13.614 -0.2607  0.7508 -0.2388
 2026SOL    HW217712   1.568   2.862  13.686 -0.0288  0.5889  0.1062
 2027SOL     OW17713   0.317   2.633   2.633  0.0926  0.5451 -0.3992
 2027SOL    HW117714   0.225   2.632   2.660 -0.3436  0.8328 -1.9122
 2027SOL    HW217715   0.352   2.655   2.720 -1.8154  0.5297  0.3819
 2028SOL     OW17716   2.202   4.310   2.072 -0.5969 -0.8208 -0.0844
 2028SOL    HW117717   2.228   4.395   2.034 -2.5519 -0.4407 -0.5346
 2028SOL    HW217718   2.280   4.271   2.112  0.0304  0.3153 -0.1803
 2029SOL     OW17719   4.329   4.099  16.229  0.2132 -0.3874  0.9977
 2029SOL    HW117720   4.423   4.087  16.235  0.4275  0.4755 -0.6664
 2029SOL    HW217721   4.305   4.075  16.318 -0.3827 -2.4291  0.2892
 2030SOL     OW17722   1.654   4.432   2.897  0.3421  0.2039  0.0746
 2030SOL    HW117723   1.667   4.381   2.817 -1.9852 -0.2487 -0.0256
 2030SOL    HW217724   1.581   4.488   2.869 -0.8627 -0.2950  2.2359
 2031SOL     OW17725   0.460   1.963  14.831 -0.0111 -0.4454  0.0859
 2031SOL    HW117726   0.432   1.873  14.813  0.8828  0.1852 -4.5280
 2031SOL    HW217727   0.548   1.948  14.796  0.0135 -0.5217  0.1810
 2032SOL     OW17728   1.962   2.252   5.366 -0.2139 -0.0787  0.3556
 2032SOL    HW117729   1.948   2.158   5.358 -1.2855  0.2022 -1.0083
 2032SOL    HW217730   2.015   2.257   5.446 -1.1741 -0.8954  1.0456
 2033SOL     OW17731   2.334   0.864   7.762  0.3001  0.5953 -0.4242
 2033SOL    HW117732   2.282   0.787   7.782  0.0576  0.7959 -0.2881
 2033SOL    HW217733   2.421   0.833   7.789 -0.3598  0.4200  1.4557
 2034SOL     OW17734   2.178   4.026  10.331 -0.4844  0.5399 -0.1810
 2034SOL    HW117735   2.256   4.008  10.278 -1.3699 -0.4879 -1.1340
 2034SOL    HW217736   2.222   4.054  10.412  1.2622 -2.3301 -0.1184
 2035SOL     OW17737   0.406   1.503   8.877 -0.0015  0.1374  0.5590
 2035SOL    HW117738   0.328   1.552   8.850  0.1893  0.9824  1.5381
 2035SOL    HW217739   0.376   1.447   8.948  1.6618 -2.9813 -1.2042
 2036SOL     OW17740   4.422   2.049   6.430 -0.7804  0.0615  0.4464
 2036SOL    HW117741   4.436   2.142   6.449 -0.0577 -0.2751  1.5523
 2036SOL    HW217742   4.469   2.037   6.347 -0.7726 -0.1296  0.4786
 2037SOL     OW17743   0.869   2.287  16.738 -0.3669  0.3061 -0.3412
 2037SOL    HW117744   0.891   2.293  16.645  1.1810  0.7169  0.0481
 2037SOL    HW217745   0.955   2.310  16.774 -1.0633  1.2774  0.6775
 2038SOL     OW17746   2.543   3.618  10.120 -0.3540  0.1656 -0.0625
 2038SOL    HW117747   2.557   3.623  10.214  1.1934 -1.3066 -0.2105
 2038SOL    HW217748   2.615   3.569  10.078  0.3876  0.8748  0.3777
 2039SOL     OW17749   0.304   4.452  11.298 -0.1686  0.4612  0.2163
 2039SOL    HW117750   0.357   4.402  11.236  2.8102  1.0155  2.3570
 2039SOL    HW217751   0.268   4.376  11.343 -1.5847 -0.6401 -2.7471
 2040SOL     OW17752   1.197   2.482  15.671 -0.1056  0.1507 -0.1830
 2040SOL    HW117753   1.259   2.549  15.700  0.4950 -0.1476 -0.8174
 2040SOL    HW217754   1.124   2.495  15.733  0.2331  1.5403 -0.0629
 2041SOL     OW17755   4.371   4.119   4.246  0.3579 -0.2265  0.2044
 2041SOL    HW117756   4.418   4.158   4.319  2.5994 -0.1830 -1.2791
 2041SOL    HW217757   4.357   4.189   4.182  1.3043 -0.0760  0.1642
 2042SOL     OW17758   2.803   4.247  10.560 -0.2938 -0.6272  0.4875
 2042SOL    HW117759   2.769   4.161  10.536 -0.2266 -0.7308  0.7696
 2042SOL    HW217760   2.849   4.260  10.477 -1.5572  0.2812 -0.0706
 2043SOL     OW17761   1.301   1.073   4.462 -0.3140  0.1215  0.2730
 2043SOL    HW117762   1.378   1.116   4.423 -0.3746  0.3126  0.3648
 2043SOL    HW217763   1.234   1.135   4.433 -0.7516 -0.0008  1.0373
 2044SOL     OW17764   3.687   0.835   5.350  0.0950  0.1393  0.0909
 2044SOL    HW117765   3.704   0.761   5.293 -1.9520 -0.5682  0.3836
 2044SOL    HW217766   3.755   0.836   5.417 -0.9802 -3.1992  1.2211
 2045SOL     OW17767   2.492   1.812   9.585  0.2736 -0.2074  0.3876
 2045SOL    HW117768   2.532   1.726   9.596  0.0169 -0.0774  2.2355
 2045SOL    HW217769   2.460   1.806   9.495  0.5361 -0.4429  0.3091
 2046SOL     OW17770   4.594   2.428   3.645  0.2078 -0.1913 -0.5019
 2046SOL    HW117771   4.660   2.398   3.583 -1.6325 -2.2021 -1.4614
 2046SOL    HW217772   4.608   2.359   3.711 -0.6022  1.4303  1.3833
 2047SOL     OW17773   1.813   4.330   0.465  0.1262  0.4421 -0.5054
 2047SOL    HW117774   1.878   4.368   0.524 -1.0171  1.0224  0.3726
 2047SOL    HW217775   1.730   4.331   0.511  0.7129  2.0392  0.5306
 2048SOL     OW17776   3.889   3.649  14.147 -0.4567 -0.0392 -0.2082
 2048SOL    HW117777   3.897   3.719  14.083 -0.1629  1.1562  1.1222
 2048SOL    HW217778   3.896   3.571  14.092  2.6389  0.1933 -0.1216
 2049SOL     OW17779   2.935   1.517   8.558 -0.6678  0.0294 -0.4033
 2049SOL    HW117780   2.980   1.494   8.476 -1.6142  0.5183 -1.0679
 2049SOL    HW217781   2.863   1.455   8.572 -0.8709 -0.2893 -2.7606
 2050SOL     OW17782   1.437   4.465   6.299 -0.1547 -0.1101  0.0338
 2050SOL    HW117783   1.387   4.499   6.225 -2.1479 -2.1711  0.4241
 2050SOL    HW217784   1.466   4.383   6.260 -0.0911  0.9562 -2.2020
 2051SOL     OW17785   2.069   2.537  10.486  0.1218 -0.1658 -0.3469
 2051SOL    HW117786   1.981   2.573  10.472  0.6588  1.3976  0.3281
 2051SOL    HW217787   2.105   2.568  10.569 -2.0876 -1.2559  1.0274
 2052SOL     OW17788   4.043   1.792   1.740  0.2389 -0.1044  0.1880
 2052SOL    HW117789   4.077   1.843   1.667  2.5576 -1.3587  0.3939
 2052SOL    HW217790   4.040   1.859   1.809 -2.6331  0.0033 -0.0561
 2053SOL     OW17791   0.466   2.395  10.513 -0.5008 -0.2906  0.8047
 2053SOL    HW117792   0.416   2.387  10.432  0.0274  1.6618  0.2872
 2053SOL    HW217793   0.408   2.350  10.574 -2.3851 -1.4955 -1.8261
 2054SOL     OW17794   0.354   4.429   9.529 -0.4768  0.6101 -0.5054
 2054SOL    HW117795   0.301   4.356   9.494 -0.3143 -1.1897  2.9842
 2054SOL    HW217796   0.361   4.488   9.454 -0.1288  1.6714  0.3805
 2055SOL     OW17797   1.502   4.607   4.590  0.2725  0.1805 -0.2491
 2055SOL    HW117798   1.528   4.655   4.512  3.2429 -0.0392  0.6042
 2055SOL    HW217799   1.428   4.550   4.568  1.2114 -1.0874 -0.1337
 2056SOL     OW17800   4.409   4.600   1.685 -0.8934 -0.4330  0.6469
 2056SOL    HW117801   4.472   4.625   1.618 -3.9668  2.4993 -1.1958
 2056SOL    HW217802   4.450   4.521   1.719  0.4841 -0.4999 -1.1994
 2057SOL     OW17803   0.051   0.990   6.135  0.1081  0.3473  0.5730
 2057SOL    HW117804   0.047   0.927   6.062  0.0494  3.6466 -2.2582
 2057SOL    HW217805   0.122   0.951   6.186  0.0715 -1.2080 -0.5456
 2058SOL     OW17806   1.041   4.338  15.255 -0.2597  0.4306  0.4808
 2058SOL    HW117807   1.061   4.282  15.330  3.3153 -0.3528 -1.0774
 2058SOL    HW217808   1.129   4.364  15.227 -1.5913  1.2630 -3.0361
 2059SOL     OW17809   3.669   4.571   1.892 -0.9963  0.3487 -0.4399
 2059SOL    HW117810   3.692   4.483   1.922 -2.2204 -0.3079 -1.4098
 2059SOL    HW217811   3.718   4.616   1.961 -0.3854 -1.7557  0.4820
 2060SOL     OW17812   0.421   3.707   9.853  0.2367 -0.1023  0.0786
 2060SOL    HW117813   0.468   3.687   9.772 -0.4387  1.2073 -0.6276
 2060SOL    HW217814   0.409   3.620   9.893 -0.2024  1.5150  3.4362
 2061SOL     OW17815   0.565   0.239  15.671 -0.0680 -0.4001 -0.1684
 2061SOL    HW117816   0.561   0.272  15.581 -1.8385  0.9767  0.4125
 2061SOL    HW217817   0.660   0.230  15.678 -0.0150 -0.8951 -1.4164
 2062SOL     OW17818   3.954   3.917  16.235 -0.0212  0.0904  0.2734
 2062SOL    HW117819   4.003   3.988  16.192  1.3518 -0.4859  0.8664
 2062SOL    HW217820   3.885   3.905  16.170 -0.5473 -0.6955  0.9751
 2063SOL     OW17821   2.994   1.300   7.838 -0.3161  0.3582  0.7435
 2063SOL    HW117822   2.968   1.236   7.905  1.4001  2.3065  3.2462
 2063SOL    HW217823   3.081   1.270   7.815 -0.6707  0.4506 -0.7007
 2064SOL     OW17824   1.315   1.223   6.728 -0.0497 -0.1220 -0.0734
 2064SOL    HW117825   1.240   1.281   6.737  0.7034  0.8369  0.0745
 2064SOL    HW217826   1.287   1.169   6.654 -0.8088 -0.1227  0.2126
 2065SOL     OW17827   0.665   4.560  10.492  0.0325  0.0984 -0.7326
 2065SOL    HW117828   0.652   4.536  10.584  1.7196  1.4841 -0.1445
 2065SOL    HW217829   0.711   4.484  10.455 -2.0109 -0.9427 -1.1370
 2066SOL     OW17830   4.203   3.981   2.988  0.4553  0.2555 -0.5431
 2066SOL    HW117831   4.237   3.892   2.991 -2.1764 -0.6818  2.5641
 2066SOL    HW217832   4.230   4.009   2.901  2.2607  2.7260  0.8162
 2067SOL     OW17833   3.997   0.760  11.193  0.1042 -0.5319  0.1111
 2067SOL    HW117834   4.069   0.821  11.177 -1.4120  0.8220 -1.5776
 2067SOL    HW217835   3.931   0.829  11.202  2.0589  0.9342  3.0629
 2068SOL     OW17836   2.294   1.953   2.227 -0.1118  0.1209 -0.4430
 2068SOL    HW117837   2.385   1.924   2.219  0.5814  1.4113  2.7002
 2068SOL    HW217838   2.262   1.863   2.224 -3.2367  1.1782  1.4364
 2069SOL     OW17839   2.736   3.744   1.967 -0.4009  0.2371  0.0108
 2069SOL    HW117840   2.736   3.699   1.883 -0.0760 -2.0029  1.2283
 2069SOL    HW217841   2.826   3.776   1.972  0.1234 -1.2534  0.0322
 2070SOL     OW17842   3.737   1.145   5.746  0.0233  0.0616 -0.6915
 2070SOL    HW117843   3.654   1.189   5.729  0.0424 -0.4298 -2.0025
 2070SOL    HW217844   3.764   1.174   5.833 -1.5309  1.6513 -0.7586
 2071SOL     OW17845   4.670   3.164   6.032  0.2208 -0.2674 -0.0467
 2071SOL    HW117846   4.603   3.120   5.978  1.4514 -0.8381 -1.1224
 2071SOL    HW217847   4.619   3.213   6.096  1.6100 -0.5208  1.2385
 2072SOL     OW17848   2.499   1.318   6.384  0.4745 -0.6016  0.1767
 2072SOL    HW117849   2.592   1.296   6.389  0.1359 -1.6962  1.5506
 2072SOL    HW217850   2.464   1.236   6.348  0.3182 -1.7179  2.8410
 2073SOL     OW17851   1.249   0.813  11.026 -0.2170  0.2203  0.6055
 2073SOL    HW117852   1.180   0.757  10.992  0.0806  2.5117 -3.7958
 2073SOL    HW217853   1.324   0.789  10.971 -0.1661  1.5904  0.0721
 2074SOL     OW17854   0.732   0.585   4.050 -0.2918 -0.5842  0.2051
 2074SOL    HW117855   0.655   0.605   4.102  0.2094 -1.5255  1.3171
 2074SOL    HW217856   0.736   0.669   4.004 -1.6587 -1.5108 -1.5941
 2075SOL     OW17857   3.963   0.417   5.385  0.4081  0.1519 -0.1375
 2075SOL    HW117858   3.940   0.380   5.299  0.5130 -0.3890  0.0692
 2075SOL    HW217859   3.887   0.391   5.437  0.4156  0.2691 -0.0671
 2076SOL     OW17860   2.355   2.623  11.230  0.4219 -0.2172 -0.6157
 2076SOL    HW117861   2.437   2.612  11.183  1.6615  1.5257  1.1528
 2076SOL    HW217862   2.369   2.620  11.325  2.0435  0.2901 -0.8434
 2077SOL     OW17863   0.121   1.057   7.658 -0.2359 -0.5055 -0.1808
 2077SOL    HW117864   0.210   1.037   7.688 -0.3601 -0.7499  0.0236
 2077SOL    HW217865   0.099   1.123   7.723  1.6041 -0.5563  0.4899
 2078SOL     OW17866   0.068   2.277   6.435 -0.2649 -0.5812  0.3463
 2078SOL    HW117867   0.101   2.200   6.482 -0.9725 -0.1706  1.4896
 2078SOL    HW217868   0.128   2.276   6.360  0.4564 -1.9802  0.9232
 2079SOL     OW17869   4.127   0.432   0.757  0.6777  0.3208  0.6447
 2079SOL    HW117870   4.089   0.388   0.681  1.6945  0.1789  0.2193
 2079SOL    HW217871   4.220   0.407   0.758  1.2168  2.3065  1.9747
 2080SOL     OW17872   1.079   3.778   8.956  0.2685  0.1315 -0.1470
 2080SOL    HW117873   1.018   3.724   9.006 -1.4064  1.6695 -0.5190
 2080SOL    HW217874   1.132   3.709   8.916  0.2502 -1.2050  2.1509
 2081SOL     OW17875   2.935   3.046  13.177  0.1967 -0.5563 -0.6230
 2081SOL    HW117876   2.911   3.132  13.140  1.5846  0.1665  0.1640
 2081SOL    HW217877   2.964   3.003  13.096 -1.1332  1.2472 -2.0740
 2082SOL     OW17878   0.968   1.948   1.744  0.4533  0.2100  0.2385
 2082SOL    HW117879   0.992   1.906   1.661  1.0430 -0.5639  0.8038
 2082SOL    HW217880   0.883   1.974   1.709  0.6972 -0.9774 -1.2490
 2083SOL     OW17881   2.152   3.369  14.768  0.7792  0.2325 -0.3019
 2083SOL    HW117882   2.242   3.348  14.793  0.8201 -0.5077 -1.0801
 2083SOL    HW217883   2.128   3.435  14.834  2.0046  0.8835 -0.4902
 2084SOL     OW17884   3.327   0.917  14.268  0.1051  0.3013 -0.1024
 2084SOL    HW117885   3.402   0.877  14.223  0.6583  1.6569 -0.3828
 2084SOL    HW217886   3.361   0.915  14.357 -0.5741 -0.8581  0.1315
 2085SOL     OW17887   4.686   4.273   4.988 -0.1386  0.2295  0.4569
 2085SOL    HW117888   4.639   4.197   5.025 -0.6255 -0.2204 -1.0812
 2085SOL    HW217889   4.731   4.299   5.068  1.6679 -1.3990 -0.0274
 2086SOL     OW17890   1.636   3.946   2.021 -0.0042  0.7357  0.2210
 2086SOL    HW117891   1.724   3.912   2.038 -1.0325 -1.4893  1.0355
 2086SOL    HW217892   1.586   3.867   2.003  0.1574 -0.1429  3.6786
 2087SOL     OW17893   3.657   1.402   4.588 -0.2092 -0.1823 -0.2372
 2087SOL    HW117894   3.594   1.368   4.651 -0.4569 -2.3994 -1.6972
 2087SOL    HW217895   3.718   1.452   4.643 -0.4453  0.9630 -1.0215
 2088SOL     OW17896   4.671   1.123  15.098  0.3649  0.7569 -0.2352
 2088SOL    HW117897   4.736   1.192  15.084  0.3397  1.0739  1.2709
 2088SOL    HW217898   4.600   1.153  15.041 -1.9723  0.4092  2.4849
 2089SOL     OW17899   0.230   0.535  14.017 -0.5051 -0.3583  0.1534
 2089SOL    HW117900   0.285   0.493  14.083 -1.5522 -0.7007  0.8205
 2089SOL    HW217901   0.144   0.548  14.057 -0.3383  1.7692 -0.1772
 2090SOL     OW17902   4.379   3.251   5.746  0.2579  0.1494 -0.9778
 2090SOL    HW117903   4.379   3.333   5.796  2.5551 -0.0156 -0.7440
 2090SOL    HW217904   4.472   3.253   5.726  0.6592 -0.4111  0.8754
 2091SOL     OW17905   4.687   1.951   8.097 -0.3514  0.0864  0.5950
 2091SOL    HW117906   0.002   1.901   8.035  0.6485  0.4839  1.1123
 2091SOL    HW217907   4.602   1.939   8.055  0.0917 -3.0065  0.6166
 2092SOL     OW17908   4.655   2.198   3.229 -0.2976 -0.2868  0.0714
 2092SOL    HW117909   4.693   2.162   3.309 -1.2562 -0.5640  0.3974
 2092SOL    HW217910   4.563   2.185   3.250 -0.6393  2.2992  0.2540
 2093SOL     OW17911   4.468   2.854  16.965 -1.1628 -0.1024  0.0670
 2093SOL    HW117912   4.410   2.863  17.040 -0.1090  1.3478  0.7080
 2093SOL    HW217913   4.508   2.940  16.975  0.1897 -0.8629  1.2150
 2094SOL     OW17914   1.781   1.901   3.744  0.1187  0.2632  0.2826
 2094SOL    HW117915   1.800   1.829   3.803  2.0317 -0.3718 -1.0919
 2094SOL    HW217916   1.847   1.967   3.765 -0.0991  0.4931  0.2437
 2095SOL     OW17917   1.863   4.306   2.317 -0.1382  0.3662  0.0003
 2095SOL    HW117918   1.796   4.367   2.348 -1.6841 -0.7986 -1.0293
 2095SOL    HW217919   1.834   4.284   2.228 -1.6129 -2.2240  1.1065
 2096SOL     OW17920   0.808   0.680   2.418  0.1500  0.1623 -0.5666
 2096SOL    HW117921   0.880   0.654   2.360  1.5309 -0.0912  1.2963
 2096SOL    HW217922   0.812   0.775   2.415  1.0026  0.0801 -2.0074
 2097SOL     OW17923   2.968   4.602   1.571 -0.3470 -0.4144  0.3472
 2097SOL    HW117924   3.041   4.635   1.623 -0.5424  0.1703  0.2493
 2097SOL    HW217925   3.010   4.516   1.564 -2.0848 -1.3127  0.8443
 2098SOL     OW17926   2.560   3.004   2.785  0.1478 -0.3649 -0.1954
 2098SOL    HW117927   2.535   3.069   2.719 -3.3207 -1.6469 -0.1386
 2098SOL    HW217928   2.652   2.993   2.761 -0.2992 -2.7720 -0.8399
 2099SOL     OW17929   4.331   4.045   5.411 -0.0078  0.1193  0.4643
 2099SOL    HW117930   4.395   4.083   5.470 -0.9282  1.2595  0.7233
 2099SOL    HW217931   4.313   4.112   5.346  1.4719 -1.2253 -1.3242
 2100SOL     OW17932   2.038   1.869   7.512  0.1874  0.2964  0.3126
 2100SOL    HW117933   2.043   1.775   7.496 -1.1918  0.4743 -1.1880
 2100SOL    HW217934   1.977   1.882   7.584 -2.2937 -2.3250 -1.2847
 2101SOL     OW17935   0.516   2.100   3.556 -0.4938 -0.0573  0.4732
 2101SOL    HW117936   0.549   2.062   3.637  0.3297 -0.6374 -0.1336
 2101SOL    HW217937   0.592   2.088   3.499 -0.1111  0.3078  0.9012
 2102SOL     OW17938   2.107   3.380   2.789 -0.2045  0.7376 -0.3744
 2102SOL    HW117939   2.074   3.309   2.734 -0.3673  1.6365 -1.4441
 2102SOL    HW217940   2.098   3.341   2.876 -0.9808  0.2508 -0.6727
 2103SOL     OW17941   3.311   3.963   2.623  0.0560 -0.1404 -0.1160
 2103SOL    HW117942   3.378   4.032   2.623 -0.0708 -0.0115  0.6333
 2103SOL    HW217943   3.235   4.022   2.628  1.6002  1.7971  0.4235
 2104SOL     OW17944   0.226   4.610   4.719 -0.4878 -0.0572 -0.4896
 2104SOL    HW117945   0.240   4.646   4.631 -0.7536 -0.9936 -0.9212
 2104SOL    HW217946   0.135   4.584   4.708 -0.8622  0.5142  1.3220
 2105SOL     OW17947   2.137   0.091  17.407  0.1409 -0.3027 -0.7404
 2105SOL    HW117948   2.113   0.122  17.320  1.3553  2.2094 -0.1923
 2105SOL    HW217949   2.206   0.156  17.423 -0.4945 -0.0784  1.0466
 2106SOL     OW17950   0.751   3.561   3.706 -0.4285 -0.2021 -0.1585
 2106SOL    HW117951   0.688   3.583   3.774  0.8989  1.4700  0.5264
 2106SOL    HW217952   0.717   3.614   3.633  1.1643  1.1227  0.0501
 2107SOL     OW17953   1.462   3.512  15.625  0.0547 -0.0896  1.1345
 2107SOL    HW117954   1.391   3.528  15.563  1.6057 -1.0418 -0.8820
 2107SOL    HW217955   1.541   3.515  15.571  0.5101 -0.5103  1.7696
 2108SOL     OW17956   2.561   4.369  13.919  0.0874 -0.3286 -0.6487
 2108SOL    HW117957   2.465   4.377  13.917  0.1908  0.6449 -1.8478
 2108SOL    HW217958   2.580   4.349  13.827  1.5166  0.8196 -0.6074
 2109SOL     OW17959   0.263   3.214   8.063  0.4659  0.4258  0.4515
 2109SOL    HW117960   0.254   3.308   8.045  0.1203  0.1668 -0.6995
 2109SOL    HW217961   0.297   3.224   8.152 -1.5398  1.9176  1.0601
 2110SOL     OW17962   0.826   3.149   6.955  0.5394  0.2347 -0.2575
 2110SOL    HW117963   0.858   3.105   6.876  0.7429  0.2824 -0.2004
 2110SOL    HW217964   0.744   3.099   6.951 -2.6244  5.2506  2.1383
 2111SOL     OW17965   0.667   3.933   7.161  0.4417 -0.0129  0.3823
 2111SOL    HW117966   0.745   3.984   7.182 -1.9423  3.1633  1.5553
 2111SOL    HW217967   0.614   3.973   7.230  1.1489  0.1020  0.8565
 2112SOL     OW17968   4.399   0.310   2.937  0.0735 -0.0277 -0.4588
 2112SOL    HW117969   4.421   0.228   2.893 -0.0399 -0.8677  1.0502
 2112SOL    HW217970   4.442   0.304   3.022  2.8480 -1.0648 -1.9283
 2113SOL     OW17971   0.764   3.553   7.357 -0.0250 -0.1727  0.0371
 2113SOL    HW117972   0.710   3.488   7.313 -0.1912  0.5885 -0.8847
 2113SOL    HW217973   0.773   3.503   7.438  0.1402  0.9397  0.7139
 2114SOL     OW17974   3.471   4.437   7.182  0.2864  0.1931  0.1828
 2114SOL    HW117975   3.472   4.373   7.253  1.6679 -0.8256 -0.7474
 2114SOL    HW217976   3.490   4.385   7.104 -0.7816  0.1471 -0.0334
 2115SOL     OW17977   1.038   0.563   8.983  0.5755  0.0866  0.1994
 2115SOL    HW117978   1.078   0.521   9.059 -2.1709 -0.4727  1.3661
 2115SOL    HW217979   1.106   0.546   8.918 -0.6847 -0.1669 -1.0655
 2116SOL     OW17980   1.957   2.540   7.273 -0.8700  0.1455 -0.5056
 2116SOL    HW117981   2.049   2.514   7.280  0.1276  3.1503 -2.5541
 2116SOL    HW217982   1.936   2.556   7.365 -0.0963 -2.5185  0.1362
 2117SOL     OW17983   0.802   0.183   1.955 -0.4756  0.0167 -0.0902
 2117SOL    HW117984   0.860   0.202   2.029 -0.7905 -0.7675  0.3546
 2117SOL    HW217985   0.795   0.268   1.911 -0.4416  1.4395  2.5937
 2118SOL     OW17986   1.849   0.086  11.861 -0.1207 -0.0997 -0.0083
 2118SOL    HW117987   1.886   0.084  11.772 -1.6592  1.0575 -0.6673
 2118SOL    HW217988   1.832   4.732  11.884  0.0055 -0.4365 -1.2391
 2119SOL     OW17989   4.420   3.631   1.876 -0.2472 -0.2708 -0.2729
 2119SOL    HW117990   4.451   3.704   1.822 -0.3475  1.0444  1.4409
 2119SOL    HW217991   4.458   3.563   1.820 -1.1876 -1.8569  1.0318
 2120SOL     OW17992   1.862   0.565   3.641 -0.3867  0.0790  0.0387
 2120SOL    HW117993   1.949   0.541   3.609  0.2903  1.9584  0.4401
 2120SOL    HW217994   1.806   0.563   3.564  1.5085  1.7772 -1.3713
 2121SOL     OW17995   3.477   3.704   6.069 -0.0616 -0.1624  0.2880
 2121SOL    HW117996   3.445   3.614   6.074 -1.2817  0.2977  0.8365
 2121SOL    HW217997   3.556   3.691   6.017 -0.2765 -1.6791  0.3445
 2122SOL     OW17998   3.028   2.005   3.952  0.8296  0.7310 -0.1259
 2122SOL    HW117999   3.002   1.914   3.968 -0.3801  1.1528  0.2738
 2122SOL    HW218000   2.947   2.049   3.976 -0.7168 -1.9332 -0.4422
 2123SOL     OW18001   1.742   1.891   9.596  0.1642  0.4172 -0.6877
 2123SOL    HW118002   1.758   1.805   9.558  0.0947  0.6596 -1.2652
 2123SOL    HW218003   1.836   1.913   9.595  0.2293  0.2382  1.7084
 2124SOL     OW18004   4.085   0.730   7.114  0.6891 -0.3738  0.7294
 2124SOL    HW118005   4.024   0.697   7.048 -1.8109  2.9304  1.3914
 2124SOL    HW218006   4.060   0.822   7.116  0.7904 -0.3339  0.2010
 2125SOL     OW18007   3.536   0.379   8.843  0.5322 -0.5203 -0.4237
 2125SOL    HW118008   3.549   0.422   8.927 -0.0364 -0.1669 -0.5170
 2125SOL    HW218009   3.504   0.295   8.875  2.4306 -0.3758  1.7693
 2126SOL     OW18010   4.534   4.260   4.422  0.7379 -0.2880  0.1681
 2126SOL    HW118011   4.488   4.272   4.505 -1.0133 -1.9102 -0.5610
 2126SOL    HW218012   4.547   4.352   4.400 -1.4405 -0.1616 -0.6213
 2127SOL     OW18013   4.513   1.601  15.794  0.0006  0.5441  0.4564
 2127SOL    HW118014   4.540   1.636  15.709 -0.0888  0.6379  0.4664
 2127SOL    HW218015   4.554   1.514  15.793  0.0191  0.5727 -1.9534
 2128SOL     OW18016   0.187   1.142   3.376  0.0713  0.2000  0.0662
 2128SOL    HW118017   0.199   1.047   3.373 -0.1912  0.1683  0.0699
 2128SOL    HW218018   0.256   1.158   3.311  0.1701 -0.1487  0.0869
 2129SOL     OW18019   1.879   1.897   3.028  0.5091 -0.3492  0.2883
 2129SOL    HW118020   1.973   1.882   3.024  0.1478 -2.0124 -1.8032
 2129SOL    HW218021   1.885   1.992   3.043  3.5113 -0.1615 -2.2534
 2130SOL     OW18022   3.250   0.845   5.948 -0.6781  0.2523  0.0182
 2130SOL    HW118023   3.199   0.853   5.868  4.5956  0.5260 -3.2752
 2130SOL    HW218024   3.337   0.828   5.912  0.0378 -0.0309  1.8776
 2131SOL     OW18025   4.458   4.606   3.070  0.6733 -0.3990 -0.0505
 2131SOL    HW118026   4.390   4.545   3.098  0.4660 -0.7748 -1.3381
 2131SOL    HW218027   4.489   4.559   2.992 -0.1695 -1.7947  0.4496
 2132SOL     OW18028   0.836   2.298   7.196 -0.0095 -0.6588  0.5605
 2132SOL    HW118029   0.860   2.217   7.241 -3.0442 -1.7389  0.2272
 2132SOL    HW218030   0.792   2.336   7.272 -2.0393  0.3798 -1.1301
 2133SOL     OW18031   0.263   3.020   2.621 -0.4297 -0.4135 -0.3254
 2133SOL    HW118032   0.356   3.038   2.627 -0.4904 -0.1878 -0.0463
 2133SOL    HW218033   0.236   2.994   2.709  1.2101 -0.1694  0.2353
 2134SOL     OW18034   1.418   0.600   6.105 -0.0705  0.4409 -0.1573
 2134SOL    HW118035   1.504   0.601   6.062 -0.5153  1.5649 -1.0316
 2134SOL    HW218036   1.434   0.682   6.151 -0.0608  1.3542 -1.7701
 2135SOL     OW18037   3.227   0.333  12.487  0.1818 -0.3989  0.1267
 2135SOL    HW118038   3.249   0.300  12.574 -1.0392  0.5595  0.7929
 2135SOL    HW218039   3.213   0.423  12.515  1.0175 -0.6486  1.3717
 2136SOL     OW18040   1.600   0.347   8.814  0.2393  0.0355  0.1228
 2136SOL    HW118041   1.560   0.289   8.879  0.6187  1.0452  1.2641
 2136SOL    HW218042   1.518   0.374   8.773  0.8499 -0.0292 -1.1620
 2137SOL     OW18043   3.224   4.699   3.689  0.0688  0.9008  0.1433
 2137SOL    HW118044   3.218   4.649   3.608  2.0246 -0.5443  0.8755
 2137SOL    HW218045   3.158   4.649   3.736 -0.2463  0.6536 -0.5626
 2138SOL     OW18046   1.342   2.029   7.903  0.2138 -0.4619 -0.1105
 2138SOL    HW118047   1.296   1.948   7.878  0.5480 -0.4230 -0.8458
 2138SOL    HW218048   1.428   1.988   7.916  1.4441  2.2763  0.3841
 2139SOL     OW18049   1.425   0.483  12.732  0.3661 -0.1682 -0.5152
 2139SOL    HW118050   1.504   0.460  12.782  0.3361  0.7633 -0.0489
 2139SOL    HW218051   1.362   0.498  12.801  1.3109  3.2482 -0.4102
 2140SOL     OW18052   1.453   3.074  16.868  0.0722 -0.1744  0.4934
 2140SOL    HW118053   1.372   3.123  16.878 -0.2325 -0.2242 -1.8137
 2140SOL    HW218054   1.444   3.029  16.784 -2.0814 -0.4411  0.8513
 2141SOL     OW18055   3.661   1.958   7.442 -0.3835  0.0171  0.5429
 2141SOL    HW118056   3.601   1.965   7.516 -3.2056 -2.0977 -1.5331
 2141SOL    HW218057   3.644   2.048   7.414  0.1163 -0.4809 -1.3777
 2142SOL     OW18058   1.299   4.452   7.541  0.9560 -0.0696  0.0362
 2142SOL    HW118059   1.270   4.370   7.583 -1.8048  0.6004 -0.5131
 2142SOL    HW218060   1.382   4.423   7.504  1.0097  0.3951 -0.2031
 2143SOL     OW18061   2.928   3.724   6.203  0.2075 -0.1723  0.4449
 2143SOL    HW118062   2.862   3.660   6.229 -0.3826  0.2904  0.0792
 2143SOL    HW218063   2.963   3.692   6.120  1.1107  1.9847 -0.0039
 2144SOL     OW18064   4.342   1.174  10.826  0.4195 -0.7678  0.1463
 2144SOL    HW118065   4.343   1.243  10.893  1.2245 -1.0694  0.4508
 2144SOL    HW218066   4.379   1.224  10.753 -1.8277 -1.9308 -1.7614
 2145SOL     OW18067   2.470   3.473  10.710  0.1230  0.2960 -0.1835
 2145SOL    HW118068   2.496   3.446  10.798  1.9563  1.4128 -0.3720
 2145SOL    HW218069   2.386   3.431  10.693  1.1310 -2.4867  1.6298
 2146SOL     OW18070   3.870   4.029   5.635 -0.1547  0.0807 -0.5210
 2146SOL    HW118071   3.865   4.056   5.543 -1.3123 -1.4856 -0.9110
 2146SOL    HW218072   3.866   4.112   5.683  1.0883  0.5872 -1.2943
 2147SOL     OW18073   2.808   0.238   3.210  0.5424 -0.1631  0.6125
 2147SOL    HW118074   2.794   0.144   3.207 -0.8535  0.1027 -1.7891
 2147SOL    HW218075   2.889   0.245   3.260  1.1861  0.6778 -0.5316
 2148SOL     OW18076   3.008   2.112   9.045 -0.6758 -0.4993 -0.1404
 2148SOL    HW118077   2.945   2.045   9.072 -0.2415  0.0490  2.2427
 2148SOL    HW218078   3.048   2.057   8.978 -1.2452 -0.4634 -0.5099
 2149SOL     OW18079   1.027   0.901   4.146 -0.3147  0.0156  0.2062
 2149SOL    HW118080   1.115   0.864   4.143 -0.4726 -0.5884  3.3961
 2149SOL    HW218081   0.993   0.874   4.232 -1.5731 -0.8731 -0.5719
 2150SOL     OW18082   0.856   2.790   6.248  0.4384  0.1823  0.0163
 2150SOL    HW118083   0.947   2.801   6.276  0.5383  1.6231 -0.8882
 2150SOL    HW218084   0.816   2.863   6.296 -1.2699 -0.9807  0.3633
 2151SOL     OW18085   0.708   1.952   3.403  0.0741  0.2696 -0.3334
 2151SOL    HW118086   0.777   1.930   3.341 -0.1138  0.8631 -0.7487
 2151SOL    HW218087   0.695   1.860   3.428 -0.4898  0.4609  0.0794
 2152SOL     OW18088   4.575   0.085  14.793 -0.0552  0.2087 -0.0335
 2152SOL    HW118089   4.583   0.169  14.837  3.3714  0.3666 -0.9438
 2152SOL    HW218090   4.483   0.059  14.791  0.4135 -1.5747  1.3185
 2153SOL     OW18091   2.079   2.265   8.388 -0.2844 -0.4254 -0.0905
 2153SOL    HW118092   2.090   2.217   8.470 -1.9503 -2.3529 -0.9661
 2153SOL    HW218093   2.047   2.344   8.429 -1.6898 -1.6525  1.1653
 2154SOL     OW18094   1.122   3.419  13.182  0.0822 -0.8837 -0.1537
 2154SOL    HW118095   1.100   3.444  13.092  0.7734  0.0658 -0.0626
 2154SOL    HW218096   1.197   3.475  13.202  0.1536 -1.1203  0.2488
 2155SOL     OW18097   0.805   2.697  13.674  0.3793  0.0212  0.3200
 2155SOL    HW118098   0.821   2.629  13.608 -0.8242 -2.1464  2.2351
 2155SOL    HW218099   0.737   2.649  13.722  1.6387 -1.2241  0.8485
 2156SOL     OW18100   3.037   2.903   7.901 -0.6405  0.3495 -0.1370
 2156SOL    HW118101   3.071   2.950   7.825 -1.2610  0.6909 -0.2005
 2156SOL    HW218102   3.112   2.883   7.957 -1.7935  0.9509  1.6085
 2157SOL     OW18103   2.382   4.633   7.969  0.1649 -0.4009  0.7955
 2157SOL    HW118104   2.418   4.568   7.907  0.5657  0.6350 -0.0581
 2157SOL    HW218105   2.319   4.582   8.019 -0.2445 -2.3102 -1.6308
 2158SOL     OW18106   4.528   0.870  14.245 -0.1558 -0.1230  0.0558
 2158SOL    HW118107   4.523   0.954  14.199 -0.6701 -1.1591 -1.7806
 2158SOL    HW218108   4.525   0.892  14.338  2.3425  3.0208 -0.5977
 2159SOL     OW18109   3.619   0.438   3.372  0.7711 -0.3239 -0.5445
 2159SOL    HW118110   3.696   0.493   3.359  1.0841 -1.1088 -2.0219
 2159SOL    HW218111   3.623   0.368   3.306  2.2999 -0.6521 -0.0842
 2160SOL     OW18112   1.804   3.609   0.693  0.0550  0.7758 -0.1630
 2160SOL    HW118113   1.869   3.678   0.710  3.6750 -2.5259 -0.7537
 2160SOL    HW218114   1.731   3.656   0.734 -0.7362 -0.5345 -0.0790
 2161SOL     OW18115   4.137   0.364   6.942  0.1197  0.0114 -0.4957
 2161SOL    HW118116   4.117   0.362   7.035 -2.1447 -3.8836 -1.0753
 2161SOL    HW218117   4.174   0.276   6.940 -1.3436 -0.6407  1.6668
 2162SOL     OW18118   4.218   1.666  13.320 -0.1393 -0.0509  0.2128
 2162SOL    HW118119   4.270   1.591  13.290  1.0727  1.0001 -0.3172
 2162SOL    HW218120   4.133   1.624  13.328  0.5277 -1.5278 -0.5079
 2163SOL     OW18121   1.968   0.906  12.964  0.3835  0.0936  0.0769
 2163SOL    HW118122   1.901   0.920  13.031  0.0056  0.4034 -0.3729
 2163SOL    HW218123   2.021   0.850  13.021  0.1554  0.2195  0.4119
 2164SOL     OW18124   3.477   2.467   8.506  0.2784 -0.7051  0.2201
 2164SOL    HW118125   3.552   2.450   8.563  1.8330  0.1524 -1.5380
 2164SOL    HW218126   3.486   2.386   8.454  1.9741  0.3708 -1.1695
 2165SOL     OW18127   2.606   2.390   3.849 -0.7395 -0.4430  0.2408
 2165SOL    HW118128   2.617   2.340   3.768  0.8565 -0.1306  0.2601
 2165SOL    HW218129   2.518   2.358   3.870  0.0807 -1.0146  2.8316
 2166SOL     OW18130   0.896   1.409   5.452  0.2106  0.3719  0.2353
 2166SOL    HW118131   0.840   1.337   5.425 -2.2329  1.8748  1.2279
 2166SOL    HW218132   0.947   1.368   5.521 -0.3834 -2.0120 -0.7509
 2167SOL     OW18133   0.230   4.440   0.830 -0.0059 -0.1030 -0.1749
 2167SOL    HW118134   0.172   4.502   0.873  0.2143 -0.9760  1.3549
 2167SOL    HW218135   0.168   4.413   0.762 -0.4750 -2.4088  1.1454
 2168SOL     OW18136   0.507   0.995   2.326  0.3849  0.4353 -0.4424
 2168SOL    HW118137   0.501   1.088   2.302 -0.5867  0.4765 -0.0242
 2168SOL    HW218138   0.509   0.961   2.236  0.8035  0.9970 -0.6501
 2169SOL     OW18139   4.721   0.172  12.395 -0.3435 -0.1632  0.0918
 2169SOL    HW118140   4.706   0.240  12.460  1.5745  1.4410 -1.1332
 2169SOL    HW218141   0.020   0.105  12.454  0.6936 -0.2769 -0.6612
 2170SOL     OW18142   2.493   0.197   5.360 -0.7223 -0.5342 -0.1922
 2170SOL    HW118143   2.447   0.167   5.281  1.6575 -0.0269 -1.7411
 2170SOL    HW218144   2.565   0.135   5.368 -2.5873 -3.0394 -2.6042
 2171SOL     OW18145   2.842   0.818   2.182  0.4747 -0.5409 -0.3577
 2171SOL    HW118146   2.879   0.831   2.269  1.7524 -0.2440 -0.9386
 2171SOL    HW218147   2.768   0.877   2.198  1.1794  0.4714 -0.8090
 2172SOL     OW18148   0.544   0.556   3.148  0.5487 -0.8748 -0.0716
 2172SOL    HW118149   0.508   0.645   3.151  1.2572 -0.5918  0.0460
 2172SOL    HW218150   0.577   0.543   3.060  1.7743 -2.0612  0.5604
 2173SOL     OW18151   1.710   3.736   2.898 -0.2413 -0.2261 -0.2124
 2173SOL    HW118152   1.753   3.816   2.928  0.3105 -0.6573  0.1492
 2173SOL    HW218153   1.663   3.705   2.976 -0.7972  0.7403 -0.1725
 2174SOL     OW18154   1.028   1.844   8.008  0.0505 -0.2154  0.1751
 2174SOL    HW118155   1.056   1.920   8.059  1.8028 -1.2436  0.7437
 2174SOL    HW218156   0.933   1.852   8.011  0.0003  1.1376 -4.5731
 2175SOL     OW18157   1.930   0.822   8.806  0.4310 -0.3757  0.0381
 2175SOL    HW118158   1.979   0.810   8.725 -0.4919 -2.1108 -0.2713
 2175SOL    HW218159   1.980   0.877   8.866  1.2437 -1.8461  0.7130
 2176SOL     OW18160   2.714   4.438  11.062  0.0475  0.0678  0.1158
 2176SOL    HW118161   2.688   4.412  10.974  1.3997  0.2035 -0.3182
 2176SOL    HW218162   2.800   4.471  11.035  0.2078 -0.8859 -0.5418
 2177SOL     OW18163   1.819   1.248   2.812 -0.4582  0.2524  0.8267
 2177SOL    HW118164   1.855   1.331   2.782  0.6129 -0.7444 -0.6962
 2177SOL    HW218165   1.883   1.228   2.881  1.5614  2.6338 -0.3618
 2178SOL     OW18166   2.309   2.946   3.145 -0.5187 -0.1107 -0.0027
 2178SOL    HW118167   2.236   2.995   3.183 -1.6106 -1.0450 -0.8822
 2178SOL    HW218168   2.365   3.015   3.109 -0.9432  0.2163 -0.0478
 2179SOL     OW18169   2.881   0.667   5.318 -0.4736 -0.2611  0.0385
 2179SOL    HW118170   2.903   0.597   5.256 -0.4359 -0.2513  0.0404
 2179SOL    HW218171   2.954   0.729   5.310 -0.9494  0.2530 -0.3309
 2180SOL     OW18172   4.683   3.452   3.293  0.4485  0.8012 -0.0564
 2180SOL    HW118173   0.027   3.491   3.259  0.0998  0.7676 -0.9034
 2180SOL    HW218174   4.677   3.392   3.219  0.3461 -0.0690  0.6540
 2181SOL     OW18175   3.518   3.783  12.174  0.1491 -0.2283 -0.4025
 2181SOL    HW118176   3.577   3.718  12.137  0.4811 -2.2810  3.7687
 2181SOL    HW218177   3.474   3.808  12.093  0.8722  3.1082  0.2155
 2182SOL     OW18178   0.302   0.384   5.813 -0.0548 -0.4901  0.4261
 2182SOL    HW118179   0.329   0.296   5.840  1.2900  0.1804  1.2484
 2182SOL    HW218180   0.210   0.369   5.790  0.1026 -0.4587 -0.2102
 2183SOL     OW18181   4.332   3.488   8.102 -0.4186 -0.0403 -0.0127
 2183SOL    HW118182   4.334   3.504   8.197 -0.8046  3.6615 -0.6361
 2183SOL    HW218183   4.371   3.401   8.109  0.7376  0.5222  0.5224
 2184SOL     OW18184   4.717   0.184  15.939 -0.2710  0.0306  0.0873
 2184SOL    HW118185   4.699   0.140  16.022 -3.1517 -0.2978 -0.7014
 2184SOL    HW218186   4.706   0.276  15.963  1.8377  0.2398  0.2405
 2185SOL     OW18187   0.972   3.887   8.037  0.3145 -0.2344 -0.4660
 2185SOL    HW118188   0.885   3.848   8.029 -0.2976  1.0452  0.1935
 2185SOL    HW218189   1.025   3.807   8.032  1.0710  0.2771 -0.6065
 2186SOL     OW18190   1.614   3.816   8.909  0.2010  0.5329  0.0121
 2186SOL    HW118191   1.531   3.830   8.954  0.6127  1.5382  0.4626
 2186SOL    HW218192   1.625   3.902   8.869  0.1649  0.1164 -0.9093
 2187SOL     OW18193   3.586   1.491   5.131  0.0991  0.1045  0.1112
 2187SOL    HW118194   3.605   1.540   5.211 -0.4948 -1.1109  1.0152
 2187SOL    HW218195   3.547   1.412   5.170  2.2512 -0.3078  1.4267
 2188SOL     OW18196   4.693   0.203   9.591  0.5102 -0.2214  0.5430
 2188SOL    HW118197   4.729   0.271   9.534  1.0402  0.2595  1.4490
 2188SOL    HW218198   0.027   0.202   9.656  2.4787 -0.4126 -1.5900
 2189SOL     OW18199   2.696   1.803   8.446 -0.2869 -0.3632 -0.3968
 2189SOL    HW118200   2.707   1.802   8.542 -0.1358  0.3046 -0.4024
 2189SOL    HW218201   2.699   1.709   8.428 -0.6935  0.0551 -2.5243
 2190SOL     OW18202   3.520   1.766   8.415 -0.0271 -0.0406  0.9043
 2190SOL    HW118203   3.471   1.788   8.336 -0.3529 -1.5437  0.6809
 2190SOL    HW218204   3.508   1.845   8.468 -0.6542 -0.3926  1.2923
 2191SOL     OW18205   2.356   3.647  16.150 -0.0707 -0.3658 -0.1645
 2191SOL    HW118206   2.419   3.685  16.210 -0.3269  1.8513 -1.2847
 2191SOL    HW218207   2.387   3.558  16.131 -0.3632 -0.7184  1.0348
 2192SOL     OW18208   1.860   0.972   4.261  0.4405 -0.3008  0.0316
 2192SOL    HW118209   1.772   0.935   4.266  0.7949 -1.5283 -3.0272
 2192SOL    HW218210   1.894   0.914   4.193  1.2899  0.1462  0.0725
 2193SOL     OW18211   3.076   1.773   8.062  0.2201 -0.2227  0.4643
 2193SOL    HW118212   3.035   1.692   8.032  1.1130 -0.8222  0.8782
 2193SOL    HW218213   2.996   1.815   8.095  0.0602 -1.2061  1.3316
 2194SOL     OW18214   1.632   3.225   6.060 -0.2950  0.4379  0.2925
 2194SOL    HW118215   1.679   3.243   6.141  0.3284  1.4397 -0.2827
 2194SOL    HW218216   1.550   3.185   6.088 -0.5565  1.3963  0.9331
 2195SOL     OW18217   0.192   1.219  15.276  0.3305  0.3322 -0.3151
 2195SOL    HW118218   0.226   1.251  15.359  2.2010  0.7346 -1.2420
 2195SOL    HW218219   0.138   1.143  15.299  0.3985  1.1370  2.4775
 2196SOL     OW18220   1.945   1.109  13.238 -0.0290  0.0458 -0.0843
 2196SOL    HW118221   2.009   1.041  13.215 -2.1273 -0.4706 -4.4132
 2196SOL    HW218222   1.888   1.052  13.290 -1.3832  0.0600 -1.5254
 2197SOL     OW18223   3.177   3.825   2.235  0.1932  0.2452 -0.2364
 2197SOL    HW118224   3.195   3.897   2.174  0.5903 -0.7892 -1.3474
 2197SOL    HW218225   3.082   3.831   2.244  0.2986 -1.4727  1.8486
 2198SOL     OW18226   0.478   3.017   4.729 -0.1314 -0.5983  0.1240
 2198SOL    HW118227   0.486   3.111   4.716  1.0555 -0.4270  2.1034
 2198SOL    HW218228   0.421   3.017   4.806 -1.7978 -0.8413 -1.1133
 2199SOL     OW18229   4.460   4.114   2.482 -0.4619  0.3149  0.1148
 2199SOL    HW118230   4.381   4.146   2.438  0.2897  0.6670 -0.9878
 2199SOL    HW218231   4.525   4.098   2.413 -0.6548  1.3791 -0.3079
 2200SOL     OW18232   1.192   0.060   3.319 -0.2091  0.1288 -0.1573
 2200SOL    HW118233   1.135   4.721   3.308 -2.7443  1.7471  1.8077
 2200SOL    HW218234   1.276   0.018   3.301 -0.6020 -1.6047  2.0483
 2201SOL     OW18235   4.228   0.615   3.901 -0.2027  0.4708 -0.1127
 2201SOL    HW118236   4.136   0.618   3.875 -0.0448  2.0070 -0.4675
 2201SOL    HW218237   4.215   0.662   3.983 -2.3078 -0.3922  0.0557
 2202SOL     OW18238   4.647   0.374   8.256  0.2193  0.0444  0.8833
 2202SOL    HW118239   4.598   0.400   8.177  2.2013 -1.0362 -0.7042
 2202SOL    HW218240   4.720   0.333   8.209 -2.4617 -3.1778 -0.5118
 2203SOL     OW18241   2.365   2.434   1.244  0.0877 -0.2352 -0.0816
 2203SOL    HW118242   2.284   2.398   1.208 -0.0024 -0.2857  0.1705
 2203SOL    HW218243   2.417   2.418   1.165  0.2644  2.5901 -0.5413
 2204SOL     OW18244   2.755   1.095   2.941  0.8268 -0.2466 -0.2712
 2204SOL    HW118245   2.747   1.182   2.903 -1.2246  0.3412  1.5106
 2204SOL    HW218246   2.745   1.040   2.863 -0.9945  0.9066 -0.8465
 2205SOL     OW18247   0.949   0.852  14.314  0.2886 -0.0700  0.4296
 2205SOL    HW118248   0.862   0.881  14.341  0.7658 -1.6244  3.6177
 2205SOL    HW218249   0.927   0.806  14.234 -1.4043 -0.7000  1.2771
 2206SOL     OW18250   1.841   3.328   7.255  0.0593 -0.3092  0.0514
 2206SOL    HW118251   1.817   3.237   7.234  2.9702 -1.4372  1.6291
 2206SOL    HW218252   1.858   3.353   7.164 -1.6826 -0.2766 -0.2486
 2207SOL     OW18253   0.900   1.439  12.635 -0.6235  0.4272  0.3194
 2207SOL    HW118254   0.933   1.525  12.608 -1.9830  1.7348  2.7797
 2207SOL    HW218255   0.931   1.388  12.561 -0.3455  0.4239  0.4367
 2208SOL     OW18256   2.004   0.414  17.140 -0.0141  0.1623 -0.0850
 2208SOL    HW118257   2.065   0.442  17.208 -0.6717 -2.5593  1.6195
 2208SOL    HW218258   1.931   0.424  17.202  0.2062  0.4595  0.1219
 2209SOL     OW18259   0.782   0.092   6.381  0.0164  0.0345  0.5330
 2209SOL    HW118260   0.848   0.026   6.399  1.8526  2.4948  2.7295
 2209SOL    HW218261   0.846   0.163   6.380 -1.0124  0.9748 -0.1482
 2210SOL     OW18262   1.894   4.345   9.073  0.4384  0.1231 -0.0187
 2210SOL    HW118263   1.919   4.379   8.987 -0.7137 -0.3950 -0.5496
 2210SOL    HW218264   1.979   4.335   9.116  0.0618 -1.2431  0.3997
 2211SOL     OW18265   0.473   2.539   6.425 -0.3433  0.3818 -0.1056
 2211SOL    HW118266   0.558   2.521   6.385  0.1353  0.3119  0.9261
 2211SOL    HW218267   0.494   2.606   6.491  0.7770 -0.9447  0.8974
 2212SOL     OW18268   1.767   4.557   2.592  0.1684  0.0304 -0.2369
 2212SOL    HW118269   1.859   4.562   2.618 -0.7323  2.6504  2.3997
 2212SOL    HW218270   1.737   4.468   2.612  2.2944 -0.7224 -0.3834
 2213SOL     OW18271   2.451   4.226   6.002 -0.2522 -0.0186 -0.1910
 2213SOL    HW118272   2.369   4.179   6.020  0.5937 -1.4587 -0.1393
 2213SOL    HW218273   2.411   4.298   5.952  1.9857  1.5689  0.3215
 2214SOL     OW18274   3.800   2.333   8.013 -0.0062  0.3780 -0.0907
 2214SOL    HW118275   3.881   2.282   8.015  0.4876  1.0718 -1.9333
 2214SOL    HW218276   3.767   2.290   7.934  0.6211 -1.5964  0.7101
 2215SOL     OW18277   3.795   2.026  16.442 -0.3597 -0.3254  0.3889
 2215SOL    HW118278   3.801   2.113  16.402 -0.4640 -1.2104 -1.5393
 2215SOL    HW218279   3.779   1.969  16.367  2.3117 -1.7872  0.9203
 2216SOL     OW18280   1.645   4.325  12.805  0.1110 -0.3339 -0.1698
 2216SOL    HW118281   1.689   4.305  12.887  0.0724 -0.2384 -0.1262
 2216SOL    HW218282   1.559   4.356  12.833  0.3538  0.2014 -0.0196
 2217SOL     OW18283   1.194   2.109   1.796  0.2184  0.1143 -0.5495
 2217SOL    HW118284   1.151   2.173   1.853 -0.4453 -0.7873 -0.0363
 2217SOL    HW218285   1.120   2.072   1.748 -1.8592  1.1990  1.7813
 2218SOL     OW18286   0.364   0.626   7.051 -0.5927 -0.2060  0.2421
 2218SOL    HW118287   0.287   0.650   7.000  1.0375  0.1111 -2.1064
 2218SOL    HW218288   0.356   0.531   7.049  1.0417 -0.3533  0.0475
 2219SOL     OW18289   3.799   4.598   2.341 -0.0272 -0.3382  0.1412
 2219SOL    HW118290   3.839   4.620   2.256 -1.5500 -0.9722 -0.7455
 2219SOL    HW218291   3.762   4.682   2.368  0.9714  1.0700 -2.7715
 2220SOL     OW18292   1.228   0.306   3.410  0.5181 -0.3661 -0.4837
 2220SOL    HW118293   1.290   0.348   3.350  0.9658  1.8833  1.5251
 2220SOL    HW218294   1.219   0.224   3.362  1.1564 -0.0018 -1.2249
 2221SOL     OW18295   3.322   0.923   0.475 -0.0345  0.2494 -0.2117
 2221SOL    HW118296   3.349   0.889   0.389 -0.2765  0.7857 -0.5012
 2221SOL    HW218297   3.322   1.015   0.448  1.8781 -0.6462 -3.3083
 2222SOL     OW18298   4.047   4.108   1.431  0.5441 -0.0007  0.3063
 2222SOL    HW118299   3.953   4.098   1.443  0.7125 -0.4676  1.2383
 2222SOL    HW218300   4.047   4.159   1.350  3.1300 -0.8469 -0.2344
 2223SOL     OW18301   4.416   2.776   9.848 -0.9826 -0.5142  0.3088
 2223SOL    HW118302   4.504   2.753   9.877  0.2198  1.6783 -1.6298
 2223SOL    HW218303   4.398   2.860   9.890 -0.2335 -0.4396  0.4917
 2224SOL     OW18304   2.982   2.124   3.707  0.1814  0.4784  0.1254
 2224SOL    HW118305   3.025   2.076   3.778  0.7837 -0.5571 -0.9417
 2224SOL    HW218306   3.060   2.169   3.673 -0.5343  2.9252  1.7020
 2225SOL     OW18307   1.565   4.500   9.230  0.0502 -0.0475 -0.3319
 2225SOL    HW118308   1.634   4.474   9.170  0.4981 -0.8424  0.5291
 2225SOL    HW218309   1.525   4.567   9.175 -1.0901  0.9749  1.7224
 2226SOL     OW18310   2.873   3.047  14.129 -0.3394 -0.0715  0.4693
 2226SOL    HW118311   2.784   3.070  14.152 -0.0668  4.7185 -3.2439
 2226SOL    HW218312   2.900   2.995  14.205  0.4842 -1.0388 -0.4725
 2227SOL     OW18313   0.613   3.263   8.131  0.6994 -0.1948 -0.2168
 2227SOL    HW118314   0.676   3.193   8.117  0.9471 -0.0760  0.3210
 2227SOL    HW218315   0.559   3.232   8.204  1.1998  2.5421  1.3415
 2228SOL     OW18316   3.909   4.660   7.054 -0.1809  0.0994  0.1317
 2228SOL    HW118317   3.982   4.625   7.104 -0.4383 -0.7148 -0.0607
 2228SOL    HW218318   3.840   4.664   7.120 -1.9095  2.9752 -1.8579
 2229SOL     OW18319   4.156   4.693   2.408 -0.2592  0.2235  0.2396
 2229SOL    HW118320   4.115   4.608   2.426  2.0117 -0.5753  1.5936
 2229SOL    HW218321   4.249   4.674   2.413  0.4342  3.0616 -1.7298
 2230SOL     OW18322   2.640   2.843   8.144  0.2875 -0.1290  0.3086
 2230SOL    HW118323   2.695   2.836   8.066  0.8015  0.8203  0.5789
 2230SOL    HW218324   2.664   2.926   8.185 -1.7670  1.0889 -0.9685
 2231SOL     OW18325   3.271   3.122  11.649 -0.1505 -0.3162  0.3158
 2231SOL    HW118326   3.203   3.170  11.696  0.4351 -0.9036  1.7578
 2231SOL    HW218327   3.272   3.161  11.561 -2.2074  1.1795  0.9634
 2232SOL     OW18328   0.524   0.138  10.512  0.1320  0.6675 -0.0725
 2232SOL    HW118329   0.617   0.125  10.528  0.0821  2.4605  1.6448
 2232SOL    HW218330   0.490   0.167  10.597  0.0209 -1.6289  0.6538
 2233SOL     OW18331   2.242   0.531   9.962  0.2738  0.6231 -0.3315
 2233SOL    HW118332   2.237   0.567  10.050 -0.3133 -0.4729  0.0863
 2233SOL    HW218333   2.169   0.469   9.962  1.1509 -0.3973  0.0145
 2234SOL     OW18334   4.429   3.183  12.121  0.2725  0.2915 -0.4300
 2234SOL    HW118335   4.522   3.205  12.110 -0.0821  2.8910  1.9133
 2234SOL    HW218336   4.404   3.233  12.198 -1.0903  1.1168 -1.4025
 2235SOL     OW18337   3.346   1.103  13.220  0.4721 -0.9196 -0.1309
 2235SOL    HW118338   3.272   1.077  13.275 -0.5918 -0.0830 -1.1722
 2235SOL    HW218339   3.422   1.076  13.271  1.0899 -0.0357 -0.5903
 2236SOL     OW18340   2.031   1.905  12.249  0.4873 -0.5673 -0.1677
 2236SOL    HW118341   2.087   1.918  12.173 -0.1859  0.2004 -0.5261
 2236SOL    HW218342   2.002   1.814  12.237  2.9587 -1.4506  0.4968
 2237SOL     OW18343   1.642   2.662  10.058  1.1182 -0.3474  0.4672
 2237SOL    HW118344   1.586   2.660   9.980  1.8791  2.5225 -0.1445
 2237SOL    HW218345   1.630   2.575  10.098 -1.5563 -1.1591 -2.0503
 2238SOL     OW18346   0.292   0.600  12.666  0.2490  0.1077 -0.1798
 2238SOL    HW118347   0.215   0.545  12.680  0.5796 -0.9803 -2.7578
 2238SOL    HW218348   0.353   0.558  12.727 -0.0370  0.1715  0.1556
 2239SOL     OW18349   0.417   4.021   5.493 -0.0046 -0.3644 -0.6376
 2239SOL    HW118350   0.328   3.991   5.477  0.6423 -2.0166 -1.0882
 2239SOL    HW218351   0.452   3.957   5.555  0.5403  0.4432 -0.1176
 2240SOL     OW18352   3.243   2.666   8.268 -0.1626  0.2636 -0.2038
 2240SOL    HW118353   3.241   2.722   8.190  2.3387  0.3953 -0.1559
 2240SOL    HW218354   3.191   2.717   8.331  0.9685  0.7654  0.3257
 2241SOL     OW18355   4.058   3.367  13.347 -0.0653  0.4060  0.1287
 2241SOL    HW118356   4.059   3.398  13.257  0.5499 -1.0844 -0.3917
 2241SOL    HW218357   4.049   3.273  13.328  3.1792  0.4072 -1.4641
 2242SOL     OW18358   1.365   1.660   8.173  0.2470 -0.1383 -0.1892
 2242SOL    HW118359   1.380   1.571   8.205 -1.7312  0.0534  1.3130
 2242SOL    HW218360   1.400   1.654   8.084  0.5913  5.3282 -0.4446
 2243SOL     OW18361   4.475   2.719   8.244 -0.2308  0.4209 -0.6279
 2243SOL    HW118362   4.388   2.700   8.278 -0.7279  2.4157 -0.7913
 2243SOL    HW218363   4.524   2.650   8.290 -0.1756  0.0396 -1.2569
 2244SOL     OW18364   1.095   4.555   1.581 -0.5754  0.2593 -0.1301
 2244SOL    HW118365   1.172   4.611   1.586 -2.2721  2.7669 -1.9233
 2244SOL    HW218366   1.020   4.615   1.581 -1.9202 -1.3859  1.7329
 2245SOL     OW18367   3.089   2.507  10.363  0.4568  0.1095  0.2629
 2245SOL    HW118368   3.061   2.450  10.290  1.9154  0.4356 -0.5406
 2245SOL    HW218369   3.088   2.442  10.433  1.1502  0.0866  0.2508
 2246SOL     OW18370   3.244   3.949  11.069 -0.3329  0.1500 -0.0236
 2246SOL    HW118371   3.168   3.952  11.128 -1.6467 -2.4370 -1.5814
 2246SOL    HW218372   3.279   4.037  11.083 -0.2121 -0.0410  0.8757
 2247SOL     OW18373   3.325   4.541   9.876 -0.5286 -0.0357 -0.5444
 2247SOL    HW118374   3.389   4.507   9.812  0.9396 -0.1211  0.9845
 2247SOL    HW218375   3.358   4.539   9.965  0.6708  3.0629 -0.9462
 2248SOL     OW18376   1.946   2.529   0.491  0.1000  0.4579  0.5573
 2248SOL    HW118377   1.932   2.612   0.536 -1.4181  0.6207 -0.2203
 2248SOL    HW218378   2.028   2.540   0.444 -0.3358  0.6089 -0.1655
 2249SOL     OW18379   0.576   3.403   2.455 -0.1951 -0.0297 -0.6385
 2249SOL    HW118380   0.664   3.373   2.432 -0.3978  0.2830 -1.8495
 2249SOL    HW218381   0.577   3.479   2.397 -0.3177 -0.0065 -0.6092
 2250SOL     OW18382   0.823   3.423   7.017  0.3592  0.2087 -0.0997
 2250SOL    HW118383   0.871   3.473   6.951  1.0289 -3.1093 -2.1649
 2250SOL    HW218384   0.826   3.336   6.978 -0.5346  0.0793  0.1261
 2251SOL     OW18385   1.132   0.591   7.538 -0.1874  0.0990  0.4338
 2251SOL    HW118386   1.167   0.676   7.563  2.8860 -1.4538  1.4758
 2251SOL    HW218387   1.133   0.613   7.445  0.1375  1.4601  0.7699
 2252SOL     OW18388   2.274   3.940   4.807  0.7804  0.3309  0.6737
 2252SOL    HW118389   2.331   4.016   4.813 -1.4648  2.0802 -0.3477
 2252SOL    HW218390   2.190   3.985   4.803 -0.4471 -1.9695  0.3801
 2253SOL     OW18391   1.398   1.389   8.229  0.4141 -0.1966 -0.1079
 2253SOL    HW118392   1.380   1.366   8.320 -1.8642 -1.7725 -0.9582
 2253SOL    HW218393   1.416   1.306   8.185 -2.5806 -0.9287  0.0024
 2254SOL     OW18394   1.036   4.272  13.815  0.7435  0.5481  0.4273
 2254SOL    HW118395   0.958   4.325  13.832  0.7831  0.2653  1.4350
 2254SOL    HW218396   1.055   4.319  13.734  1.9188 -0.3510  0.1695
 2255SOL     OW18397   2.804   3.250   7.551  0.1631  0.0920  0.3310
 2255SOL    HW118398   2.855   3.292   7.482  1.8653  2.0087  2.7360
 2255SOL    HW218399   2.726   3.231   7.500  0.5083  0.5975 -0.3714
 2256SOL     OW18400   3.689   1.194  10.091 -0.0963  0.3871 -0.2988
 2256SOL    HW118401   3.687   1.172  10.184 -1.7297  1.3372 -0.1086
 2256SOL    HW218402   3.704   1.287  10.109 -0.6670  0.3615  0.3108
 2257SOL     OW18403   0.843   3.206   3.613  0.3085 -0.0596 -0.3967
 2257SOL    HW118404   0.866   3.258   3.690  1.4163 -3.8070  1.8080
 2257SOL    HW218405   0.862   3.117   3.642 -0.4463 -0.4532 -1.0912
 2258SOL     OW18406   4.639   1.756  12.171 -0.5432  0.2753 -0.0066
 2258SOL    HW118407   4.721   1.710  12.186 -1.2418 -1.3033 -0.9602
 2258SOL    HW218408   4.582   1.689  12.132  2.0791 -1.8287 -0.2180
 2259SOL     OW18409   3.240   4.518   3.498 -0.4873  0.1930 -0.1652
 2259SOL    HW118410   3.177   4.455   3.463  0.0073  0.0248 -0.7412
 2259SOL    HW218411   3.313   4.458   3.514 -0.1215  0.9577  1.0181
 2260SOL     OW18412   2.307   4.236   9.505 -0.7513 -0.2540 -0.2476
 2260SOL    HW118413   2.230   4.292   9.511 -0.1836  0.4354  0.6444
 2260SOL    HW218414   2.268   4.149   9.518  0.8811 -1.1080 -1.1156
 2261SOL     OW18415   3.726   0.642  14.156 -0.4413  0.0062 -0.0046
 2261SOL    HW118416   3.728   0.679  14.244  0.3323  1.2490 -0.5590
 2261SOL    HW218417   3.804   0.586  14.161  0.9715  2.0292  0.4690
 2262SOL     OW18418   4.443   0.623   5.494  0.0671  0.5523 -0.1830
 2262SOL    HW118419   4.477   0.588   5.411 -0.0049 -1.5052  0.6631
 2262SOL    HW218420   4.527   0.657   5.527 -0.5935  1.6184  0.4150
 2263SOL     OW18421   2.972   3.927   5.663 -0.2513 -0.5090  0.1508
 2263SOL    HW118422   2.964   3.851   5.720  1.1256  0.4712  1.6274
 2263SOL    HW218423   2.998   3.884   5.581 -1.9463 -0.9423 -0.1695
 2264SOL     OW18424   3.790   0.097   5.269  0.3480 -0.0198 -0.0226
 2264SOL    HW118425   3.817   0.010   5.239  0.3502 -0.4642  1.2914
 2264SOL    HW218426   3.821   0.088   5.359  0.1428  0.1330  0.0612
 2265SOL     OW18427   0.081   1.358  14.993  0.0594  0.1481  0.0477
 2265SOL    HW118428   0.177   1.357  15.002  0.1827  0.7965 -1.2296
 2265SOL    HW218429   0.075   1.453  14.977 -0.6810  0.0462 -0.2480
 2266SOL     OW18430   3.867   3.764  15.850 -0.1431 -0.1613  0.1963
 2266SOL    HW118431   3.829   3.715  15.777  1.9297 -1.0660 -0.2812
 2266SOL    HW218432   3.795   3.783  15.909 -1.9697  1.9097 -2.6783
 2267SOL     OW18433   0.561   0.290   3.223  0.2004  0.0914  0.0164
 2267SOL    HW118434   0.550   0.373   3.176 -0.8952  0.7144  1.3893
 2267SOL    HW218435   0.503   0.225   3.184 -2.9946  2.6772  0.4909
 2268SOL     OW18436   4.330   3.061   4.455  0.2013  0.2577 -0.0035
 2268SOL    HW118437   4.364   3.042   4.367  0.2999  1.5239 -0.2379
 2268SOL    HW218438   4.403   3.063   4.516 -0.1651  0.0211  0.4384
 2269SOL     OW18439   3.121   1.716  13.628  0.1789  0.2932 -0.0728
 2269SOL    HW118440   3.079   1.739  13.546  0.2814 -2.3322 -0.8653
 2269SOL    HW218441   3.117   1.800  13.674  0.1521  0.5765 -0.6026
 2270SOL     OW18442   2.407   2.532   3.229  0.3610  1.0189 -0.2263
 2270SOL    HW118443   2.338   2.542   3.164 -1.4896 -0.9600  1.4832
 2270SOL    HW218444   2.385   2.608   3.283 -0.8382  0.6645 -0.2321
 2271SOL     OW18445   3.666   1.589  16.532 -0.3717 -0.2950 -0.5145
 2271SOL    HW118446   3.643   1.651  16.601  2.4612 -1.8399  1.8254
 2271SOL    HW218447   3.685   1.510  16.582 -0.5202 -0.7767 -1.2113
 2272SOL     OW18448   1.360   4.220   3.116  0.2208  0.1443  0.0229
 2272SOL    HW118449   1.425   4.222   3.186  1.0955  1.9278 -0.8448
 2272SOL    HW218450   1.370   4.312   3.092 -0.4254  0.1812 -0.0947
 2273SOL     OW18451   0.384   1.183   1.259  0.4311 -0.0987  0.2224
 2273SOL    HW118452   0.446   1.111   1.252  0.8844  0.3782 -0.6738
 2273SOL    HW218453   0.311   1.161   1.201  0.5800 -1.4405  0.5656
 2274SOL     OW18454   1.761   3.980  15.694 -0.0689 -0.0683 -0.4329
 2274SOL    HW118455   1.802   3.960  15.778 -3.0316 -0.0025  1.0466
 2274SOL    HW218456   1.717   3.897  15.678 -2.4867  0.9820  0.7150
 2275SOL     OW18457   4.553   0.609   5.813  0.5224  0.1440 -0.1965
 2275SOL    HW118458   4.496   0.533   5.799 -0.2964  0.6415  0.4555
 2275SOL    HW218459   4.613   0.564   5.872  1.1703  1.0518 -0.1567
 2276SOL     OW18460   0.407   2.491   7.035 -0.5708  0.2083  0.6652
 2276SOL    HW118461   0.456   2.411   7.016 -0.1628  0.4719  0.6045
 2276SOL    HW218462   0.315   2.465   7.044 -0.7356  0.6796  0.3547
 2277SOL     OW18463   0.292   1.072  14.112 -0.7487 -0.3868  0.1486
 2277SOL    HW118464   0.234   1.019  14.057 -0.3105 -0.2882 -0.4170
 2277SOL    HW218465   0.367   1.013  14.123  1.2054  1.7328 -1.7954
 2278SOL     OW18466   1.163   0.924   7.295  0.3900 -0.0411  0.1335
 2278SOL    HW118467   1.177   0.916   7.390  1.2174  1.6914  0.1540
 2278SOL    HW218468   1.169   1.020   7.287 -0.4341  0.0809  0.8561
 2279SOL     OW18469   2.639   2.729   8.734 -0.6758  0.1298 -0.1156
 2279SOL    HW118470   2.729   2.706   8.760 -0.5043  0.7739 -0.1404
 2279SOL    HW218471   2.648   2.823   8.744 -2.0196  0.4004 -1.5557
 2280SOL     OW18472   4.100   2.439  13.639  0.0029  0.3499 -0.1106
 2280SOL    HW118473   4.166   2.415  13.703 -1.0846 -0.6493  0.6423
 2280SOL    HW218474   4.129   2.514  13.587  1.0576 -0.6915 -1.0192
 2281SOL     OW18475   1.463   3.296   6.421 -0.1783 -0.0993  0.0050
 2281SOL    HW118476   1.488   3.343   6.500  1.4668  0.7373 -1.0123
 2281SOL    HW218477   1.490   3.357   6.353 -1.2627  0.0716 -0.2571
 2282SOL     OW18478   2.473   4.629  12.135 -0.0624  0.2616  0.0689
 2282SOL    HW118479   2.480   4.693  12.205 -1.1892  1.9354 -1.3241
 2282SOL    HW218480   2.535   4.666  12.072 -0.7155 -1.3355 -1.5404
 2283SOL     OW18481   0.116   0.916   2.536  0.4535 -0.4114 -0.0608
 2283SOL    HW118482   0.089   0.840   2.587  0.4497 -1.7292 -2.0359
 2283SOL    HW218483   0.209   0.897   2.526  0.6406 -0.7317  2.3597
 2284SOL     OW18484   2.761   4.176   9.318  0.0609 -0.0283 -0.4142
 2284SOL    HW118485   2.688   4.135   9.271  0.4042  0.0234 -0.9991
 2284SOL    HW218486   2.812   4.097   9.335  0.5099  0.5101  0.7240
 2285SOL     OW18487   1.368   0.875   2.540  0.2201 -0.2910 -0.5617
 2285SOL    HW118488   1.460   0.873   2.514  0.0335 -1.1553 -1.1456
 2285SOL    HW218489   1.348   0.783   2.520  0.2766 -0.9787  2.6000
 2286SOL     OW18490   2.158   4.256   7.921 -0.1594 -0.5633 -0.3213
 2286SOL    HW118491   2.187   4.256   7.830  0.2951 -0.7421 -0.1763
 2286SOL    HW218492   2.137   4.167   7.951  1.4204  0.1594  2.9736
 2287SOL     OW18493   3.129   3.364   5.696 -0.4644 -0.2781  0.2119
 2287SOL    HW118494   3.173   3.422   5.634 -0.7408 -0.8935 -0.5558
 2287SOL    HW218495   3.156   3.278   5.664  2.1670  1.3653 -1.9303
 2288SOL     OW18496   2.412   4.684  16.155  0.1596 -0.3260  0.4175
 2288SOL    HW118497   2.375   0.032  16.180 -1.2158 -0.6670 -0.4335
 2288SOL    HW218498   2.380   4.639  16.233 -1.7876 -0.3931 -0.4029
 2289SOL     OW18499   3.197   4.464   7.457 -0.0355 -0.2555  0.0862
 2289SOL    HW118500   3.291   4.473   7.471 -0.0852  2.1234 -1.0124
 2289SOL    HW218501   3.177   4.554   7.429  0.5684 -0.1038  0.1397
 2290SOL     OW18502   2.640   3.080   3.802  0.1182 -0.1107 -0.4907
 2290SOL    HW118503   2.640   3.111   3.711 -0.1011 -0.4029 -0.5934
 2290SOL    HW218504   2.716   3.022   3.797 -0.8040 -1.6097  2.5326
 2291SOL     OW18505   1.973   3.945   7.364  0.3290 -0.6459  0.4377
 2291SOL    HW118506   2.035   3.993   7.309 -2.4370  0.9755 -1.2850
 2291SOL    HW218507   1.895   3.989   7.331  2.5090  1.5059 -1.8234
 2292SOL     OW18508   4.686   1.225  11.418 -0.0138 -0.1306  0.2548
 2292SOL    HW118509   4.624   1.258  11.482  1.6905  3.9797 -0.2388
 2292SOL    HW218510   4.632   1.160  11.373  0.3126 -2.1129  2.7606
 2293SOL     OW18511   3.764   2.496   6.914  0.0961  0.3459  0.2372
 2293SOL    HW118512   3.677   2.475   6.880 -0.1930  0.6624  0.7617
 2293SOL    HW218513   3.822   2.465   6.845 -1.1374 -0.9295 -0.2245
 2294SOL     OW18514   4.508   3.189  13.096  0.3486  0.2998 -0.0672
 2294SOL    HW118515   4.575   3.234  13.148 -0.4166 -0.2388  1.3779
 2294SOL    HW218516   4.451   3.263  13.073  0.2740  0.4463  0.5847
 2295SOL     OW18517   1.479   0.578   4.723  0.0727  0.1724  0.7602
 2295SOL    HW118518   1.479   0.502   4.664 -1.2446 -0.3403  1.4169
 2295SOL    HW218519   1.537   0.534   4.786 -0.7173 -1.0022  0.6772
 2296SOL     OW18520   1.739   0.241   3.979 -0.1249 -0.1109  0.1941
 2296SOL    HW118521   1.670   0.180   3.954 -0.6745  0.4983  0.2340
 2296SOL    HW218522   1.705   0.315   3.929 -0.8751 -2.0824 -2.2308
 2297SOL     OW18523   0.826   3.963  11.028 -0.3392 -0.0909  0.0897
 2297SOL    HW118524   0.839   3.941  10.936 -1.6305 -2.4116  0.4722
 2297SOL    HW218525   0.754   4.025  11.017 -1.2246 -1.3579 -1.2184
 2298SOL     OW18526   4.135   0.294   5.557  0.0065  0.3926  0.1304
 2298SOL    HW118527   4.054   0.339   5.533  0.3891  0.3235 -1.2784
 2298SOL    HW218528   4.184   0.364   5.600 -1.4343  1.2809  0.3654
 2299SOL     OW18529   0.451   0.668   7.694 -0.1593  0.2720 -0.4153
 2299SOL    HW118530   0.489   0.584   7.720 -0.9120  0.2984  0.7521
 2299SOL    HW218531   0.437   0.647   7.601 -0.5238 -3.5719  0.4895
 2300SOL     OW18532   3.628   3.899   3.423 -0.2417  0.1298  0.2638
 2300SOL    HW118533   3.693   3.896   3.493  1.6555  1.2560 -1.4704
 2300SOL    HW218534   3.689   3.904   3.350 -0.8585  1.6200 -0.1493
 2301SOL     OW18535   4.577   3.527   6.074 -0.6048 -0.1280  0.6514
 2301SOL    HW118536   4.614   3.576   6.147 -1.4240  0.1077  0.9048
 2301SOL    HW218537   4.519   3.461   6.113  1.2556 -1.2910  1.4314
 2302SOL     OW18538   1.907   4.021  13.296  0.1961 -0.2774 -0.2261
 2302SOL    HW118539   1.847   4.037  13.369  2.4510  1.6063  1.2203
 2302SOL    HW218540   1.929   4.111  13.271  3.1214 -0.1231  2.9980
 2303SOL     OW18541   4.280   1.104  16.735  0.3470  0.2584  0.6863
 2303SOL    HW118542   4.279   1.044  16.660  4.0974  0.1236  0.7631
 2303SOL    HW218543   4.292   1.188  16.691 -0.2770  0.8606  1.6579
 2304SOL     OW18544   3.283   2.802   8.031 -0.9510 -0.1990  1.1076
 2304SOL    HW118545   3.341   2.769   7.962 -3.4657  0.6275 -1.3853
 2304SOL    HW218546   3.290   2.896   8.017  1.5311 -0.3551  1.1949
 2305SOL     OW18547   0.376   3.236   3.373 -0.2518 -0.5585 -0.3927
 2305SOL    HW118548   0.401   3.314   3.423  0.2516 -0.9234 -0.0720
 2305SOL    HW218549   0.463   3.196   3.368  0.5931  1.3515 -1.0373
 2306SOL     OW18550   0.282   4.572  11.533  0.1462 -0.2226  0.3632
 2306SOL    HW118551   0.355   4.630  11.556  1.0309 -1.9864  1.9700
 2306SOL    HW218552   0.308   4.553  11.443 -1.3824 -2.4679  0.3988
 2307SOL     OW18553   2.177   0.037   5.907 -0.7285  0.0786  0.1149
 2307SOL    HW118554   2.169   0.075   5.819 -2.6100  3.1931  1.5908
 2307SOL    HW218555   2.251   4.715   5.897 -1.0168 -0.1097 -1.0038
 2308SOL     OW18556   4.200   0.548  11.396  0.0435  0.3603  0.3828
 2308SOL    HW118557   4.223   0.551  11.489  0.3217 -1.6073  0.3638
 2308SOL    HW218558   4.110   0.521  11.410  0.1312 -0.5501 -0.7957
 2309SOL     OW18559   3.885   0.987  10.568 -0.2692  0.3343 -0.0898
 2309SOL    HW118560   3.957   1.037  10.607 -0.9306  0.7573  0.5748
 2309SOL    HW218561   3.909   0.984  10.475 -0.4237 -1.5893 -0.0632
 2310SOL     OW18562   1.094   0.611   1.884 -0.1579  0.1856  0.3884
 2310SOL    HW118563   1.098   0.637   1.976  0.6216  0.5342  0.2516
 2310SOL    HW218564   1.126   0.521   1.893  0.1086  0.3567  1.1217
 2311SOL     OW18565   3.446   3.885   1.622 -0.1728 -0.1314 -0.6512
 2311SOL    HW118566   3.374   3.944   1.601 -0.4754 -1.7988 -4.2040
 2311SOL    HW218567   3.434   3.870   1.716  0.9814  1.3878 -0.2639
 2312SOL     OW18568   3.070   0.320   4.472 -0.6766 -0.0793  0.1390
 2312SOL    HW118569   2.999   0.317   4.535 -0.0715  2.8511  0.9608
 2312SOL    HW218570   3.014   0.364   4.407 -0.8589 -1.7905 -0.8798
 2313SOL     OW18571   3.741   3.898  12.897  0.1303  0.2892  0.3064
 2313SOL    HW118572   3.679   3.964  12.866  0.1818  0.5681  0.8108
 2313SOL    HW218573   3.730   3.910  12.991 -3.1116  0.8051 -0.1173
 2314SOL     OW18574   4.350   2.413   7.469  0.1743  0.1476 -0.2404
 2314SOL    HW118575   4.353   2.411   7.565 -2.0428  3.4672 -0.1020
 2314SOL    HW218576   4.262   2.375   7.461 -1.7360  4.0871  1.4688
 2315SOL     OW18577   0.334   0.982   5.082  0.1853  0.2078 -0.0805
 2315SOL    HW118578   0.421   0.954   5.110  0.6031  0.4437 -1.1406
 2315SOL    HW218579   0.291   0.917   5.137  1.5460  1.2666  2.2276
 2316SOL     OW18580   0.696   0.171   8.783  0.3359 -0.1615  0.1463
 2316SOL    HW118581   0.762   0.209   8.841  2.1373 -1.6711 -0.9171
 2316SOL    HW218582   0.622   0.230   8.796  1.3076  1.1910 -0.3598
 2317SOL     OW18583   3.152   4.061   2.095 -0.0255 -0.1863 -0.2789
 2317SOL    HW118584   3.161   4.146   2.138  1.5029 -0.6485  0.3027
 2317SOL    HW218585   3.208   4.072   2.019 -0.2611  1.0024 -0.2756
 2318SOL     OW18586   3.540   2.268  13.025 -0.3778  0.3237  0.1220
 2318SOL    HW118587   3.529   2.288  13.118 -0.2115 -0.1366  0.2416
 2318SOL    HW218588   3.618   2.321  13.009  1.1969 -2.1621 -0.4133
 2319SOL     OW18589   0.379   0.609  15.479 -0.6142  0.8057  0.0787
 2319SOL    HW118590   0.460   0.653  15.507 -1.8836  2.8565  0.5428
 2319SOL    HW218591   0.394   0.567  15.394  2.4290  1.9561  0.0352
 2320SOL     OW18592   3.039   3.453   6.866 -0.0082  0.4284 -0.2917
 2320SOL    HW118593   3.004   3.518   6.806 -0.3338 -0.0932 -0.6744
 2320SOL    HW218594   3.102   3.504   6.916 -0.5766  0.3656  0.5052
 2321SOL     OW18595   3.906   3.556  16.078  0.0491  0.7251  0.0243
 2321SOL    HW118596   3.977   3.501  16.045 -0.6647 -0.1565 -0.0708
 2321SOL    HW218597   3.922   3.635  16.027 -0.1294 -0.6609 -2.1839
 2322SOL     OW18598   0.169   4.569   9.781 -0.2685  0.6359  0.1780
 2322SOL    HW118599   0.087   4.519   9.776 -0.6954  1.3639 -0.1540
 2322SOL    HW218600   0.206   4.537   9.699 -0.0331 -0.3807  0.6734
 2323SOL     OW18601   4.603   1.657   9.414 -0.0042 -0.7797 -0.0116
 2323SOL    HW118602   4.579   1.746   9.439  1.5733  0.1159 -1.7022
 2323SOL    HW218603   4.520   1.610   9.412  2.2596 -4.8562  0.9553
 2324SOL     OW18604   3.135   3.037  16.633  0.7222 -0.6927  0.1752
 2324SOL    HW118605   3.052   3.084  16.623  0.1641 -1.4425  1.3689
 2324SOL    HW218606   3.128   2.980  16.710 -0.6832 -0.2067  0.4138
 2325SOL     OW18607   0.055   1.299  12.132 -0.0843  0.1738 -0.7978
 2325SOL    HW118608   0.095   1.352  12.201  0.4447  0.0132 -0.9825
 2325SOL    HW218609   0.015   1.228  12.183  0.5384 -0.1549 -0.7625
 2326SOL     OW18610   3.567   4.452   5.270 -0.3640  0.0260 -0.2737
 2326SOL    HW118611   3.546   4.543   5.250 -1.0263  0.8221  4.0127
 2326SOL    HW218612   3.649   4.462   5.318  0.5680  0.4808 -1.9313
 2327SOL     OW18613   1.526   0.551  12.251  0.1917 -0.4345  0.3750
 2327SOL    HW118614   1.527   0.456  12.263  0.9789 -0.3972  0.6394
 2327SOL    HW218615   1.584   0.562  12.175 -0.7425 -1.0030 -0.4057
 2328SOL     OW18616   2.979   0.915   6.810  0.3496 -0.1574  0.7384
 2328SOL    HW118617   3.051   0.872   6.764 -1.1637 -1.2635 -0.5703
 2328SOL    HW218618   3.012   0.887   6.895 -1.7581  2.0932  2.2821
 2329SOL     OW18619   1.355   0.525  13.569  0.0377  0.8806 -0.1727
 2329SOL    HW118620   1.315   0.606  13.539  0.1134  1.3729  1.0585
 2329SOL    HW218621   1.424   0.560  13.626 -0.5315  1.8604 -0.0894
 2330SOL     OW18622   0.021   4.369  15.065  0.4606  0.4116 -0.4336
 2330SOL    HW118623   0.090   4.423  15.026  3.8992 -1.9906  2.3126
 2330SOL    HW218624   0.037   4.390  15.157 -0.2338  3.2212 -0.9654
 2331SOL     OW18625   3.699   0.352   4.580 -0.8237 -0.0561 -0.4361
 2331SOL    HW118626   3.693   0.271   4.630  0.6969  1.2264  1.8269
 2331SOL    HW218627   3.781   0.336   4.534 -1.0281  2.8663 -1.8537
 2332SOL     OW18628   4.190   0.343  17.054  0.1423 -0.1791  0.2004
 2332SOL    HW118629   4.155   0.340  17.143  1.4658  2.1086  0.7995
 2332SOL    HW218630   4.282   0.334  17.077 -0.2345  1.5759  2.3399
 2333SOL     OW18631   1.284   1.167   0.896  0.0245 -0.4862  0.7210
 2333SOL    HW118632   1.285   1.089   0.951 -0.1606  1.4619  3.4854
 2333SOL    HW218633   1.374   1.168   0.865 -1.1198 -0.8852 -2.6456
 2334SOL     OW18634   4.734   1.448  16.878  0.1808  0.6248  0.3385
 2334SOL    HW118635   4.718   1.417  16.967 -0.8717 -0.4856 -0.2347
 2334SOL    HW218636   4.647   1.419  16.850  0.8142 -1.1244  0.1999
 2335SOL     OW18637   0.080   4.164   2.974  0.2972 -0.5727  0.5625
 2335SOL    HW118638   4.729   4.159   3.012 -0.7768 -3.4030 -2.2645
 2335SOL    HW218639   0.047   4.138   2.888  1.5723 -0.9897  0.2000
 2336SOL     OW18640   1.769   1.202   6.409 -0.2672  0.7020 -0.2741
 2336SOL    HW118641   1.696   1.164   6.361  2.3409 -3.6230 -0.7600
 2336SOL    HW218642   1.788   1.285   6.364  1.1828  1.2519  1.3467
 2337SOL     OW18643   2.786   0.955  14.140 -0.1963  0.3767  0.4718
 2337SOL    HW118644   2.858   0.946  14.203 -2.1100  0.7956  2.7101
 2337SOL    HW218645   2.830   0.923  14.062 -0.4324  0.8687  0.1383
 2338SOL     OW18646   1.790   2.868   0.853  0.2561 -0.5117  0.3558
 2338SOL    HW118647   1.700   2.869   0.887 -0.3380  1.1209 -1.2557
 2338SOL    HW218648   1.838   2.854   0.934 -0.3531  1.3431  1.0490
 2339SOL     OW18649   3.319   3.979  15.895  0.3040  0.3123  0.4147
 2339SOL    HW118650   3.326   4.074  15.881  0.2641  0.2988  0.3039
 2339SOL    HW218651   3.413   3.969  15.908 -0.0410  0.4897  3.2691
 2340SOL     OW18652   4.008   3.725   2.500  0.0518 -0.2125  0.0024
 2340SOL    HW118653   4.003   3.711   2.594 -1.7283 -0.0264 -0.0704
 2340SOL    HW218654   3.948   3.799   2.486 -1.0613 -0.9664  0.8753
 2341SOL     OW18655   2.302   0.551   1.214  0.2746 -0.1136 -1.1324
 2341SOL    HW118656   2.262   0.624   1.262 -2.1421 -1.0925 -1.6649
 2341SOL    HW218657   2.396   0.567   1.217  0.3442 -0.9617  1.4128
 2342SOL     OW18658   1.151   3.352   9.389  0.2172  0.0287  0.2155
 2342SOL    HW118659   1.131   3.259   9.383 -2.9061  0.6640  0.7945
 2342SOL    HW218660   1.241   3.340   9.419  0.5268  0.6615 -0.4378
 2343SOL     OW18661   0.009   1.219  17.102 -0.0017 -0.2088 -0.3515
 2343SOL    HW118662   0.082   1.225  17.164 -0.3919  1.3100 -0.0316
 2343SOL    HW218663   0.054   1.183  17.026 -2.4157 -2.7463 -0.5522
 2344SOL     OW18664   0.460   3.727   5.902 -0.0527 -0.2190  0.5208
 2344SOL    HW118665   0.410   3.681   5.970 -0.3766 -1.1719 -0.3658
 2344SOL    HW218666   0.393   3.720   5.833  0.5264 -0.2550 -0.0336
 2345SOL     OW18667   1.054   3.453   1.759 -0.2456  0.4286  0.0024
 2345SOL    HW118668   1.103   3.478   1.838 -2.0477 -0.8932  1.5140
 2345SOL    HW218669   1.048   3.542   1.723 -0.1309  0.8028  0.9041
 2346SOL     OW18670   3.117   3.848   6.414  0.0913 -0.0598  0.3356
 2346SOL    HW118671   3.129   3.828   6.321 -0.6340 -0.5242  0.3454
 2346SOL    HW218672   3.097   3.764   6.454 -0.7184 -0.9852 -1.9841
 2347SOL     OW18673   1.007   0.801  15.120  0.0814  0.2916 -0.2714
 2347SOL    HW118674   1.008   0.712  15.085  1.9233  0.0441  0.4318
 2347SOL    HW218675   1.081   0.845  15.080  0.6548 -1.3874 -1.0698
 2348SOL     OW18676   0.327   0.995   9.071  0.6783 -0.0888 -0.2399
 2348SOL    HW118677   0.291   1.001   8.982  0.1885 -2.6104 -0.2264
 2348SOL    HW218678   0.408   1.040   9.046 -0.0233  2.5210  2.2948
 2349SOL     OW18679   4.026   1.065   1.080  0.1385  0.0096 -0.1443
 2349SOL    HW118680   3.958   1.046   1.015  1.5723 -1.3184 -1.2612
 2349SOL    HW218681   4.091   1.053   1.011 -1.3928 -0.2307 -1.5589
 2350SOL     OW18682   2.869   4.410  15.582  0.2364  0.0856 -0.7447
 2350SOL    HW118683   2.776   4.431  15.592  0.4871  0.2167  1.3288
 2350SOL    HW218684   2.875   4.360  15.663 -1.9456 -0.9702 -1.2337
 2351SOL     OW18685   2.170   3.311   6.452  0.4210  0.2016  0.0861
 2351SOL    HW118686   2.165   3.397   6.494  0.0344  0.6842 -0.9332
 2351SOL    HW218687   2.228   3.261   6.509  2.0244  1.0628 -0.7851
 2352SOL     OW18688   0.193   1.253  17.298 -0.7196 -0.3983  0.0136
 2352SOL    HW118689   0.181   1.244  17.392 -2.2542  0.3131 -0.1106
 2352SOL    HW218690   0.171   1.345  17.284 -0.8481 -0.6509 -1.5005
 2353SOL     OW18691   2.444   2.500  17.248  0.1134  0.4860  0.2087
 2353SOL    HW118692   2.432   2.514  17.154 -0.3594  2.0503  0.4915
 2353SOL    HW218693   2.358   2.528  17.278  0.7354  3.4706 -0.7796
 2354SOL     OW18694   1.785   2.671   3.147  0.4580 -0.1580  0.2051
 2354SOL    HW118695   1.746   2.619   3.076  1.9378  1.8410 -2.0685
 2354SOL    HW218696   1.877   2.648   3.138  0.5222  0.0161  0.4199
 2355SOL     OW18697   1.873   2.758  16.732  0.2664  0.0124  0.3689
 2355SOL    HW118698   1.858   2.780  16.824 -2.2763  1.9447 -0.4854
 2355SOL    HW218699   1.860   2.843  16.689  1.4138 -0.2646 -0.5147
 2356SOL     OW18700   0.810   4.136  12.436  0.1600 -0.1054  0.1204
 2356SOL    HW118701   0.812   4.216  12.382  1.3361  1.0083  1.8087
 2356SOL    HW218702   0.887   4.089  12.405  1.5108  0.3926  2.7023
 2357SOL     OW18703   2.066   3.478   7.571  0.2849  0.0535 -0.1921
 2357SOL    HW118704   2.134   3.467   7.504  0.6140 -1.3678  0.3739
 2357SOL    HW218705   2.077   3.415   7.642 -1.3080  2.3710  2.1224
 2358SOL     OW18706   1.017   3.324  10.149 -0.0128 -0.5633  0.3855
 2358SOL    HW118707   1.094   3.381  10.149 -1.5111  1.4647  1.2181
 2358SOL    HW218708   1.005   3.311  10.243  0.9680 -2.1040  0.2911
 2359SOL     OW18709   0.811   4.077   4.756  0.5931  0.5716  0.1170
 2359SOL    HW118710   0.851   4.149   4.805  0.2049  1.8740 -1.4640
 2359SOL    HW218711   0.740   4.115   4.704  0.5280  1.6813  0.9985
 2360SOL     OW18712   1.325   2.642   5.633 -0.0008 -0.6190  0.3433
 2360SOL    HW118713   1.370   2.702   5.573  1.0888 -2.7790 -0.9818
 2360SOL    HW218714   1.276   2.589   5.570 -1.0146 -0.0673  0.6685
 2361SOL     OW18715   0.540   1.953  12.043 -0.0820 -0.6671  0.5223
 2361SOL    HW118716   0.543   1.989  12.131 -1.3418 -0.6924  0.5674
 2361SOL    HW218717   0.544   2.035  11.992 -0.7310  0.0013  1.5548
 2362SOL     OW18718   3.755   2.398   1.432  0.0795  0.2316 -0.4832
 2362SOL    HW118719   3.718   2.325   1.382 -0.2976 -0.7253  1.1839
 2362SOL    HW218720   3.836   2.411   1.383 -0.4389 -0.8165 -1.6227
 2363SOL     OW18721   3.423   2.873   1.992 -0.1243  0.1693 -0.2155
 2363SOL    HW118722   3.458   2.945   1.939  1.6535 -2.0658 -2.0677
 2363SOL    HW218723   3.330   2.886   1.973 -0.2445  2.2284  1.7711
 2364SOL     OW18724   3.750   1.603  13.441 -0.0897 -0.3224  0.7686
 2364SOL    HW118725   3.826   1.643  13.397 -2.2464  0.9405 -1.8256
 2364SOL    HW218726   3.728   1.520  13.398  1.3675 -0.2421 -0.1246
 2365SOL     OW18727   2.242   1.686   8.486  0.3493 -0.5781 -0.4421
 2365SOL    HW118728   2.313   1.702   8.549 -1.6211 -2.6379  2.2967
 2365SOL    HW218729   2.299   1.679   8.409  0.3999 -1.2788 -0.3373
 2366SOL     OW18730   0.002   2.463   5.271  0.0600  0.5200  0.1057
 2366SOL    HW118731   0.014   2.509   5.188 -0.2838  0.5445  0.0681
 2366SOL    HW218732   0.001   2.544   5.321 -2.7409  0.1544  0.6549
 2367SOL     OW18733   1.257   4.490   9.056 -0.4431 -0.4086 -0.4453
 2367SOL    HW118734   1.200   4.543   9.112  2.6930  1.0280  1.3767
 2367SOL    HW218735   1.334   4.547   9.063 -0.5940 -0.2089 -0.4069
 2368SOL     OW18736   0.288   0.223   1.583  0.0639 -0.6884 -0.0221
 2368SOL    HW118737   0.305   0.189   1.670  1.0810 -0.9102 -0.3171
 2368SOL    HW218738   0.255   0.311   1.604  2.5157  0.3893 -0.7493
 2369SOL     OW18739   0.169   1.740   7.239 -0.2760  0.2338 -0.1621
 2369SOL    HW118740   0.150   1.726   7.146  0.2733 -2.7614  0.1908
 2369SOL    HW218741   0.080   1.737   7.274 -0.3531 -0.8289 -0.4552
 2370SOL     OW18742   3.973   2.950  11.936 -0.1649  0.5937 -0.4883
 2370SOL    HW118743   4.056   2.989  11.906 -0.3589  1.2526 -0.1648
 2370SOL    HW218744   3.966   2.989  12.023  0.7053  3.1129 -1.5610
 2371SOL     OW18745   0.217   3.447   7.366  0.1525 -0.7251  0.1304
 2371SOL    HW118746   0.256   3.533   7.384  0.2885 -0.4620 -1.4462
 2371SOL    HW218747   0.301   3.401   7.366 -0.5441 -1.9647 -1.6338
 2372SOL     OW18748   2.382   3.114   7.588  0.0799 -0.9340 -0.2564
 2372SOL    HW118749   2.454   3.079   7.537  0.0355  0.1293 -1.0618
 2372SOL    HW218750   2.332   3.152   7.515  2.7948  2.6369 -0.2432
 2373SOL     OW18751   1.007   3.153   4.322  0.0006 -0.4478 -0.3567
 2373SOL    HW118752   0.975   3.112   4.242  0.5776  0.5497 -1.1029
 2373SOL    HW218753   1.096   3.166   4.289 -0.0370 -2.2324 -1.1345
 2374SOL     OW18754   2.427   3.437  11.429 -0.0776  0.2828 -1.0865
 2374SOL    HW118755   2.346   3.426  11.477 -0.4717 -1.4586 -2.1529
 2374SOL    HW218756   2.446   3.347  11.403  0.2058  0.1346 -0.3592
 2375SOL     OW18757   4.414   3.058   6.013  0.3436 -0.5611 -0.3832
 2375SOL    HW118758   4.382   3.092   5.929 -0.5227 -0.8463 -0.1658
 2375SOL    HW218759   4.370   2.974   6.021  0.3671 -0.7742 -2.3592
 2376SOL     OW18760   2.914   0.247   4.801  0.5269  0.4886 -0.4578
 2376SOL    HW118761   2.885   0.212   4.886  0.1177  1.5857 -0.1522
 2376SOL    HW218762   2.902   0.165   4.753  3.9305  0.2946 -0.9389
 2377SOL     OW18763   2.750   0.668   7.594  0.0361  0.5850 -0.3425
 2377SOL    HW118764   2.665   0.696   7.562 -0.2099 -1.0578 -1.1507
 2377SOL    HW218765   2.802   0.734   7.549 -1.1594  0.3857 -2.0226
 2378SOL     OW18766   2.855   2.191  12.349 -0.8488 -0.2188 -0.1963
 2378SOL    HW118767   2.937   2.240  12.344  0.2239 -2.0946 -0.9736
 2378SOL    HW218768   2.881   2.106  12.384 -2.6181  0.4348  2.7411
 2379SOL     OW18769   2.966   0.742  13.632  0.1246 -0.1136 -0.4522
 2379SOL    HW118770   2.906   0.714  13.563 -0.1667 -0.2094 -0.1605
 2379SOL    HW218771   3.037   0.775  13.576 -1.5224  1.2466 -1.7334
 2380SOL     OW18772   4.071   4.128   8.860 -0.2682  0.0807  0.0899
 2380SOL    HW118773   4.134   4.200   8.854 -0.9446  0.8045  1.6182
 2380SOL    HW218774   4.099   4.080   8.938 -0.4702  0.9783  0.7129
 2381SOL     OW18775   0.907   2.376   7.821  0.4226 -0.1847  0.7249
 2381SOL    HW118776   0.948   2.289   7.819  0.1536 -0.2768 -0.9923
 2381SOL    HW218777   0.900   2.388   7.726 -1.5733 -0.1476  0.8723
 2382SOL     OW18778   2.393   2.130  10.940 -0.2775 -0.0555  0.1249
 2382SOL    HW118779   2.323   2.188  10.968  0.2949  0.6629  0.0697
 2382SOL    HW218780   2.392   2.129  10.845  2.0218 -0.8658  0.1079
 2383SOL     OW18781   4.491   1.733  10.952 -0.4088  0.2769 -0.2980
 2383SOL    HW118782   4.576   1.759  10.987 -0.3632  0.6393 -0.6775
 2383SOL    HW218783   4.519   1.642  10.937  2.7474  1.2347 -0.1514
 2384SOL     OW18784   4.181   1.651   8.370  0.1316  0.5245  1.0749
 2384SOL    HW118785   4.163   1.640   8.463  0.5595 -1.4854  0.9131
 2384SOL    HW218786   4.109   1.607   8.325 -0.3591  1.7706  0.6204
 2385SOL     OW18787   0.251   4.583   8.880  0.2340  0.1385  0.2759
 2385SOL    HW118788   0.225   4.617   8.966 -2.8940  0.1836 -0.6930
 2385SOL    HW218789   0.335   4.542   8.899  1.0965  0.9718 -1.7259
 2386SOL     OW18790   2.564   4.103   9.754 -0.4344 -0.8821  0.4019
 2386SOL    HW118791   2.549   4.041   9.683  1.5450  1.1789 -1.7974
 2386SOL    HW218792   2.630   4.158   9.711 -0.9073 -0.0165  0.7655
 2387SOL     OW18793   3.434   2.483   1.756 -0.3593 -0.0521 -0.3027
 2387SOL    HW118794   3.499   2.539   1.798 -0.2016 -1.0874  0.8449
 2387SOL    HW218795   3.380   2.544   1.705 -0.2350 -0.5434 -1.0217
 2388SOL     OW18796   4.510   3.849   4.609 -0.0443  0.1784  0.1176
 2388SOL    HW118797   4.433   3.807   4.569 -0.3200  1.7037 -0.9369
 2388SOL    HW218798   4.538   3.916   4.547 -1.0862 -0.0964 -0.6428
 2389SOL     OW18799   1.348   0.214   6.154  0.4157  0.3306  0.2937
 2389SOL    HW118800   1.308   0.186   6.072  0.5097  0.3812  0.2297
 2389SOL    HW218801   1.298   0.294   6.168  0.9762  0.9140 -1.0846
 2390SOL     OW18802   2.672   2.159  15.143  0.0628  0.4340  0.8669
 2390SOL    HW118803   2.688   2.242  15.186 -1.9381  0.4415  1.5928
 2390SOL    HW218804   2.583   2.177  15.112 -0.0870  0.4669  1.3305
 2391SOL     OW18805   1.522   3.088   8.986 -0.1061  0.1462 -0.1243
 2391SOL    HW118806   1.432   3.056   8.992  0.5048 -1.6121 -0.2059
 2391SOL    HW218807   1.530   3.152   9.056  1.4298  1.3449 -1.4007
 2392SOL     OW18808   1.290   2.580  15.183 -0.4348 -0.2619  0.2993
 2392SOL    HW118809   1.206   2.586  15.228 -0.5558 -0.9297  0.1506
 2392SOL    HW218810   1.342   2.595  15.262 -0.1425  1.9257 -0.2883
 2393SOL     OW18811   3.081   0.673  10.383  0.2027 -0.1138 -0.2517
 2393SOL    HW118812   3.102   0.745  10.442  3.1449 -0.6349 -0.6708
 2393SOL    HW218813   3.053   0.730  10.312 -1.4527 -3.0479 -1.9907
 2394SOL     OW18814   1.640   0.706   2.110  0.3171 -0.0516  0.2295
 2394SOL    HW118815   1.554   0.732   2.077 -0.2019  2.0376  3.3435
 2394SOL    HW218816   1.669   0.639   2.047 -0.1070 -0.9703  1.0112
 2395SOL     OW18817   4.170   2.259   6.381  0.1854 -0.2256 -0.5121
 2395SOL    HW118818   4.256   2.301   6.388 -0.1166  0.1676  0.8363
 2395SOL    HW218819   4.145   2.283   6.292 -0.2073 -1.2565 -0.6732
 2396SOL     OW18820   4.526   0.748   2.109 -0.0033  0.1447  0.0293
 2396SOL    HW118821   4.553   0.681   2.047  0.0216 -0.3594  0.5849
 2396SOL    HW218822   4.570   0.829   2.085 -1.1171  0.0303 -2.4320
 2397SOL     OW18823   2.561   3.387   8.649  0.7154  0.4142 -0.3613
 2397SOL    HW118824   2.555   3.399   8.744 -0.0164  0.6362 -0.4403
 2397SOL    HW218825   2.473   3.385   8.613  1.4513 -2.3007 -2.0157
 2398SOL     OW18826   2.813   1.485   4.598 -0.4133 -0.0183  0.0314
 2398SOL    HW118827   2.747   1.554   4.588  0.4486  0.9473  1.0032
 2398SOL    HW218828   2.884   1.540   4.564  1.2950 -0.0370  3.5972
 2399SOL     OW18829   2.421   0.659   2.258  0.2499 -0.1645  0.0935
 2399SOL    HW118830   2.341   0.609   2.275 -0.4843  0.3888 -1.7169
 2399SOL    HW218831   2.392   0.703   2.178 -0.4042 -1.4434 -0.3794
 2400SOL     OW18832   2.075   2.691   2.017  0.6064  0.0446  0.9009
 2400SOL    HW118833   2.131   2.762   1.985 -0.0582 -0.1956 -0.7840
 2400SOL    HW218834   2.126   2.617   1.987  1.2628  0.9424 -0.2221
 2401SOL     OW18835   1.753   3.219   8.889  0.4086  0.0451 -0.0875
 2401SOL    HW118836   1.762   3.253   8.978 -1.6925  1.3376 -0.3697
 2401SOL    HW218837   1.679   3.159   8.903 -0.0825  0.8796  0.8727
 2402SOL     OW18838   4.181   0.051   5.653  0.1026 -0.2317 -0.5864
 2402SOL    HW118839   4.155   0.143   5.650  1.5011  0.2340  1.4340
 2402SOL    HW218840   4.213   0.046   5.743  0.9061 -3.6760 -1.0661
 2403SOL     OW18841   2.951   1.959   9.599  0.1523  0.0420  0.7695
 2403SOL    HW118842   2.939   2.053   9.585 -1.7448 -0.5741 -1.7300
 2403SOL    HW218843   2.862   1.939   9.627 -0.6480  3.5785  0.7750
 2404SOL     OW18844   4.000   2.249  12.701  0.4324 -0.3420 -0.4466
 2404SOL    HW118845   4.087   2.219  12.676 -0.2558 -3.4932  1.0519
 2404SOL    HW218846   3.980   2.172  12.753 -0.5127  0.3227  0.1732
 2405SOL     OW18847   0.664   0.743   5.351 -0.1838  0.7605 -0.0886
 2405SOL    HW118848   0.673   0.656   5.390 -0.1216  0.9161  0.2512
 2405SOL    HW218849   0.570   0.755   5.364 -0.3179  0.6279 -0.9260
 2406SOL     OW18850   3.630   0.796   9.791 -0.2550 -0.3604  0.9014
 2406SOL    HW118851   3.592   0.767   9.874 -2.3791 -0.0335  0.0680
 2406SOL    HW218852   3.641   0.891   9.798 -0.2333 -0.2393 -0.7999
 2407SOL     OW18853   0.152   2.894   3.181 -0.1622  0.2625 -0.0483
 2407SOL    HW118854   0.233   2.851   3.207  0.2499  0.8390 -0.3652
 2407SOL    HW218855   0.132   2.942   3.261 -1.0484 -1.0114  0.4849
 2408SOL     OW18856   0.430   0.835  16.219 -0.1270 -0.1517  0.1805
 2408SOL    HW118857   0.387   0.822  16.135  0.0108 -1.7454  0.3545
 2408SOL    HW218858   0.364   0.790  16.271  0.6247 -1.7151 -0.2167
 2409SOL     OW18859   4.690   2.063   3.456  0.4014  0.1078 -0.4073
 2409SOL    HW118860   4.601   2.028   3.468  0.3995 -0.2980 -1.5936
 2409SOL    HW218861   0.016   1.993   3.472  0.5410  0.4343  0.4404
 2410SOL     OW18862   0.861   1.240  17.197 -0.8807 -0.1541 -0.3794
 2410SOL    HW118863   0.871   1.263  17.104  2.3729 -1.2023 -0.2999
 2410SOL    HW218864   0.768   1.218  17.206 -1.2129  1.0485 -0.8346
 2411SOL     OW18865   2.838   4.268   4.517 -0.4433  0.1697 -0.3218
 2411SOL    HW118866   2.745   4.288   4.513 -0.6779 -0.7744  0.3771
 2411SOL    HW218867   2.853   4.316   4.599 -0.2819  0.4434 -0.5129
 2412SOL     OW18868   3.348   2.982  16.921 -0.0773 -0.2523  0.0613
 2412SOL    HW118869   3.384   2.966  17.008 -0.2909  1.8548  0.5521
 2412SOL    HW218870   3.256   2.994  16.946 -0.1659 -1.6625  0.3946
 2413SOL     OW18871   4.145   0.127   4.863  0.3416  0.1424  0.1853
 2413SOL    HW118872   4.181   0.137   4.951 -0.8916  2.0192  0.4710
 2413SOL    HW218873   4.209   0.173   4.810 -1.2743  0.7106 -1.2728
 2414SOL     OW18874   3.227   3.500   3.242 -0.4789  0.3416 -0.6338
 2414SOL    HW118875   3.178   3.561   3.296  0.0432 -1.6943  2.1203
 2414SOL    HW218876   3.267   3.569   3.189  0.5433 -0.9528 -1.5635
 2415SOL     OW18877   4.697   4.678  10.345 -0.2367  0.6074 -0.4650
 2415SOL    HW118878   0.037   4.681  10.288  0.6181  1.8067  0.7550
 2415SOL    HW218879   4.700   4.583  10.359 -1.6945  1.1038  3.1033
 2416SOL     OW18880   0.435   0.555   7.443 -0.0395 -0.2332  0.2356
 2416SOL    HW118881   0.446   0.460   7.455 -0.2482 -0.5243 -1.8522
 2416SOL    HW218882   0.517   0.574   7.397  1.0119 -0.4094  2.0294
 2417SOL     OW18883   4.521   1.063   0.849  0.3321  0.0114 -0.4675
 2417SOL    HW118884   4.519   1.151   0.811 -1.5853 -0.0901 -0.5984
 2417SOL    HW218885   4.505   1.088   0.940  2.3589 -2.3405  0.5423
 2418SOL     OW18886   2.745   0.011   1.475  0.1207 -0.1677 -0.6260
 2418SOL    HW118887   2.818   4.688   1.487  1.7833  1.7744 -1.1307
 2418SOL    HW218888   2.737   0.032   1.568 -0.6284  2.1855 -1.2120
 2419SOL     OW18889   2.897   2.344   2.619  0.2511 -0.7710  0.3437
 2419SOL    HW118890   2.935   2.310   2.538  0.9942  1.1666 -0.1109
 2419SOL    HW218891   2.962   2.400   2.660 -0.5012  1.5776 -1.6515
 2420SOL     OW18892   0.291   3.679   8.330 -0.1136 -0.5507 -0.1451
 2420SOL    HW118893   0.288   3.735   8.252  2.0568  0.2336  0.3397
 2420SOL    HW218894   0.206   3.700   8.367  0.9545 -0.1494  2.0939
 2421SOL     OW18895   4.344   3.301   3.819 -0.5905 -1.0573  0.2518
 2421SOL    HW118896   4.334   3.218   3.772 -1.1043 -0.7837 -0.1225
 2421SOL    HW218897   4.260   3.302   3.865 -0.9206 -1.0156 -0.3430
 2422SOL     OW18898   3.493   3.261   6.488  0.0207 -0.5453  0.4011
 2422SOL    HW118899   3.524   3.185   6.537  0.3012  0.6662  2.0740
 2422SOL    HW218900   3.411   3.233   6.448  0.2924 -0.9761  0.1407
 2423SOL     OW18901   2.877   1.492  16.741  0.5850 -0.1640 -0.0602
 2423SOL    HW118902   2.853   1.464  16.653  0.2395 -0.7116  0.2074
 2423SOL    HW218903   2.874   1.587  16.729  1.5512 -0.0738  0.4486
 2424SOL     OW18904   0.024   2.663  13.490  0.0571  0.1242 -0.3124
 2424SOL    HW118905   0.051   2.677  13.581  1.2024  0.7565 -0.7550
 2424SOL    HW218906   0.036   2.568  13.488  2.8154  0.4987 -1.4109
 2425SOL     OW18907   3.037   4.568   6.294 -0.0617  0.5662 -0.0499
 2425SOL    HW118908   3.046   4.479   6.259  0.0405  0.5695 -0.0313
 2425SOL    HW218909   2.946   4.586   6.316  0.1271 -0.4728  1.4997
 2426SOL     OW18910   0.967   4.575   3.846  0.1410 -0.4228 -0.1909
 2426SOL    HW118911   0.877   4.544   3.841  0.2021 -0.7344  0.6993
 2426SOL    HW218912   1.012   4.559   3.763 -1.3966  1.8881 -1.4645
 2427SOL     OW18913   4.616   2.965  13.777  0.1729  0.0670  0.3926
 2427SOL    HW118914   4.606   2.966  13.872 -1.5315 -0.9697  0.2168
 2427SOL    HW218915   4.668   2.889  13.750  0.0896 -0.5937  2.1510
 2428SOL     OW18916   0.619   3.825   1.228 -0.0688  0.3698 -0.5608
 2428SOL    HW118917   0.684   3.808   1.296 -1.2567 -0.2564  0.4297
 2428SOL    HW218918   0.638   3.755   1.165 -1.0320 -0.4146  0.0203
 2429SOL     OW18919   0.402   0.629   9.033 -0.4988  0.1292  0.3535
 2429SOL    HW118920   0.431   0.642   9.123  0.1001 -0.4985  0.2468
 2429SOL    HW218921   0.449   0.701   8.990  0.6440 -1.1853 -0.5984
 2430SOL     OW18922   0.648   0.601   1.111 -0.0415 -0.1964  0.6100
 2430SOL    HW118923   0.675   0.510   1.111 -0.0023 -0.1836  1.4157
 2430SOL    HW218924   0.709   0.640   1.175  0.6129  2.7300 -1.7680
 2431SOL     OW18925   4.262   2.831   2.148 -0.0667  0.5254  0.5341
 2431SOL    HW118926   4.236   2.739   2.158 -0.1740  0.5680  0.6398
 2431SOL    HW218927   4.312   2.852   2.226  1.4392 -0.8073 -0.0795
 2432SOL     OW18928   4.583   3.708  15.235 -0.4699 -0.1067 -0.5041
 2432SOL    HW118929   4.643   3.704  15.161  0.0382 -0.7760 -0.0497
 2432SOL    HW218930   4.607   3.790  15.278 -0.5792  0.2102 -1.0478
 2433SOL     OW18931   1.173   2.791  12.526  0.0585 -0.6415  0.3754
 2433SOL    HW118932   1.139   2.844  12.455  0.4540  2.3593  2.4021
 2433SOL    HW218933   1.098   2.772  12.582 -1.3386 -1.4015 -1.7793
 2434SOL     OW18934   3.485   0.999   1.314  0.6351 -0.6139  0.1737
 2434SOL    HW118935   3.468   1.074   1.371  1.2485  0.4941 -1.1171
 2434SOL    HW218936   3.398   0.986   1.278 -0.3887  2.1016  1.6326
 2435SOL     OW18937   4.531   0.979  11.199 -0.0878  0.1567 -0.5339
 2435SOL    HW118938   4.551   0.949  11.288 -1.3260  0.1203 -0.2700
 2435SOL    HW218939   4.581   0.912  11.153 -1.2092 -1.1931  0.1904
 2436SOL     OW18940   3.376   0.492   1.234 -0.4171  0.4248  0.3308
 2436SOL    HW118941   3.417   0.417   1.190 -0.8099 -0.0934  0.8352
 2436SOL    HW218942   3.307   0.441   1.277 -0.1434 -0.2765 -0.0427
 2437SOL     OW18943   4.625   4.142  16.188 -0.6507 -0.0522  0.3571
 2437SOL    HW118944   4.696   4.079  16.199 -0.8097 -0.3172 -0.1503
 2437SOL    HW218945   4.631   4.183  16.274  1.0867  2.1290 -0.8215
 2438SOL     OW18946   0.635   4.408   9.505  0.1403 -0.4779  0.2652
 2438SOL    HW118947   0.540   4.409   9.496 -0.0089  2.5950  2.2752
 2438SOL    HW218948   0.660   4.350   9.433  1.8696 -0.9163  1.2414
 2439SOL     OW18949   3.380   0.056   7.801 -0.1219 -0.8085  0.0839
 2439SOL    HW118950   3.413   0.069   7.712 -4.4867  4.8856 -0.6670
 2439SOL    HW218951   3.419   0.133   7.842  0.3984 -0.7938 -0.4315
 2440SOL     OW18952   1.432   3.942   9.092 -0.1188 -0.2713 -0.5682
 2440SOL    HW118953   1.480   3.994   9.156  0.2479 -1.6449  0.2786
 2440SOL    HW218954   1.390   4.005   9.034  0.2654  2.2505  1.9395
 2441SOL     OW18955   1.781   3.976   5.754  0.1464  0.1593  0.2424
 2441SOL    HW118956   1.812   3.947   5.668  0.0912 -0.4846  0.4474
 2441SOL    HW218957   1.718   4.045   5.734 -1.2959 -1.0492  0.7129
 2442SOL     OW18958   3.681   4.253   1.159  0.7164  0.6722  0.1856
 2442SOL    HW118959   3.601   4.273   1.111  1.0126  1.4726  0.0233
 2442SOL    HW218960   3.677   4.334   1.210 -2.2511  0.4717  0.2630
 2443SOL     OW18961   1.542   0.502   6.339 -0.2497  0.4819 -0.2709
 2443SOL    HW118962   1.505   0.579   6.381 -0.3056 -0.0425  0.6222
 2443SOL    HW218963   1.502   0.514   6.252 -1.0587 -1.1632 -0.1088
 2444SOL     OW18964   2.849   3.776  12.386 -0.7504  0.2282 -0.2872
 2444SOL    HW118965   2.863   3.856  12.335  4.5706  0.8315  2.1262
 2444SOL    HW218966   2.941   3.752  12.395 -0.8472  0.6306  1.6951
 2445SOL     OW18967   0.038   1.728   6.600  0.1008  0.4759 -0.7114
 2445SOL    HW118968   0.029   1.638   6.570 -2.1962  0.8141 -1.0652
 2445SOL    HW218969   0.052   1.766   6.513 -1.2609  0.1827 -1.0556
 2446SOL     OW18970   2.540   2.193   2.490 -0.1591  0.6772 -0.1518
 2446SOL    HW118971   2.459   2.210   2.442  0.6600 -0.5900 -1.9772
 2446SOL    HW218972   2.544   2.272   2.544  0.0222  0.1226  0.6532
 2447SOL     OW18973   2.115   2.886   3.437 -0.8260  0.1695 -0.0020
 2447SOL    HW118974   2.186   2.837   3.398 -0.5548 -0.0317  0.7490
 2447SOL    HW218975   2.130   2.888   3.532 -0.5644 -2.1170 -0.0161
 2448SOL     OW18976   2.080   2.253  10.525  0.4885 -0.3435 -0.1273
 2448SOL    HW118977   1.998   2.250  10.476 -0.8382 -0.5746  2.1286
 2448SOL    HW218978   2.103   2.346  10.522 -0.4081 -0.0052  3.1160
 2449SOL     OW18979   0.139   1.836   8.395 -0.4197  0.3120 -0.1228
 2449SOL    HW118980   0.170   1.911   8.344 -0.3338 -0.0687 -0.6241
 2449SOL    HW218981   0.134   1.866   8.486  2.3453  0.8074 -0.1410
 2450SOL     OW18982   1.962   1.988   5.392 -0.4413  0.0791 -0.1227
 2450SOL    HW118983   2.031   1.979   5.458 -0.8321 -0.3977  0.2101
 2450SOL    HW218984   1.954   1.898   5.362  1.5863  0.2417 -1.2189
 2451SOL     OW18985   3.478   2.876   9.743  0.4664 -0.1961 -0.1033
 2451SOL    HW118986   3.502   2.896   9.653 -0.5414  0.1194 -0.3020
 2451SOL    HW218987   3.564   2.868   9.786  0.6809  2.6341 -0.0601
 2452SOL     OW18988   2.132   0.804   3.517  0.3876  0.4824  0.4227
 2452SOL    HW118989   2.203   0.757   3.560 -0.3211 -1.1769 -0.2140
 2452SOL    HW218990   2.102   0.737   3.455 -0.1895 -1.3270  2.6620
 2453SOL     OW18991   3.890   4.673  10.668 -0.0562  0.7017  0.2520
 2453SOL    HW118992   3.823   4.699  10.604 -0.3940 -1.2876 -0.1796
 2453SOL    HW218993   3.826   4.649  10.735  0.5980  0.1177  0.6626
 2454SOL     OW18994   1.215   2.964   7.276  0.0466 -0.1668  0.2749
 2454SOL    HW118995   1.303   3.001   7.287  0.1434 -0.1151 -0.7034
 2454SOL    HW218996   1.197   2.930   7.363  2.0007 -0.3840  0.5887
 2455SOL     OW18997   0.586   3.923   2.795  0.0761 -0.0729 -0.3486
 2455SOL    HW118998   0.632   3.896   2.874 -1.5181  0.7511  0.8820
 2455SOL    HW218999   0.655   3.920   2.729  1.3093  1.6272  0.8686
 2456SOL     OW19000   0.372   3.969   2.629 -0.0230 -0.5477  0.2873
 2456SOL    HW119001   0.438   3.948   2.695  1.3590 -0.7764 -1.1722
 2456SOL    HW219002   0.375   4.064   2.621 -1.6004 -0.5770 -0.6051
 2457SOL     OW19003   3.574   1.243   8.505 -0.0980  0.4420 -0.4948
 2457SOL    HW119004   3.519   1.284   8.571 -2.1522 -2.7185 -0.2817
 2457SOL    HW219005   3.653   1.255   8.557 -0.7910 -0.2524  0.7101
 2458SOL     OW19006   0.422   2.188  15.136 -0.1044  0.2195 -0.2161
 2458SOL    HW119007   0.488   2.208  15.070 -0.0636 -1.2094 -0.6134
 2458SOL    HW219008   0.385   2.103  15.115 -0.5258  0.9057 -2.2356
 2459SOL     OW19009   4.510   4.320   2.236  0.2452  0.8092  0.4085
 2459SOL    HW119010   4.441   4.279   2.289  0.1504  0.9132  0.3650
 2459SOL    HW219011   4.459   4.391   2.198  0.8985  0.1411 -1.6715
 2460SOL     OW19012   0.570   0.052   9.703 -0.6906 -0.2109  0.7492
 2460SOL    HW119013   0.591   0.002   9.782 -0.1456 -0.3948  0.4910
 2460SOL    HW219014   0.480   0.024   9.690 -0.8736 -0.1209  1.7598
 2461SOL     OW19015   1.337   3.608  16.188 -0.6682 -0.1756  0.5190
 2461SOL    HW119016   1.315   3.697  16.160 -1.3523 -0.5472 -0.1283
 2461SOL    HW219017   1.424   3.623  16.223 -0.3282  0.4622 -0.5765
 2462SOL     OW19018   3.488   0.604  12.814  0.0825 -0.0690 -0.0483
 2462SOL    HW119019   3.530   0.523  12.844  0.0429  0.4244  1.3442
 2462SOL    HW219020   3.442   0.639  12.890 -0.2056  1.0433 -0.7428
 2463SOL     OW19021   3.361   1.784  17.258  0.0027 -0.3610 -0.1641
 2463SOL    HW119022   3.415   1.851  17.301 -0.5570  0.3930 -0.6323
 2463SOL    HW219023   3.420   1.760  17.186 -0.1384  0.5043 -0.5783
 2464SOL     OW19024   2.310   1.314  15.634 -0.1156 -0.2461 -0.1400
 2464SOL    HW119025   2.388   1.259  15.625  0.3246  0.0889  1.6265
 2464SOL    HW219026   2.316   1.329  15.729 -0.4595 -0.3671 -0.0995
 2465SOL     OW19027   4.649   4.570  12.290 -0.2520  0.4862 -0.3291
 2465SOL    HW119028   4.629   4.560  12.383  1.8000 -0.1893  0.0550
 2465SOL    HW219029   4.577   4.623  12.257 -1.3055 -1.7402 -1.5896
 2466SOL     OW19030   4.326   0.965  12.487  0.1295 -0.4800  0.5075
 2466SOL    HW119031   4.366   1.022  12.553  0.0995 -2.4063  2.1760
 2466SOL    HW219032   4.408   0.952  12.439 -0.2717  4.3745 -1.5371
 2467SOL     OW19033   3.099   1.676   1.027  0.3942  0.2367  0.5257
 2467SOL    HW119034   3.129   1.728   1.101 -1.7818  1.7773  0.3274
 2467SOL    HW219035   3.054   1.733   0.965  0.5855  1.3598  1.4248
 2468SOL     OW19036   2.124   4.493   8.987 -0.3806 -0.2559  0.5967
 2468SOL    HW119037   2.096   4.553   8.918  0.5312 -0.4615  0.0539
 2468SOL    HW219038   2.174   4.429   8.936 -1.6675 -0.5068 -0.3613
 2469SOL     OW19039   0.318   0.874  14.709  0.0720 -0.2529 -0.1345
 2469SOL    HW119040   0.228   0.905  14.713 -0.1510 -0.7348 -1.3301
 2469SOL    HW219041   0.325   0.815  14.634  2.3455  1.3472 -1.1684
 2470SOL     OW19042   0.660   2.297   7.407  0.3947 -0.4281 -0.2809
 2470SOL    HW119043   0.711   2.271   7.484  0.2899  2.6071  0.7967
 2470SOL    HW219044   0.581   2.321   7.456  0.1802 -0.7222 -0.4800
 2471SOL     OW19045   1.163   3.378   7.909  0.6036 -0.3499  0.4489
 2471SOL    HW119046   1.210   3.357   7.990  0.8370 -0.7062  0.2209
 2471SOL    HW219047   1.108   3.302   7.892  0.8051 -0.0641 -1.4909
 2472SOL     OW19048   2.930   1.942   7.162  0.1396  0.0526 -0.2919
 2472SOL    HW119049   2.919   1.858   7.205  0.7008 -0.9048 -1.9881
 2472SOL    HW219050   2.873   1.949   7.085 -0.6861  0.2548  0.3457
 2473SOL     OW19051   3.792   3.783   9.522  0.3039  0.5059 -0.2806
 2473SOL    HW119052   3.830   3.720   9.461 -1.0162  0.4683 -1.0417
 2473SOL    HW219053   3.855   3.767   9.593  1.3335 -0.7680 -1.4680
 2474SOL     OW19054   1.407   0.674  15.236 -0.1537 -0.0576  0.4164
 2474SOL    HW119055   1.327   0.621  15.232 -1.0798  1.2714  1.2424
 2474SOL    HW219056   1.426   0.694  15.145  0.1238 -1.6159  0.1399
 2475SOL     OW19057   1.376   0.606   3.827  0.5797 -0.3020 -0.3082
 2475SOL    HW119058   1.329   0.567   3.753  1.2745  0.3567 -1.0986
 2475SOL    HW219059   1.393   0.694   3.795  0.0305  0.2208  0.8673
 2476SOL     OW19060   0.379   0.773  15.131 -0.1233 -0.1239  0.7763
 2476SOL    HW119061   0.345   0.858  15.103  0.4797 -0.1922 -0.1713
 2476SOL    HW219062   0.472   0.795  15.125  0.1509 -1.5769 -0.3621
 2477SOL     OW19063   1.543   2.901   7.847  0.7098 -0.2870 -0.8427
 2477SOL    HW119064   1.521   2.837   7.914  0.4900 -1.7533 -2.3069
 2477SOL    HW219065   1.461   2.949   7.831  1.7929  1.2443 -1.8128
 2478SOL     OW19066   3.000   0.611   5.865 -0.1140 -0.0639 -0.3688
 2478SOL    HW119067   2.972   0.626   5.956 -1.4872 -0.6657 -0.6861
 2478SOL    HW219068   3.084   0.566   5.878  0.0671  0.0963 -0.9819
 2479SOL     OW19069   1.618   4.400   3.572 -0.6003  0.4105 -0.4980
 2479SOL    HW119070   1.579   4.400   3.660 -2.1532  0.4624 -1.1859
 2479SOL    HW219071   1.709   4.375   3.587 -0.4260  0.1328 -2.0251
 2480SOL     OW19072   1.197   2.177   5.799  0.8855 -0.2954  0.7048
 2480SOL    HW119073   1.112   2.208   5.832  0.7699 -0.1251  0.2486
 2480SOL    HW219074   1.186   2.214   5.712  1.0917  0.3364  0.9466
 2481SOL     OW19075   0.294   4.692   3.681 -0.1801 -0.0315 -0.3500
 2481SOL    HW119076   0.300   4.631   3.754  0.9583 -0.2606 -0.6367
 2481SOL    HW219077   0.228   4.647   3.627 -1.8931  0.5543  1.2506
 2482SOL     OW19078   2.666   1.510  12.812  0.3568  0.0668  0.3937
 2482SOL    HW119079   2.621   1.527  12.730  0.3435  1.8743  0.7830
 2482SOL    HW219080   2.753   1.494  12.775  0.0223 -1.3553  0.2172
 2483SOL     OW19081   1.166   2.989  13.812 -0.2381  0.0249  0.2875
 2483SOL    HW119082   1.130   3.068  13.853 -1.5327 -0.2312 -0.3516
 2483SOL    HW219083   1.091   2.949  13.767  1.0038  0.6772 -2.3886
 2484SOL     OW19084   3.575   1.526  14.497  0.2994  0.0063  0.1375
 2484SOL    HW119085   3.494   1.489  14.461  0.4700  1.8520 -2.1666
 2484SOL    HW219086   3.559   1.619  14.510 -3.2101 -0.7582  1.3798
 2485SOL     OW19087   0.585   2.449  12.714  0.2591  0.3562  0.1264
 2485SOL    HW119088   0.516   2.390  12.687  0.3213  0.9444 -1.3353
 2485SOL    HW219089   0.609   2.491  12.631  0.7580  0.1335  0.1586
 2486SOL     OW19090   0.851   4.223   2.336  0.3043 -0.9588  0.0382
 2486SOL    HW119091   0.756   4.226   2.349  0.5965  0.1772  2.0084
 2486SOL    HW219092   0.887   4.179   2.413 -0.7276 -0.8580  0.5772
 2487SOL     OW19093   2.316   1.320   7.633  0.2900 -0.7857  0.4749
 2487SOL    HW119094   2.282   1.244   7.680  0.2799 -1.5333 -0.7565
 2487SOL    HW219095   2.254   1.390   7.651  0.7313  0.1588 -1.6805
 2488SOL     OW19096   1.804   3.525   4.674  0.5140  0.2624  0.2675
 2488SOL    HW119097   1.770   3.457   4.615 -1.3779  1.1132  0.3517
 2488SOL    HW219098   1.827   3.477   4.753 -1.6021 -0.5530  0.4105
 2489SOL     OW19099   2.775   4.071  10.108  0.6125  0.3748  0.2372
 2489SOL    HW119100   2.732   3.998  10.064 -0.8278  1.0015  0.5892
 2489SOL    HW219101   2.738   4.140  10.053  3.2853  1.3310 -0.3790
 2490SOL     OW19102   0.743   3.537   9.438  0.5357 -0.1165 -0.5020
 2490SOL    HW119103   0.816   3.522   9.378  1.3435  1.5553  0.0539
 2490SOL    HW219104   0.745   3.632   9.448 -3.0470  0.0373 -1.3255
 2491SOL     OW19105   2.014   2.845  10.901  0.0924  0.0807 -0.2327
 2491SOL    HW119106   2.087   2.861  10.961 -0.1885 -2.0107  0.6397
 2491SOL    HW219107   1.942   2.830  10.962  0.3679 -2.8709 -0.6323
 2492SOL     OW19108   0.772   2.175   5.901 -0.7333 -0.2905 -0.5634
 2492SOL    HW119109   0.779   2.233   5.977 -4.2235 -0.8623  0.1739
 2492SOL    HW219110   0.816   2.106   5.951  0.6385  1.9013  1.2638
 2493SOL     OW19111   3.941   4.697   7.793 -0.5836 -0.0097  0.4564
 2493SOL    HW119112   3.871   4.711   7.857 -1.7097 -2.5610 -0.2126
 2493SOL    HW219113   3.895   4.692   7.709 -0.4724  0.1674  0.3839
 2494SOL     OW19114   1.519   2.539   0.779  0.4641  0.1009  0.1044
 2494SOL    HW119115   1.600   2.491   0.797  0.0092 -0.5694  0.3485
 2494SOL    HW219116   1.466   2.488   0.840 -0.2805  1.8678  0.9283
 2495SOL     OW19117   4.032   0.153   9.249  0.0785 -0.4128  0.4794
 2495SOL    HW119118   4.027   0.218   9.319 -1.7494  0.5434 -0.5148
 2495SOL    HW219119   4.024   0.072   9.298  0.8234 -1.0342 -0.4315
 2496SOL     OW19120   0.966   2.648   2.395 -0.3411 -0.2569 -0.8033
 2496SOL    HW119121   0.921   2.565   2.411  1.3246 -1.0340 -0.2402
 2496SOL    HW219122   1.002   2.637   2.308 -0.7054 -1.9433 -0.7305
 2497SOL     OW19123   4.589   4.447   1.906 -0.1091 -0.5998  0.0356
 2497SOL    HW119124   4.618   4.375   1.961  1.6047  0.2219  0.2080
 2497SOL    HW219125   4.665   4.505   1.915  0.1672 -1.0976  0.8544
 2498SOL     OW19126   1.169   4.337   3.744 -0.2829 -0.1453  0.1799
 2498SOL    HW119127   1.192   4.418   3.698 -3.1904  0.8464  0.5012
 2498SOL    HW219128   1.092   4.299   3.701 -2.6341  2.3807  2.1915
 2499SOL     OW19129   0.242   4.127   7.016 -0.2512 -0.3084  0.2583
 2499SOL    HW119130   0.205   4.079   6.942 -0.8848  0.9500 -0.2487
 2499SOL    HW219131   0.171   4.184   7.046 -0.6074 -0.2375 -0.7009
 2500SOL     OW19132   1.450   3.842   6.100 -0.5411 -0.2870 -0.7092
 2500SOL    HW119133   1.469   3.903   6.172  0.0564 -0.7602 -0.4593
 2500SOL    HW219134   1.493   3.898   6.035  1.6028 -0.6244  0.4235
 2501SOL     OW19135   3.859   1.790   2.485  0.4448  0.4127  0.1543
 2501SOL    HW119136   3.823   1.846   2.416  1.2588 -1.5863 -1.8769
 2501SOL    HW219137   3.925   1.852   2.518  1.3832 -0.0675 -0.8230
 2502SOL     OW19138   2.986   1.153   4.474  0.1502  0.3555  0.1196
 2502SOL    HW119139   3.066   1.201   4.494  0.2194  0.0852  0.4974
 2502SOL    HW219140   2.980   1.088   4.545  1.7258  0.1548  0.0771
 2503SOL     OW19141   1.116   2.500   5.247  0.4531  0.2462 -0.1488
 2503SOL    HW119142   1.037   2.544   5.218  0.4099  1.1657  1.3797
 2503SOL    HW219143   1.121   2.416   5.201  0.2693 -0.7164  1.5843
 2504SOL     OW19144   2.063   2.464  17.035  0.5526 -0.2723  0.0030
 2504SOL    HW119145   2.111   2.524  16.978 -0.8301  0.3070 -0.5633
 2504SOL    HW219146   2.127   2.393  17.042 -2.9119 -3.5546 -1.7518
 2505SOL     OW19147   1.151   3.707   7.724 -0.5066  0.3514  0.1572
 2505SOL    HW119148   1.186   3.795   7.739  1.4108 -0.3882  0.1306
 2505SOL    HW219149   1.067   3.714   7.680  0.2223 -0.8644 -1.4475
 2506SOL     OW19150   1.747   4.108  17.125 -0.6711  0.0957 -0.1290
 2506SOL    HW119151   1.730   4.050  17.051 -0.1341 -0.8716  0.5093
 2506SOL    HW219152   1.660   4.141  17.148 -0.5071 -0.1475  0.8498
 2507SOL     OW19153   4.712   2.120  14.667 -0.2829 -0.1607 -0.8352
 2507SOL    HW119154   0.065   2.089  14.662 -0.0262  0.7137 -1.7666
 2507SOL    HW219155   4.666   2.036  14.664  0.2302 -0.3724 -2.7760
 2508SOL     OW19156   0.220   0.716  13.269  0.2383  0.3731 -0.3061
 2508SOL    HW119157   0.291   0.754  13.217  0.2136  1.3198  0.3744
 2508SOL    HW219158   0.272   0.639  13.292 -0.3649 -0.3400 -1.3186
 2509SOL     OW19159   1.612   2.243   2.988 -0.0756  0.2347 -0.0725
 2509SOL    HW119160   1.572   2.170   2.942  0.8831 -0.5403  0.3285
 2509SOL    HW219161   1.612   2.314   2.923 -1.9664  1.1083  0.8918
 2510SOL     OW19162   2.679   3.949  10.859  0.8763  0.0050  0.4894
 2510SOL    HW119163   2.629   3.976  10.936 -1.2981  0.5798 -1.1436
 2510SOL    HW219164   2.629   3.874  10.829  0.9453  0.6738 -1.2619
 2511SOL     OW19165   1.162   0.252   4.466 -0.2580  0.1400 -0.5665
 2511SOL    HW119166   1.116   0.331   4.436  0.1955  0.3239 -0.7760
 2511SOL    HW219167   1.106   0.188   4.423  0.7647  0.2782 -2.1078
 2512SOL     OW19168   0.772   0.322   0.094 -0.1496 -0.5217 -0.1051
 2512SOL    HW119169   0.696   0.372   0.125  0.3867  0.4921 -0.4011
 2512SOL    HW219170   0.784   0.354   0.004  1.1717  1.0951  0.6386
 2513SOL     OW19171   3.567   0.469   7.628 -0.9130  0.0613  0.0227
 2513SOL    HW119172   3.490   0.428   7.589  0.2450  0.3726 -2.6085
 2513SOL    HW219173   3.621   0.489   7.551  0.0258 -0.0871  0.6402
 2514SOL     OW19174   2.658   0.821   6.649  0.0678 -0.1853  0.4142
 2514SOL    HW119175   2.633   0.744   6.700 -1.8663  0.2451  0.1336
 2514SOL    HW219176   2.689   0.773   6.573  2.6625  0.8713  0.8074
 2515SOL     OW19177   4.605   0.303   2.446 -0.0781 -0.3816 -0.5505
 2515SOL    HW119178   4.517   0.334   2.422  0.2386  1.1979  0.3788
 2515SOL    HW219179   4.632   0.361   2.517  1.0080  0.6280 -1.8059
 2516SOL     OW19180   2.331   3.469   7.111  0.4288 -0.0592 -0.7790
 2516SOL    HW119181   2.279   3.391   7.092 -1.3872  1.0007 -0.2331
 2516SOL    HW219182   2.293   3.535   7.052  1.1050 -0.5891 -1.8046
 2517SOL     OW19183   1.010   3.955  17.409 -0.0416 -0.3562 -0.2683
 2517SOL    HW119184   1.017   3.879  17.351  0.8073 -0.6231  0.1799
 2517SOL    HW219185   1.091   3.934  17.457 -0.6214 -0.1083  0.8197
 2518SOL     OW19186   1.826   0.821   6.158  0.4984  0.1327  0.7503
 2518SOL    HW119187   1.913   0.800   6.124  0.7649 -0.5041  1.8148
 2518SOL    HW219188   1.818   0.752   6.224  1.4402  0.4189  1.1620
 2519SOL     OW19189   3.427   4.106  13.526  0.9538 -0.1631 -0.1060
 2519SOL    HW119190   3.435   4.055  13.607 -0.6358  0.1051  0.2242
 2519SOL    HW219191   3.406   4.191  13.565  0.1016  0.1041 -1.1613
 2520SOL     OW19192   0.377   2.487  11.379 -0.1255 -0.5241 -0.5256
 2520SOL    HW119193   0.438   2.512  11.310  0.2164  0.1830  0.0383
 2520SOL    HW219194   0.319   2.429  11.329 -1.5147  1.0045 -0.6766
 2521SOL     OW19195   3.987   1.031   9.653 -0.0322  0.1735 -0.3898
 2521SOL    HW119196   3.895   1.006   9.650 -0.4666  1.7022 -0.1276
 2521SOL    HW219197   4.027   0.957   9.609  1.5008  1.6831 -1.5448
 2522SOL     OW19198   2.315   1.305  12.243  0.5081 -0.2396  0.2130
 2522SOL    HW119199   2.389   1.249  12.219  0.4831  0.0608 -0.5831
 2522SOL    HW219200   2.358   1.388  12.225 -0.3202 -0.1345 -1.2843
 2523SOL     OW19201   3.360   3.490   9.500  0.0095 -0.4428  0.4530
 2523SOL    HW119202   3.426   3.506   9.433  0.4687 -0.5144  0.8846
 2523SOL    HW219203   3.406   3.488   9.584  1.5909 -0.4551 -0.4191
 2524SOL     OW19204   2.632   1.171  14.480 -0.0098 -0.2333 -0.3417
 2524SOL    HW119205   2.696   1.242  14.474 -0.0429 -0.2757 -1.2272
 2524SOL    HW219206   2.647   1.130  14.394 -2.1113 -2.2232  0.2442
 2525SOL     OW19207   2.907   1.807   2.273  0.1619  0.6203 -1.1090
 2525SOL    HW119208   2.934   1.880   2.330 -0.4527  1.2866 -1.6751
 2525SOL    HW219209   2.833   1.851   2.232 -0.6677  0.1508 -0.0911
 2526SOL     OW19210   3.171   2.946   1.994  0.1674  0.3980 -0.2219
 2526SOL    HW119211   3.105   2.958   1.925 -2.1612 -1.0893  1.7283
 2526SOL    HW219212   3.110   2.892   2.045 -0.0522  0.3770 -0.5054
 2527SOL     OW19213   4.459   1.300   3.733  0.2021 -0.5316  0.1068
 2527SOL    HW119214   4.381   1.266   3.688 -0.2453  1.1225 -0.3778
 2527SOL    HW219215   4.489   1.225   3.783  1.5446 -0.8885 -1.2159
 2528SOL     OW19216   1.951   0.561   1.772  0.7404  0.2859  0.1158
 2528SOL    HW119217   1.926   0.527   1.686  2.5102 -2.2260  0.6185
 2528SOL    HW219218   2.045   0.553   1.756  0.8318  2.1754 -0.3353
 2529SOL     OW19219   1.862   3.309  11.758  0.0289  0.7480 -0.0085
 2529SOL    HW119220   1.855   3.382  11.696  2.0163  0.0936 -1.0091
 2529SOL    HW219221   1.930   3.257  11.714 -1.0527 -0.4371 -0.2860
 2530SOL     OW19222   0.331   2.961  14.223 -0.1449 -0.2647 -0.1314
 2530SOL    HW119223   0.283   2.881  14.244  0.8852 -0.5168  1.2547
 2530SOL    HW219224   0.258   3.008  14.183  0.7065  2.0613  1.0603
 2531SOL     OW19225   2.821   3.684  10.315  0.1403  0.2496 -0.0694
 2531SOL    HW119226   2.897   3.642  10.274 -0.3824  0.8333 -1.6509
 2531SOL    HW219227   2.867   3.749  10.368 -1.0440  0.9580  0.1018
 2532SOL     OW19228   3.610   1.280   8.045 -0.3239 -0.0066 -0.3300
 2532SOL    HW119229   3.555   1.203   8.026  0.8694 -0.6314 -1.2631
 2532SOL    HW219230   3.640   1.252   8.131  0.1658  0.1238 -0.4615
 2533SOL     OW19231   3.192   3.150  14.723  0.4235  0.7663 -0.3069
 2533SOL    HW119232   3.105   3.114  14.742  1.4885 -1.6921 -0.1824
 2533SOL    HW219233   3.171   3.198  14.643 -1.9904  0.3161  0.0492
 2534SOL     OW19234   4.650   4.274  15.945 -0.4684  0.2179 -0.2115
 2534SOL    HW119235   4.646   4.238  16.033 -0.2289  2.4424  0.7083
 2534SOL    HW219236   0.006   4.293  15.932 -0.1774 -0.5856  0.7575
 2535SOL     OW19237   0.339   3.669   6.858  0.0555 -0.3568  0.0990
 2535SOL    HW119238   0.325   3.635   6.946 -1.0491  1.3860  0.5918
 2535SOL    HW219239   0.332   3.591   6.803 -1.7299 -1.4888  1.9520
 2536SOL     OW19240   3.644   2.853   6.268 -0.3309 -0.3033 -0.5224
 2536SOL    HW119241   3.575   2.849   6.202  0.1693  2.9222 -1.2400
 2536SOL    HW219242   3.592   2.866   6.347 -0.1372 -1.4892 -0.1948
 2537SOL     OW19243   2.758   2.815   7.884 -0.0947  0.1878  0.3615
 2537SOL    HW119244   2.850   2.840   7.890 -0.9254  2.5940  3.1589
 2537SOL    HW219245   2.763   2.730   7.840 -1.2285  0.3186 -0.0399
 2538SOL     OW19246   1.579   3.455  12.108 -0.2026 -0.0902 -0.2795
 2538SOL    HW119247   1.665   3.419  12.091  0.7896  1.9156  0.4568
 2538SOL    HW219248   1.530   3.374  12.119 -2.3686  1.0055 -1.7226
 2539SOL     OW19249   4.132   2.262  11.269  0.1049 -0.0703 -0.2193
 2539SOL    HW119250   4.136   2.291  11.360  0.3227 -0.7811 -0.0002
 2539SOL    HW219251   4.210   2.310  11.244  0.2183 -0.0998  0.0816
 2540SOL     OW19252   4.593   3.872   9.372 -0.1080  0.1079  0.0078
 2540SOL    HW119253   4.679   3.874   9.415 -0.5566 -4.5417  1.1056
 2540SOL    HW219254   4.557   3.792   9.410  0.7246 -0.3166 -0.1003
 2541SOL     OW19255   0.326   3.273  10.765 -0.0111 -0.3215  0.5250
 2541SOL    HW119256   0.311   3.266  10.859 -0.0882 -1.2438  0.4400
 2541SOL    HW219257   0.243   3.245  10.726 -0.9500  1.9253  0.8945
 2542SOL     OW19258   2.330   1.057   8.114 -0.2984 -0.2727 -0.1562
 2542SOL    HW119259   2.332   0.969   8.152  1.1727 -0.2270 -0.1173
 2542SOL    HW219260   2.397   1.058   8.045  1.3176  1.4884  1.4213
 2543SOL     OW19261   0.179   4.573  15.015 -0.2435  0.1956  0.1619
 2543SOL    HW119262   0.151   4.612  14.932 -2.4858 -0.9292  0.3735
 2543SOL    HW219263   0.146   4.647  15.067 -0.4061  1.5609 -1.8771
 2544SOL     OW19264   3.004   3.849   1.989  0.4905  0.7085 -0.3242
 2544SOL    HW119265   3.054   3.836   1.907  2.9241 -1.6853  1.5174
 2544SOL    HW219266   3.034   3.939   2.002  1.6364 -0.0812  2.4482
 2545SOL     OW19267   3.383   2.242   9.630  0.2398  0.1734  0.4574
 2545SOL    HW119268   3.304   2.237   9.683  0.1468 -3.0295 -0.0084
 2545SOL    HW219269   3.452   2.211   9.689  0.1746 -1.9125 -0.5844
 2546SOL     OW19270   0.340   4.440   6.860  0.3748 -0.2098 -0.1486
 2546SOL    HW119271   0.270   4.428   6.925 -0.5353 -0.6404 -1.2055
 2546SOL    HW219272   0.407   4.386   6.901 -0.6747 -1.0384  0.4942
 2547SOL     OW19273   1.397   2.788  12.707  0.3702  0.7757  0.2030
 2547SOL    HW119274   1.312   2.805  12.747  0.5009  0.0648  0.7815
 2547SOL    HW219275   1.394   2.832  12.622  2.4229 -1.3611 -0.9777
 2548SOL     OW19276   1.350   0.423   5.407 -0.1587  0.3643 -0.2193
 2548SOL    HW119277   1.347   0.403   5.314 -2.1606 -1.0890  0.1763
 2548SOL    HW219278   1.307   0.507   5.418 -3.8948 -1.5059 -0.6845
 2549SOL     OW19279   2.804   3.455   9.198  0.0339 -0.5859 -0.0383
 2549SOL    HW119280   2.772   3.479   9.285  0.7752  0.1476  0.0298
 2549SOL    HW219281   2.763   3.369   9.189 -2.1805  0.4965 -0.3533
 2550SOL     OW19282   4.352   0.317   6.452  0.3399  0.0481 -0.1916
 2550SOL    HW119283   4.260   0.316   6.422  0.1481  0.3518  0.3946
 2550SOL    HW219284   4.353   0.379   6.525  2.0607 -1.0251  0.6823
 2551SOL     OW19285   1.185   0.158   5.920 -0.4648  0.7399 -0.1065
 2551SOL    HW119286   1.243   0.183   5.847  1.2171 -0.9717  0.6276
 2551SOL    HW219287   1.176   0.063   5.927  1.2414  0.6558  0.8424
 2552SOL     OW19288   1.898   0.244   5.742 -0.1715  0.0884  0.2325
 2552SOL    HW119289   1.993   0.238   5.753 -0.2052  2.8017  1.9936
 2552SOL    HW219290   1.888   0.189   5.664  1.6555  1.5884 -1.0456
 2553SOL     OW19291   0.302   1.007   7.209 -0.1302 -0.1102 -0.3633
 2553SOL    HW119292   0.357   1.075   7.249 -0.6466 -0.3852  0.7888
 2553SOL    HW219293   0.227   1.003   7.268  1.2898 -2.2969  1.2817
 2554SOL     OW19294   0.804   4.654   6.788  0.2655  0.1021  0.2118
 2554SOL    HW119295   0.793   4.684   6.879 -0.3471  1.2921 -0.2593
 2554SOL    HW219296   0.779   4.735   6.743 -1.1881 -0.0958  0.6408
 2555SOL     OW19297   2.226   2.029   6.496 -0.2510  0.1038  0.2593
 2555SOL    HW119298   2.198   2.035   6.588  1.6768  1.0832  0.7827
 2555SOL    HW219299   2.267   1.943   6.499 -0.0519  0.2591  1.9095
 2556SOL     OW19300   0.221   2.079   8.285  0.4294 -0.0227 -0.2797
 2556SOL    HW119301   0.301   2.097   8.334 -1.0068 -0.8360  2.3776
 2556SOL    HW219302   0.258   2.065   8.198 -0.5670 -0.5006 -0.6236
 2557SOL     OW19303   1.011   2.226  13.510  0.2926  0.2850  0.4747
 2557SOL    HW119304   1.065   2.153  13.482  0.5685  0.1466  1.3858
 2557SOL    HW219305   0.977   2.202  13.596  2.4450  0.6396  1.4121
 2558SOL     OW19306   1.903   0.195   3.493 -0.1100 -0.1888 -0.1141
 2558SOL    HW119307   1.877   0.223   3.405  1.0463  2.0211  0.2289
 2558SOL    HW219308   1.945   0.274   3.529  1.5315 -0.1808 -2.0559
 2559SOL     OW19309   3.928   0.376   0.569  0.4453 -0.1406  0.7072
 2559SOL    HW119310   3.982   0.413   0.499  1.3393 -0.9511  0.9661
 2559SOL    HW219311   3.965   0.291   0.547 -0.4944 -0.2447 -0.4909
 2560SOL     OW19312   1.467   3.258  13.159 -0.2164  0.2660  0.4526
 2560SOL    HW119313   1.395   3.263  13.221 -0.3206  1.3639  0.2585
 2560SOL    HW219314   1.501   3.170  13.176 -0.0866  0.3353  0.5536
 2561SOL     OW19315   3.617   1.919   4.162  0.7608  0.1083  0.0185
 2561SOL    HW119316   3.528   1.887   4.174  0.4909  1.0862  0.6450
 2561SOL    HW219317   3.612   2.014   4.166  0.0799  0.0555  0.5051
 2562SOL     OW19318   4.393   0.699   5.004  0.1596  0.0755  0.5882
 2562SOL    HW119319   4.459   0.746   5.054 -0.7694  1.4797  0.4880
 2562SOL    HW219320   4.311   0.740   5.031 -2.0572 -3.1568 -1.2706
 2563SOL     OW19321   3.872   4.462   4.593 -0.1386  0.4631  0.3594
 2563SOL    HW119322   3.879   4.532   4.659  2.1081  1.2904 -0.7693
 2563SOL    HW219323   3.878   4.517   4.515 -1.4950 -0.8621 -0.6688
 2564SOL     OW19324   1.495   4.428   4.996  0.4591 -0.1272 -0.1342
 2564SOL    HW119325   1.415   4.466   5.034  1.1611  2.9000 -1.6799
 2564SOL    HW219326   1.476   4.339   4.967 -3.4179  0.8620 -0.7667
 2565SOL     OW19327   1.113   4.004   9.126  0.3008 -0.2703  0.1364
 2565SOL    HW119328   1.172   3.957   9.066  1.4683  0.2876  0.8495
 2565SOL    HW219329   1.116   4.097   9.102  0.7998 -1.0831 -2.9877
 2566SOL     OW19330   2.283   4.441  13.034 -0.6025 -0.3756 -0.2921
 2566SOL    HW119331   2.336   4.519  13.051  0.4943 -1.1800 -0.0542
 2566SOL    HW219332   2.198   4.479  13.010  0.1219 -0.3151 -2.7294
 2567SOL     OW19333   0.966   0.330   5.886 -0.1656  0.0382  0.1500
 2567SOL    HW119334   1.038   0.267   5.895  0.6808  0.7534 -1.7045
 2567SOL    HW219335   0.973   0.386   5.963 -1.4005 -0.6825  0.8014
 2568SOL     OW19336   2.576   2.837   9.118 -0.7892 -0.3684 -0.3107
 2568SOL    HW119337   2.519   2.782   9.065 -2.5737 -0.6163  1.8781
 2568SOL    HW219338   2.537   2.924   9.117  2.2214  0.9637 -0.4586
 2569SOL     OW19339   2.883   0.452   4.608 -0.1947 -0.1748 -0.6934
 2569SOL    HW119340   2.791   0.435   4.589 -0.3163  1.2130 -1.3464
 2569SOL    HW219341   2.906   0.380   4.666  1.1324  1.4575  0.7873
 2570SOL     OW19342   3.275   1.872   7.299 -0.1423 -0.1018 -0.1330
 2570SOL    HW119343   3.243   1.851   7.211  0.2322 -0.8828 -0.0740
 2570SOL    HW219344   3.298   1.784   7.328  1.2205  0.2519 -0.1353
 2571SOL     OW19345   2.477   2.904   2.358  0.0480 -0.0372  0.0153
 2571SOL    HW119346   2.390   2.875   2.388 -0.4795  2.2540  0.7758
 2571SOL    HW219347   2.537   2.858   2.417 -0.6428  0.3220  1.0156
 2572SOL     OW19348   4.012   1.093  16.527 -0.4037  0.0373  0.0763
 2572SOL    HW119349   4.076   1.023  16.512  0.2614  0.1854  2.2272
 2572SOL    HW219350   4.061   1.173  16.511 -0.2699  0.2072  1.2987
 2573SOL     OW19351   2.886   3.517  13.281  0.0504  0.2799 -0.7273
 2573SOL    HW119352   2.797   3.552  13.282  0.1790  0.6517 -2.4074
 2573SOL    HW219353   2.933   3.599  13.267 -0.8033  0.9372  0.2525
 2574SOL     OW19354   3.719   1.295   9.744  0.1857  0.0515 -0.6532
 2574SOL    HW119355   3.662   1.371   9.756  2.4297  1.4757  1.0003
 2574SOL    HW219356   3.702   1.245   9.824 -2.8314 -0.5876 -1.6855
 2575SOL     OW19357   2.750   4.094   7.031 -0.2540 -0.2808  0.5419
 2575SOL    HW119358   2.754   4.092   6.935 -1.0823 -1.7369  0.5319
 2575SOL    HW219359   2.655   4.086   7.038 -0.5947  0.2552 -3.0111
 2576SOL     OW19360   0.518   2.221  12.413 -0.6287 -0.6051  0.1724
 2576SOL    HW119361   0.544   2.308  12.444 -1.4965 -1.1101  2.3112
 2576SOL    HW219362   0.479   2.192  12.496 -0.1670  0.1098  0.6362
 2577SOL     OW19363   0.630   2.926   5.875  0.4772  0.0109  0.7660
 2577SOL    HW119364   0.563   2.925   5.807  0.5222  0.6893  0.7108
 2577SOL    HW219365   0.582   2.929   5.957  0.4566  0.3490  0.7411
 2578SOL     OW19366   3.659   2.790   6.705  0.5567  0.0710 -0.0004
 2578SOL    HW119367   3.743   2.750   6.681  1.2559 -0.0730  2.6694
 2578SOL    HW219368   3.602   2.713   6.700 -0.0700  0.5914 -0.6607
 2579SOL     OW19369   2.069   1.551   3.967 -1.1343  0.7562  0.3416
 2579SOL    HW119370   2.082   1.457   3.968  1.1985  1.0817  0.5757
 2579SOL    HW219371   1.997   1.553   3.904  0.2168  2.0204 -1.1927
 2580SOL     OW19372   2.401   1.542   3.855 -0.1616 -0.3337  0.1840
 2580SOL    HW119373   2.337   1.512   3.791 -1.7504  0.4207  1.4100
 2580SOL    HW219374   2.343   1.556   3.929 -0.1110 -0.3587  0.2286
 2581SOL     OW19375   2.357   2.169   8.398 -0.0061  0.1750 -0.2564
 2581SOL    HW119376   2.263   2.177   8.379 -0.1817 -0.6745  0.2385
 2581SOL    HW219377   2.360   2.150   8.492  1.8092 -0.5843 -0.4832
 2582SOL     OW19378   3.761   1.563   2.354  0.4049 -0.2532  0.4189
 2582SOL    HW119379   3.800   1.642   2.393  1.6807 -0.7607  0.1801
 2582SOL    HW219380   3.688   1.597   2.302  0.2501 -2.1667 -0.5897
 2583SOL     OW19381   0.748   1.042   1.476  0.6151  0.2250 -0.7233
 2583SOL    HW119382   0.683   1.003   1.418 -0.8086  1.3956  0.1021
 2583SOL    HW219383   0.824   1.003   1.431  1.2935  1.8312 -0.9449
 2584SOL     OW19384   0.878   0.935   4.670  0.0601 -0.5177  0.2944
 2584SOL    HW119385   0.892   0.899   4.758 -1.6510 -1.1028  0.3308
 2584SOL    HW219386   0.923   1.018   4.686  2.2093 -1.7244  0.5720
 2585SOL     OW19387   3.431   1.189   1.495  0.3382  0.0629 -0.3858
 2585SOL    HW119388   3.399   1.159   1.581 -0.6661  0.1499 -0.7227
 2585SOL    HW219389   3.360   1.234   1.450  1.4848  1.3854 -0.8476
 2586SOL     OW19390   1.965   1.595   7.472  0.4489  0.3234 -0.3094
 2586SOL    HW119391   1.901   1.540   7.427 -1.0339  0.6860  1.3434
 2586SOL    HW219392   1.991   1.644   7.395  0.4025  0.6908 -0.0900
 2587SOL     OW19393   4.497   3.260   8.154  0.2921 -0.8199  0.4703
 2587SOL    HW119394   4.463   3.171   8.162  1.7767 -1.7389 -3.6317
 2587SOL    HW219395   4.544   3.282   8.235  0.6399 -0.3923  0.1523
 2588SOL     OW19396   2.057   3.606  14.346  0.2484 -0.4283  0.9364
 2588SOL    HW119397   2.040   3.543  14.416 -0.7372 -0.8515  0.3279
 2588SOL    HW219398   2.148   3.613  14.374  0.6808  0.3771 -0.6801
 2589SOL     OW19399   0.493   3.854  15.824 -0.0215  0.1193 -0.6817
 2589SOL    HW119400   0.410   3.820  15.790 -1.0286 -0.7419  2.7221
 2589SOL    HW219401   0.548   3.776  15.828  0.0882  0.2455  0.1230
 2590SOL     OW19402   2.664   0.197   3.958  0.2524  0.1039  0.5934
 2590SOL    HW119403   2.653   0.103   3.944  1.3225 -0.1856  1.7205
 2590SOL    HW219404   2.746   0.198   4.007 -0.6993 -0.0947  2.1872
 2591SOL     OW19405   2.860   3.331   5.572  0.0526 -0.2330  0.6673
 2591SOL    HW119406   2.953   3.352   5.578  0.1857 -1.2682  2.5073
 2591SOL    HW219407   2.864   3.260   5.508 -0.5982  0.5537 -0.2391
 2592SOL     OW19408   2.952   0.245   5.972 -0.3212  0.1231  0.2426
 2592SOL    HW119409   2.939   0.263   6.065 -0.1170  0.7801  0.1497
 2592SOL    HW219410   3.039   0.206   5.974 -0.3573 -0.1054 -2.5454
 2593SOL     OW19411   0.073   2.035   2.838  0.3433 -0.3351 -0.3529
 2593SOL    HW119412   0.079   2.101   2.907 -1.3382  1.6072 -2.0438
 2593SOL    HW219413   4.728   2.050   2.790  0.3628  1.5929  0.2181
 2594SOL     OW19414   1.597   2.070   8.518  0.0151 -0.2398 -0.4871
 2594SOL    HW119415   1.628   2.145   8.569 -0.5806 -0.5704  0.3721
 2594SOL    HW219416   1.594   2.093   8.425  2.2162  0.9431 -0.2483
 2595SOL     OW19417   4.267   4.340   7.135 -0.7401 -0.2638  0.0872
 2595SOL    HW119418   4.290   4.247   7.129  1.0719  0.4281 -3.9597
 2595SOL    HW219419   4.337   4.383   7.086 -0.4193  0.7741  1.4588
 2596SOL     OW19420   2.886   2.068   1.214  0.6941  0.5405 -0.1944
 2596SOL    HW119421   2.950   2.102   1.277  0.8914 -1.8080  0.8966
 2596SOL    HW219422   2.821   2.138   1.223 -0.9874 -1.3662  2.7064
 2597SOL     OW19423   3.099   0.988   8.205 -0.4953 -0.1421  0.4767
 2597SOL    HW119424   3.158   0.920   8.176 -0.9690 -0.3826  0.0743
 2597SOL    HW219425   3.090   0.954   8.294 -2.5906 -1.1335 -0.1215
 2598SOL     OW19426   2.083   2.609  10.769  0.4595 -0.3815  0.1841
 2598SOL    HW119427   2.179   2.606  10.772  0.5359  1.3006 -0.3339
 2598SOL    HW219428   2.057   2.691  10.812  0.7240  0.5380 -1.4227
 2599SOL     OW19429   3.791   2.744   2.049  0.2583  0.6729  0.0241
 2599SOL    HW119430   3.879   2.710   2.061  0.8871  2.5567  0.8568
 2599SOL    HW219431   3.806   2.838   2.063  1.0334  0.3780  1.2520
 2600SOL     OW19432   1.999   2.343  13.259 -1.0425 -0.2103  0.0841
 2600SOL    HW119433   2.076   2.388  13.225 -1.3695  0.5520  0.3405
 2600SOL    HW219434   1.968   2.403  13.327 -1.1984  1.4547 -1.4693
 2601SOL     OW19435   4.093   1.397  14.494 -0.0438  0.5145 -0.1932
 2601SOL    HW119436   4.133   1.481  14.519 -0.9714  0.3467  1.8683
 2601SOL    HW219437   4.003   1.427  14.488 -0.6362 -2.2018 -3.9464
 2602SOL     OW19438   1.938   0.917  16.291  0.9555 -0.1615  0.6380
 2602SOL    HW119439   1.913   0.832  16.326 -0.7989 -0.0718 -0.4247
 2602SOL    HW219440   1.909   0.917  16.200  2.1405  1.8614  0.2487
 2603SOL     OW19441   0.072   3.827   1.722  0.5313  0.6927 -0.5340
 2603SOL    HW119442   0.112   3.824   1.809 -1.8784  0.1045  0.5405
 2603SOL    HW219443   0.123   3.763   1.673  0.2738  0.4581 -0.4929
 2604SOL     OW19444   1.197   0.134   6.589  0.0382  0.1381  0.2164
 2604SOL    HW119445   1.287   0.156   6.610  0.2269 -2.3818  2.1722
 2604SOL    HW219446   1.214   0.126   6.495 -0.2067 -3.7515  0.4778
 2605SOL     OW19447   3.410   2.130   5.049 -0.1640  0.1378  0.0971
 2605SOL    HW119448   3.411   2.093   4.961 -0.2272  0.4618 -0.0373
 2605SOL    HW219449   3.358   2.059   5.088  0.5019  0.8397  2.2831
 2606SOL     OW19450   2.867   1.534   5.226  0.0761  0.1459  0.5123
 2606SOL    HW119451   2.951   1.560   5.187  0.4621  1.6704  2.3959
 2606SOL    HW219452   2.847   1.458   5.171 -0.9478  0.9513 -0.2238
 2607SOL     OW19453   2.943   4.184  10.289  0.1221 -0.1493 -0.0900
 2607SOL    HW119454   2.942   4.112  10.352  0.4084 -0.0104  0.0742
 2607SOL    HW219455   2.892   4.139  10.222  2.0281 -0.3646 -1.4071
 2608SOL     OW19456   4.664   3.049   3.869  0.4696  0.2288 -0.0863
 2608SOL    HW119457   0.014   3.011   3.878  1.3991  2.6495  1.0574
 2608SOL    HW219458   4.674   3.124   3.927  2.0159  1.7120 -2.2736
 2609SOL     OW19459   0.094   4.397   0.624 -0.2418 -0.3086  0.2090
 2609SOL    HW119460   0.094   4.352   0.539  0.2629  1.4293 -0.7082
 2609SOL    HW219461   0.017   4.453   0.615  1.1565  1.3114 -1.5531
 2610SOL     OW19462   3.186   2.238  13.852 -0.2105  0.0838  0.3729
 2610SOL    HW119463   3.239   2.310  13.817  0.0034  1.1880  2.9491
 2610SOL    HW219464   3.114   2.262  13.792  0.9071  0.8454 -0.6730
 2611SOL     OW19465   0.408   3.163   0.325  0.0998  0.8192  0.1981
 2611SOL    HW119466   0.357   3.124   0.397 -2.0998 -0.3324 -1.9882
 2611SOL    HW219467   0.429   3.078   0.287 -0.5467  0.1970  1.2268
 2612SOL     OW19468   3.077   3.252   1.735  0.9351  0.4622  0.1562
 2612SOL    HW119469   3.125   3.243   1.818  0.2466  4.9018  1.0607
 2612SOL    HW219470   3.062   3.347   1.735 -0.3560  0.2631  0.9737
 2613SOL     OW19471   2.854   0.871   7.417  1.0007 -0.2586 -0.3534
 2613SOL    HW119472   2.922   0.916   7.367  0.5348 -1.0151 -1.6877
 2613SOL    HW219473   2.808   0.945   7.456  0.6482  0.1366 -1.5131
 2614SOL     OW19474   1.146   1.158   1.559 -0.0619 -0.7613  0.1189
 2614SOL    HW119475   1.238   1.178   1.580 -0.6307  0.3943  1.4899
 2614SOL    HW219476   1.130   1.186   1.469 -4.2807 -1.7001  0.6083
 2615SOL     OW19477   1.978   2.094   4.769 -0.1876  0.6829  0.7145
 2615SOL    HW119478   2.061   2.072   4.812 -0.3906 -2.1514 -0.3295
 2615SOL    HW219479   1.940   2.162   4.824  1.1890  1.2372  0.9826
 2616SOL     OW19480   0.813   3.836   3.871  1.0425  0.0231 -0.1513
 2616SOL    HW119481   0.877   3.815   3.939  0.3077  0.9069  0.8052
 2616SOL    HW219482   0.736   3.788   3.902  0.7141  0.9308  0.4256
 2617SOL     OW19483   2.839   0.642   4.260 -0.2248 -0.3049  0.0595
 2617SOL    HW119484   2.896   0.678   4.327 -0.2874 -0.3587  0.1408
 2617SOL    HW219485   2.752   0.682   4.266  0.3127  1.1423 -1.8141
 2618SOL     OW19486   4.673   1.339   1.257 -0.2678 -0.0935  0.4318
 2618SOL    HW119487   0.004   1.299   1.313 -0.5125 -1.9928 -0.6251
 2618SOL    HW219488   4.721   1.343   1.174 -0.1336  2.6959  0.6399
 2619SOL     OW19489   2.804   2.062   3.241  0.1172 -0.7699  0.4427
 2619SOL    HW119490   2.877   2.058   3.304 -1.9677 -1.3148  2.7989
 2619SOL    HW219491   2.817   2.156   3.228  1.8811 -1.2963 -1.6531
 2620SOL     OW19492   4.375   0.493   6.094  0.2231  0.0124 -0.1791
 2620SOL    HW119493   4.458   0.529   6.123  0.5916  0.5541 -1.8965
 2620SOL    HW219494   4.326   0.572   6.068 -0.3274 -0.2333  0.1035
 2621SOL     OW19495   3.993   2.862  10.596 -0.4130 -0.1639 -0.2455
 2621SOL    HW119496   4.000   2.864  10.692 -2.2089 -0.7883 -0.0871
 2621SOL    HW219497   3.955   2.775  10.587 -2.5965  0.5822  1.6639
 2622SOL     OW19498   1.880   4.118   6.937 -0.2082 -0.5800  0.0875
 2622SOL    HW119499   1.787   4.099   6.950 -0.4809  0.8090  0.1331
 2622SOL    HW219500   1.887   4.038   6.884 -0.1697 -0.9943  0.7117
 2623SOL     OW19501   4.008   2.875  10.870 -0.6032 -0.0353 -0.2639
 2623SOL    HW119502   3.980   2.967  10.871  0.6094  0.3228  0.0889
 2623SOL    HW219503   3.976   2.841  10.954  0.6152 -1.7318 -0.4772
 2624SOL     OW19504   2.051   0.541   9.215 -0.6071 -0.9328 -0.4327
 2624SOL    HW119505   2.143   0.519   9.202 -0.2100  1.0181 -0.8578
 2624SOL    HW219506   2.019   0.567   9.129 -0.0069  2.8713  0.4940
 2625SOL     OW19507   0.322   3.260  11.030 -0.2624 -0.0593  0.6563
 2625SOL    HW119508   0.276   3.211  11.098  1.7115 -1.0437  1.2707
 2625SOL    HW219509   0.399   3.287  11.081  0.6093 -0.0278 -0.6877
 2626SOL     OW19510   4.155   3.669   6.078  0.6714 -0.3294  0.1620
 2626SOL    HW119511   4.118   3.599   6.131  0.1015 -0.8267 -0.8948
 2626SOL    HW219512   4.089   3.737   6.093 -1.6465 -2.5970  0.1179
 2627SOL     OW19513   4.649   4.449  16.335  0.4566 -0.1432 -0.5879
 2627SOL    HW119514   4.567   4.482  16.298  0.6366  0.7875 -0.1553
 2627SOL    HW219515   4.631   4.366  16.378  0.1521  0.6095  0.7236
 2628SOL     OW19516   0.397   3.554  15.975 -0.4455  0.2283 -0.3962
 2628SOL    HW119517   0.414   3.460  15.976 -0.5064  0.2168 -0.5698
 2628SOL    HW219518   0.463   3.575  15.909  0.6284 -0.1100  0.5763
 2629SOL     OW19519   0.346   3.267   4.531  0.1391  0.2185  0.1258
 2629SOL    HW119520   0.431   3.242   4.495 -0.5617 -1.3566 -0.4254
 2629SOL    HW219521   0.306   3.326   4.467  0.4935 -1.7251 -1.8875
 2630SOL     OW19522   2.320   1.283  14.750  0.0415 -0.1751 -0.8255
 2630SOL    HW119523   2.337   1.377  14.751 -1.0867 -0.0039  2.8367
 2630SOL    HW219524   2.272   1.272  14.832  2.1905  0.2533  0.4874
 2631SOL     OW19525   0.825   3.475   4.671  0.4283  0.1963 -0.2159
 2631SOL    HW119526   0.819   3.475   4.576 -0.5796 -0.7595 -0.1471
 2631SOL    HW219527   0.766   3.405   4.696  0.9221  0.1165  0.7215
 2632SOL     OW19528   1.663   0.245   5.396 -0.6366 -0.0900 -0.8669
 2632SOL    HW119529   1.588   0.216   5.343 -0.0239 -1.8679 -0.7713
 2632SOL    HW219530   1.717   0.289   5.331 -2.1698  0.2013 -1.9540
 2633SOL     OW19531   0.068   1.687  12.420 -0.0261 -0.2653  0.0158
 2633SOL    HW119532   0.090   1.769  12.375 -1.8445 -0.1815 -0.6956
 2633SOL    HW219533   0.076   1.713  12.512  0.7822  0.9897 -0.4128
 2634SOL     OW19534   0.831   1.730  10.458 -0.0214 -0.2094  0.2339
 2634SOL    HW119535   0.924   1.740  10.437 -0.2731  2.8674  0.5273
 2634SOL    HW219536   0.820   1.776  10.542  0.2794  1.7548 -0.8118
 2635SOL     OW19537   3.827   4.558   8.933  0.0614 -0.1557 -0.2755
 2635SOL    HW119538   3.834   4.652   8.943 -1.1319  0.0230 -1.1429
 2635SOL    HW219539   3.828   4.537   9.026 -1.5749 -0.8728 -0.4033
 2636SOL     OW19540   1.973   4.302   7.127 -0.0958 -0.1709 -0.3649
 2636SOL    HW119541   1.918   4.253   7.066 -0.3891 -0.6032  0.2424
 2636SOL    HW219542   1.934   4.289   7.214 -1.1669 -1.6875 -1.0684
 2637SOL     OW19543   2.228   4.377   7.422  0.1177  0.0040 -0.4772
 2637SOL    HW119544   2.218   4.470   7.405 -2.7446 -0.3316 -0.5657
 2637SOL    HW219545   2.318   4.383   7.456 -1.2680  2.3971  2.6784
 2638SOL     OW19546   2.470   0.235   1.770 -0.3118  0.6264  0.1538
 2638SOL    HW119547   2.414   0.162   1.799 -1.0963  1.0255 -0.3607
 2638SOL    HW219548   2.505   0.272   1.851 -3.1063  1.5746  0.9027
 2639SOL     OW19549   2.004   2.092   7.742  0.1009  0.1666 -0.1343
 2639SOL    HW119550   2.082   2.139   7.771 -0.9663  1.2105  1.0413
 2639SOL    HW219551   1.948   2.090   7.820 -0.8013 -0.4208 -0.7937
 2640SOL     OW19552   3.551   0.807   4.648 -0.4424  0.2075 -0.6363
 2640SOL    HW119553   3.589   0.723   4.674  1.8964  1.4105 -0.1817
 2640SOL    HW219554   3.625   0.866   4.633 -0.8103  0.9181  0.4132
 2641SOL     OW19555   4.651   2.955   1.068  0.4284  0.0063  0.0670
 2641SOL    HW119556   4.707   2.924   1.139 -0.1368 -1.7710 -0.2579
 2641SOL    HW219557   4.644   2.870   1.025 -0.7815 -0.0839  0.4456
 2642SOL     OW19558   4.735   2.791   7.299  0.1257 -0.1080 -0.1862
 2642SOL    HW119559   4.643   2.792   7.272 -0.2973  1.8111  1.3219
 2642SOL    HW219560   0.031   2.880   7.287 -0.5636  0.2324  0.4640
 2643SOL     OW19561   0.625   0.677   8.092  0.2813  0.4879 -0.0968
 2643SOL    HW119562   0.634   0.626   8.011  0.7944  1.9996 -0.9990
 2643SOL    HW219563   0.690   0.745   8.077  1.5645 -0.8006 -0.2999
 2644SOL     OW19564   4.519   1.112  14.144 -0.6708  0.0633  0.6082
 2644SOL    HW119565   4.559   1.195  14.170  2.1038 -0.9065 -0.5367
 2644SOL    HW219566   4.434   1.144  14.115 -0.8578  1.7406  3.0089
 2645SOL     OW19567   3.106   0.019   7.467 -0.1368 -0.1346 -0.8336
 2645SOL    HW119568   3.169   0.063   7.410 -0.5867  0.7366 -0.6671
 2645SOL    HW219569   3.132   0.039   7.557  0.1477  0.4822 -1.0516
 2646SOL     OW19570   1.713   4.089  13.483  0.4444 -0.3010  0.0303
 2646SOL    HW119571   1.672   4.133  13.557 -1.6268  1.1427 -2.0012
 2646SOL    HW219572   1.710   3.996  13.505  0.7084  0.2392  2.4068
 2647SOL     OW19573   2.109   2.637   2.293 -0.0070  0.1187  0.5225
 2647SOL    HW119574   2.041   2.586   2.336  0.5719 -0.8464  0.2831
 2647SOL    HW219575   2.066   2.655   2.209 -1.9206  0.2245  1.5470
 2648SOL     OW19576   1.899   2.137   6.520 -0.3171  0.0521 -0.4775
 2648SOL    HW119577   1.895   2.186   6.603  3.2608  0.6569 -0.6780
 2648SOL    HW219578   1.986   2.099   6.521 -0.4024 -0.1860 -3.2083
 2649SOL     OW19579   2.249   2.990   4.219  0.0273  0.1295 -0.1833
 2649SOL    HW119580   2.300   2.951   4.148  1.3909  1.4918  0.0717
 2649SOL    HW219581   2.298   3.069   4.237 -1.7901  1.5797 -1.6018
 2650SOL     OW19582   3.179   0.499  16.797 -1.1489 -0.3577 -0.2073
 2650SOL    HW119583   3.169   0.462  16.709  1.1425 -1.2360 -0.0985
 2650SOL    HW219584   3.111   0.566  16.798  0.0766  0.8518  0.1957
 2651SOL     OW19585   0.417   0.910  11.920 -0.3362  0.1395  0.0688
 2651SOL    HW119586   0.409   0.817  11.901 -1.6771  0.1940  0.3412
 2651SOL    HW219587   0.446   0.912  12.011 -2.2793 -0.4045  0.7192
 2652SOL     OW19588   3.626   1.715   3.137 -0.2398  0.0514  0.1872
 2652SOL    HW119589   3.612   1.656   3.211  2.3527  0.3655  0.9243
 2652SOL    HW219590   3.597   1.796   3.179 -0.8334 -0.3272  0.5118
 2653SOL     OW19591   3.980   3.450   9.996  0.5001 -0.1019  0.1865
 2653SOL    HW119592   3.942   3.516  10.054  2.2513  1.7561 -0.7646
 2653SOL    HW219593   3.916   3.462   9.925  1.7585 -1.8385 -1.2487
 2654SOL     OW19594   4.292   1.409   4.573  0.2414 -0.1599  0.3771
 2654SOL    HW119595   4.348   1.351   4.522  0.7910  2.5017 -2.0311
 2654SOL    HW219596   4.211   1.358   4.579 -0.4088  0.9685  1.3408
 2655SOL     OW19597   2.383   0.059   9.876  0.9094  0.3831  0.6579
 2655SOL    HW119598   2.421   0.128   9.822 -0.6239  1.3151  0.7541
 2655SOL    HW219599   2.380   4.735   9.802 -0.5602 -0.3724  1.3297
 2656SOL     OW19600   1.765   3.884   6.827 -0.0572 -0.3112 -0.6149
 2656SOL    HW119601   1.676   3.882   6.791  0.0090 -2.0702 -0.7108
 2656SOL    HW219602   1.779   3.794   6.856 -0.1595 -0.0519  0.2539
 2657SOL     OW19603   2.311   3.236   4.745  0.3315 -0.5608  0.8054
 2657SOL    HW119604   2.380   3.236   4.678  0.0492  0.7860  0.5031
 2657SOL    HW219605   2.237   3.191   4.704  1.9450 -0.8231 -1.8124
 2658SOL     OW19606   1.221   2.208   6.913  0.7277  0.0761 -0.6154
 2658SOL    HW119607   1.184   2.296   6.921  2.3505  0.7263 -0.1040
 2658SOL    HW219608   1.268   2.199   6.830  2.1339  0.3815  0.1445
 2659SOL     OW19609   2.578   3.729  14.106  0.0971 -0.7157  0.1342
 2659SOL    HW119610   2.604   3.682  14.185 -1.2717 -1.7774 -0.0378
 2659SOL    HW219611   2.490   3.693  14.093  0.4001 -1.1171 -0.8396
 2660SOL     OW19612   4.606   3.707   1.127 -0.2972  1.1996 -0.0136
 2660SOL    HW119613   4.603   3.626   1.076  2.1902  1.5681 -0.7426
 2660SOL    HW219614   4.589   3.670   1.214 -1.8275 -0.0496 -0.8405
 2661SOL     OW19615   3.805   3.234  17.418  0.2859 -0.1592  0.1423
 2661SOL    HW119616   3.754   3.180  17.478  1.2672 -0.8023  0.3860
 2661SOL    HW219617   3.849   3.306  17.464 -3.0341  2.1656 -0.2776
 2662SOL     OW19618   1.413   3.707   3.490 -0.3194  0.5774 -0.0668
 2662SOL    HW119619   1.354   3.684   3.419 -2.6187  1.5319  1.5449
 2662SOL    HW219620   1.354   3.757   3.546 -1.0989 -1.7880  1.2438
 2663SOL     OW19621   0.716   4.003   8.268 -0.0666 -0.2072  0.5436
 2663SOL    HW119622   0.671   3.918   8.265 -0.2140 -0.1451  1.0979
 2663SOL    HW219623   0.712   4.025   8.174 -2.1302 -0.2465  0.6061
 2664SOL     OW19624   4.043   0.210   2.580 -0.2631 -0.0654 -0.4576
 2664SOL    HW119625   3.990   0.174   2.650  0.3713  1.1299  0.6313
 2664SOL    HW219626   4.105   0.137   2.587 -0.5714 -0.0727  2.0087
 2665SOL     OW19627   3.400   3.238   7.350  0.2030  0.2100 -0.0414
 2665SOL    HW119628   3.406   3.146   7.376  1.8288  0.2774 -0.1596
 2665SOL    HW219629   3.494   3.256   7.346 -0.0467  1.4953 -0.0148
 2666SOL     OW19630   0.200   0.372   5.239 -0.6707 -0.2811  0.0759
 2666SOL    HW119631   0.119   0.394   5.193 -2.1786 -1.6351  2.0899
 2666SOL    HW219632   0.230   0.449   5.286 -0.4036  0.4188 -1.2293
 2667SOL     OW19633   0.189   2.826  13.961 -0.0139 -0.1590 -0.2572
 2667SOL    HW119634   0.162   2.910  13.998  0.2451 -0.6642  1.0804
 2667SOL    HW219635   0.202   2.779  14.044 -0.4502  1.1625  0.5540
 2668SOL     OW19636   0.914   4.028   1.213  0.5702  0.0246 -0.2404
 2668SOL    HW119637   0.999   3.985   1.220  0.8060  0.3092 -1.3933
 2668SOL    HW219638   0.907   4.079   1.294  1.5852  1.5942 -1.1433
 2669SOL     OW19639   4.064   4.423   2.193  0.0414  0.2104 -0.1164
 2669SOL    HW119640   4.022   4.501   2.230 -0.8188 -0.2889 -0.0261
 2669SOL    HW219641   4.033   4.418   2.103 -2.0867  1.6962  0.5119
 2670SOL     OW19642   3.408   3.392  14.209  0.0083  0.1375 -0.2197
 2670SOL    HW119643   3.377   3.302  14.208 -0.2761  0.2182  0.8266
 2670SOL    HW219644   3.328   3.430  14.174 -1.0120 -1.2571  0.5661
 2671SOL     OW19645   3.022   2.752   3.728  0.2739  0.2824  0.5327
 2671SOL    HW119646   2.942   2.782   3.686  0.1987  0.9566  1.1559
 2671SOL    HW219647   3.043   2.819   3.793  1.8336  1.5443 -1.2650
 2672SOL     OW19648   2.274   1.931   7.649 -0.0780  0.0702 -0.2252
 2672SOL    HW119649   2.198   1.909   7.596  0.4300 -1.9566 -0.1253
 2672SOL    HW219650   2.247   2.016   7.682  2.1523 -0.4517  2.9234
 2673SOL     OW19651   3.429   1.760   3.841  0.6821 -0.2482 -0.0758
 2673SOL    HW119652   3.518   1.795   3.831  1.8186 -2.5555  1.9489
 2673SOL    HW219653   3.414   1.736   3.749  1.0961  1.6090 -0.6250
 2674SOL     OW19654   3.967   2.407   2.921  0.3992 -0.0188  0.0075
 2674SOL    HW119655   4.058   2.389   2.945 -0.4051 -2.3559  1.2858
 2674SOL    HW219656   3.948   2.343   2.853 -1.4079 -0.5179  0.9637
 2675SOL     OW19657   2.938   0.765  14.300  0.0761  0.1347  0.2013
 2675SOL    HW119658   2.972   0.699  14.360  0.6541  2.4406  2.3842
 2675SOL    HW219659   2.882   0.715  14.240 -0.3972  0.4121  0.4158
 2676SOL     OW19660   1.427   4.205   6.800 -0.2354  0.4538 -0.1863
 2676SOL    HW119661   1.424   4.205   6.704  3.2470 -0.0290 -0.2970
 2676SOL    HW219662   1.348   4.152   6.809  0.6081 -0.9889 -1.3619
 2677SOL     OW19663   3.159   3.228   0.053 -0.1907  0.1428 -0.6575
 2677SOL    HW119664   3.174   3.323   0.055  0.6079  0.0044 -0.3277
 2677SOL    HW219665   3.216   3.199  17.728  0.6002 -0.7497  0.3468
 2678SOL     OW19666   4.661   0.419  13.623 -0.2854 -0.2182 -0.5703
 2678SOL    HW119667   4.678   0.427  13.529  0.8652 -1.4349 -0.4678
 2678SOL    HW219668   4.662   0.507  13.659  2.9892 -0.0703 -1.0667
 2679SOL     OW19669   2.816   2.055   9.894 -0.3787 -0.2038 -0.1486
 2679SOL    HW119670   2.807   2.019   9.806 -0.7499  0.4615 -0.3809
 2679SOL    HW219671   2.775   1.985   9.945 -1.5953  1.0898  0.6612
 2680SOL     OW19672   2.263   4.731   4.560 -0.6431  0.5210 -0.2912
 2680SOL    HW119673   2.265   4.722   4.465  0.2013 -2.4437  0.0237
 2680SOL    HW219674   2.179   0.040   4.567 -0.8785  0.0684 -0.1893
 2681SOL     OW19675   0.661   0.576   0.105 -0.5872  0.6556 -0.1763
 2681SOL    HW119676   0.727   0.610   0.044 -1.1608  0.9682 -0.6362
 2681SOL    HW219677   0.589   0.554   0.045 -1.9331  0.4278  1.5294
 2682SOL     OW19678   2.060   2.242   0.383  0.4481  0.2837 -0.0346
 2682SOL    HW119679   2.102   2.297   0.316  0.0596  0.8048  0.1576
 2682SOL    HW219680   2.121   2.169   0.394  0.8663  0.8859  1.5544
 2683SOL     OW19681   2.450   4.112   2.787 -0.0284 -0.1788 -0.0422
 2683SOL    HW119682   2.473   4.023   2.759 -0.2778  0.2894 -1.6883
 2683SOL    HW219683   2.528   4.162   2.814  0.4378 -0.6223 -0.5681
 2684SOL     OW19684   2.324   0.264  17.421 -0.0053  0.1767  0.1499
 2684SOL    HW119685   2.376   0.275  17.501  0.1665 -0.9148  0.1942
 2684SOL    HW219686   2.332   0.348  17.376  1.5522 -0.8168 -1.4542
 2685SOL     OW19687   3.125   1.507   4.680  0.2994  0.3889  0.1398
 2685SOL    HW119688   3.220   1.508   4.678  0.2789 -2.2566 -2.7589
 2685SOL    HW219689   3.117   1.451   4.603  1.3824 -1.0717  1.1029
 2686SOL     OW19690   0.763   3.750   0.318  0.2705 -0.0024  0.3128
 2686SOL    HW119691   0.794   3.795   0.397  0.5907  1.8185 -0.8481
 2686SOL    HW219692   0.736   3.827   0.267  2.2661  0.2224 -0.4165
 2687SOL     OW19693   1.492   4.228   6.162 -0.1123  0.6952  0.0507
 2687SOL    HW119694   1.546   4.185   6.095  1.4570  0.3306  1.5721
 2687SOL    HW219695   1.510   4.164   6.231  0.3708  0.7477 -0.0244
 2688SOL     OW19696   1.553   3.108   1.461  0.0883 -0.3879  0.2255
 2688SOL    HW119697   1.476   3.146   1.420  1.3373  1.1135 -0.7307
 2688SOL    HW219698   1.514   3.033   1.507  1.5283  0.1214  2.2740
 2689SOL     OW19699   2.420   0.942  16.500 -0.0774 -0.0737  0.2670
 2689SOL    HW119700   2.359   0.900  16.439  0.1719 -0.5869  0.3655
 2689SOL    HW219701   2.355   0.969  16.566 -0.7182  0.9050 -0.7771
 2690SOL     OW19702   0.771   3.986   7.485  0.0492 -0.6154  0.6072
 2690SOL    HW119703   0.710   4.053   7.516  0.3682 -0.1391  0.1994
 2690SOL    HW219704   0.855   4.033   7.480 -0.9118  0.9622 -0.3973
 2691SOL     OW19705   3.132   3.973   4.055 -0.3772 -0.0442 -0.0408
 2691SOL    HW119706   3.052   3.969   4.107 -1.3236 -0.5502 -1.5396
 2691SOL    HW219707   3.120   4.054   4.005 -0.8088  1.2445  2.1486
 2692SOL     OW19708   2.033   2.362   2.683  0.3721  0.3385 -0.4544
 2692SOL    HW119709   2.038   2.334   2.774 -0.5429  0.2503 -0.4382
 2692SOL    HW219710   2.097   2.432   2.695  0.5184 -0.0258  0.8903
 2693SOL     OW19711   0.067   0.746   6.495  0.7471  0.3808  0.6098
 2693SOL    HW119712   0.130   0.708   6.556  0.0486 -2.8348 -0.6806
 2693SOL    HW219713   0.049   0.835   6.525  0.5515  0.6744 -0.3820
 2694SOL     OW19714   1.125   4.104  13.387 -0.0953  0.2947  0.6789
 2694SOL    HW119715   1.065   4.059  13.446  0.1034  0.6776  1.1775
 2694SOL    HW219716   1.189   4.139  13.450  1.4172 -2.2554  0.5498
 2695SOL     OW19717   1.770   0.535   7.567 -0.0786  0.4489  0.4286
 2695SOL    HW119718   1.748   0.574   7.651 -2.1482  1.3866 -0.5593
 2695SOL    HW219719   1.822   0.607   7.531  0.4155  0.4725  1.1926
 2696SOL     OW19720   3.510   4.401  11.305  0.1852 -0.4572  0.5565
 2696SOL    HW119721   3.570   4.472  11.330 -0.5945 -0.8088  3.4339
 2696SOL    HW219722   3.549   4.366  11.225 -1.2186 -1.1486  0.1928
 2697SOL     OW19723   0.815   4.717   9.082 -0.7096  0.1316 -0.0163
 2697SOL    HW119724   0.732   4.733   9.036 -0.0697  2.0829 -0.4931
 2697SOL    HW219725   0.819   0.020   9.169  0.6447  0.1623 -0.1004
 2698SOL     OW19726   2.939   3.649   5.781  0.3223  0.2257 -0.1522
 2698SOL    HW119727   2.980   3.571   5.819 -0.6985 -0.4299 -0.3858
 2698SOL    HW219728   2.856   3.609   5.754 -0.9323  3.4247 -1.0847
 2699SOL     OW19729   2.090   3.932   4.286 -0.4969  1.0742 -0.3005
 2699SOL    HW119730   2.008   3.932   4.237  0.6693  0.2842 -2.2350
 2699SOL    HW219731   2.044   3.954   4.367  0.0475 -0.5910  0.4420
 2700SOL     OW19732   4.554   1.916   4.521  0.6342  0.5102 -0.5841
 2700SOL    HW119733   4.526   2.006   4.506  2.9467  1.3040 -0.1202
 2700SOL    HW219734   4.645   1.924   4.493  0.8872  1.8947  0.6338
 2701SOL     OW19735   1.668   2.543  12.318 -0.4882 -0.2243 -0.0794
 2701SOL    HW119736   1.627   2.470  12.365 -2.5550  1.2603  0.4006
 2701SOL    HW219737   1.630   2.540  12.230  0.6206 -2.3926 -0.5066
 2702SOL     OW19738   2.395   2.280   5.124  0.1386 -0.3123  0.1834
 2702SOL    HW119739   2.444   2.254   5.046 -2.2594  1.5890 -1.9560
 2702SOL    HW219740   2.361   2.193   5.144 -0.0325 -0.0983  0.8215
 2703SOL     OW19741   3.319   0.202   6.744  0.2329 -0.3245 -0.3391
 2703SOL    HW119742   3.269   0.188   6.664 -2.1502  1.2336  0.8526
 2703SOL    HW219743   3.405   0.215   6.705  0.2609 -1.4363 -0.6389
 2704SOL     OW19744   0.184   0.494   1.651 -0.0114  0.4223 -0.7222
 2704SOL    HW119745   0.231   0.558   1.597 -0.4807 -0.5677 -2.2811
 2704SOL    HW219746   0.137   0.545   1.718 -0.0089  3.5363 -3.0618
 2705SOL     OW19747   0.523   0.583   8.321  0.0228  0.1998  0.1159
 2705SOL    HW119748   0.557   0.618   8.238  0.3208  0.8684  0.5251
 2705SOL    HW219749   0.434   0.620   8.328  0.5054  1.1411  1.2343
 2706SOL     OW19750   2.478   3.844   0.489 -0.2484  0.6670 -0.0667
 2706SOL    HW119751   2.405   3.904   0.506 -1.0263 -0.4492  0.5460
 2706SOL    HW219752   2.541   3.871   0.555  0.7653 -0.8325 -0.4404
 2707SOL     OW19753   2.191   4.274   1.118  1.0759 -0.1511 -0.4392
 2707SOL    HW119754   2.207   4.260   1.025 -0.3123 -0.7918 -0.5794
 2707SOL    HW219755   2.219   4.365   1.132  0.2793  0.0112  0.0781
 2708SOL     OW19756   0.382   3.229  13.218  1.0468 -0.3055 -0.1247
 2708SOL    HW119757   0.384   3.194  13.128  0.5292  1.2268 -0.7185
 2708SOL    HW219758   0.401   3.150  13.268 -0.4586  0.9109  2.3071
 2709SOL     OW19759   1.639   0.417   2.952  0.0487  0.5792  0.1247
 2709SOL    HW119760   1.732   0.400   2.961 -0.3847 -1.1514  1.5227
 2709SOL    HW219761   1.643   0.482   2.882  0.2678  1.2633  0.7647
 2710SOL     OW19762   1.807   2.608  16.065 -0.1963 -0.0128 -0.4703
 2710SOL    HW119763   1.800   2.524  16.020 -2.2503 -0.0892 -0.0045
 2710SOL    HW219764   1.777   2.578  16.150 -1.3069  1.5310 -0.3028
 2711SOL     OW19765   2.255   3.561   5.373 -0.0131  0.3341  0.1929
 2711SOL    HW119766   2.178   3.514   5.405  1.6767 -1.5884  1.4666
 2711SOL    HW219767   2.324   3.499   5.396  1.5187  0.6594 -3.4234
 2712SOL     OW19768   4.233   3.545   7.031  0.5593  0.2444 -0.0500
 2712SOL    HW119769   4.241   3.474   7.094 -0.3538  0.8200  0.7297
 2712SOL    HW219770   4.160   3.511   6.979 -0.3340  1.2018  0.5570
 2713SOL     OW19771   1.028   4.336  12.410 -0.4179  0.4524 -0.8625
 2713SOL    HW119772   0.981   4.352  12.328 -0.4984 -1.0196 -1.0967
 2713SOL    HW219773   1.087   4.411  12.417 -0.0860  0.2111 -1.1371
 2714SOL     OW19774   4.638   1.411  10.688  0.4750  0.3579 -0.4846
 2714SOL    HW119775   4.702   1.480  10.706 -0.4980  1.1352  0.0497
 2714SOL    HW219776   4.590   1.467  10.626  0.5195 -0.7200 -1.4923
 2715SOL     OW19777   2.923   2.732  12.207  0.2836  0.4799  0.6589
 2715SOL    HW119778   2.966   2.725  12.122  2.4735  1.9251  1.6480
 2715SOL    HW219779   3.000   2.718  12.263  1.4264 -0.2955 -1.1230
 2716SOL     OW19780   2.987   3.804  14.435  0.3439  0.3807  0.4191
 2716SOL    HW119781   2.909   3.758  14.468  0.2947  0.7671  0.8392
 2716SOL    HW219782   3.035   3.732  14.393  0.1513  1.2398 -1.2625
 2717SOL     OW19783   3.865   2.460  17.315  0.1499 -0.1706  0.1889
 2717SOL    HW119784   3.898   2.530  17.258 -2.3526  0.3044 -0.6964
 2717SOL    HW219785   3.912   2.382  17.286 -0.0878 -0.5534  0.8262
 2718SOL     OW19786   4.139   3.129   6.754 -0.7417 -0.1307  0.0850
 2718SOL    HW119787   4.086   3.162   6.681 -0.4231  0.4729  0.1257
 2718SOL    HW219788   4.095   3.046   6.772  1.2198 -1.6215 -1.8906
 2719SOL     OW19789   1.220   0.891   7.947 -0.4114  0.0240  0.3301
 2719SOL    HW119790   1.194   0.892   8.040 -0.2428  1.5214  0.3689
 2719SOL    HW219791   1.268   0.972   7.928 -2.1372  1.2019  0.9956
 2720SOL     OW19792   1.612   2.737  15.880 -0.3867  0.1524 -0.3229
 2720SOL    HW119793   1.649   2.699  15.960 -2.4561  0.7491  0.9343
 2720SOL    HW219794   1.603   2.829  15.905  1.5030  0.1165  0.5133
 2721SOL     OW19795   0.009   3.271   4.732  0.0261  0.2231 -0.4821
 2721SOL    HW119796   0.013   3.362   4.704 -3.0066  0.9390  1.4534
 2721SOL    HW219797   0.101   3.247   4.745 -0.5730 -2.4526 -1.0880
 2722SOL     OW19798   1.785   4.415   4.618  0.3586 -0.4323 -0.2187
 2722SOL    HW119799   1.717   4.458   4.670 -0.7077 -2.0433 -0.2626
 2722SOL    HW219800   1.735   4.384   4.542  0.6019  0.5209 -0.7559
 2723SOL     OW19801   1.432   0.376   8.061  0.7810 -0.3647  0.6030
 2723SOL    HW119802   1.391   0.460   8.043  0.0544 -1.0931 -1.0754
 2723SOL    HW219803   1.456   0.348   7.973 -1.9083 -2.8343  0.6841
 2724SOL     OW19804   1.643   1.847  11.209 -0.0767  0.1730 -0.5355
 2724SOL    HW119805   1.674   1.797  11.284 -1.1519 -1.4851 -1.2085
 2724SOL    HW219806   1.581   1.906  11.251  0.8812 -0.3054  1.5273
 2725SOL     OW19807   3.573   4.585   8.743  0.1927  0.0379 -0.0217
 2725SOL    HW119808   3.633   4.515   8.770 -2.9439 -2.6791  0.0102
 2725SOL    HW219809   3.554   4.571   8.650 -1.6288 -1.4948  0.5564
 2726SOL     OW19810   1.916   4.109   7.794 -0.5258 -0.4342 -0.1933
 2726SOL    HW119811   2.005   4.104   7.759  1.4084  3.7129  4.1054
 2726SOL    HW219812   1.862   4.139   7.721 -0.6043 -1.9444 -0.7548
 2727SOL     OW19813   4.103   4.001  14.197 -0.0645  0.1704 -0.1508
 2727SOL    HW119814   4.146   4.084  14.176 -1.8262  0.8892 -0.9401
 2727SOL    HW219815   4.091   4.023  14.289  3.1212  1.1824  0.0240
 2728SOL     OW19816   0.981   0.938   7.036 -0.2714 -0.7907  0.4784
 2728SOL    HW119817   0.968   1.021   7.083 -0.4453 -0.5120 -0.0703
 2728SOL    HW219818   0.998   0.885   7.115  1.3904 -0.7953  0.1148
 2729SOL     OW19819   4.172   3.180   6.261 -0.2438 -0.2687 -0.2085
 2729SOL    HW119820   4.186   3.233   6.182  0.0780 -0.6516 -0.4064
 2729SOL    HW219821   4.123   3.111   6.217 -0.8675  1.7317 -2.6897
 2730SOL     OW19822   3.351   0.263   9.389 -0.3450  0.3136  0.2429
 2730SOL    HW119823   3.377   0.213   9.466 -0.0883 -2.0427 -1.3444
 2730SOL    HW219824   3.357   0.349   9.430  2.4844  0.3868 -0.3050
 2731SOL     OW19825   2.583   3.300   9.611  0.2569  0.4160 -0.2286
 2731SOL    HW119826   2.673   3.292   9.579  0.5000 -0.0183  0.5674
 2731SOL    HW219827   2.589   3.358   9.687  0.1153 -1.1385  0.9592
 2732SOL     OW19828   1.263   0.026   7.841  0.2001 -0.4609  0.3073
 2732SOL    HW119829   1.299   0.001   7.756 -1.8956  0.3007 -0.7832
 2732SOL    HW219830   1.219   4.679   7.854 -1.4364  0.6159  1.6313
 2733SOL     OW19831   1.671   0.778   3.920 -0.0312 -0.2509 -0.2532
 2733SOL    HW119832   1.577   0.767   3.933  0.0455 -0.7910 -0.1499
 2733SOL    HW219833   1.695   0.718   3.991 -0.6895 -1.9232 -1.4407
 2734SOL     OW19834   1.533   1.664   5.954 -0.4193  0.1994  0.5681
 2734SOL    HW119835   1.600   1.712   6.001 -1.2881  1.3845  0.5999
 2734SOL    HW219836   1.574   1.588   5.913 -0.8205  0.1242  0.2943
 2735SOL     OW19837   1.309   0.905   6.002 -0.1015 -0.3258  0.2564
 2735SOL    HW119838   1.337   0.836   6.062  1.8573 -0.1782 -0.4848
 2735SOL    HW219839   1.381   0.931   5.945 -2.0398 -2.4272 -3.1667
 2736SOL     OW19840   1.793   4.710   3.184  0.1659 -0.5276  0.0175
 2736SOL    HW119841   1.731   4.638   3.175 -3.4389  2.6200 -0.4938
 2736SOL    HW219842   1.831   4.706   3.097  3.6926 -2.1480  1.6412
 2737SOL     OW19843   3.118   1.314   2.956 -0.3157 -0.2539  0.4225
 2737SOL    HW119844   3.053   1.248   2.979  2.6784 -3.0182  1.1144
 2737SOL    HW219845   3.136   1.359   3.039 -0.2205  1.3026 -0.4462
 2738SOL     OW19846   0.115   4.386   8.334  0.6886  0.2984  0.5669
 2738SOL    HW119847   0.026   4.420   8.345  0.9694  1.2649 -0.1091
 2738SOL    HW219848   0.140   4.436   8.256  0.9451  1.8542  1.6384
 2739SOL     OW19849   3.906   1.775   7.148  0.2248  0.2584  0.1610
 2739SOL    HW119850   3.926   1.785   7.241 -0.4541  0.6693  0.2698
 2739SOL    HW219851   3.854   1.853   7.126 -0.8076 -1.3465 -3.0688
 2740SOL     OW19852   3.125   0.063   6.172 -0.4258 -0.0887 -0.2047
 2740SOL    HW119853   3.096   4.715   6.205  1.6237 -1.0063 -0.7555
 2740SOL    HW219854   3.177   0.041   6.095 -0.0971 -2.1145  0.5893
 2741SOL     OW19855   2.362   1.213   7.073 -0.0163  0.1605 -0.3969
 2741SOL    HW119856   2.356   1.305   7.095  1.5791 -0.2541  1.7941
 2741SOL    HW219857   2.451   1.215   7.036 -0.3573 -1.8463 -1.3453
 2742SOL     OW19858   3.553   1.829   5.763 -0.0781  0.5394 -0.4996
 2742SOL    HW119859   3.481   1.799   5.819 -1.3449  2.3120 -1.1908
 2742SOL    HW219860   3.511   1.897   5.711  3.4292  1.2976 -2.3168
 2743SOL     OW19861   2.714   4.656   5.680  0.4895 -0.2416 -0.1104
 2743SOL    HW119862   2.799   4.612   5.667  1.6327  2.4176 -1.6445
 2743SOL    HW219863   2.725   4.698   5.765 -1.8862 -1.1429  0.6423
 2744SOL     OW19864   1.542   4.719   6.872  0.2158  0.2645  0.0811
 2744SOL    HW119865   1.506   4.653   6.814  0.4278 -1.8120  2.3097
 2744SOL    HW219866   1.492   0.056   6.839  1.1605  0.9067  0.0771
 2745SOL     OW19867   1.843   1.364   6.909  0.1406  0.7028  0.3034
 2745SOL    HW119868   1.834   1.329   6.820 -2.5304 -1.1971  1.3344
 2745SOL    HW219869   1.929   1.321   6.918 -0.1904  0.4404  2.2948
 2746SOL     OW19870   3.741   3.029  10.127 -0.0101 -0.1498  0.8189
 2746SOL    HW119871   3.826   2.990  10.149  1.0925  1.0771 -1.3076
 2746SOL    HW219872   3.742   3.105  10.185 -1.4768 -0.4357  1.2243
 2747SOL     OW19873   1.825   3.093  17.275 -0.0680  0.5040 -0.0807
 2747SOL    HW119874   1.816   3.062  17.366 -0.6625  2.8506  0.6518
 2747SOL    HW219875   1.920   3.097  17.269  0.1147  0.2540  2.5422
 2748SOL     OW19876   3.997   3.087   1.810 -0.7682  0.1585  0.4975
 2748SOL    HW119877   4.026   3.122   1.726 -1.4291  1.3764  0.7864
 2748SOL    HW219878   4.078   3.078   1.860  0.0214 -1.4112 -1.0453
 2749SOL     OW19879   1.160   1.239   3.416  0.0805  0.0355  0.4217
 2749SOL    HW119880   1.188   1.197   3.497  1.4139 -1.5291 -0.8769
 2749SOL    HW219881   1.100   1.170   3.388  0.6913  0.0814 -0.9635
 2750SOL     OW19882   1.672   0.408   5.641  0.0950 -0.3435  0.1028
 2750SOL    HW119883   1.703   0.377   5.726 -1.6918  1.1916  1.3079
 2750SOL    HW219884   1.685   0.328   5.591  1.6742  0.4978 -0.8487
 2751SOL     OW19885   2.466   4.176   7.042 -0.1685 -0.2785 -0.3100
 2751SOL    HW119886   2.397   4.194   6.978 -0.1497 -1.3127 -0.6133
 2751SOL    HW219887   2.449   4.238   7.113  2.4448 -2.5965  2.3365
 2752SOL     OW19888   0.617   2.385   6.783  0.1337 -0.0606  0.3804
 2752SOL    HW119889   0.646   2.334   6.858 -2.4167 -4.6843 -1.7995
 2752SOL    HW219890   0.684   2.453   6.774 -1.6837  1.7703  0.5678
 2753SOL     OW19891   0.599   3.535  13.873  0.4025  0.1692 -0.1953
 2753SOL    HW119892   0.511   3.518  13.838  0.1963  1.4424 -0.2862
 2753SOL    HW219893   0.639   3.454  13.842  1.0316  0.4361 -0.0790
 2754SOL     OW19894   0.755   2.081   4.516  0.2881 -0.2859 -0.2345
 2754SOL    HW119895   0.670   2.038   4.519 -0.0827  0.4601  0.0307
 2754SOL    HW219896   0.797   2.016   4.572  0.9925  0.8387  0.5508
 2755SOL     OW19897   0.971   1.596   9.510 -0.4445  0.4062  0.0758
 2755SOL    HW119898   1.001   1.511   9.478 -0.9528  0.8148 -1.4950
 2755SOL    HW219899   0.981   1.587   9.604 -5.0096 -0.3256  0.5122
 2756SOL     OW19900   1.255   3.315   3.394  0.1298  0.1051  0.5459
 2756SOL    HW119901   1.245   3.373   3.470  3.2717  1.7008 -0.2381
 2756SOL    HW219902   1.236   3.231   3.434  0.2018 -0.7542 -1.2074
 2757SOL     OW19903   0.355   0.354  16.996 -0.0436  0.4015  0.4884
 2757SOL    HW119904   0.357   0.387  16.906 -1.4666  0.7852  0.5978
 2757SOL    HW219905   0.421   0.411  17.036  0.9054  0.4324 -1.1523
 2758SOL     OW19906   2.784   0.629   1.976 -0.3024  0.1114 -0.3540
 2758SOL    HW119907   2.792   0.707   2.032  1.1778  0.4922 -1.0809
 2758SOL    HW219908   2.715   0.674   1.927 -2.0844 -0.7991  1.3683
 2759SOL     OW19909   2.846   2.157   6.166  0.4011 -0.1810  0.1572
 2759SOL    HW119910   2.755   2.154   6.138  0.3768  2.4926 -0.0650
 2759SOL    HW219911   2.858   2.063   6.180  0.8129 -0.2800 -0.8007
 2760SOL     OW19912   0.679   3.156   6.111 -0.0955 -0.3612 -0.2687
 2760SOL    HW119913   0.735   3.141   6.035  1.0651 -2.0414  0.9156
 2760SOL    HW219914   0.670   3.250   6.098  2.1075  0.1731  2.0079
 2761SOL     OW19915   2.421   4.526   4.621  0.2392 -0.1070  0.6404
 2761SOL    HW119916   2.370   4.607   4.627  2.0836  1.1631 -0.6715
 2761SOL    HW219917   2.358   4.458   4.644 -1.9302  1.8758  0.5005
 2762SOL     OW19918   2.301   0.852   9.375 -0.7398 -0.1847  0.1572
 2762SOL    HW119919   2.333   0.909   9.445  0.4827  0.3079 -0.8096
 2762SOL    HW219920   2.242   0.796   9.426 -0.2594  0.7049  1.6813
 2763SOL     OW19921   1.438   2.064   4.978 -0.2944 -0.5937  0.8918
 2763SOL    HW119922   1.343   2.054   4.976 -0.4504  1.5328 -2.4060
 2763SOL    HW219923   1.440   2.160   4.976  0.3299 -0.6197  0.2273
 2764SOL     OW19924   2.965   3.850   5.022 -0.8221 -0.6273  0.2451
 2764SOL    HW119925   2.903   3.888   5.084  0.1068  1.4029 -0.0373
 2764SOL    HW219926   3.041   3.908   5.031  0.2228 -2.0702  0.6761
 2765SOL     OW19927   2.577   0.289   9.518  0.0644 -0.5281  0.0497
 2765SOL    HW119928   2.547   0.240   9.594  1.3413  0.3243  1.1015
 2765SOL    HW219929   2.672   0.275   9.515  0.2537  0.7349 -0.1513
 2766SOL     OW19930   1.298   3.533   7.537  0.4537  0.7389 -0.1199
 2766SOL    HW119931   1.262   3.611   7.578  0.3177  0.4231  0.3661
 2766SOL    HW219932   1.318   3.573   7.452 -0.6819  0.9125 -0.2968
 2767SOL     OW19933   0.430   2.882   7.335 -0.1473 -0.3578 -0.5957
 2767SOL    HW119934   0.393   2.795   7.327  1.5372 -0.7814 -4.0393
 2767SOL    HW219935   0.364   2.930   7.385 -0.2914  0.2441 -1.3571
 2768SOL     OW19936   2.481   2.225   9.903 -0.0053  0.1620  0.4458
 2768SOL    HW119937   2.555   2.212   9.844  0.2338  0.8937  0.5757
 2768SOL    HW219938   2.511   2.166   9.972  2.5533 -0.3302 -1.0798
 2769SOL     OW19939   3.488   1.395  16.399 -0.0523 -0.2550  0.5034
 2769SOL    HW119940   3.491   1.343  16.479 -1.4144  1.0867  1.4414
 2769SOL    HW219941   3.579   1.397  16.370 -0.2123 -0.8666 -0.0143
 2770SOL     OW19942   3.364   3.127   2.673 -0.0720 -0.0600 -0.7809
 2770SOL    HW119943   3.315   3.074   2.735  1.4216  3.2549  3.2038
 2770SOL    HW219944   3.414   3.188   2.728  0.0496 -1.7092  0.9119
 2771SOL     OW19945   2.652   3.176   0.881  0.8930  0.2441  0.3811
 2771SOL    HW119946   2.691   3.091   0.900  1.4598  1.2121  3.4382
 2771SOL    HW219947   2.634   3.203   0.971 -0.6530 -0.1977  0.2065
 2772SOL     OW19948   2.173   1.934   3.160  0.5710  0.0193  0.1913
 2772SOL    HW119949   2.156   1.970   3.247  0.6078  0.4557  0.0160
 2772SOL    HW219950   2.255   1.982   3.149  0.6721 -0.2300 -0.1326
 2773SOL     OW19951   3.952   2.415   9.658 -0.3376  0.1201 -0.2283
 2773SOL    HW119952   3.887   2.476   9.692  1.9238  2.7039 -0.5752
 2773SOL    HW219953   3.972   2.374   9.742  1.2474 -0.7297 -1.0249
 2774SOL     OW19954   3.035   3.551  11.751  0.3575 -0.2077  0.2732
 2774SOL    HW119955   2.955   3.585  11.711  1.5424  2.1049 -0.1250
 2774SOL    HW219956   3.085   3.632  11.743 -2.1205  1.5764  2.9554
 2775SOL     OW19957   0.089   4.593  11.182  0.1046  0.3456 -0.1417
 2775SOL    HW119958   0.167   4.541  11.163 -0.3808 -1.1310  1.9586
 2775SOL    HW219959   0.018   4.529  11.187  2.0580 -1.8487 -0.2977
 2776SOL     OW19960   3.023   4.435  10.317  0.8181 -0.3321  0.3646
 2776SOL    HW119961   2.999   4.344  10.305 -0.3255 -0.1126  0.9805
 2776SOL    HW219962   3.114   4.423  10.346  0.8818  3.0446  1.5747
 2777SOL     OW19963   3.225   1.563   6.821 -0.6851 -0.4317  0.1661
 2777SOL    HW119964   3.143   1.551   6.774 -1.4007  0.5706  1.1625
 2777SOL    HW219965   3.251   1.473   6.840 -0.7022 -0.5167 -0.2215
 2778SOL     OW19966   1.952   2.354   3.332  0.2574  1.3461 -0.0970
 2778SOL    HW119967   2.023   2.319   3.386  0.2459  3.3844  1.2269
 2778SOL    HW219968   2.001   2.407   3.268 -0.7376 -0.4890 -2.3775
 2779SOL     OW19969   3.475   0.478  16.690 -0.4922 -0.3099  0.5888
 2779SOL    HW119970   3.405   0.413  16.685 -1.1340  0.4009  0.4043
 2779SOL    HW219971   3.476   0.500  16.597  1.2371  0.5564  0.8054
 2780SOL     OW19972   2.430   3.278   5.321  0.1610  0.6911  0.2485
 2780SOL    HW119973   2.342   3.251   5.346  0.2034 -1.0909 -1.5548
 2780SOL    HW219974   2.440   3.219   5.246  1.4534  1.0223  0.1469
 2781SOL     OW19975   3.265   3.167  13.351 -0.7191  0.5207 -0.0521
 2781SOL    HW119976   3.200   3.146  13.418  1.4949 -2.5883  1.1265
 2781SOL    HW219977   3.215   3.228  13.296  1.5416  2.1322 -0.3057
 2782SOL     OW19978   1.359   4.023   1.313 -0.1332 -0.1500  0.3694
 2782SOL    HW119979   1.296   3.954   1.293  0.6075 -0.6674 -0.1717
 2782SOL    HW219980   1.314   4.083   1.373 -2.0119  0.4020 -1.5891
 2783SOL     OW19981   3.508   3.309   7.052 -0.3051 -0.2373 -0.3319
 2783SOL    HW119982   3.564   3.301   7.129  0.0299 -2.1966 -0.7772
 2783SOL    HW219983   3.460   3.226   7.046 -1.2736  0.2276  0.9847
 2784SOL     OW19984   1.914   2.102   3.892 -0.8723  0.0531  0.0000
 2784SOL    HW119985   1.874   2.059   3.967  0.8268 -3.4225 -1.0720
 2784SOL    HW219986   1.844   2.164   3.870 -0.1465  0.5410 -0.9581
 2785SOL     OW19987   2.899   4.520  10.651  1.0629  0.3359  0.4490
 2785SOL    HW119988   2.867   4.449  10.595  0.5050 -0.9469  2.3950
 2785SOL    HW219989   2.887   4.602  10.602 -1.4907 -0.0353  0.4383
 2786SOL     OW19990   1.351   3.333   8.560  0.1110 -0.6695 -0.0689
 2786SOL    HW119991   1.421   3.390   8.527 -0.4513  0.1406  0.1279
 2786SOL    HW219992   1.383   3.313   8.648  0.0887  2.1183  0.5874
 2787SOL     OW19993   1.776   4.481   5.270 -0.4005  0.5105 -0.5210
 2787SOL    HW119994   1.826   4.459   5.349 -0.0597  2.1800 -0.2765
 2787SOL    HW219995   1.838   4.452   5.203  0.3177 -2.4532  1.4337
 2788SOL     OW19996   1.130   3.033   7.042  0.0189  0.6789 -0.3704
 2788SOL    HW119997   1.212   3.044   6.993  0.4635  1.9599  0.6607
 2788SOL    HW219998   1.156   2.988   7.123 -1.0078  1.5191  0.4300
 2789SOL     OW19999   2.212   0.430   4.326 -0.1271  0.3577 -0.1472
 2789SOL    HW120000   2.245   0.416   4.415  0.1519  0.4451 -0.2376
 2789SOL    HW220001   2.191   0.338   4.309  0.0616  0.5138 -1.1893
 2790SOL     OW20002   3.803   1.757  17.408  0.6418  0.1991  0.9201
 2790SOL    HW120003   3.794   1.826  17.343  1.5858  0.5239  1.1386
 2790SOL    HW220004   3.835   1.685  17.354 -0.1794  1.2242 -0.9112
 2791SOL     OW20005   0.766   1.379   3.376 -0.1176 -0.2404  0.5380
 2791SOL    HW120006   0.781   1.426   3.294 -1.0817 -0.8129  0.0389
 2791SOL    HW220007   0.726   1.301   3.338  1.2619 -0.7670  0.1605
 2792SOL     OW20008   4.512   1.227  16.461  0.1739 -0.0288 -0.3492
 2792SOL    HW120009   4.574   1.201  16.529  2.8779  2.3454 -1.8929
 2792SOL    HW220010   4.437   1.259  16.511 -0.8714  0.2726 -2.1271
 2793SOL     OW20011   2.624   2.595   5.566  0.2138 -0.0376  0.3623
 2793SOL    HW120012   2.666   2.518   5.526 -1.8236 -1.4560  0.9204
 2793SOL    HW220013   2.610   2.651   5.489 -0.0497  0.9437  1.1311
 2794SOL     OW20014   3.893   1.427   5.124 -0.4598 -0.3340 -0.2643
 2794SOL    HW120015   3.937   1.454   5.204 -0.1120  1.2880 -0.9923
 2794SOL    HW220016   3.910   1.504   5.068  1.0639 -0.7519 -0.3916
 2795SOL     OW20017   3.971   0.842   7.995 -0.3305 -0.3887 -0.7103
 2795SOL    HW120018   3.965   0.932   8.027  0.2270 -0.8250  0.5996
 2795SOL    HW220019   4.024   0.854   7.916  1.8535  0.2021  0.8625
 2796SOL     OW20020   2.046   1.411   0.049 -0.2330 -0.3431  0.0306
 2796SOL    HW120021   2.115   1.422   0.114 -0.7093  0.3397  0.4256
 2796SOL    HW220022   1.979   1.386   0.113  0.2148 -3.5906 -0.7641
 2797SOL     OW20023   0.295   3.944   9.784  0.1618 -0.1425  0.3811
 2797SOL    HW120024   0.378   3.988   9.765  1.5640 -2.9060  0.1731
 2797SOL    HW220025   0.317   3.851   9.784 -3.2360 -0.9388 -0.1931
 2798SOL     OW20026   4.097   3.320   4.114 -0.1846 -0.0341 -0.2920
 2798SOL    HW120027   4.139   3.234   4.120  0.2842  0.3432  1.6396
 2798SOL    HW220028   4.012   3.300   4.075  0.2558  0.4762 -1.5085
 2799SOL     OW20029   4.443   2.014   7.321  0.4898 -0.1439  0.2636
 2799SOL    HW120030   4.389   1.987   7.247  1.2531 -0.1357 -0.3047
 2799SOL    HW220031   4.432   2.109   7.312  0.9082 -0.2944 -1.8505
 2800SOL     OW20032   2.868   3.062   5.510 -0.6542  0.0266 -0.1310
 2800SOL    HW120033   2.775   3.054   5.487 -0.0747 -1.4927 -1.9107
 2800SOL    HW220034   2.915   3.008   5.447 -1.4561 -0.1087 -0.6096
 2801SOL     OW20035   0.341   3.626   4.145 -0.7062  0.3796  0.7035
 2801SOL    HW120036   0.375   3.684   4.214 -0.5159 -2.9460  3.4052
 2801SOL    HW220037   0.249   3.641   4.166 -0.4011  2.1110  0.8199
 2802SOL     OW20038   1.312   4.504   3.059 -0.0896  0.4835  0.4637
 2802SOL    HW120039   1.372   4.564   3.014 -0.5349  0.7283  0.2010
 2802SOL    HW220040   1.293   4.552   3.139 -1.8531  0.9726 -0.2713
 2803SOL     OW20041   1.998   3.955   8.940 -0.2283  0.2321 -0.1457
 2803SOL    HW120042   2.022   4.032   8.889 -4.0962  0.6632 -1.3645
 2803SOL    HW220043   2.009   3.990   9.028 -2.6573  0.9020 -0.1035
 2804SOL     OW20044   3.120   2.066   6.537 -0.2103 -0.1224  0.1610
 2804SOL    HW120045   3.097   2.159   6.538  0.3199  0.0012  0.7688
 2804SOL    HW220046   3.098   2.046   6.628  0.6969  1.0977  0.6598
 2805SOL     OW20047   3.005   3.568  16.782 -0.0130  0.4525 -0.2198
 2805SOL    HW120048   3.071   3.575  16.850  0.1388 -1.1678 -0.2019
 2805SOL    HW220049   2.923   3.573  16.832  0.7419  1.9297  0.8687
 2806SOL     OW20050   1.004   3.330  16.162 -0.4958 -0.6762  0.0655
 2806SOL    HW120051   1.097   3.334  16.182 -0.2713  0.9980 -1.3477
 2806SOL    HW220052   1.006   3.288  16.076 -0.6086 -0.8964  0.1689
 2807SOL     OW20053   2.131   3.647   0.353  0.4097  0.4091 -0.1751
 2807SOL    HW120054   2.053   3.641   0.297 -0.5032 -0.0816  1.1703
 2807SOL    HW220055   2.182   3.590   0.295 -0.5154  0.0118 -0.5994
 2808SOL     OW20056   0.951   2.314   5.765  0.5034 -0.5074  0.2248
 2808SOL    HW120057   0.889   2.247   5.795  0.1749  0.4327  1.6411
 2808SOL    HW220058   0.979   2.273   5.683 -0.1962  1.4715 -1.0058
 2809SOL     OW20059   4.714   2.236  10.155  0.4195 -0.2703 -0.2929
 2809SOL    HW120060   0.016   2.259  10.239 -0.7606 -2.7226  0.9289
 2809SOL    HW220061   0.011   2.147  10.156  0.6924 -0.1758 -2.5531
 2810SOL     OW20062   1.191   1.978  16.688  0.2666  0.3255 -0.4976
 2810SOL    HW120063   1.227   2.056  16.646  1.0495 -0.2377 -0.8745
 2810SOL    HW220064   1.111   2.017  16.722  2.4362  2.5370  2.0609
 2811SOL     OW20065   1.310   2.316   2.505 -0.2941  0.1603 -0.2723
 2811SOL    HW120066   1.282   2.407   2.504 -0.1297  0.1996 -1.0283
 2811SOL    HW220067   1.290   2.299   2.597  1.1673  0.0179  0.0158
 2812SOL     OW20068   4.146   2.097   5.938 -0.0445  0.4194  0.2038
 2812SOL    HW120069   4.216   2.034   5.959 -0.0302  0.3807  0.0425
 2812SOL    HW220070   4.160   2.087   5.844  2.4435 -0.2503  0.6525
 2813SOL     OW20071   2.087   0.226   3.179  0.0414 -0.0163  0.6544
 2813SOL    HW120072   2.150   0.270   3.236 -0.8398  2.0263  0.0540
 2813SOL    HW220073   2.137   0.161   3.132  0.4315 -1.1218  2.5833
 2814SOL     OW20074   1.334   2.374   0.931  0.1419  0.4089 -0.4476
 2814SOL    HW120075   1.337   2.279   0.932  2.1364  0.4548 -1.7875
 2814SOL    HW220076   1.263   2.394   0.991 -1.8848 -1.8045 -2.1332
 2815SOL     OW20077   0.356   2.413  10.257 -0.0746  0.0689  0.4864
 2815SOL    HW120078   0.261   2.397  10.254  0.1694 -1.2448 -0.2396
 2815SOL    HW220079   0.359   2.506  10.236 -1.6825  0.4088  1.7097
 2816SOL     OW20080   1.117   3.521  11.028 -0.1984  0.0778  0.7524
 2816SOL    HW120081   1.032   3.479  11.041 -2.2823  3.9357 -0.2536
 2816SOL    HW220082   1.103   3.612  11.055 -2.4821 -0.4472  1.3826
 2817SOL     OW20083   1.002   2.981   2.580  0.8212 -0.1837 -0.2722
 2817SOL    HW120084   1.040   2.931   2.508 -1.9328 -0.5471 -1.4778
 2817SOL    HW220085   1.090   3.001   2.612  1.6745 -0.0842 -2.6812
 2818SOL     OW20086   1.938   4.527   0.901  0.2329 -0.0012  0.1643
 2818SOL    HW120087   1.888   4.601   0.935 -0.7716 -0.5563 -0.0997
 2818SOL    HW220088   2.013   4.552   0.955  0.4102 -0.6868  0.2300
 2819SOL     OW20089   2.137   4.190  16.921  0.3533  0.3330 -0.0546
 2819SOL    HW120090   2.184   4.269  16.949 -1.2187  0.6950  1.6100
 2819SOL    HW220091   2.099   4.165  17.006 -1.6027 -0.0024 -1.0356
 2820SOL     OW20092   3.347   0.357  11.063 -0.4284  0.3633 -0.1902
 2820SOL    HW120093   3.400   0.309  10.999 -2.0379 -2.1462  0.3549
 2820SOL    HW220094   3.265   0.309  11.050 -0.3855 -0.5243  3.0138
 2821SOL     OW20095   1.536   3.062   5.388  0.5110 -0.6036 -0.4996
 2821SOL    HW120096   1.558   2.996   5.322  0.1835 -0.2283 -0.9833
 2821SOL    HW220097   1.589   3.140   5.370  1.1369 -0.7833  0.5591
 2822SOL     OW20098   1.632   4.245  10.832  0.4245  0.0848  0.2574
 2822SOL    HW120099   1.594   4.282  10.752 -1.5679 -0.3850  1.0055
 2822SOL    HW220100   1.659   4.318  10.887 -2.3394 -0.6268  2.5057
 2823SOL     OW20101   4.418   3.924   6.149  0.0280  0.1066 -0.1067
 2823SOL    HW120102   4.375   3.873   6.217  0.4439  1.3182  1.0695
 2823SOL    HW220103   4.500   3.943   6.195 -0.5995 -1.5543  1.7081
 2824SOL     OW20104   1.277   4.290  12.233 -0.2662  0.4607 -0.0854
 2824SOL    HW120105   1.185   4.301  12.257 -0.7119 -0.3997 -1.3816
 2824SOL    HW220106   1.311   4.253  12.315 -2.9422  0.0574  0.8483
 2825SOL     OW20107   0.192   4.083   5.823  0.4842 -0.0662 -0.8686
 2825SOL    HW120108   0.210   4.156   5.882 -0.9951 -1.6509  1.5486
 2825SOL    HW220109   0.098   4.091   5.806  0.7111  1.9429 -1.2127
 2826SOL     OW20110   1.674   4.425   6.739  0.1244  0.1540 -0.0968
 2826SOL    HW120111   1.760   4.462   6.759  1.2055 -1.9089 -1.0293
 2826SOL    HW220112   1.645   4.373   6.814  0.6669 -1.1623 -0.8052
 2827SOL     OW20113   2.500   0.151   9.068  0.5281 -0.2770  1.0998
 2827SOL    HW120114   2.529   0.239   9.093 -0.7955  0.3322  0.4970
 2827SOL    HW220115   2.494   0.152   8.972  0.5934 -1.9586  1.0868
 2828SOL     OW20116   0.468   1.985   3.243 -0.0588 -0.0412 -0.5242
 2828SOL    HW120117   0.551   1.999   3.287 -0.9592  3.7382  0.0366
 2828SOL    HW220118   0.430   1.908   3.285 -1.8775  1.0006 -0.2405
 2829SOL     OW20119   2.967   1.128   8.032 -0.1275 -0.5723  0.1853
 2829SOL    HW120120   3.023   1.080   8.093  0.9235 -1.5648 -1.5618
 2829SOL    HW220121   2.884   1.126   8.080 -0.0187  2.4746  0.4710
 2830SOL     OW20122   4.027   4.096   9.586  0.2419  0.3666 -0.0715
 2830SOL    HW120123   3.943   4.104   9.631  0.6736 -0.4249  0.8774
 2830SOL    HW220124   4.004   4.099   9.493  2.5103  1.1739 -0.6191
 2831SOL     OW20125   1.832   2.871  13.838  0.7836 -0.1985 -0.2159
 2831SOL    HW120126   1.773   2.857  13.763 -1.3197 -0.1740  1.4466
 2831SOL    HW220127   1.772   2.931  13.882  1.9153  1.4132 -0.8701
 2832SOL     OW20128   3.321   2.584  10.200  0.0099 -0.1776 -0.1055
 2832SOL    HW120129   3.283   2.670  10.181  6.0349  2.2619 -0.9078
 2832SOL    HW220130   3.249   2.532  10.165  1.0176  0.0738 -2.5354
 2833SOL     OW20131   0.736   3.039   5.579  0.5481 -0.0792  0.6636
 2833SOL    HW120132   0.778   2.991   5.508 -0.0698  0.0339  0.2250
 2833SOL    HW220133   0.809   3.100   5.587 -0.0681  0.4986  1.8299
 2834SOL     OW20134   4.691   0.734   7.951 -0.5994  0.1045  0.4421
 2834SOL    HW120135   4.642   0.681   7.889  1.5409 -1.3538  0.0371
 2834SOL    HW220136   4.683   0.821   7.911  0.3743  0.6008  1.3248
 2835SOL     OW20137   4.040   4.432   1.310  0.6596  0.2327 -0.0401
 2835SOL    HW120138   3.982   4.425   1.386  1.7418 -0.6816  0.7186
 2835SOL    HW220139   4.018   4.348   1.270 -0.2430  0.2871  0.3525
 2836SOL     OW20140   4.378   1.587   6.061  0.1975  0.2870 -0.5227
 2836SOL    HW120141   4.467   1.566   6.033 -0.0586  0.8732 -1.8195
 2836SOL    HW220142   4.349   1.507   6.104  0.1811  1.0123  0.8164
 2837SOL     OW20143   2.561   2.562   7.268  0.0520  0.2002  0.0515
 2837SOL    HW120144   2.492   2.516   7.220 -0.2468 -1.6463  2.2189
 2837SOL    HW220145   2.577   2.492   7.331 -1.8527  0.4111  0.7832
 2838SOL     OW20146   2.482   1.871  10.976 -0.4594  0.1033  0.3170
 2838SOL    HW120147   2.440   1.956  10.965 -0.7293  0.0497  0.9615
 2838SOL    HW220148   2.514   1.889  11.064  1.1814  1.0780 -0.4934
 2839SOL     OW20149   2.610   4.391   3.994  0.5766 -0.3878 -0.3610
 2839SOL    HW120150   2.694   4.436   3.995 -0.6199  1.8606 -1.2136
 2839SOL    HW220151   2.629   4.312   4.045  0.0970 -1.4515 -1.8305
 2840SOL     OW20152   4.341   2.460   5.770  0.4972  0.1737 -0.1712
 2840SOL    HW120153   4.405   2.506   5.824  0.4986  0.1911 -0.1875
 2840SOL    HW220154   4.360   2.370   5.794  2.0535  1.1321  2.0899
 2841SOL     OW20155   0.301   2.044  12.795 -0.1635 -0.3524  0.3400
 2841SOL    HW120156   0.381   2.018  12.839 -1.3962 -1.4457  1.9269
 2841SOL    HW220157   0.246   2.079  12.866 -0.2744  0.6029 -0.2079
 2842SOL     OW20158   3.567   0.810   8.235 -0.3577 -0.4253  0.2571
 2842SOL    HW120159   3.644   0.818   8.179  0.6459 -0.8101  1.5651
 2842SOL    HW220160   3.610   0.828   8.319 -0.1028  1.4136 -0.2675
 2843SOL     OW20161   0.864   1.093   8.553 -0.3545 -0.0354 -0.8317
 2843SOL    HW120162   0.898   1.004   8.553  1.4279  0.6474  1.5541
 2843SOL    HW220163   0.793   1.090   8.490  0.1655 -1.2379 -1.3589
 2844SOL     OW20164   4.194   0.023   7.852  0.4664 -1.4655 -0.7327
 2844SOL    HW120165   4.213   4.668   7.870 -1.1601 -1.6485  0.1060
 2844SOL    HW220166   4.100   0.015   7.834  0.7574 -0.2624 -2.8703
 2845SOL     OW20167   3.648   2.565   7.494  0.3590  0.0657 -0.0829
 2845SOL    HW120168   3.659   2.654   7.461  0.0684  0.1202 -0.0320
 2845SOL    HW220169   3.741   2.541   7.499 -0.1435 -1.4087  1.9823
 2846SOL     OW20170   2.377   4.708   6.894  0.0631  0.8680  0.1613
 2846SOL    HW120171   2.409   4.659   6.970 -0.8842  1.7811  1.1524
 2846SOL    HW220172   2.286   4.678   6.888  1.0158 -1.2850 -2.8672
 2847SOL     OW20173   2.162   1.757   2.697 -0.1327 -0.2220  0.1587
 2847SOL    HW120174   2.088   1.709   2.736  0.3237 -2.6425 -1.9807
 2847SOL    HW220175   2.131   1.765   2.607  1.1423 -1.0786 -0.3498
 2848SOL     OW20176   0.211   0.075   9.346 -0.0079  0.1877  0.3070
 2848SOL    HW120177   0.163   4.734   9.373 -1.9266  0.4321 -2.4891
 2848SOL    HW220178   0.173   0.106   9.264 -2.6771  0.9714  1.8189
 2849SOL     OW20179   3.813   2.150   2.460  0.7199 -0.6398 -0.2540
 2849SOL    HW120180   3.833   2.223   2.400  0.3942 -0.7504 -0.4957
 2849SOL    HW220181   3.758   2.093   2.406 -1.5838 -0.3718  1.8000
 2850SOL     OW20182   0.068   4.080  13.333  0.1576  0.3609 -0.5745
 2850SOL    HW120183   0.031   4.101  13.419 -0.2448 -1.1010 -0.3801
 2850SOL    HW220184   4.725   4.087  13.282  0.6562 -0.1306 -1.4255
 2851SOL     OW20185   2.191   4.627  12.099 -0.4327 -0.2108 -0.5373
 2851SOL    HW120186   2.190   4.615  12.194 -3.4739  1.3437 -0.3775
 2851SOL    HW220187   2.285   4.638  12.082 -0.5554  0.1587 -0.9814
 2852SOL     OW20188   3.920   3.706  14.645  0.1868  0.0293  0.1446
 2852SOL    HW120189   3.910   3.763  14.568 -1.0480 -0.9621 -0.4248
 2852SOL    HW220190   3.862   3.633  14.621  1.5267 -0.6278 -1.1275
 2853SOL     OW20191   1.868   0.165   5.164 -0.0506  0.3643 -0.3944
 2853SOL    HW120192   1.962   0.175   5.172 -0.1907  0.8870  0.6378
 2853SOL    HW220193   1.837   0.252   5.139  1.1755  0.9327  0.0920
 2854SOL     OW20194   3.915   2.112   4.818 -0.6731 -0.3577  0.7021
 2854SOL    HW120195   3.976   2.141   4.887 -0.9544 -0.6992  1.0929
 2854SOL    HW220196   3.870   2.196   4.825 -1.0558 -0.3663 -1.6196
 2855SOL     OW20197   2.148   0.793  14.980 -0.2491  0.2142  1.1368
 2855SOL    HW120198   2.066   0.746  14.997 -0.4985  1.2159  2.6718
 2855SOL    HW220199   2.201   0.716  14.960 -2.2122 -0.4158 -1.7341
 2856SOL     OW20200   2.306   3.445  13.469  0.3357  0.3232  0.2308
 2856SOL    HW120201   2.389   3.425  13.512  1.4645  2.0162 -1.1772
 2856SOL    HW220202   2.253   3.456  13.548  2.0359 -0.6823  1.5169
 2857SOL     OW20203   0.335   3.126   5.740  0.0562 -0.0419  0.0662
 2857SOL    HW120204   0.301   3.079   5.816  2.5962 -1.3926  0.3548
 2857SOL    HW220205   0.384   3.053   5.703  0.8202  0.7933 -0.5589
 2858SOL     OW20206   1.493   2.683   4.375  0.4469  0.1526 -0.3515
 2858SOL    HW120207   1.490   2.750   4.444 -1.7567 -0.6904  0.3987
 2858SOL    HW220208   1.430   2.618   4.406  1.1346 -0.1747  0.3532
 2859SOL     OW20209   2.737   1.434   7.421  0.3431 -0.1400  0.6420
 2859SOL    HW120210   2.799   1.365   7.444  0.2246  0.7576  3.5654
 2859SOL    HW220211   2.698   1.454   7.506 -0.1893  1.9834 -0.1066
 2860SOL     OW20212   1.385   4.457  12.604 -0.4868 -0.2062 -0.1397
 2860SOL    HW120213   1.367   4.446  12.697  0.0859 -3.7467 -0.4781
 2860SOL    HW220214   1.441   4.381  12.588 -1.6847 -1.3906  1.3565
 2861SOL     OW20215   1.328   3.592   2.980  0.3146  0.2287  0.0067
 2861SOL    HW120216   1.363   3.598   2.891 -0.9923 -0.2471 -0.5352
 2861SOL    HW220217   1.312   3.498   2.973  0.4595  0.0427  1.9940
 2862SOL     OW20218   3.203   2.253   2.210  0.6759  0.6820  0.4215
 2862SOL    HW120219   3.117   2.257   2.252  0.1780 -0.3940 -0.4690
 2862SOL    HW220220   3.208   2.340   2.172  0.1861  1.5121  2.2675
 2863SOL     OW20221   2.312   2.828  11.584  0.4519  0.4057 -0.1231
 2863SOL    HW120222   2.394   2.876  11.588  0.5331  0.2295  0.2867
 2863SOL    HW220223   2.251   2.876  11.640  0.8016 -1.3940  1.7971
 2864SOL     OW20224   4.409   3.799   3.016  0.1385  0.1680  0.2032
 2864SOL    HW120225   4.393   3.732   2.950 -0.7717 -0.6896  1.2905
 2864SOL    HW220226   4.396   3.759   3.102 -0.3525 -1.2749 -0.5542
 2865SOL     OW20227   4.249   3.380   8.502 -0.5548 -0.0061  0.1233
 2865SOL    HW120228   4.170   3.327   8.504  0.0675 -1.0315 -2.1299
 2865SOL    HW220229   4.208   3.458   8.465  1.7109 -0.2422 -2.8857
 2866SOL     OW20230   2.670   4.714   2.262  0.3587  0.3988  0.4776
 2866SOL    HW120231   2.691   4.672   2.178 -1.7874 -1.5479  0.9211
 2866SOL    HW220232   2.730   0.052   2.261  0.1058  0.5981  0.0757
 2867SOL     OW20233   3.691   3.114  11.417  0.2794 -0.0269  0.2385
 2867SOL    HW120234   3.638   3.122  11.496 -0.0274 -0.4275  0.0709
 2867SOL    HW220235   3.760   3.179  11.429  0.7464 -0.5031  0.1342
 2868SOL     OW20236   1.504   2.915   2.470 -0.3082  0.0991  0.2747
 2868SOL    HW120237   1.501   2.857   2.394  1.7274  1.4854 -0.8501
 2868SOL    HW220238   1.493   2.999   2.426 -1.0383 -0.1130  0.0542
 2869SOL     OW20239   3.247   2.866   4.222  0.0985 -0.0484 -0.0152
 2869SOL    HW120240   3.312   2.918   4.271 -0.0925  0.5544 -0.4060
 2869SOL    HW220241   3.209   2.822   4.298 -0.5429 -0.3738 -0.5273
 2870SOL     OW20242   4.367   2.813  11.068  0.2344 -0.0386  0.1344
 2870SOL    HW120243   4.309   2.875  11.024 -0.6915  0.5200  2.1268
 2870SOL    HW220244   4.309   2.765  11.127  1.4825 -3.2637 -1.2636
 2871SOL     OW20245   1.775   3.194   4.096 -0.1455 -0.5763 -0.4006
 2871SOL    HW120246   1.804   3.104   4.108  1.3673 -0.3607 -2.3771
 2871SOL    HW220247   1.815   3.221   4.013 -0.5732  2.0591  0.2507
 2872SOL     OW20248   1.630   0.580   3.184  1.2066  0.1674  0.0796
 2872SOL    HW120249   1.596   0.670   3.184 -1.4478 -0.8265 -2.4435
 2872SOL    HW220250   1.607   0.556   3.094  1.6423  0.5085 -0.1278
 2873SOL     OW20251   1.165   2.368  15.016 -0.1869  0.2778  0.5322
 2873SOL    HW120252   1.243   2.397  15.064  0.9363  0.9060 -1.6719
 2873SOL    HW220253   1.139   2.449  14.973  0.3859 -1.2971 -2.7603
 2874SOL     OW20254   3.417   4.306  10.029 -0.1385 -0.5968  0.6664
 2874SOL    HW120255   3.435   4.383  10.083  0.9186 -1.5775  1.7202
 2874SOL    HW220256   3.384   4.242  10.093 -0.8271  0.1046  1.0137
 2875SOL     OW20257   3.933   2.114   3.924  0.0336 -0.0203 -0.0552
 2875SOL    HW120258   3.912   2.131   3.832  0.6076 -0.9816 -0.3670
 2875SOL    HW220259   3.921   2.200   3.964  1.9223  0.2265 -0.0357
 2876SOL     OW20260   0.181   1.499   6.142 -0.1177  0.2187  0.1269
 2876SOL    HW120261   0.187   1.406   6.120 -0.5326 -0.1089  1.4151
 2876SOL    HW220262   0.116   1.532   6.080  0.5019  0.2320 -0.5120
 2877SOL     OW20263   0.467   3.120   7.892 -0.4147 -0.6962  0.2691
 2877SOL    HW120264   0.384   3.114   7.940  0.7264  1.5245  2.5417
 2877SOL    HW220265   0.427   3.157   7.814  2.5957  0.9997 -0.4803
 2878SOL     OW20266   4.092   3.036   5.363 -0.4088  0.9767 -0.3513
 2878SOL    HW120267   4.175   3.028   5.409 -0.9560 -2.4595 -0.0255
 2878SOL    HW220268   4.123   3.074   5.280  0.0193  0.6919 -0.3179
 2879SOL     OW20269   0.189   1.308  13.795  0.6437  0.0912 -0.4301
 2879SOL    HW120270   0.188   1.369  13.722 -3.3215  2.9208  1.9768
 2879SOL    HW220271   0.275   1.330  13.832  0.7273  1.2229 -1.3142
 2880SOL     OW20272   3.089   3.072   8.958  0.6469  0.0161  0.4324
 2880SOL    HW120273   3.074   3.121   9.039 -2.2902 -0.2125  0.0167
 2880SOL    HW220274   3.100   2.983   8.991  3.5641  0.8160  1.6038
 2881SOL     OW20275   0.500   2.382   1.562 -0.0173  0.0686  0.5424
 2881SOL    HW120276   0.571   2.362   1.500  0.6055  1.3842  0.8338
 2881SOL    HW220277   0.529   2.341   1.643 -1.9132 -1.3807  0.4781
 2882SOL     OW20278   3.478   1.812   2.885  0.3873 -0.3485  0.1749
 2882SOL    HW120279   3.520   1.807   2.970  1.5560 -1.8717 -0.5105
 2882SOL    HW220280   3.547   1.787   2.824  0.1469 -1.3878  0.3257
 2883SOL     OW20281   2.926   4.500   4.279  0.0476 -0.0867 -0.4664
 2883SOL    HW120282   2.989   4.571   4.263 -0.9396  1.2952  1.7849
 2883SOL    HW220283   2.890   4.522   4.365 -0.1641 -0.3782 -0.4842
 2884SOL     OW20284   0.656   0.562   7.286  0.5817  0.9844 -0.3556
 2884SOL    HW120285   0.627   0.605   7.205 -2.1471 -3.3522 -1.7194
 2884SOL    HW220286   0.673   0.475   7.251 -0.9270  0.7696 -0.5809
 2885SOL     OW20287   1.546   4.301   3.326 -0.8862  0.3760 -0.6191
 2885SOL    HW120288   1.552   4.208   3.350  0.7468  0.9387  1.1150
 2885SOL    HW220289   1.543   4.354   3.405  2.1441  1.1406 -1.0255
 2886SOL     OW20290   2.056   4.663   8.766  0.3162  0.4731 -0.1166
 2886SOL    HW120291   2.113   4.731   8.803 -1.2870  0.9225  1.5084
 2886SOL    HW220292   2.113   4.626   8.698  0.2437 -1.6020  0.9560
 2887SOL     OW20293   3.470   3.541   2.068  0.0402  0.0454 -0.0584
 2887SOL    HW120294   3.493   3.591   2.146  0.4659  0.5854 -0.5216
 2887SOL    HW220295   3.384   3.577   2.046  0.5087  1.1213 -0.1250
 2888SOL     OW20296   1.940   2.762  13.301  0.6124 -0.6478 -0.0591
 2888SOL    HW120297   1.855   2.804  13.315  1.4777  0.9541  0.3257
 2888SOL    HW220298   1.925   2.683  13.354  0.0651  1.0185  2.2285
 2889SOL     OW20299   3.471   1.456   0.783 -0.3880  0.1690  0.0252
 2889SOL    HW120300   3.451   1.517   0.854 -1.1369 -0.8373  0.6610
 2889SOL    HW220301   3.472   1.517   0.709 -0.5564  2.0426  1.5648
 2890SOL     OW20302   1.656   3.945   4.547 -0.5261 -0.0236  0.6194
 2890SOL    HW120303   1.610   4.018   4.505  2.7090  1.0458 -1.0911
 2890SOL    HW220304   1.676   3.894   4.469  2.7127 -1.2388  2.2685
 2891SOL     OW20305   0.580   2.502   8.075  0.3896  0.1341  0.2830
 2891SOL    HW120306   0.621   2.454   8.146 -0.0718 -0.6556  0.0181
 2891SOL    HW220307   0.509   2.539   8.127 -0.1614  1.1721 -1.1861
 2892SOL     OW20308   1.596   2.294   4.387 -0.0856  0.0214 -0.0813
 2892SOL    HW120309   1.551   2.238   4.449  0.7271  0.0710  0.5555
 2892SOL    HW220310   1.526   2.312   4.324 -2.0701 -0.6926  1.9661
 2893SOL     OW20311   0.434   0.855  13.877 -0.1956  0.4615 -0.3642
 2893SOL    HW120312   0.461   0.800  13.951  1.0877  0.3635 -0.9006
 2893SOL    HW220313   0.339   0.853  13.888 -0.5124  1.9703 -2.8718
 2894SOL     OW20314   4.559   3.933   3.346 -0.2717 -0.1100 -0.4144
 2894SOL    HW120315   4.618   3.928   3.422 -0.3536 -0.5678 -0.3786
 2894SOL    HW220316   4.621   3.893   3.285  0.9205 -0.7828  1.2015
 2895SOL     OW20317   2.610   0.056  12.849 -0.6195 -0.5609  0.1291
 2895SOL    HW120318   2.656   0.003  12.915  0.3208 -0.6440 -0.5864
 2895SOL    HW220319   2.618   0.144  12.886 -0.2841 -0.8832  0.8199
 2896SOL     OW20320   0.431   3.630   0.811  0.7030  0.1977 -0.1969
 2896SOL    HW120321   0.469   3.683   0.882  0.6474  0.9234 -0.7108
 2896SOL    HW220322   0.512   3.584   0.790 -0.1353 -0.2171 -2.5174
 2897SOL     OW20323   3.173   0.050   3.966 -0.0587 -0.2234 -0.8867
 2897SOL    HW120324   3.223   0.054   3.885  1.7431  0.6139  0.2573
 2897SOL    HW220325   3.226   0.113   4.014  1.8727  0.8317 -4.3944
 2898SOL     OW20326   3.734   3.454   7.996 -0.4254  0.2124  0.2319
 2898SOL    HW120327   3.803   3.450   7.930 -0.5427  0.5877  0.0873
 2898SOL    HW220328   3.757   3.540   8.032 -0.0825 -0.1869  0.9770
 2899SOL     OW20329   1.919   3.641   5.066  0.4067 -0.7073 -0.1279
 2899SOL    HW120330   1.998   3.694   5.054 -0.0494 -0.3985 -1.7675
 2899SOL    HW220331   1.853   3.702   5.033  0.3715 -0.3449  0.5960
 2900SOL     OW20332   1.983   0.944   9.470  0.8058  0.2628 -0.8807
 2900SOL    HW120333   1.936   0.888   9.408 -1.5220  0.2864  0.8610
 2900SOL    HW220334   2.041   0.876   9.504 -0.6873 -0.8553 -0.5226
 2901SOL     OW20335   4.088   1.882   3.414  0.2757 -0.6240 -0.2346
 2901SOL    HW120336   4.089   1.975   3.435 -2.6892 -0.7513  0.5154
 2901SOL    HW220337   4.168   1.849   3.456 -0.0341  1.5923  2.0986
 2902SOL     OW20338   1.699   3.317   5.574  0.0662  0.3457 -0.5401
 2902SOL    HW120339   1.746   3.234   5.577  0.2709  0.4512 -0.8211
 2902SOL    HW220340   1.681   3.331   5.667  0.0315  0.6073 -0.5840
 2903SOL     OW20341   1.270   1.516   9.170 -0.2539  0.3142  0.1168
 2903SOL    HW120342   1.349   1.570   9.162  0.3464 -0.1536  2.8176
 2903SOL    HW220343   1.266   1.499   9.264  4.0279 -0.4651  0.1452
 2904SOL     OW20344   2.576   2.271  12.674  0.5913  0.3326 -0.4371
 2904SOL    HW120345   2.579   2.342  12.738 -0.5643  0.8791 -0.9911
 2904SOL    HW220346   2.652   2.306  12.627  0.3133 -0.8451 -1.7781
 2905SOL     OW20347   4.416   1.749   1.664 -0.4443 -0.0406 -0.1629
 2905SOL    HW120348   4.346   1.723   1.605 -0.6520 -2.5138  1.1500
 2905SOL    HW220349   4.429   1.670   1.716  0.0728 -0.2762 -0.6542
 2906SOL     OW20350   3.176   1.429  14.095 -0.3393  0.4843 -0.8939
 2906SOL    HW120351   3.216   1.489  14.033  0.2831  0.9004 -0.0863
 2906SOL    HW220352   3.105   1.387  14.046  0.8119  1.1596 -3.1165
 2907SOL     OW20353   1.524   2.286   3.241  0.0579 -0.1059  0.1981
 2907SOL    HW120354   1.553   2.293   3.151  0.8392  0.6069  0.5042
 2907SOL    HW220355   1.479   2.201   3.241 -0.8074  0.3601 -0.2595
 2908SOL     OW20356   2.308   4.208   5.140  0.2479  0.1560  0.4833
 2908SOL    HW120357   2.359   4.146   5.191 -0.8940 -0.7705  0.4894
 2908SOL    HW220358   2.377   4.244   5.085  0.6529  1.3993  1.7780
 2909SOL     OW20359   0.826   2.596  13.271 -0.1826 -0.6332  0.0627
 2909SOL    HW120360   0.841   2.687  13.244  1.3652 -0.8701  0.1470
 2909SOL    HW220361   0.876   2.551  13.204  0.5112 -0.6207  0.5726
 2910SOL     OW20362   3.890   1.363  15.128 -0.0803 -0.1505  0.3705
 2910SOL    HW120363   3.937   1.371  15.045  2.0592  0.4664  1.6200
 2910SOL    HW220364   3.961   1.386  15.188  1.5810  0.2673 -1.7308
 2911SOL     OW20365   1.151   3.721   8.331 -0.1654 -0.4657  0.1999
 2911SOL    HW120366   1.244   3.740   8.341 -0.1030 -0.7338  0.1124
 2911SOL    HW220367   1.154   3.675   8.247 -2.4290  0.3003 -0.2982
 2912SOL     OW20368   0.711   0.342  10.842  0.1141  0.2223 -0.2958
 2912SOL    HW120369   0.645   0.402  10.807  0.0249  1.7971  2.5562
 2912SOL    HW220370   0.709   0.277  10.772  0.2792 -0.9760  0.7997
 2913SOL     OW20371   2.442   2.177   6.425 -0.3920  0.4629  0.1877
 2913SOL    HW120372   2.374   2.136   6.477  0.8350 -2.7063 -0.7220
 2913SOL    HW220373   2.433   2.149   6.334  1.5801  0.9371 -0.1569
 2914SOL     OW20374   4.242   3.765  14.144 -0.3635 -0.2534  0.1375
 2914SOL    HW120375   4.173   3.831  14.154 -2.1513 -1.8799 -1.5623
 2914SOL    HW220376   4.264   3.749  14.236 -0.3670  0.6990  0.3018
 2915SOL     OW20377   1.172   0.539  15.244 -0.3747 -0.0133 -0.6276
 2915SOL    HW120378   1.102   0.538  15.178 -2.3482  1.6297  1.4334
 2915SOL    HW220379   1.118   0.558  15.321  0.2260 -0.2615 -0.1512
 2916SOL     OW20380   0.268   3.846   5.718  0.3192  0.5774  0.1110
 2916SOL    HW120381   0.258   3.939   5.740 -0.0578  0.5755 -0.0513
 2916SOL    HW220382   0.184   3.811   5.747  0.6255  0.5657  0.9870
 2917SOL     OW20383   1.220   2.086   3.751  0.1875  0.0930  0.7277
 2917SOL    HW120384   1.282   2.030   3.797  1.2248 -0.2560 -1.1109
 2917SOL    HW220385   1.243   2.169   3.794  1.4886  0.2485 -0.2828
 2918SOL     OW20386   3.258   1.746   5.762  0.0446  0.0716 -0.3786
 2918SOL    HW120387   3.218   1.659   5.767  0.9674 -0.2686  1.2849
 2918SOL    HW220388   3.183   1.803   5.777  0.3426  0.4031 -0.1246
 2919SOL     OW20389   4.208   0.355   3.988 -0.5269  0.4096  0.3886
 2919SOL    HW120390   4.273   0.421   4.012 -0.8881 -0.3664  3.5072
 2919SOL    HW220391   4.225   0.343   3.895  0.8486 -1.2347  0.8527
 2920SOL     OW20392   3.334   1.905  11.458 -0.4268 -0.1064  0.3009
 2920SOL    HW120393   3.407   1.871  11.405 -0.8377  0.1459 -0.4320
 2920SOL    HW220394   3.256   1.856  11.431 -0.1734  0.1034 -0.8127
 2921SOL     OW20395   3.528   4.641   0.272  0.2211  0.2566 -0.1556
 2921SOL    HW120396   3.513   4.666   0.181 -0.2475 -1.1978 -0.4761
 2921SOL    HW220397   3.517   4.546   0.267  0.0722  0.2735 -0.1381
 2922SOL     OW20398   3.620   1.831   1.006  0.1392  0.5736  0.4773
 2922SOL    HW120399   3.579   1.824   1.091  0.9185  1.4911  0.9410
 2922SOL    HW220400   3.584   1.757   0.957  0.7040  0.0943  0.7889
 2923SOL     OW20401   4.431   2.189  11.920  0.8628 -0.1270  0.2738
 2923SOL    HW120402   4.385   2.106  11.922 -0.8858  0.8331  0.0622
 2923SOL    HW220403   4.418   2.213  11.828  2.4633 -0.7624 -0.1247
 2924SOL     OW20404   4.367   0.929   7.923  0.1395  0.2918 -0.0974
 2924SOL    HW120405   4.282   0.972   7.910 -0.2130  0.0605  1.3819
 2924SOL    HW220406   4.412   0.991   7.981 -0.2197  0.6487 -0.1946
 2925SOL     OW20407   4.300   4.579   9.461 -0.3394  0.1199  0.2137
 2925SOL    HW120408   4.326   4.649   9.401 -0.6017 -1.2809 -1.5394
 2925SOL    HW220409   4.237   4.626   9.515 -1.2429 -0.1753 -0.5838
 2926SOL     OW20410   2.826   1.387   9.046 -0.1085 -0.2542  0.5009
 2926SOL    HW120411   2.864   1.440   8.976 -3.4147  3.0783  1.2367
 2926SOL    HW220412   2.758   1.448   9.074 -1.1067 -0.9111 -0.5366
 2927SOL     OW20413   3.080   1.195   8.594 -0.3824  0.0256 -0.1036
 2927SOL    HW120414   2.985   1.196   8.583 -0.2323  2.8986 -1.2626
 2927SOL    HW220415   3.100   1.260   8.526  0.6953 -1.6498 -1.3768
 2928SOL     OW20416   2.364   0.173   6.705 -0.4045  0.4041 -0.3832
 2928SOL    HW120417   2.289   0.129   6.666 -1.0973  1.4145 -0.1708
 2928SOL    HW220418   2.380   0.120   6.784  0.6454  2.3088  0.6676
 2929SOL     OW20419   0.822   0.670   7.725 -0.4262 -0.2353 -0.3351
 2929SOL    HW120420   0.911   0.704   7.734  0.0493 -1.4775 -0.4100
 2929SOL    HW220421   0.804   0.668   7.631 -1.5797 -1.0947 -0.0968
 2930SOL     OW20422   2.647   1.966   7.678  0.5169 -0.1385 -0.2236
 2930SOL    HW120423   2.694   1.984   7.597 -2.1969  0.3646 -1.6755
 2930SOL    HW220424   2.606   2.049   7.704  0.9698 -0.1121  0.4198
 2931SOL     OW20425   2.512   2.141   4.935 -0.0356 -0.5791  0.7046
 2931SOL    HW120426   2.535   2.133   4.842  0.6135 -1.0110  0.9013
 2931SOL    HW220427   2.524   2.048   4.956  0.3111 -1.0995 -1.7492
 2932SOL     OW20428   4.606   0.456  14.247 -0.1218 -0.6725  0.0285
 2932SOL    HW120429   4.627   0.390  14.181  0.7566 -0.8679  0.5096
 2932SOL    HW220430   4.525   0.502  14.223  0.7294 -0.0104 -1.6084
 2933SOL     OW20431   3.206   0.349   1.430 -0.3545 -0.3083  0.0621
 2933SOL    HW120432   3.246   0.275   1.383 -1.3057 -1.1511  0.5919
 2933SOL    HW220433   3.151   0.296   1.487  0.4184 -0.3767  0.7464
 2934SOL     OW20434   1.678   2.822   8.792  0.1439 -0.2343  0.6619
 2934SOL    HW120435   1.599   2.785   8.752 -0.5384  0.1086  1.6872
 2934SOL    HW220436   1.678   2.913   8.765  0.4159 -0.4975 -0.2313
 2935SOL     OW20437   3.455   3.885   2.143 -0.0022  0.0123 -0.8008
 2935SOL    HW120438   3.545   3.914   2.158  0.6940 -2.8330  0.4164
 2935SOL    HW220439   3.452   3.812   2.205 -1.2922 -0.7161 -1.7137
 2936SOL     OW20440   0.690   2.999   4.328 -0.1477 -0.5792  0.1376
 2936SOL    HW120441   0.759   2.958   4.380 -1.7926  0.6078  3.2968
 2936SOL    HW220442   0.734   3.027   4.248 -1.2953 -3.8394 -1.6215
 2937SOL     OW20443   4.232   0.746   7.381 -0.3982  0.0094 -0.6004
 2937SOL    HW120444   4.167   0.711   7.443 -2.1010 -1.0353 -2.9547
 2937SOL    HW220445   4.187   0.738   7.297 -1.1227 -0.8984 -0.1315
 2938SOL     OW20446   0.524   4.252  13.170 -0.6991 -0.3778  0.1761
 2938SOL    HW120447   0.553   4.188  13.104  0.3072  0.8322 -0.5565
 2938SOL    HW220448   0.454   4.201  13.210  1.0331 -1.8932  1.2717
 2939SOL     OW20449   4.624   2.873   4.244 -0.2881  0.4882  0.4285
 2939SOL    HW120450   4.646   2.966   4.233  1.3490 -0.1618 -1.7226
 2939SOL    HW220451   4.568   2.849   4.170 -0.1982 -0.6393  0.7353
 2940SOL     OW20452   3.626   4.341   8.359 -0.3183 -0.1212  0.7218
 2940SOL    HW120453   3.540   4.323   8.319 -0.4210 -0.8506  1.2543
 2940SOL    HW220454   3.609   4.420   8.409 -0.6346 -0.2199  0.7691
 2941SOL     OW20455   3.278   1.162   4.896 -0.1760 -0.4791 -0.2135
 2941SOL    HW120456   3.259   1.104   4.822  0.9089 -1.0989  0.0050
 2941SOL    HW220457   3.240   1.120   4.973  2.9293  0.2922  1.7100
 2942SOL     OW20458   0.784   2.774   9.484 -0.4723 -0.0840  0.3804
 2942SOL    HW120459   0.811   2.862   9.455  1.7481 -1.7775 -2.6813
 2942SOL    HW220460   0.696   2.797   9.512 -1.2430 -1.3933 -1.0139
 2943SOL     OW20461   3.348   4.606   2.843  0.3179  0.1433  0.6446
 2943SOL    HW120462   3.389   4.550   2.777  1.3560  1.0461  0.5257
 2943SOL    HW220463   3.280   4.654   2.794 -2.4286 -2.7933  1.5918
 2944SOL     OW20464   2.818   2.155  15.675  0.0655 -0.1517 -0.5845
 2944SOL    HW120465   2.757   2.126  15.608 -0.6625  0.4504 -0.1742
 2944SOL    HW220466   2.851   2.070  15.703  0.3455 -0.3574 -1.5237
 2945SOL     OW20467   4.385   0.361   7.166 -0.7171  0.1175 -0.2354
 2945SOL    HW120468   4.437   0.441   7.157 -0.7875  0.2761  0.7249
 2945SOL    HW220469   4.415   0.291   7.109  0.0560  0.6091 -0.4289
 2946SOL     OW20470   3.043   4.064   9.666  0.2697  0.0095  0.7998
 2946SOL    HW120471   2.950   4.085   9.665  0.4228  0.5443 -0.7968
 2946SOL    HW220472   3.083   4.150   9.681  0.9446 -0.5239  2.1326
 2947SOL     OW20473   2.887   2.960   2.918 -0.2846  0.4872  0.1720
 2947SOL    HW120474   2.910   3.019   2.990  0.7806  0.5651 -0.2358
 2947SOL    HW220475   2.797   2.938   2.941 -1.0357  2.2248 -1.1798
 2948SOL     OW20476   2.836   1.472  17.012  0.3128 -0.1770 -0.3630
 2948SOL    HW120477   2.889   1.548  17.037  0.7641 -0.8393  0.6828
 2948SOL    HW220478   2.842   1.484  16.917  0.7385 -3.7664 -0.7861
 2949SOL     OW20479   0.810   0.012  12.561  0.4052  0.2420 -0.0622
 2949SOL    HW120480   0.902   4.720  12.553  0.0556 -0.7770 -0.4624
 2949SOL    HW220481   0.802   0.049  12.473  2.6307 -1.5588 -1.0213
 2950SOL     OW20482   3.477   0.043   8.876 -0.0660  0.5513 -0.9217
 2950SOL    HW120483   3.528   4.706   8.846  0.4235  0.4231  0.2281
 2950SOL    HW220484   3.410   0.044   8.807 -0.4437  2.7637 -0.5455
 2951SOL     OW20485   0.426   0.251   8.658  0.3680  0.0435 -0.5987
 2951SOL    HW120486   0.424   0.339   8.697  0.0315  0.7575 -2.2106
 2951SOL    HW220487   0.348   0.215   8.700  0.3619 -0.5405 -1.1120
 2952SOL     OW20488   4.192   2.614   0.857  0.2233  0.3501 -0.7552
 2952SOL    HW120489   4.180   2.615   0.952  2.9641  1.8891 -0.4353
 2952SOL    HW220490   4.106   2.643   0.826 -0.8210 -0.9979  0.9621
 2953SOL     OW20491   4.493   0.889   5.771 -0.1958  0.6469  0.2795
 2953SOL    HW120492   4.502   0.794   5.766  0.4860  0.7111  0.2793
 2953SOL    HW220493   4.449   0.926   5.694  1.1174  1.2485 -0.1895
 2954SOL     OW20494   4.308   3.368   7.582  0.3808  0.0183 -0.0704
 2954SOL    HW120495   4.230   3.346   7.632  0.3041 -0.5218 -0.4365
 2954SOL    HW220496   4.340   3.279   7.570  3.5140  0.9546  1.3616
 2955SOL     OW20497   0.109   0.640   0.886  0.0620 -0.2485  0.0643
 2955SOL    HW120498   0.090   0.669   0.975 -0.8155  0.1033 -0.2367
 2955SOL    HW220499   0.090   0.720   0.836 -1.3608 -1.4738 -1.3836
 2956SOL     OW20500   2.200   1.227   2.596  0.0870 -0.3976 -0.6720
 2956SOL    HW120501   2.247   1.151   2.629  1.4398  1.2450  1.1290
 2956SOL    HW220502   2.111   1.190   2.597  0.0080 -0.1498  2.4186
 2957SOL     OW20503   1.014   4.242   1.050  0.2605  0.0277 -0.0447
 2957SOL    HW120504   0.996   4.172   1.112 -1.6757 -0.4245 -1.1137
 2957SOL    HW220505   0.944   4.302   1.073 -0.5628 -1.0117  0.1324
 2958SOL     OW20506   1.161   4.589  12.488 -0.0128  0.3597 -0.3149
 2958SOL    HW120507   1.145   4.681  12.510  1.6117  1.1019 -2.2858
 2958SOL    HW220508   1.251   4.574  12.518  0.1640  2.0343 -0.0230
 2959SOL     OW20509   3.960   0.256  13.299  0.0579  0.4867 -0.6024
 2959SOL    HW120510   3.982   0.164  13.290 -1.8720 -0.1328  1.0219
 2959SOL    HW220511   3.964   0.266  13.395  1.5147 -0.6020 -0.5548
 2960SOL     OW20512   1.595   4.460   9.494  0.1633  0.0849  0.3628
 2960SOL    HW120513   1.669   4.504   9.534 -0.1322 -0.0789  1.0974
 2960SOL    HW220514   1.597   4.485   9.401  0.4759 -1.5674 -0.0737
 2961SOL     OW20515   0.305   3.610   8.888  0.1708  0.6719 -0.5316
 2961SOL    HW120516   0.262   3.581   8.808 -1.1780  0.3387  0.3202
 2961SOL    HW220517   0.391   3.602   8.847  1.2763 -1.6788  2.2443
 2962SOL     OW20518   2.637   1.604   9.174  0.1579 -0.6590  0.0975
 2962SOL    HW120519   2.649   1.580   9.266 -0.6891 -0.1902  0.3301
 2962SOL    HW220520   2.544   1.624   9.183  0.2036  0.1494 -1.1466
 2963SOL     OW20521   1.626   1.131   4.606  0.2774 -0.0930  0.0917
 2963SOL    HW120522   1.659   1.041   4.603 -1.5862 -0.7850  0.8211
 2963SOL    HW220523   1.604   1.142   4.513 -0.4789  0.0449  0.2903
 2964SOL     OW20524   1.006   4.574   4.653 -0.2104  0.1007 -0.3474
 2964SOL    HW120525   0.914   4.579   4.624 -0.3025  0.5964  0.0397
 2964SOL    HW220526   1.058   4.561   4.574 -0.1779  1.0972 -0.4931
 2965SOL     OW20527   1.939   3.337   4.305 -0.2967  0.4037 -0.2946
 2965SOL    HW120528   1.992   3.291   4.240  2.2670  2.0972  0.6015
 2965SOL    HW220529   1.899   3.396   4.241  0.5814  0.1951 -1.0444
 2966SOL     OW20530   1.080   1.421   1.698 -0.1061 -0.3458 -0.3044
 2966SOL    HW120531   1.108   1.498   1.748 -4.0573  1.3224 -0.6150
 2966SOL    HW220532   1.119   1.353   1.752  0.1145  1.2019  1.4974
 2967SOL     OW20533   1.322   4.564   8.443 -0.3656 -0.0789  0.2734
 2967SOL    HW120534   1.270   4.632   8.487 -1.2971 -0.5432 -0.1277
 2967SOL    HW220535   1.321   4.502   8.516 -1.6655  1.9906  2.0251
 2968SOL     OW20536   3.301   1.750  10.111  0.7202  0.1286 -0.1786
 2968SOL    HW120537   3.284   1.828  10.164 -0.1786  0.6702 -1.2585
 2968SOL    HW220538   3.361   1.698  10.164 -0.1753 -0.8241 -0.0996
 2969SOL     OW20539   0.612   0.898   0.115 -0.1511  0.6179 -0.0342
 2969SOL    HW120540   0.593   0.910   0.208 -0.3037 -1.4576  0.2055
 2969SOL    HW220541   0.533   0.855   0.083  0.9400 -2.8106  1.8714
 2970SOL     OW20542   1.449   1.978   1.158 -0.1295  0.5482  0.2089
 2970SOL    HW120543   1.455   1.899   1.212 -2.1867 -0.8587 -1.6592
 2970SOL    HW220544   1.479   2.041   1.224 -0.9812 -0.7954  1.8772
 2971SOL     OW20545   3.172   1.270   1.830  0.3622 -0.5997  0.2344
 2971SOL    HW120546   3.253   1.315   1.808 -0.4023  0.4609 -0.4260
 2971SOL    HW220547   3.207   1.208   1.894  1.9883 -0.1508 -0.2212
 2972SOL     OW20548   3.242   2.439   7.256  0.0591 -0.3799  0.1543
 2972SOL    HW120549   3.300   2.400   7.191  1.0208  0.3878  0.5692
 2972SOL    HW220550   3.255   2.376   7.327  1.4663 -1.6571 -1.2525
 2973SOL     OW20551   4.276   4.407   1.433 -0.3550 -0.1041  0.4823
 2973SOL    HW120552   4.311   4.496   1.436 -2.5453  0.8116 -0.5631
 2973SOL    HW220553   4.188   4.431   1.401 -0.0993 -0.5854 -0.5998
 2974SOL     OW20554   1.259   0.696   5.318  0.1663  0.6486 -0.1310
 2974SOL    HW120555   1.344   0.740   5.327  1.5920 -2.0759 -0.3577
 2974SOL    HW220556   1.221   0.727   5.236  0.9161  0.6330 -0.4834
 2975SOL     OW20557   0.658   4.333  17.585  0.8831  0.4375  0.4964
 2975SOL    HW120558   0.589   4.268  17.596 -1.6132  3.4102  2.2071
 2975SOL    HW220559   0.722   4.274  17.543 -1.7835 -1.9078 -0.2735
 2976SOL     OW20560   0.498   2.779   4.592  0.0290 -0.3193 -0.2719
 2976SOL    HW120561   0.477   2.861   4.636 -0.4218 -0.3235 -0.4800
 2976SOL    HW220562   0.480   2.801   4.500 -1.8955  1.4644  0.5364
 2977SOL     OW20563   3.787   1.528   7.108  0.5727 -0.6724 -0.4514
 2977SOL    HW120564   3.758   1.490   7.192 -0.5017  1.6279  0.2287
 2977SOL    HW220565   3.806   1.619   7.131 -0.7630 -0.0153 -1.9501
 2978SOL     OW20566   4.168   4.416   8.595  0.2357 -0.0801 -0.0129
 2978SOL    HW120567   4.133   4.376   8.516 -0.4624  1.7203 -0.6249
 2978SOL    HW220568   4.227   4.485   8.563 -2.5462  1.9316 -0.8276
 2979SOL     OW20569   3.195   4.638   8.227  0.0133 -0.0949  0.3739
 2979SOL    HW120570   3.287   4.649   8.204 -0.2265  1.0453 -0.0477
 2979SOL    HW220571   3.202   4.619   8.321 -1.6670 -3.1990 -0.1215
 2980SOL     OW20572   0.669   0.406  11.621  0.4114  0.0874 -0.8377
 2980SOL    HW120573   0.682   0.374  11.532  1.2690 -3.0908  0.4255
 2980SOL    HW220574   0.743   0.466  11.630 -0.1866  0.6662  0.2985
 2981SOL     OW20575   4.686   3.524   7.713 -0.2916  0.7255  0.0862
 2981SOL    HW120576   0.043   3.539   7.722  0.0179 -0.8964 -0.3813
 2981SOL    HW220577   4.649   3.556   7.795 -0.8920 -0.4741  0.2892
 2982SOL     OW20578   2.414   3.471   4.312 -0.2788  0.2610  0.4217
 2982SOL    HW120579   2.344   3.487   4.375 -0.5480 -1.5233  0.5920
 2982SOL    HW220580   2.488   3.506   4.361  1.8782 -0.4764 -2.3320
 2983SOL     OW20581   3.370   3.129   5.213  0.2563  0.1016  0.0837
 2983SOL    HW120582   3.311   3.130   5.288 -0.3458  0.8349 -0.4018
 2983SOL    HW220583   3.449   3.166   5.253  0.2457 -0.6175  0.7637
 2984SOL     OW20584   1.492   2.659   4.074 -0.6341  0.6118  0.1423
 2984SOL    HW120585   1.485   2.743   4.029 -1.5482  0.4442 -0.0191
 2984SOL    HW220586   1.511   2.682   4.165 -0.2633 -0.8858  0.4421
 2985SOL     OW20587   2.819   3.938  13.773  0.3864 -0.2202  0.0039
 2985SOL    HW120588   2.852   4.021  13.807  0.4034  0.9181 -2.8148
 2985SOL    HW220589   2.829   3.884  13.852  1.1274 -0.2761 -0.1328
 2986SOL     OW20590   1.966   4.252   6.424  0.6508  0.2445  0.1598
 2986SOL    HW120591   1.891   4.273   6.479  2.5544  0.5164  2.6303
 2986SOL    HW220592   1.946   4.267   6.331  2.0997  0.2650 -0.1435
 2987SOL     OW20593   1.850   4.494   9.371  0.4458  0.2567  0.4234
 2987SOL    HW120594   1.875   4.568   9.426 -0.1166  1.6834 -1.2240
 2987SOL    HW220595   1.816   4.540   9.294 -0.5091 -1.3705 -0.1157
 2988SOL     OW20596   3.768   3.699   6.599 -0.8672  0.0886  0.1924
 2988SOL    HW120597   3.723   3.748   6.668 -1.4393 -2.6243  1.7767
 2988SOL    HW220598   3.701   3.685   6.532  2.0583 -2.6152 -2.1711
 2989SOL     OW20599   0.215   2.577  16.490  0.0878 -0.0075  0.1105
 2989SOL    HW120600   0.291   2.631  16.467 -0.9705  0.6206 -1.9319
 2989SOL    HW220601   0.191   2.606  16.578 -0.9163 -1.7871  0.4087
 2990SOL     OW20602   0.815   3.078   4.095  0.3286  0.1034  0.9804
 2990SOL    HW120603   0.837   3.041   4.009  0.9149 -0.4113  1.3459
 2990SOL    HW220604   0.795   3.170   4.079 -0.0373 -0.2449 -0.5557
 2991SOL     OW20605   2.657   1.505  14.839  0.6013 -0.2104  0.0829
 2991SOL    HW120606   2.650   1.417  14.876 -0.5812  0.8290  2.3117
 2991SOL    HW220607   2.741   1.530  14.878 -0.1398  2.6512 -0.1455
 2992SOL     OW20608   0.342   1.007   4.237 -0.0588  0.5463  0.3329
 2992SOL    HW120609   0.376   1.096   4.248 -0.5843  0.9317 -1.1163
 2992SOL    HW220610   0.383   0.982   4.154  1.3104 -0.9301  1.4402
 2993SOL     OW20611   2.184   0.519   2.311  0.2741 -0.0618  0.4701
 2993SOL    HW120612   2.209   0.436   2.352  1.2920  0.4989  0.9861
 2993SOL    HW220613   2.126   0.553   2.379 -0.3694 -0.7142  0.2398
 2994SOL     OW20614   3.880   3.839   7.497 -0.1871  0.0416  0.2632
 2994SOL    HW120615   3.794   3.846   7.456 -0.1717  2.4526  0.6210
 2994SOL    HW220616   3.905   3.931   7.505 -1.2093  0.4387 -1.0801
 2995SOL     OW20617   1.364   1.417   4.862 -0.2925  0.3431 -0.3308
 2995SOL    HW120618   1.458   1.432   4.873 -0.1981  0.3374 -1.1216
 2995SOL    HW220619   1.352   1.434   4.769 -3.7015 -0.8475 -0.1158
 2996SOL     OW20620   3.344   0.997   7.266 -0.1133 -0.4661  0.3713
 2996SOL    HW120621   3.394   0.994   7.348 -0.5198 -0.6854  0.6156
 2996SOL    HW220622   3.403   1.046   7.209 -1.1076  0.3749  0.0647
 2997SOL     OW20623   0.665   2.977   6.325 -0.0892  0.1018 -0.2208
 2997SOL    HW120624   0.575   2.993   6.353 -0.1974  0.2446 -0.6421
 2997SOL    HW220625   0.659   3.030   6.245  1.5395  0.3363 -0.1977
 2998SOL     OW20626   4.553   0.036   0.747  0.7847 -0.5843 -0.2793
 2998SOL    HW120627   4.644   0.064   0.762  0.7480 -0.8641  0.4731
 2998SOL    HW220628   4.501   0.086   0.810  1.3520 -3.2246  2.2722
 2999SOL     OW20629   1.070   3.153   6.196 -0.2713  0.6351  0.3533
 2999SOL    HW120630   1.032   3.123   6.279  1.6186  3.3689  2.2013
 2999SOL    HW220631   1.036   3.093   6.130  0.6105  0.1372  0.3645
 3000SOL     OW20632   2.896   1.517  14.967  0.1961  0.3250  0.0161
 3000SOL    HW120633   2.974   1.463  14.982 -1.5125 -1.0453  4.0787
 3000SOL    HW220634   2.921   1.587  15.028  0.7533  2.5624 -2.7964
 3001SOL     OW20635   3.383   2.101   7.398 -0.3251 -0.1651 -0.5167
 3001SOL    HW120636   3.359   2.073   7.486  1.0931  0.1986 -0.0276
 3001SOL    HW220637   3.358   2.021   7.351  0.0540 -1.4804  1.5373
 3002SOL     OW20638   2.097   3.332   3.549  0.7582 -0.5237 -0.1432
 3002SOL    HW120639   2.180   3.299   3.582  0.9879  0.8651  0.6675
 3002SOL    HW220640   2.074   3.396   3.617  0.5030  0.5164 -1.2244
 3003SOL     OW20641   1.711   2.694   6.255 -0.0291 -0.5959 -0.5537
 3003SOL    HW120642   1.647   2.739   6.199 -0.4965 -1.3013 -0.5891
 3003SOL    HW220643   1.702   2.601   6.235 -0.9574 -0.9492  1.4089
 3004SOL     OW20644   0.268   3.487   1.078  0.2179 -0.4546 -0.0690
 3004SOL    HW120645   0.200   3.480   1.011  2.3820 -1.5410 -2.1450
 3004SOL    HW220646   0.211   3.487   1.155 -0.8336 -1.0190 -0.8421
 3005SOL     OW20647   4.438   0.227   6.950  0.1609  0.0739 -0.1556
 3005SOL    HW120648   4.362   0.173   6.928 -0.0919 -0.3333  1.7397
 3005SOL    HW220649   4.442   0.277   6.868 -1.2918  0.4536  0.0000
 3006SOL     OW20650   2.447   3.616   7.614  0.1463  0.7392  0.4527
 3006SOL    HW120651   2.431   3.525   7.638  1.2532  0.7917  1.4077
 3006SOL    HW220652   2.359   3.648   7.634  0.1119 -0.0519  1.5823
 3007SOL     OW20653   0.172   4.612   6.267  0.0536  0.0048 -0.3187
 3007SOL    HW120654   0.110   4.604   6.340  2.1681 -2.5129  1.1916
 3007SOL    HW220655   0.224   4.532   6.276 -0.0123 -0.1972 -1.7542
 3008SOL     OW20656   2.928   0.207   5.256 -0.3176 -0.4476 -0.1442
 3008SOL    HW120657   3.022   0.223   5.254 -0.6408  1.3630 -1.4919
 3008SOL    HW220658   2.902   0.259   5.332  0.3411  0.2822 -0.4206
 3009SOL     OW20659   1.153   2.553   2.631 -0.2974 -0.0180  0.2444
 3009SOL    HW120660   1.152   2.577   2.723 -1.8220 -1.0220  0.4987
 3009SOL    HW220661   1.060   2.531   2.620 -0.5705  0.6836  1.1686
 3010SOL     OW20662   3.649   1.941   3.746 -0.2508 -0.3976 -0.1694
 3010SOL    HW120663   3.623   2.025   3.784  0.3451  0.1480 -0.9626
 3010SOL    HW220664   3.665   1.970   3.656  2.2831 -0.1350  0.3674
 3011SOL     OW20665   4.042   3.553   6.302 -0.2601 -0.0196  0.0321
 3011SOL    HW120666   4.115   3.526   6.359 -1.4854 -0.1478  1.5438
 3011SOL    HW220667   3.991   3.474   6.286 -3.2353  1.6655  1.2371
 3012SOL     OW20668   1.842   3.236   7.587  0.4644  0.5277  0.4946
 3012SOL    HW120669   1.923   3.256   7.634  1.1097  0.4339 -0.5727
 3012SOL    HW220670   1.863   3.292   7.513 -0.2778  0.5243  0.2799
 3013SOL     OW20671   3.112   2.762   6.075  0.3189  0.4263 -0.4783
 3013SOL    HW120672   3.017   2.771   6.064  0.4603  1.5135 -0.7240
 3013SOL    HW220673   3.133   2.673   6.045 -2.1207 -0.9002  1.7060
 3014SOL     OW20674   1.387   2.146  16.559 -0.0894 -0.4370 -0.4979
 3014SOL    HW120675   1.390   2.133  16.465 -1.9739  0.5475 -0.7052
 3014SOL    HW220676   1.438   2.227  16.565  0.2416 -0.6219 -0.8568
 3015SOL     OW20677   3.148   1.362   5.675  0.0515 -0.0213 -0.3446
 3015SOL    HW120678   3.071   1.402   5.715 -0.9723  1.0520 -3.3786
 3015SOL    HW220679   3.149   1.281   5.727 -3.7793 -0.4169 -0.9348
 3016SOL     OW20680   0.915   2.214   3.224  1.0654  0.4596  0.3107
 3016SOL    HW120681   0.871   2.152   3.165 -3.3931  2.6704  1.3230
 3016SOL    HW220682   0.996   2.168   3.244 -0.4949 -2.2330  0.4129
 3017SOL     OW20683   2.613   3.398  16.201  0.1164  0.0084  0.0284
 3017SOL    HW120684   2.599   3.326  16.139  0.5668  1.6753 -1.9936
 3017SOL    HW220685   2.531   3.383  16.248  0.8299 -0.3791  1.1503
 3018SOL     OW20686   4.042   2.851  14.061 -0.8117  0.5002 -0.4345
 3018SOL    HW120687   3.983   2.786  14.098  0.5163 -0.9847 -0.9407
 3018SOL    HW220688   4.008   2.852  13.971 -1.3274  0.1703 -0.2434
 3019SOL     OW20689   1.045   4.453   0.589  0.2731  0.0518 -0.3859
 3019SOL    HW120690   0.962   4.469   0.634  0.1823 -0.7313 -0.2771
 3019SOL    HW220691   1.034   4.520   0.521  0.5387 -0.0016 -0.4835
 3020SOL     OW20692   1.966   0.154  12.996 -0.0546  0.3326  0.0968
 3020SOL    HW120693   1.905   0.210  12.947  0.8920  1.2964  0.0156
 3020SOL    HW220694   2.021   0.108  12.933 -1.1337  0.5255 -0.9869
 3021SOL     OW20695   0.504   3.377  11.191  0.5384 -0.4025  0.2054
 3021SOL    HW120696   0.556   3.458  11.193 -0.4369  0.2516 -0.7667
 3021SOL    HW220697   0.541   3.340  11.271 -1.4782  1.3225  1.9323
 3022SOL     OW20698   4.718   3.588   4.576  0.2238 -0.0573  0.1090
 3022SOL    HW120699   4.713   3.672   4.531  0.0895 -0.1809 -0.1030
 3022SOL    HW220700   4.625   3.565   4.589 -0.7009  2.1297 -2.7478
 3023SOL     OW20701   2.776   1.854  13.865 -0.5921  0.0513 -0.8052
 3023SOL    HW120702   2.747   1.923  13.924 -0.9018 -1.4090  0.7292
 3023SOL    HW220703   2.852   1.832  13.919 -0.9269  0.5285 -0.1406
 3024SOL     OW20704   2.347   2.529  10.784  0.0681 -0.5261 -0.1216
 3024SOL    HW120705   2.310   2.470  10.849  1.2031 -0.5647  0.4885
 3024SOL    HW220706   2.429   2.551  10.829 -0.1167 -0.1323  0.0171
 3025SOL     OW20707   4.174   2.955  17.070  0.4589 -0.4782 -0.0672
 3025SOL    HW120708   4.236   2.925  17.136 -0.2493  1.0972  1.3283
 3025SOL    HW220709   4.119   3.021  17.113  2.8644  0.5811  1.4037
 3026SOL     OW20710   2.749   0.580   0.067  0.4866 -0.0749  0.3608
 3026SOL    HW120711   2.795   0.496   0.074  0.0586 -0.5127 -2.2299
 3026SOL    HW220712   2.824   0.639   0.075  1.0473 -0.8719  0.9437
 3027SOL     OW20713   4.458   4.612  17.118 -0.0673 -0.2146  0.4184
 3027SOL    HW120714   4.538   4.629  17.167  0.3094 -2.8535  0.7359
 3027SOL    HW220715   4.459   4.675  17.046 -2.8920  1.4438  1.8432
 3028SOL     OW20716   2.431   2.424   4.651 -0.2788  0.5425 -0.4029
 3028SOL    HW120717   2.401   2.513   4.630  0.5214  0.9750  0.2698
 3028SOL    HW220718   2.369   2.391   4.716  1.2981  0.6670  1.1672
 3029SOL     OW20719   3.468   3.076   5.514 -0.2695 -0.2170 -0.3812
 3029SOL    HW120720   3.467   2.986   5.547 -0.2075 -0.0049  0.2025
 3029SOL    HW220721   3.375   3.075   5.491 -0.3670 -0.3213  0.0214
 3030SOL     OW20722   3.706   2.741  10.213 -0.5206 -0.3787 -0.3624
 3030SOL    HW120723   3.795   2.770  10.229  0.7136 -2.8516 -2.5930
 3030SOL    HW220724   3.670   2.829  10.220 -1.9087 -0.9620 -0.0920
 3031SOL     OW20725   3.618   0.677   0.383 -0.1259  0.1580 -0.5662
 3031SOL    HW120726   3.522   0.683   0.384 -0.0873  1.0724 -1.8458
 3031SOL    HW220727   3.638   0.677   0.477  0.6031 -1.1834 -0.7227
 3032SOL     OW20728   2.140   0.461   5.051 -0.4541 -0.1536 -0.0480
 3032SOL    HW120729   2.083   0.499   4.984  1.4865 -0.1950 -1.7104
 3032SOL    HW220730   2.185   0.540   5.081 -0.3174 -1.5466  3.3693
 3033SOL     OW20731   0.593   0.337   9.673  0.7315  0.5471 -0.3273
 3033SOL    HW120732   0.545   0.357   9.593  1.3892 -1.2061 -1.1702
 3033SOL    HW220733   0.572   0.243   9.667  2.7213 -0.1682  3.8051
 3034SOL     OW20734   1.505   3.860   7.549  0.5896  0.6400  0.1318
 3034SOL    HW120735   1.593   3.832   7.524  0.4956  1.2412 -0.8725
 3034SOL    HW220736   1.489   3.911   7.469 -0.8303  2.5131  1.6275
 3035SOL     OW20737   0.672   1.668  12.038  0.0464 -0.0830  0.0335
 3035SOL    HW120738   0.659   1.675  11.943  2.6562 -0.4519 -0.3533
 3035SOL    HW220739   0.645   1.752  12.073  2.8129  1.1771 -0.8419
 3036SOL     OW20740   1.833   3.613  12.257  0.7078 -0.1694  0.6019
 3036SOL    HW120741   1.914   3.606  12.206  0.4158 -1.8247  0.3727
 3036SOL    HW220742   1.844   3.534  12.309  0.8365 -0.3733  0.2694
 3037SOL     OW20743   4.649   3.758   9.139  0.2484  0.5557 -0.7416
 3037SOL    HW120744   4.630   3.782   9.229  1.4693 -0.6025 -0.1738
 3037SOL    HW220745   4.568   3.729   9.097 -2.2591  1.8960  3.1997
 3038SOL     OW20746   3.999   2.261   5.038 -0.7179 -0.1753  0.2906
 3038SOL    HW120747   4.053   2.242   5.115  0.4843 -0.7548 -0.6984
 3038SOL    HW220748   3.933   2.312   5.086 -0.9119 -1.7024  1.6347
 3039SOL     OW20749   1.289   2.957   2.692 -0.0522 -0.1813 -0.4571
 3039SOL    HW120750   1.380   2.970   2.665  0.2298 -1.8445 -0.2994
 3039SOL    HW220751   1.283   3.001   2.777  0.4929 -1.4432  0.2328
 3040SOL     OW20752   1.250   4.518   8.182  0.7524  1.2079 -0.0670
 3040SOL    HW120753   1.219   4.429   8.200  0.2586  1.2977 -0.4574
 3040SOL    HW220754   1.296   4.538   8.263  0.8885  1.2231 -0.1463
 3041SOL     OW20755   2.427   4.050   6.456  0.5158  0.1531  0.2109
 3041SOL    HW120756   2.461   4.138   6.440  0.5392 -0.2329 -1.8413
 3041SOL    HW220757   2.409   4.019   6.368  1.2458 -1.4780  0.6252
 3042SOL     OW20758   0.797   2.819   2.506  0.4516 -0.7102 -0.4721
 3042SOL    HW120759   0.852   2.894   2.525 -0.2833 -0.1930 -0.3817
 3042SOL    HW220760   0.859   2.755   2.471  1.3336 -0.9069  1.4949
 3043SOL     OW20761   2.182   0.358   6.330 -0.2857  0.1529  0.8216
 3043SOL    HW120762   2.182   0.284   6.269  3.7349  2.2923 -1.7722
 3043SOL    HW220763   2.127   0.323   6.401 -0.0190 -1.4188  0.2459
 3044SOL     OW20764   3.588   3.412   3.411  0.8551  0.4308  0.0138
 3044SOL    HW120765   3.516   3.394   3.350  1.5374 -1.2905 -0.2905
 3044SOL    HW220766   3.621   3.497   3.384 -1.4043  1.0877 -0.6358
 3045SOL     OW20767   4.022   0.133   3.633 -0.3356 -0.1863 -0.1258
 3045SOL    HW120768   4.012   0.053   3.686 -0.6846  0.8178  1.3394
 3045SOL    HW220769   4.010   0.110   3.541  4.3768 -1.8149 -0.3354
 3046SOL     OW20770   0.339   1.792  16.761  0.2017  0.1750  0.3004
 3046SOL    HW120771   0.251   1.760  16.780 -0.4690 -0.5371 -3.9294
 3046SOL    HW220772   0.335   1.882  16.793  1.9187  0.6771 -0.8864
 3047SOL     OW20773   0.174   3.915  14.797 -0.6497  0.0935 -0.3572
 3047SOL    HW120774   0.117   3.916  14.875  2.2990 -0.9886  1.8111
 3047SOL    HW220775   0.130   3.852  14.740  0.3830  0.1153 -1.1816
 3048SOL     OW20776   0.681   4.350   8.417 -0.2767 -0.5029  0.5534
 3048SOL    HW120777   0.732   4.430   8.427 -0.0438 -0.7897  1.5879
 3048SOL    HW220778   0.594   4.388   8.403  0.3408  0.9082  0.6490
 3049SOL     OW20779   2.314   1.477  10.648  0.9245 -0.0378 -0.4410
 3049SOL    HW120780   2.377   1.460  10.718  1.0867 -0.9967 -0.8257
 3049SOL    HW220781   2.308   1.573  10.654  1.5135  0.0357 -0.9942
 3050SOL     OW20782   2.765   2.967   1.769 -0.0643 -0.4630  0.2246
 3050SOL    HW120783   2.696   2.936   1.827  1.0871  1.9809  2.9007
 3050SOL    HW220784   2.707   2.982   1.694  1.0609  1.1063 -0.3322
 3051SOL     OW20785   2.268   0.617   6.424  0.4098  0.4249 -0.2990
 3051SOL    HW120786   2.246   0.534   6.383 -2.3545  1.4002 -0.8588
 3051SOL    HW220787   2.208   0.609   6.498  1.3213  0.4620  0.4326
 3052SOL     OW20788   4.605   0.952  13.664 -0.2949  0.0605  0.4723
 3052SOL    HW120789   4.648   0.978  13.745  0.4875 -0.3857  0.1996
 3052SOL    HW220790   4.675   0.942  13.599 -0.1715 -1.3825  0.8333
 3053SOL     OW20791   1.924   2.489   4.763  0.2917 -0.6600  0.2444
 3053SOL    HW120792   1.928   2.433   4.841  0.2271  1.6070  1.8578
 3053SOL    HW220793   1.891   2.425   4.699  1.4739 -1.9249  0.8907
 3054SOL     OW20794   1.444   4.356   5.521 -0.1088 -0.2941 -0.5148
 3054SOL    HW120795   1.526   4.314   5.497  1.0897  0.9515  1.3840
 3054SOL    HW220796   1.479   4.440   5.491 -2.8041  1.3620  0.9457
 3055SOL     OW20797   2.956   2.340   7.785  0.3058 -0.2113 -0.0054
 3055SOL    HW120798   3.043   2.332   7.825  0.4803  0.8605 -0.1717
 3055SOL    HW220799   2.920   2.251   7.788  0.8005 -0.4438 -1.2992
 3056SOL     OW20800   1.915   4.702  16.103 -0.3856  0.0351  0.8498
 3056SOL    HW120801   1.947   4.639  16.039  0.1533  1.3295 -0.1729
 3056SOL    HW220802   1.890   4.633  16.163 -0.9610 -0.9711 -0.5558
 3057SOL     OW20803   0.511   2.492   2.093 -0.3442  0.1375 -0.1415
 3057SOL    HW120804   0.585   2.479   2.152 -0.4483 -0.1433 -0.0689
 3057SOL    HW220805   0.557   2.557   2.041  2.1949 -1.1714  0.4722
 3058SOL     OW20806   2.569   2.998   8.735 -0.0185 -0.6557  0.1134
 3058SOL    HW120807   2.597   3.043   8.814  0.2321  0.0180 -0.3554
 3058SOL    HW220808   2.492   3.049   8.711 -0.1936 -1.5949 -1.3153
 3059SOL     OW20809   3.766   2.562   9.776 -0.5373 -0.1800  0.2246
 3059SOL    HW120810   3.727   2.553   9.863 -1.3037  1.3687  0.0317
 3059SOL    HW220811   3.769   2.657   9.786 -0.3014 -0.2509  0.8216
 3060SOL     OW20812   4.374   0.398   6.740 -0.6353 -0.4901  0.0857
 3060SOL    HW120813   4.440   0.459   6.706  0.1311 -0.8695  0.9076
 3060SOL    HW220814   4.320   0.456   6.793  0.5595  1.0436 -0.3591
 3061SOL     OW20815   0.963   3.197   7.197 -0.4216 -0.5879  0.5583
 3061SOL    HW120816   0.923   3.208   7.110  0.5853  0.2910  0.2077
 3061SOL    HW220817   1.042   3.154   7.164  0.4320  1.0763  0.4081
 3062SOL     OW20818   0.890   2.859   5.372  0.1154  0.2335  0.6959
 3062SOL    HW120819   0.892   2.944   5.327  1.0518 -0.5623 -0.7784
 3062SOL    HW220820   0.913   2.797   5.303  0.0407 -0.8604  1.6678
 3063SOL     OW20821   1.391   1.201  16.073 -0.5816 -0.6724 -0.1619
 3063SOL    HW120822   1.409   1.111  16.098 -1.6817 -0.3262  1.7994
 3063SOL    HW220823   1.322   1.236  16.128  0.6867  0.3586  0.7840
 3064SOL     OW20824   2.993   0.926   3.653 -0.6997  0.2163 -0.3188
 3064SOL    HW120825   2.971   1.001   3.599  2.7889  3.4850  2.7384
 3064SOL    HW220826   2.906   0.903   3.686 -0.8899 -1.7473 -2.1792
 3065SOL     OW20827   1.829   2.390   4.454  0.4421 -0.1342 -0.1464
 3065SOL    HW120828   1.741   2.357   4.440  0.2653 -0.5105  1.8117
 3065SOL    HW220829   1.883   2.315   4.430  0.1804 -1.0024  1.9631
 3066SOL     OW20830   4.607   2.944   8.115  0.2483  0.2835 -0.2946
 3066SOL    HW120831   4.568   2.867   8.158 -1.0711  0.5566 -1.0039
 3066SOL    HW220832   4.667   2.977   8.182 -0.0547  0.2327  0.0069
 3067SOL     OW20833   3.850   3.097   7.164  0.1674 -0.3095  0.0334
 3067SOL    HW120834   3.870   3.119   7.073 -2.1290  1.1035 -0.1110
 3067SOL    HW220835   3.930   3.121   7.210  2.1412 -1.1787 -2.9563
 3068SOL     OW20836   0.359   1.612   1.311 -0.3195  0.2247  0.1014
 3068SOL    HW120837   0.325   1.649   1.392  0.0974  0.9966 -0.0787
 3068SOL    HW220838   0.391   1.529   1.345  0.1948 -0.2189 -1.4686
 3069SOL     OW20839   2.368   2.877  10.027  0.0785  0.2099  0.2333
 3069SOL    HW120840   2.348   2.966   9.998 -0.4294  0.5597  1.6700
 3069SOL    HW220841   2.305   2.854  10.096 -0.4754 -1.7491 -0.8960
 3070SOL     OW20842   0.715   3.224  12.289  0.2488  0.4960 -0.0475
 3070SOL    HW120843   0.771   3.250  12.215 -0.1861 -0.7063 -0.8083
 3070SOL    HW220844   0.729   3.295  12.351 -2.6770  0.9781  0.0590
 3071SOL     OW20845   1.199   3.360   3.897  0.1472 -0.8276 -0.1898
 3071SOL    HW120846   1.213   3.354   3.991  1.2818 -0.1843 -0.3180
 3071SOL    HW220847   1.105   3.351   3.881  0.1540  2.2167 -1.9075
 3072SOL     OW20848   0.524   1.897   4.504  0.2061  0.0324  0.1119
 3072SOL    HW120849   0.561   1.810   4.486 -1.7507 -0.3423 -2.0925
 3072SOL    HW220850   0.485   1.885   4.591 -1.7383  0.8547 -0.6552
 3073SOL     OW20851   0.576   4.344   1.319 -0.0154  0.5607 -0.5258
 3073SOL    HW120852   0.636   4.311   1.386  0.0253 -0.9626 -1.3075
 3073SOL    HW220853   0.582   4.271   1.257 -2.1450  0.8384 -1.0450
 3074SOL     OW20854   3.209   1.301  14.688  0.0496  0.5208  0.1469
 3074SOL    HW120855   3.121   1.337  14.699 -0.1835  0.4309 -1.4124
 3074SOL    HW220856   3.267   1.367  14.728  0.1771  1.1474 -1.0597
 3075SOL     OW20857   4.364   0.666  10.885 -0.3795  0.0356  0.3528
 3075SOL    HW120858   4.384   0.646  10.976 -3.3335  1.6782  1.3429
 3075SOL    HW220859   4.361   0.761  10.886  1.0870  0.0889 -0.1578
 3076SOL     OW20860   3.456   4.387   8.155 -0.3359  0.4529 -0.0989
 3076SOL    HW120861   3.450   4.461   8.095  0.9769  1.2695  0.7813
 3076SOL    HW220862   3.539   4.350   8.126 -0.7296 -0.7880  0.3280
 3077SOL     OW20863   2.267   2.814   8.140 -0.2935 -0.7344  0.0920
 3077SOL    HW120864   2.205   2.821   8.212  0.0922 -1.5200  0.4899
 3077SOL    HW220865   2.211   2.841   8.067  2.1131  0.8936 -1.1532
 3078SOL     OW20866   1.076   2.909  16.066  0.4057 -0.0427  0.0544
 3078SOL    HW120867   1.054   2.841  16.129 -3.0079  1.8210  0.8642
 3078SOL    HW220868   1.172   2.901  16.070  0.4133  0.6943  1.3697
 3079SOL     OW20869   4.525   0.453   1.441  0.3698 -0.5800 -0.1181
 3079SOL    HW120870   4.495   0.497   1.520 -2.7025 -2.2494 -0.3509
 3079SOL    HW220871   4.610   0.491   1.418  0.1987 -0.7885 -1.0819
 3080SOL     OW20872   4.676   0.176   3.359 -0.6306 -0.0172  0.0128
 3080SOL    HW120873   4.657   0.087   3.329  0.7910 -0.7823  1.4054
 3080SOL    HW220874   4.707   0.159   3.448  0.1995  1.7759  0.0654
 3081SOL     OW20875   0.184   2.503   8.466  0.2593  0.1893  0.0519
 3081SOL    HW120876   0.140   2.418   8.471  1.6459 -0.5562 -0.4240
 3081SOL    HW220877   0.146   2.543   8.544 -0.6283  0.8334 -0.7061
 3082SOL     OW20878   2.128   4.458   3.540  0.4409 -0.1682  0.0101
 3082SOL    HW120879   2.130   4.554   3.539 -0.7632 -0.1374  0.3076
 3082SOL    HW220880   2.077   4.447   3.460 -2.9198  1.8396  1.8964
 3083SOL     OW20881   1.040   3.010   3.764 -0.0875 -0.8502 -0.0438
 3083SOL    HW120882   1.069   3.019   3.855  0.5039 -2.6207 -0.0584
 3083SOL    HW220883   0.960   2.957   3.768  0.0662 -0.9873  1.2142
 3084SOL     OW20884   0.823   3.711   1.358  0.6869 -0.4412 -0.3835
 3084SOL    HW120885   0.845   3.699   1.266  1.3659 -0.4126 -0.2233
 3084SOL    HW220886   0.872   3.640   1.398 -1.1531 -1.0670  0.7879
 3085SOL     OW20887   0.750   4.659   2.028  0.4244 -0.0996  0.0420
 3085SOL    HW120888   0.661   4.685   2.053  0.9166 -0.3404  2.0513
 3085SOL    HW220889   0.778   0.011   2.004 -0.0492 -0.2921 -1.2254
 3086SOL     OW20890   3.439   2.766   3.077 -0.7742  0.1147 -0.0257
 3086SOL    HW120891   3.515   2.708   3.072 -1.5263 -0.9244  0.7151
 3086SOL    HW220892   3.395   2.747   3.160 -2.3000  1.8168 -0.4489
 3087SOL     OW20893   2.903   0.830   4.868 -0.7549 -0.2517  0.2720
 3087SOL    HW120894   2.912   0.786   4.953  2.2778  2.1720  1.1731
 3087SOL    HW220895   2.808   0.838   4.859 -0.5254 -0.5407 -2.2384
 3088SOL     OW20896   2.958   2.992  16.867 -0.1814 -0.0388  0.5745
 3088SOL    HW120897   2.978   3.008  16.960 -0.5244 -1.9694  0.9820
 3088SOL    HW220898   2.969   3.081  16.833 -1.4207 -0.3885 -0.7409
 3089SOL     OW20899   1.924   0.283   6.453  0.3422  0.0712 -0.0781
 3089SOL    HW120900   1.831   0.294   6.434 -0.0953 -0.2448  1.8732
 3089SOL    HW220901   1.946   0.198   6.414 -2.7036 -1.6295  1.9723
 3090SOL     OW20902   4.263   2.741   8.768 -0.4902 -0.4939  0.1829
 3090SOL    HW120903   4.252   2.650   8.795  0.2040  0.1625  2.6807
 3090SOL    HW220904   4.359   2.739   8.766 -0.4922 -1.3770  1.1624
 3091SOL     OW20905   0.442   4.443   4.112 -0.3924 -0.1903 -0.4022
 3091SOL    HW120906   0.433   4.534   4.141 -2.5508  0.4557 -3.0825
 3091SOL    HW220907   0.495   4.404   4.181  0.5722  1.5939 -0.1414
 3092SOL     OW20908   0.949   1.196   6.420 -0.0223 -0.1929  0.3555
 3092SOL    HW120909   0.946   1.105   6.390 -1.7293  0.7054 -2.1935
 3092SOL    HW220910   1.042   1.202   6.440 -0.0466  1.3746 -0.0578
 3093SOL     OW20911   0.734   3.470   6.071  0.6735  0.2977 -0.1759
 3093SOL    HW120912   0.719   3.556   6.034  2.5897  1.4004  1.5795
 3093SOL    HW220913   0.764   3.419   5.996 -1.4322 -1.2805  0.0410
 3094SOL     OW20914   2.955   1.153   3.438 -0.1377 -0.3914  0.1379
 3094SOL    HW120915   3.040   1.197   3.427  0.6548 -1.8600  0.3968
 3094SOL    HW220916   2.911   1.211   3.376  1.0761  1.9497  1.4437
 3095SOL     OW20917   4.501   2.325   6.754 -0.1185 -0.1404  0.4811
 3095SOL    HW120918   4.572   2.262   6.763 -0.9218 -0.8032  2.2080
 3095SOL    HW220919   4.542   2.410   6.761 -1.9357  0.8334 -0.6317
 3096SOL     OW20920   4.199   0.735   3.103 -0.1485  0.3797 -0.8449
 3096SOL    HW120921   4.107   0.744   3.130  0.7320 -0.6916  2.5026
 3096SOL    HW220922   4.233   0.824   3.114  1.0469  0.1915 -3.0012
 3097SOL     OW20923   3.752   4.432   3.874  0.0292 -0.5041 -0.4775
 3097SOL    HW120924   3.798   4.394   3.949  1.8335  2.4198 -0.1217
 3097SOL    HW220925   3.812   4.505   3.859  0.8846 -1.1209 -0.0490
 3098SOL     OW20926   4.425   3.711  13.953  0.0751  0.1721  0.3726
 3098SOL    HW120927   4.382   3.738  13.872 -1.0230  1.5985  1.4298
 3098SOL    HW220928   4.348   3.712  14.010  2.2456 -1.9693  3.3836
 3099SOL     OW20929   0.251   1.065   8.338  0.1451 -0.4434 -0.1037
 3099SOL    HW120930   0.334   1.111   8.349  1.6153 -3.3686  1.0771
 3099SOL    HW220931   0.194   1.142   8.333  0.1601 -0.6461 -3.0762
 3100SOL     OW20932   2.709   0.905   2.733 -0.0765 -0.4456  0.0529
 3100SOL    HW120933   2.789   0.881   2.685  0.5445  0.5340  0.5871
 3100SOL    HW220934   2.663   0.822   2.746 -0.5974  0.0661  1.4381
 3101SOL     OW20935   0.000   3.817   6.074  0.5416 -0.0446  0.2757
 3101SOL    HW120936   0.076   3.761   6.093  0.0969 -1.3692 -1.8552
 3101SOL    HW220937   4.731   3.852   6.162 -1.9399  0.6608 -0.1761
 3102SOL     OW20938   0.838   4.192   2.933 -0.0766 -0.4704  0.1284
 3102SOL    HW120939   0.858   4.205   2.840 -0.6747  0.3075  0.1015
 3102SOL    HW220940   0.804   4.103   2.923  1.0293 -0.7162 -1.5953
 3103SOL     OW20941   3.552   1.592   3.358 -0.2197  0.1835  0.5488
 3103SOL    HW120942   3.470   1.640   3.369 -1.3894 -1.7881  0.3862
 3103SOL    HW220943   3.581   1.578   3.448  2.2095 -0.8575 -0.4034
 3104SOL     OW20944   1.122   3.368  14.675 -0.1546 -0.4830 -0.1359
 3104SOL    HW120945   1.198   3.424  14.692  0.5277 -2.1015  2.1162
 3104SOL    HW220946   1.048   3.427  14.692 -0.1045  0.5333 -3.4990
 3105SOL     OW20947   3.791   0.950   9.470  0.6651 -0.2816  0.4991
 3105SOL    HW120948   3.717   0.917   9.419 -0.0079 -0.3050  1.4961
 3105SOL    HW220949   3.862   0.965   9.407  1.3806 -1.3404  1.0471
 3106SOL     OW20950   1.822   1.446   3.846  0.5886  0.5252  1.1486
 3106SOL    HW120951   1.873   1.403   3.777 -0.0541  3.0636 -0.8740
 3106SOL    HW220952   1.734   1.450   3.809  0.7813  1.1949  0.7646
 3107SOL     OW20953   1.344   3.439   5.774 -0.0948 -0.1058  0.8230
 3107SOL    HW120954   1.390   3.516   5.808  2.0075 -0.9059 -0.1762
 3107SOL    HW220955   1.313   3.393   5.853  0.1408 -1.9131 -0.1472
 3108SOL     OW20956   1.245   1.033   4.727 -0.0991  0.1966 -0.1075
 3108SOL    HW120957   1.255   1.019   4.633 -0.9068  2.0208 -0.4597
 3108SOL    HW220958   1.331   1.061   4.757  0.2596  0.4584 -1.4068
 3109SOL     OW20959   1.397   3.237   7.338 -0.4747 -0.3549 -0.2808
 3109SOL    HW120960   1.443   3.228   7.422  1.3804 -0.8652 -1.3702
 3109SOL    HW220961   1.351   3.321   7.349  0.5760  0.2378 -0.4993
 3110SOL     OW20962   1.272   3.339  16.148 -0.6252 -0.2865  0.7355
 3110SOL    HW120963   1.292   3.431  16.129  1.9485 -1.2979 -1.4033
 3110SOL    HW220964   1.348   3.296  16.110  0.0650  1.0379  0.6371
 3111SOL     OW20965   1.111   1.290   7.978 -0.4368 -0.0593 -0.5186
 3111SOL    HW120966   1.115   1.385   7.966 -0.1844 -0.1704 -1.3166
 3111SOL    HW220967   1.022   1.290   7.943 -0.3389  1.0280 -0.7652
 3112SOL     OW20968   2.484   2.398  15.687  0.6321 -0.9861 -0.3367
 3112SOL    HW120969   2.485   2.318  15.635 -0.1977 -0.5814 -0.9777
 3112SOL    HW220970   2.555   2.367  15.743  1.2483  0.0486 -0.5387
 3113SOL     OW20971   2.320   2.693   5.989  0.0641 -0.4896 -0.1901
 3113SOL    HW120972   2.254   2.732   6.047 -0.5982  0.1824 -1.4091
 3113SOL    HW220973   2.263   2.716   5.916  0.2317  0.3855 -0.0400
 3114SOL     OW20974   3.330   4.247   1.482  0.2788  0.1556 -0.0377
 3114SOL    HW120975   3.276   4.168   1.492 -0.9482  1.2450  1.9311
 3114SOL    HW220976   3.272   4.285   1.416  1.2906  2.6621  0.5275
 3115SOL     OW20977   1.176   4.254   8.221  0.5128 -0.3727 -0.8652
 3115SOL    HW120978   1.212   4.203   8.149  2.5514  3.5255 -2.5856
 3115SOL    HW220979   1.101   4.198   8.242  1.2302 -1.2885 -0.7678
 3116SOL     OW20980   3.908   0.071   5.516 -0.2838 -0.3242  0.5285
 3116SOL    HW120981   4.002   0.062   5.530 -0.1966  1.5706  1.1179
 3116SOL    HW220982   3.878   0.073   5.606  0.0882 -1.4706  0.6808
 3117SOL     OW20983   3.490   4.326   6.939  0.4718 -0.7939  0.0834
 3117SOL    HW120984   3.543   4.319   6.860 -0.1215  2.1633 -0.5439
 3117SOL    HW220985   3.406   4.352   6.901 -0.7247 -2.4744  1.5605
 3118SOL     OW20986   3.368   3.435   5.119 -0.3889 -0.3819 -0.4438
 3118SOL    HW120987   3.297   3.467   5.063 -0.3428  0.7617  0.1454
 3118SOL    HW220988   3.361   3.344   5.091 -0.0012 -0.5141 -0.1046
 3119SOL     OW20989   4.668   1.761   3.977 -0.4996 -0.3819 -0.1269
 3119SOL    HW120990   4.709   1.722   3.900 -0.5379 -4.3073  1.8739
 3119SOL    HW220991   4.633   1.842   3.939  1.4587  0.2673 -0.5111
 3120SOL     OW20992   1.254   3.742   2.164  0.6973  0.1694 -0.2783
 3120SOL    HW120993   1.203   3.823   2.167 -2.0365 -1.4701 -2.0263
 3120SOL    HW220994   1.321   3.766   2.227  0.4687  1.3929 -0.5078
 3121SOL     OW20995   0.603   4.189   4.528 -0.3471 -0.7285  0.1900
 3121SOL    HW120996   0.604   4.220   4.438 -0.7510 -1.5554 -0.0980
 3121SOL    HW220997   0.513   4.205   4.556  0.0287  0.4137  0.7384
 3122SOL     OW20998   4.165   0.451   0.088  0.3553 -0.6856 -0.4201
 3122SOL    HW120999   4.243   0.507   0.093 -0.2090  0.1953 -1.6721
 3122SOL    HW221000   4.213   0.374   0.057  2.4002 -0.9151  3.3529
 3123SOL     OW21001   3.563   2.540   3.524 -0.5335 -0.0863  0.3958
 3123SOL    HW121002   3.514   2.613   3.561  0.3057  1.7706 -2.1373
 3123SOL    HW221003   3.624   2.599   3.480 -2.5302  1.6253 -0.0608
 3124SOL     OW21004   4.189   3.652   4.900  0.0483  0.8027 -0.1566
 3124SOL    HW121005   4.203   3.559   4.881 -2.1102  0.6444 -1.0030
 3124SOL    HW221006   4.227   3.665   4.986  3.1813  0.0752 -1.4422
 3125SOL     OW21007   0.234   0.319  13.581  0.7887 -0.1308  0.1446
 3125SOL    HW121008   0.271   0.246  13.532 -0.9332 -1.4328  0.7870
 3125SOL    HW221009   0.144   0.324  13.550  1.6784  0.0647 -2.4022
 3126SOL     OW21010   0.485   2.304  14.619  0.3698 -0.0826  0.4422
 3126SOL    HW121011   0.568   2.269  14.651  0.6554  0.5874  0.4212
 3126SOL    HW221012   0.491   2.397  14.638 -1.2990  0.1373 -0.0568
 3127SOL     OW21013   2.207   4.689  15.661  0.4349  0.6463 -0.5786
 3127SOL    HW121014   2.191   4.647  15.746  0.0140  1.9944  0.0024
 3127SOL    HW221015   2.225   4.609  15.612  1.9072 -0.1193  1.2308
 3128SOL     OW21016   3.320   1.927   7.610 -0.5092 -0.5278 -0.5763
 3128SOL    HW121017   3.342   1.848   7.560  2.8351 -0.0120  0.0571
 3128SOL    HW221018   3.271   1.901   7.688 -0.4202 -1.8532 -0.9572
 3129SOL     OW21019   4.014   4.072   7.578  0.7209 -0.0971 -0.0623
 3129SOL    HW121020   4.083   4.091   7.515  1.5553 -1.0939  0.5650
 3129SOL    HW221021   4.053   4.016   7.645 -1.7343  1.2981  2.5558
 3130SOL     OW21022   1.902   2.783   0.614  0.6357  0.1313 -0.1780
 3130SOL    HW121023   1.874   2.828   0.694  4.5279 -1.7894  2.2390
 3130SOL    HW221024   1.903   2.862   0.560 -0.0855 -0.8249 -1.5679
 3131SOL     OW21025   0.661   2.532   9.558  0.0111  0.1441  0.0263
 3131SOL    HW121026   0.623   2.484   9.484  0.8346  0.7055 -0.7698
 3131SOL    HW221027   0.645   2.619   9.520  0.0975  0.9223  1.8025
 3132SOL     OW21028   4.551   2.578   3.019 -0.8243  0.0996 -0.0643
 3132SOL    HW121029   4.611   2.589   3.093 -0.1340 -1.3008 -0.4256
 3132SOL    HW221030   4.581   2.496   2.980 -3.6780 -1.3629  0.8290
 3133SOL     OW21031   0.893   4.268   7.698 -0.4102  0.0824  0.0903
 3133SOL    HW121032   0.889   4.181   7.737 -0.6070 -0.8918 -2.1277
 3133SOL    HW221033   0.805   4.303   7.709 -0.9927 -0.9220 -1.4335
 3134SOL     OW21034   0.850   0.190  15.704 -0.2735 -0.0358  0.3452
 3134SOL    HW121035   0.932   0.232  15.678  0.0604  0.1719  1.7149
 3134SOL    HW221036   0.846   0.229  15.791 -0.2322 -1.7089  1.0947
 3135SOL     OW21037   3.756   2.777   6.979  0.5556  0.0920 -0.2627
 3135SOL    HW121038   3.697   2.769   6.904 -1.2070 -0.5484  1.1945
 3135SOL    HW221039   3.781   2.685   6.974 -1.5268 -0.5350  0.9008
 3136SOL     OW21040   4.175   0.319   1.031  0.2692 -0.0078 -0.1340
 3136SOL    HW121041   4.169   0.357   0.943 -2.3508  1.7232  0.7615
 3136SOL    HW221042   4.169   0.397   1.087 -0.3424 -0.3841  0.3318
 3137SOL     OW21043   2.419   2.539   5.756  0.1351 -0.0202 -0.5842
 3137SOL    HW121044   2.422   2.620   5.807  0.7932  0.1801 -0.9411
 3137SOL    HW221045   2.494   2.542   5.697 -0.5300  0.3741 -1.4141
 3138SOL     OW21046   4.380   0.153  10.035  0.1289  0.4999 -0.4675
 3138SOL    HW121047   4.293   0.142  10.072 -0.6258  2.3619 -1.7158
 3138SOL    HW221048   4.429   0.122  10.111  2.1336  1.8515 -1.2094
 3139SOL     OW21049   1.515   0.288   3.805  0.4270  0.4700  0.0572
 3139SOL    HW121050   1.557   0.372   3.783  0.3153  0.7277  0.8172
 3139SOL    HW221051   1.425   0.291   3.771 -0.0125  0.7044  1.2403
 3140SOL     OW21052   4.147   4.398   5.748 -0.0302 -0.2347 -0.0565
 3140SOL    HW121053   4.233   4.399   5.792  0.3181 -0.6561 -0.7340
 3140SOL    HW221054   4.160   4.318   5.697 -1.1659 -0.2117 -0.3775
 3141SOL     OW21055   1.531   3.457   3.319  0.4680  0.3179 -0.1999
 3141SOL    HW121056   1.610   3.447   3.372  0.5054 -0.2403 -0.3628
 3141SOL    HW221057   1.466   3.390   3.344  2.2684 -2.0568 -1.9725
 3142SOL     OW21058   0.948   4.034  10.345  0.2001  0.9344 -0.7007
 3142SOL    HW121059   0.896   4.013  10.268 -1.1007  2.1334 -0.1443
 3142SOL    HW221060   1.037   4.025  10.311  0.4944 -2.2281  0.8750
 3143SOL     OW21061   4.551   0.716  13.886  0.2751  0.3494  0.3792
 3143SOL    HW121062   4.591   0.699  13.800 -0.4101  2.4112 -0.3417
 3143SOL    HW221063   4.511   0.801  13.868 -0.1440  0.4050  1.6067
 3144SOL     OW21064   2.151   4.236   5.561 -0.1480 -0.2468  0.3978
 3144SOL    HW121065   2.240   4.272   5.562 -0.0617 -0.4126 -1.4206
 3144SOL    HW221066   2.151   4.183   5.641  0.0190 -2.5416 -1.1207
 3145SOL     OW21067   1.489   0.680   3.476 -0.2142  0.2675  0.8028
 3145SOL    HW121068   1.539   0.602   3.499 -0.5299 -0.1092  0.2171
 3145SOL    HW221069   1.402   0.650   3.502 -0.8557 -0.6226 -2.3629
 3146SOL     OW21070   1.895   1.467   5.113 -0.1935  0.0199  0.1311
 3146SOL    HW121071   1.956   1.406   5.072  0.4304  2.2053 -2.1588
 3146SOL    HW221072   1.910   1.550   5.068  0.6810  0.4207  1.1567
 3147SOL     OW21073   3.624   1.709   7.300 -0.1618 -0.3823 -0.3379
 3147SOL    HW121074   3.648   1.789   7.347  0.5243 -1.4713  1.1622
 3147SOL    HW221075   3.609   1.741   7.211 -2.1305 -0.6273 -0.0990
 3148SOL     OW21076   3.352   2.240   5.410  0.0637 -0.0590 -0.2382
 3148SOL    HW121077   3.259   2.260   5.425 -0.0442 -1.4953  0.9445
 3148SOL    HW221078   3.361   2.150   5.442  2.9675  0.5471  0.6285
 3149SOL     OW21079   3.029   3.836   7.339 -0.0547 -0.1533 -0.3333
 3149SOL    HW121080   2.960   3.894   7.373 -0.5273 -1.4713  0.9541
 3149SOL    HW221081   3.096   3.854   7.405 -0.8910  0.4174  0.3712
 3150SOL     OW21082   3.584   1.789   8.843 -0.1400  0.3427 -0.4824
 3150SOL    HW121083   3.652   1.789   8.776 -0.5474 -0.9243 -0.8951
 3150SOL    HW221084   3.584   1.882   8.865 -0.6207 -0.0035  0.9693
 3151SOL     OW21085   0.954   4.708  16.919  0.1938 -0.0559  0.3208
 3151SOL    HW121086   0.870   4.670  16.892  1.1108 -0.6956 -1.6079
 3151SOL    HW221087   1.015   4.692  16.847  0.3857  1.6171  0.1215
 3152SOL     OW21088   4.710   0.595   8.401 -0.0239 -0.2411 -0.1061
 3152SOL    HW121089   4.697   0.510   8.360  1.1256 -0.7941  0.6711
 3152SOL    HW221090   0.068   0.603   8.398  0.0915 -1.7557 -0.3391
 3153SOL     OW21091   3.661   0.565   4.742 -0.2911 -0.2123  0.4185
 3153SOL    HW121092   3.668   0.487   4.688 -0.6788  0.5817 -0.7798
 3153SOL    HW221093   3.744   0.567   4.789 -0.4268  0.6614  0.6388
 3154SOL     OW21094   1.154   1.320   4.325  0.3196 -0.2796 -0.5635
 3154SOL    HW121095   1.066   1.291   4.348  1.1800 -3.0781 -0.6786
 3154SOL    HW221096   1.145   1.357   4.237  0.8819 -1.6865 -1.2313
 3155SOL     OW21097   2.494   0.737   5.045 -0.4443  0.3997 -0.0120
 3155SOL    HW121098   2.492   0.643   5.059 -1.2978  0.3418 -0.5077
 3155SOL    HW221099   2.556   0.741   4.972 -0.4348 -1.2041 -0.0885
 3156SOL     OW21100   3.785   4.481   5.429 -0.0134 -0.0994 -0.0550
 3156SOL    HW121101   3.826   4.396   5.440 -0.8528 -0.5784 -0.6114
 3156SOL    HW221102   3.846   4.536   5.380 -0.3793 -0.6755 -1.1563
 3157SOL     OW21103   2.263   0.187  15.097  0.1797 -0.1603  0.5083
 3157SOL    HW121104   2.356   0.208  15.086  0.6832 -3.4994 -1.6699
 3157SOL    HW221105   2.232   0.264  15.144  0.9600 -0.1331  0.9789
 3158SOL     OW21106   0.642   1.772   8.808 -0.4241 -0.4569 -0.0562
 3158SOL    HW121107   0.725   1.741   8.771 -0.9628  0.4002 -1.9789
 3158SOL    HW221108   0.631   1.718   8.886  1.8445 -2.0244 -0.8088
 3159SOL     OW21109   4.502   2.102   2.288  0.0136 -0.4188  0.1774
 3159SOL    HW121110   4.584   2.150   2.303 -0.8558  1.7082 -1.9399
 3159SOL    HW221111   4.493   2.109   2.193 -2.5046  2.4198  0.6044
 3160SOL     OW21112   2.086   3.429  14.522 -0.6981 -0.0327 -0.3603
 3160SOL    HW121113   2.098   3.411  14.615  0.2771 -0.4915 -0.5837
 3160SOL    HW221114   2.098   3.342  14.484 -0.3317 -0.0765 -0.1366
 3161SOL     OW21115   1.997   3.234  10.036  0.4046 -0.0248  0.2015
 3161SOL    HW121116   2.074   3.224  10.092  0.4681 -1.1664 -0.0936
 3161SOL    HW221117   1.965   3.313  10.079 -0.2385 -0.3977  0.4065
 3162SOL     OW21118   1.417   4.185   4.936  0.0591 -0.7262  0.1256
 3162SOL    HW121119   1.355   4.189   4.863  1.0280  1.7992 -0.5608
 3162SOL    HW221120   1.402   4.100   4.977 -0.6310 -0.3334  0.6844
 3163SOL     OW21121   2.993   1.091   0.441 -0.2941 -0.0027 -0.2855
 3163SOL    HW121122   2.987   1.083   0.536 -0.3940 -0.7062 -0.3505
 3163SOL    HW221123   3.046   1.169   0.429 -0.1256  0.1426  1.4492
 3164SOL     OW21124   0.222   4.321   5.966 -0.6625  0.7342  0.0889
 3164SOL    HW121125   0.232   4.383   5.894  1.8552 -0.2786 -0.4365
 3164SOL    HW221126   0.314   4.330   5.990 -0.6365 -1.8512  0.8886
 3165SOL     OW21127   2.027   2.753   5.597 -0.4901  0.1202 -0.3343
 3165SOL    HW121128   1.991   2.839   5.575 -0.1030 -0.2206 -2.2996
 3165SOL    HW221129   2.038   2.712   5.511  1.8057  1.0954 -0.5193
 3166SOL     OW21130   3.602   0.480   1.020 -1.1777 -0.3042  0.8035
 3166SOL    HW121131   3.630   0.401   1.066  1.3325  0.4319  0.5423
 3166SOL    HW221132   3.549   0.447   0.947  0.1056 -0.6794  0.0479
 3167SOL     OW21133   0.313   2.640   7.339  0.1793 -0.3245  0.4758
 3167SOL    HW121134   0.332   2.561   7.289 -1.1534  0.1198 -0.7387
 3167SOL    HW221135   0.232   2.614   7.383 -1.0438  2.9308  0.1523
 3168SOL     OW21136   3.455   2.441  15.963  0.0348 -0.2121  0.2789
 3168SOL    HW121137   3.373   2.421  16.008 -0.6005  1.3972 -0.1557
 3168SOL    HW221138   3.509   2.456  16.042 -0.6400  1.7322  0.3833
 3169SOL     OW21139   3.850   3.410   1.021 -0.5581  0.5342 -0.4809
 3169SOL    HW121140   3.854   3.502   0.992 -1.2646  0.6127 -0.3261
 3169SOL    HW221141   3.875   3.417   1.113 -3.5863  0.5873  0.3393
 3170SOL     OW21142   4.170   0.663   2.049  0.1064 -0.0756  0.7356
 3170SOL    HW121143   4.220   0.727   1.997  0.4663 -0.7377  0.2705
 3170SOL    HW221144   4.129   0.606   1.984 -0.0767 -0.1944  0.9541
 3171SOL     OW21145   2.226   4.551   1.735  0.6319  0.2988 -0.2854
 3171SOL    HW121146   2.233   4.542   1.830  1.4219  2.1450 -0.1706
 3171SOL    HW221147   2.150   4.499   1.709  0.6092 -0.7741  1.9465
 3172SOL     OW21148   1.039   1.293  14.314 -0.3077  0.0168 -0.8602
 3172SOL    HW121149   0.955   1.264  14.279  0.0545 -2.1145  0.0161
 3172SOL    HW221150   1.076   1.213  14.352  0.8937 -0.0515 -2.1503
 3173SOL     OW21151   1.449   4.079   3.501  0.4936 -0.7692 -0.6515
 3173SOL    HW121152   1.357   4.085   3.475  0.5858 -2.1421 -1.2853
 3173SOL    HW221153   1.445   4.015   3.573  2.0573  0.9886  0.9870
 3174SOL     OW21154   3.080   0.459  12.261 -0.3037 -0.5074  0.1001
 3174SOL    HW121155   3.103   0.442  12.169  0.1225  0.6737 -0.0081
 3174SOL    HW221156   3.162   0.425  12.298  0.4122  1.4965  0.3364
 3175SOL     OW21157   1.033   0.721   0.055  0.8007 -0.0841 -0.5458
 3175SOL    HW121158   0.963   0.687  17.745  0.8746 -1.7018  0.3171
 3175SOL    HW221159   0.982   0.788   0.100  1.4494 -0.2791  0.5016
 3176SOL     OW21160   3.457   1.012   7.524  0.4988 -0.0525  0.2938
 3176SOL    HW121161   3.466   0.989   7.617 -0.1329 -1.2833  0.0596
 3176SOL    HW221162   3.529   1.075   7.516 -1.6046  2.7215  3.2830
 3177SOL     OW21163   4.650   4.594   7.614 -0.0242  0.3614 -0.2912
 3177SOL    HW121164   4.563   4.628   7.635  0.1967 -0.1542  1.4215
 3177SOL    HW221165   4.622   4.503   7.606 -0.5832  0.6172 -1.2320
 3178SOL     OW21166   3.625   4.590  16.771  0.3276 -0.3157 -0.2162
 3178SOL    HW121167   3.604   4.621  16.860  0.6877  1.6111 -0.7939
 3178SOL    HW221168   3.619   4.495  16.773 -0.9348 -0.2316 -0.2761
 3179SOL     OW21169   1.081   2.765  17.733  0.1039  0.4461 -0.0929
 3179SOL    HW121170   1.046   2.769   0.076  0.1279  0.4732 -0.0850
 3179SOL    HW221171   1.015   2.826  17.700  0.2141  1.1355  0.9443
 3180SOL     OW21172   4.187   0.739  12.463 -0.7143  0.2989  0.4134
 3180SOL    HW121173   4.170   0.767  12.373  0.7630 -0.2136 -0.0406
 3180SOL    HW221174   4.227   0.816  12.504  1.2749 -0.3942 -0.2240
 3181SOL     OW21175   1.883   0.739   3.236  0.0929 -0.1619  0.6119
 3181SOL    HW121176   1.796   0.701   3.250 -0.2814 -0.6874 -3.0178
 3181SOL    HW221177   1.947   0.669   3.225  1.2578  0.8456  0.9534
 3182SOL     OW21178   0.834   4.239   9.396 -0.2896 -0.2775 -0.7399
 3182SOL    HW121179   0.844   4.179   9.469 -0.2344 -1.0254 -1.3648
 3182SOL    HW221180   0.875   4.183   9.329  0.8366 -0.7969  0.3922
 3183SOL     OW21181   0.738   1.830   9.167 -0.5451  0.3082 -0.5308
 3183SOL    HW121182   0.778   1.747   9.192 -2.4489  0.1256  1.9163
 3183SOL    HW221183   0.669   1.790   9.113 -0.0549 -1.2009 -0.0210
 3184SOL     OW21184   0.097   0.990   5.283 -0.5482  0.2305 -0.3662
 3184SOL    HW121185   0.088   1.084   5.267  1.1384  0.8776  2.5377
 3184SOL    HW221186   0.185   0.994   5.320 -1.2233  0.2925  1.2346
 3185SOL     OW21187   4.483   4.698  14.339  0.3943  0.5856 -0.4869
 3185SOL    HW121188   4.537   4.711  14.417 -0.6417  2.2483 -0.0402
 3185SOL    HW221189   4.444   4.612  14.353 -0.3540  1.2853  1.6464
 3186SOL     OW21190   4.290   4.428  11.510  0.2110  0.5684  0.0063
 3186SOL    HW121191   4.207   4.455  11.472 -0.9247 -2.4139  0.3689
 3186SOL    HW221192   4.292   4.481  11.590  1.3252 -0.1382  0.4610
 3187SOL     OW21193   2.839   0.437   7.687 -0.7389  0.1372  0.2139
 3187SOL    HW121194   2.917   0.470   7.642 -0.7257 -0.5125 -0.2497
 3187SOL    HW221195   2.792   0.518   7.666  1.2377  1.3052  0.3623
 3188SOL     OW21196   2.671   3.053  12.251 -0.5641 -0.2495  0.0435
 3188SOL    HW121197   2.616   2.986  12.211 -0.7337  0.7706 -1.4126
 3188SOL    HW221198   2.715   2.997  12.315  0.8335 -0.0140 -0.7218
 3189SOL     OW21199   0.784   4.401   4.113  0.0606  0.0549 -0.2863
 3189SOL    HW121200   0.854   4.342   4.087  1.0262  1.1064 -0.0781
 3189SOL    HW221201   0.741   4.422   4.030  0.6502 -1.5025 -0.9820
 3190SOL     OW21202   4.019   3.732   6.868  0.7171  0.0589 -0.3727
 3190SOL    HW121203   3.981   3.796   6.807 -0.4789 -2.3289 -2.1382
 3190SOL    HW221204   4.001   3.650   6.822  1.0778 -0.0330 -0.3533
 3191SOL     OW21205   1.344   4.667  12.145  0.4955  0.7339  0.0821
 3191SOL    HW121206   1.410   4.679  12.213 -1.0453 -0.5694  1.7905
 3191SOL    HW221207   1.372   4.579  12.120 -1.2467  0.4333 -0.8305
 3192SOL     OW21208   3.865   2.823   8.001 -0.3817 -0.1150 -0.1130
 3192SOL    HW121209   3.803   2.782   8.061 -0.6550  0.4751  0.0103
 3192SOL    HW221210   3.807   2.831   7.926  2.7870  0.8364 -2.4833
 3193SOL     OW21211   3.422   0.832   0.230  0.2775 -0.0347 -0.2282
 3193SOL    HW121212   3.416   0.752   0.177  0.5650  0.7285 -1.4018
 3193SOL    HW221213   3.372   0.896   0.180  0.1016  0.5655  0.7120
 3194SOL     OW21214   4.117   1.070   3.842  0.4201  0.0508 -0.0091
 3194SOL    HW121215   4.202   1.033   3.866 -0.7576 -2.2137  0.6842
 3194SOL    HW221216   4.153   1.132   3.779  1.8832 -0.6109  0.1768
 3195SOL     OW21217   0.484   0.674   1.942 -0.3510 -0.0443 -0.5593
 3195SOL    HW121218   0.537   0.635   2.011 -0.4587 -0.9515 -0.9888
 3195SOL    HW221219   0.400   0.629   1.940 -0.3704  0.0719 -2.7698
 3196SOL     OW21220   2.697   3.172   4.327 -0.0595  0.0479 -0.1662
 3196SOL    HW121221   2.714   3.196   4.236 -1.9374  0.0960 -0.5082
 3196SOL    HW221222   2.661   3.086   4.307 -0.2074  0.4740 -1.7514
 3197SOL     OW21223   0.979   3.196   5.603  0.2758  0.2264  0.2767
 3197SOL    HW121224   1.048   3.149   5.650 -0.2752  1.5908  2.4118
 3197SOL    HW221225   1.020   3.282   5.593 -0.7446  0.6168 -0.5243
 3198SOL     OW21226   3.659   1.600   3.650 -0.6356  0.8936  0.3296
 3198SOL    HW121227   3.635   1.522   3.700  2.6428 -2.2381 -2.9752
 3198SOL    HW221228   3.716   1.655   3.704 -1.8937  0.0544  2.4891
 3199SOL     OW21229   2.933   0.333   9.530 -0.0504 -0.2409 -0.2771
 3199SOL    HW121230   2.941   0.427   9.546  1.3205 -0.7327  1.8760
 3199SOL    HW221231   2.985   0.323   9.450 -1.0877  1.7893 -1.1959
 3200SOL     OW21232   2.627   1.237   6.906  0.1168  0.2872 -0.0359
 3200SOL    HW121233   2.654   1.249   6.997 -0.9627  1.7224  0.0860
 3200SOL    HW221234   2.671   1.157   6.877 -1.1914 -0.4825  0.0902
 3201SOL     OW21235   4.205   1.864   4.378  0.3914  0.6115 -0.1408
 3201SOL    HW121236   4.267   1.798   4.408 -1.5928 -1.5291 -0.7218
 3201SOL    HW221237   4.257   1.945   4.383  2.0393 -0.5127  0.8073
 3202SOL     OW21238   0.156   2.611   8.192 -0.6540 -0.0106 -0.3283
 3202SOL    HW121239   0.250   2.631   8.190 -0.0742 -2.6858 -0.3145
 3202SOL    HW221240   0.153   2.578   8.282  1.3690  2.4800  0.6564
 3203SOL     OW21241   1.025   3.827   2.029 -0.2226  0.2815 -0.9312
 3203SOL    HW121242   0.972   3.902   2.002 -0.4911  0.6239  0.5549
 3203SOL    HW221243   1.024   3.773   1.950  0.2214  0.9780 -1.4131
 3204SOL     OW21244   1.859   3.419   4.912 -0.5362  0.5189 -0.3026
 3204SOL    HW121245   1.851   3.478   4.986  0.3548  0.0507  0.1623
 3204SOL    HW221246   1.952   3.399   4.917 -0.8827 -1.3136 -1.1675
 3205SOL     OW21247   1.307   2.772   6.669 -0.1083 -0.0446 -0.1228
 3205SOL    HW121248   1.242   2.747   6.735 -2.2481  3.2551 -0.9859
 3205SOL    HW221249   1.302   2.698   6.609  2.1732  0.7948 -1.3231
 3206SOL     OW21250   4.589   0.817  12.164  0.0697  0.4501 -0.3851
 3206SOL    HW121251   4.589   0.808  12.260  0.9197  3.4065 -0.1338
 3206SOL    HW221252   4.515   0.876  12.151 -0.8386 -0.1813  1.8959
 3207SOL     OW21253   3.989   3.322   3.767 -0.1838  0.2807 -0.1701
 3207SOL    HW121254   3.905   3.280   3.783  0.0814  0.5904  2.1576
 3207SOL    HW221255   4.036   3.265   3.707 -2.0819 -0.0665 -1.3059
 3208SOL     OW21256   1.813   0.228   2.789  0.2111  0.5958  0.3829
 3208SOL    HW121257   1.870   0.153   2.771 -1.1555 -0.1622 -0.7848
 3208SOL    HW221258   1.862   0.279   2.853  1.0947 -0.7666  0.8139
 3209SOL     OW21259   3.945   2.242   3.675 -0.3449 -0.5804 -0.4209
 3209SOL    HW121260   4.020   2.285   3.716 -0.4353  0.5908 -1.4930
 3209SOL    HW221261   3.874   2.305   3.673  1.0730  1.0300  0.2409
 3210SOL     OW21262   2.928   3.447   4.833  0.5425 -0.3102 -0.0241
 3210SOL    HW121263   2.850   3.501   4.848  0.2657 -0.1111 -2.2455
 3210SOL    HW221264   2.902   3.384   4.766 -2.5486  0.3453  0.5504
 3211SOL     OW21265   2.942   2.344   1.663  0.3755  0.0869 -0.0397
 3211SOL    HW121266   2.977   2.301   1.585  0.0182  0.8931 -0.6427
 3211SOL    HW221267   3.024   2.344   1.712 -0.5297 -3.3026  1.4833
 3212SOL     OW21268   0.272   1.224   8.745 -0.7313 -0.2275 -0.2851
 3212SOL    HW121269   0.357   1.226   8.789 -0.7416  0.8318 -0.3084
 3212SOL    HW221270   0.246   1.137   8.774 -0.7232 -0.4279 -0.8664
 3213SOL     OW21271   1.792   3.475   2.394  0.4136 -0.4818  0.1327
 3213SOL    HW121272   1.789   3.491   2.299 -3.2163  0.0327  0.3247
 3213SOL    HW221273   1.767   3.383   2.401 -0.8852 -0.0594  1.0967
 3214SOL     OW21274   1.200   2.268  15.532 -0.3719 -0.1046  0.2284
 3214SOL    HW121275   1.214   2.338  15.595  0.9774 -0.1576 -0.0118
 3214SOL    HW221276   1.189   2.327  15.458 -0.0139 -1.1324 -0.6541
 3215SOL     OW21277   3.336   1.405  14.407  0.3363 -0.5046 -0.2058
 3215SOL    HW121278   3.269   1.365  14.463  0.7703  0.7353  1.2094
 3215SOL    HW221279   3.292   1.425  14.324 -0.6410 -0.7794  0.2442
 3216SOL     OW21280   1.667   1.121  12.896 -0.5356 -0.6173 -0.0667
 3216SOL    HW121281   1.678   1.048  12.957  1.1328  0.6886  1.1687
 3216SOL    HW221282   1.670   1.062  12.820 -1.3195 -0.0347 -0.5496
 3217SOL     OW21283   1.130   4.063   4.144  0.1498  0.0675 -0.1119
 3217SOL    HW121284   1.222   4.053   4.119  0.6892 -0.1806  1.9793
 3217SOL    HW221285   1.128   4.070   4.239  0.8875  2.1763 -0.2618
 3218SOL     OW21286   4.595   4.173  15.024  0.5863 -0.0235 -0.1168
 3218SOL    HW121287   4.608   4.204  14.934 -1.6237 -0.2737 -0.5114
 3218SOL    HW221288   4.656   4.224  15.077 -0.0448  0.3119  0.2894
 3219SOL     OW21289   3.609   0.547   6.987 -0.3384 -0.0431  0.2490
 3219SOL    HW121290   3.633   0.472   6.933 -0.8385 -0.0414  0.0342
 3219SOL    HW221291   3.515   0.535   6.993 -0.4278  0.5452 -0.0071
 3220SOL     OW21292   3.853   1.632   3.887  0.1091  0.1591  0.1639
 3220SOL    HW121293   3.841   1.707   3.946  0.6639  0.7730 -0.5102
 3220SOL    HW221294   3.900   1.676   3.817  0.2813 -0.3834 -0.0595
 3221SOL     OW21295   0.006   0.469   9.504 -0.0110 -0.8530 -0.4578
 3221SOL    HW121296   4.735   0.514   9.420 -1.4735 -0.7996 -0.2747
 3221SOL    HW221297   4.662   0.483   9.552  0.3589 -0.5069  0.0674
 3222SOL     OW21298   3.985   4.355   4.874 -0.3243 -0.0945 -0.0833
 3222SOL    HW121299   3.996   4.260   4.871  0.5924  0.0376 -0.7668
 3222SOL    HW221300   4.069   4.379   4.836  0.5852 -0.7016  1.5448
 3223SOL     OW21301   2.288   1.061  16.232 -0.0653  0.2409  0.0735
 3223SOL    HW121302   2.224   0.991  16.247  0.1502  0.1004  0.3381
 3223SOL    HW221303   2.357   1.011  16.187 -2.1836 -0.8764 -1.9198
 3224SOL     OW21304   1.155   0.646   3.328  0.2803  0.3080 -0.2095
 3224SOL    HW121305   1.150   0.697   3.247  0.0957  1.7170  0.6837
 3224SOL    HW221306   1.208   0.571   3.300  2.0045  1.2619  0.4656
 3225SOL     OW21307   4.037   4.162   5.289 -0.0282 -0.2483 -0.5226
 3225SOL    HW121308   4.009   4.071   5.286  1.0257 -0.5041 -3.0265
 3225SOL    HW221309   3.958   4.209   5.315  0.8537  1.0329 -0.1407
 3226SOL     OW21310   1.457   1.018   7.676 -0.8663 -0.3407 -0.3733
 3226SOL    HW121311   1.419   1.106   7.669 -0.0567 -0.1929 -2.6449
 3226SOL    HW221312   1.493   1.023   7.765 -0.4835  1.6333 -0.6382
 3227SOL     OW21313   2.765   1.273  17.164 -0.4962 -0.3320 -0.1987
 3227SOL    HW121314   2.697   1.302  17.224  1.6354 -0.6547  2.3792
 3227SOL    HW221315   2.782   1.347  17.106 -1.3343  1.2911  1.6169
 3228SOL     OW21316   2.154   2.949   5.320  0.1837 -0.7121  0.7539
 3228SOL    HW121317   2.220   2.911   5.261 -1.5395 -0.6581 -1.1896
 3228SOL    HW221318   2.077   2.917   5.274 -1.7907  1.6452  2.4390
 3229SOL     OW21319   3.618   0.946   6.782  0.3332 -0.4258  0.3279
 3229SOL    HW121320   3.567   0.904   6.851  1.0179 -3.1354 -0.8218
 3229SOL    HW221321   3.697   0.956   6.835  0.7135 -0.9255 -0.1431
 3230SOL     OW21322   3.147   2.921   6.314 -0.4294 -0.3605  0.1643
 3230SOL    HW121323   3.093   2.861   6.366 -0.2109  0.9495  1.9205
 3230SOL    HW221324   3.162   2.878   6.230 -1.7673 -2.1185  0.8326
 3231SOL     OW21325   3.130   3.588  13.825 -0.3051 -0.6534 -0.4966
 3231SOL    HW121326   3.084   3.506  13.810 -1.3657 -0.0900 -0.3480
 3231SOL    HW221327   3.104   3.634  13.744 -3.0181  0.6318  1.0989
 3232SOL     OW21328   0.924   3.274  15.392 -0.0287 -0.5520  0.1775
 3232SOL    HW121329   0.949   3.236  15.476 -0.1181  1.5493  1.1685
 3232SOL    HW221330   1.007   3.267  15.346  0.5142 -1.9600  1.3863
 3233SOL     OW21331   1.097   3.503   4.832  0.0800 -0.1324  0.2564
 3233SOL    HW121332   1.114   3.496   4.926 -1.0434  0.2035  0.4821
 3233SOL    HW221333   1.003   3.489   4.826 -0.1512  0.4825  2.4478
 3234SOL     OW21334   3.903   2.797   4.074  0.2776  0.6741  0.1534
 3234SOL    HW121335   3.853   2.756   4.004 -0.5960  0.3822  0.9377
 3234SOL    HW221336   3.832   2.826   4.132 -0.5548 -0.4909 -0.3004
 3235SOL     OW21337   1.687   0.017  16.410 -0.2943  0.4139 -0.2269
 3235SOL    HW121338   1.675   0.101  16.364  1.7337  0.9878  0.2808
 3235SOL    HW221339   1.775   0.025  16.446 -0.3153  2.0242 -0.5271
 3236SOL     OW21340   2.893   0.315   3.572  0.0268  0.7617 -0.3565
 3236SOL    HW121341   2.943   0.322   3.491  1.6052 -0.2569  0.5011
 3236SOL    HW221342   2.919   0.388   3.628  0.2230 -0.2765  0.9183
 3237SOL     OW21343   2.464   2.283   7.395  0.0828  0.6908 -0.0529
 3237SOL    HW121344   2.387   2.290   7.338 -0.6418 -1.8758  0.6087
 3237SOL    HW221345   2.420   2.249   7.472  0.9510  0.5616  0.3851
 3238SOL     OW21346   3.686   0.433   0.672 -0.5366  0.5107 -0.5496
 3238SOL    HW121347   3.773   0.411   0.640 -1.0117 -1.4916 -0.5059
 3238SOL    HW221348   3.708   0.525   0.687  1.2837 -0.1477  0.8283
 3239SOL     OW21349   1.934   4.609   4.508 -0.2258 -0.5223 -0.0566
 3239SOL    HW121350   1.881   4.548   4.560 -1.9292  1.0068 -0.0315
 3239SOL    HW221351   1.928   4.570   4.421 -0.6755 -0.6483  0.0282
 3240SOL     OW21352   2.501   1.683   1.999  0.1761  0.1557 -0.3945
 3240SOL    HW121353   2.587   1.642   1.987 -0.7520 -1.9050  0.0118
 3240SOL    HW221354   2.483   1.712   1.910  3.7541  0.2901 -1.0871
 3241SOL     OW21355   0.787   0.312   3.945  0.0792  0.0361  0.5857
 3241SOL    HW121356   0.767   0.403   3.968 -0.6946 -0.2318  0.9859
 3241SOL    HW221357   0.821   0.322   3.856 -0.3234 -1.7652  0.2248
 3242SOL     OW21358   2.517   3.383  10.956 -0.2374 -0.7935  0.6485
 3242SOL    HW121359   2.612   3.384  10.952 -0.1699 -0.2579  2.1433
 3242SOL    HW221360   2.502   3.294  10.987  3.4563 -1.5531  0.2317
 3243SOL     OW21361   0.741   2.312   3.536  0.0018 -0.7775 -0.1041
 3243SOL    HW121362   0.796   2.241   3.568  2.1678  0.3194 -1.3973
 3243SOL    HW221363   0.710   2.275   3.453  0.5259 -0.2867 -0.5218
 3244SOL     OW21364   3.679   3.145   2.197  0.1082  0.7384 -0.2865
 3244SOL    HW121365   3.679   3.234   2.231 -1.7050  0.3750  0.6163
 3244SOL    HW221366   3.749   3.147   2.131  0.5084  1.5701  0.1644
 3245SOL     OW21367   1.404   2.834   6.297 -0.2179 -0.1140  0.0078
 3245SOL    HW121368   1.441   2.833   6.209  0.2789 -1.0752  0.2293
 3245SOL    HW221369   1.466   2.895   6.338  0.2415 -0.6029  0.0366
 3246SOL     OW21370   3.663   3.896   6.788  0.5116  0.9173  0.0253
 3246SOL    HW121371   3.625   3.962   6.845  2.3375  1.7242  0.3076
 3246SOL    HW221372   3.595   3.830   6.803 -0.5267  1.3402 -2.7647
 3247SOL     OW21373   4.612   0.769  17.247  0.1182  0.2953 -0.4262
 3247SOL    HW121374   4.627   0.676  17.263  0.7944  0.4964  0.1292
 3247SOL    HW221375   4.523   0.770  17.283  1.0619 -0.2545  1.9510
 3248SOL     OW21376   2.881   1.879   9.052  0.0392 -0.0539 -0.1242
 3248SOL    HW121377   2.869   1.817   8.980 -0.6470  0.3893 -0.3938
 3248SOL    HW221378   2.964   1.844   9.083 -1.6717 -1.4017  3.0082
 3249SOL     OW21379   2.314   3.120  17.730  0.5041 -0.3729 -0.6309
 3249SOL    HW121380   2.247   3.124  17.661 -0.7552 -1.0817  0.5491
 3249SOL    HW221381   2.259   3.149   0.057  0.1998 -2.1321 -0.1729
 3250SOL     OW21382   4.071   4.100   4.823 -0.9730  0.1641 -0.2302
 3250SOL    HW121383   3.995   4.042   4.810  1.5396 -3.2321  0.2178
 3250SOL    HW221384   4.145   4.040   4.812 -0.0027  1.4072 -0.3244
 3251SOL     OW21385   2.676   2.784   2.979  0.7435  0.2437 -0.1722
 3251SOL    HW121386   2.581   2.787   2.963  0.6225  0.8516  0.6732
 3251SOL    HW221387   2.695   2.692   2.959  1.6520  0.0314  1.6919
 3252SOL     OW21388   3.778   0.383   3.913 -0.0516  0.0182 -0.4069
 3252SOL    HW121389   3.821   0.368   3.829  2.2089 -0.6611  0.8751
 3252SOL    HW221390   3.746   0.295   3.932  1.8917 -0.9227 -1.5274
 3253SOL     OW21391   0.251   3.153   4.760  0.4300 -0.2157  0.8577
 3253SOL    HW121392   0.202   3.071   4.759  0.6768 -0.3662  1.3027
 3253SOL    HW221393   0.273   3.156   4.667 -3.1742  2.0354  0.0546
 3254SOL     OW21394   3.786   0.720  10.575 -0.5492  0.1373  0.1019
 3254SOL    HW121395   3.809   0.812  10.587  2.0205 -0.5895  0.8501
 3254SOL    HW221396   3.808   0.682  10.660  0.0629  0.2967  0.0169
 3255SOL     OW21397   3.044   4.000   7.076 -0.2365 -0.7127  0.3218
 3255SOL    HW121398   3.136   3.972   7.081  0.6646  2.3140  0.2840
 3255SOL    HW221399   2.997   3.923   7.109 -0.7782 -0.5195 -0.0139
 3256SOL     OW21400   0.803   0.186  13.581  0.2978  0.0314 -0.2964
 3256SOL    HW121401   0.717   0.223  13.602  1.2236  1.8146  0.2959
 3256SOL    HW221402   0.848   0.269  13.568  1.7514 -0.5476  0.9294
 3257SOL     OW21403   2.535   0.415   8.482  0.3868  0.1182 -0.3792
 3257SOL    HW121404   2.516   0.470   8.558  1.3078 -0.9792  0.6529
 3257SOL    HW221405   2.628   0.397   8.496  0.1357 -0.6878  0.2784
 3258SOL     OW21406   1.337   4.477  13.114  0.5479 -0.5186  0.3301
 3258SOL    HW121407   1.255   4.430  13.132  0.9949  0.4346  4.7258
 3258SOL    HW221408   1.338   4.522  13.198 -0.0243  2.7353 -1.3902
 3259SOL     OW21409   2.279   0.933   7.045  0.4390 -0.2453 -0.1893
 3259SOL    HW121410   2.189   0.962   7.053  0.4494  0.4199 -2.6147
 3259SOL    HW221411   2.335   1.010   7.032 -1.6477  1.1672 -0.7195
 3260SOL     OW21412   0.436   1.185   7.334  0.1107  0.3506 -0.2789
 3260SOL    HW121413   0.390   1.242   7.273  0.0723  1.9935  1.2956
 3260SOL    HW221414   0.504   1.241   7.372  1.1885 -2.2973  1.7046
 3261SOL     OW21415   1.587   3.063  12.681  0.1213  0.2326  0.1489
 3261SOL    HW121416   1.566   2.970  12.675 -0.5458  0.3346  0.8730
 3261SOL    HW221417   1.527   3.104  12.618  0.4160  0.7932  0.2292
 3262SOL     OW21418   0.498   0.392  17.726 -0.0251  0.5090  0.3354
 3262SOL    HW121419   0.420   0.362   0.028 -0.3050  2.1108  0.8601
 3262SOL    HW221420   0.511   0.311  17.676 -1.9311  0.7623 -0.5590
 3263SOL     OW21421   3.737   0.201   8.103  0.3591  0.0271 -0.4366
 3263SOL    HW121422   3.761   0.232   8.190 -0.6096  0.3006 -0.2665
 3263SOL    HW221423   3.809   0.229   8.046  0.1745  1.3108 -0.0373
 3264SOL     OW21424   3.328   1.987   5.577  0.1109 -0.3482 -0.6326
 3264SOL    HW121425   3.272   1.990   5.654  2.5880  1.1759  1.1117
 3264SOL    HW221426   3.320   1.894   5.555  0.0785 -0.2911 -0.8673
 3265SOL     OW21427   2.485   1.058  15.890 -0.3954 -0.0132  0.4588
 3265SOL    HW121428   2.495   1.107  15.808  2.5924 -2.1361 -0.4644
 3265SOL    HW221429   2.394   1.086  15.904 -0.6389  0.8920 -2.8889
 3266SOL     OW21430   4.373   4.127   3.228 -1.2966 -0.7183 -0.3486
 3266SOL    HW121431   4.353   4.046   3.181 -0.6643 -1.1941  0.2025
 3266SOL    HW221432   4.431   4.103   3.300 -0.0078 -1.1831 -1.5486
 3267SOL     OW21433   2.906   3.005   3.874  0.1033 -0.0416 -0.3498
 3267SOL    HW121434   2.940   3.086   3.838 -0.7894 -0.4700 -2.1778
 3267SOL    HW221435   2.984   2.975   3.920 -0.6144 -0.4495  0.6058
 3268SOL     OW21436   2.748   0.286  17.490 -0.3697 -0.1432 -0.3121
 3268SOL    HW121437   2.734   0.292  17.396  0.7878 -0.8041 -0.5268
 3268SOL    HW221438   2.751   0.380  17.504  0.1283 -0.0474 -1.1207
 3269SOL     OW21439   1.673   1.683  16.777 -0.4489  0.0642 -0.5047
 3269SOL    HW121440   1.638   1.749  16.716  0.6314  0.0186 -1.1716
 3269SOL    HW221441   1.599   1.623  16.768  0.1243 -0.3202 -2.5919
 3270SOL     OW21442   3.357   2.235   8.838 -0.0976  0.2238 -0.3645
 3270SOL    HW121443   3.279   2.227   8.783 -0.4298  1.0955 -0.0216
 3270SOL    HW221444   3.420   2.198   8.777 -1.2254  2.2029 -2.7084
 3271SOL     OW21445   1.161   0.599   6.623  0.4086  0.5353  0.1367
 3271SOL    HW121446   1.077   0.628   6.658 -0.9730 -1.4528 -1.5177
 3271SOL    HW221447   1.197   0.557   6.701  0.7277  2.3842  0.9811
 3272SOL     OW21448   0.716   1.103   4.919 -0.2358 -0.3552 -0.6075
 3272SOL    HW121449   0.804   1.115   4.884 -0.0870 -1.9296 -0.7562
 3272SOL    HW221450   0.721   1.022   4.970 -0.7755  1.0580  1.6997
 3273SOL     OW21451   1.641   3.034  13.951 -0.6087  0.1180 -0.3711
 3273SOL    HW121452   1.572   3.038  14.017 -1.1217 -0.0480 -0.9002
 3273SOL    HW221453   1.590   3.010  13.874 -0.1137  0.0772 -0.6837
 3274SOL     OW21454   0.145   2.738   5.732  0.3425  0.5825 -0.4310
 3274SOL    HW121455   0.144   2.660   5.676 -2.6533  1.2764 -1.3611
 3274SOL    HW221456   0.057   2.729   5.769  1.1870  1.3130  1.7301
 3275SOL     OW21457   2.939   0.734   4.525 -0.0405  0.0239 -0.4249
 3275SOL    HW121458   2.878   0.755   4.596  0.2596 -2.6860  0.6351
 3275SOL    HW221459   2.943   0.639   4.535 -0.3227 -0.3059 -3.5584
 3276SOL     OW21460   3.664   1.442   7.332 -0.2242  0.0538  0.4394
 3276SOL    HW121461   3.676   1.536   7.344  2.3771 -0.4029  1.5415
 3276SOL    HW221462   3.604   1.435   7.406  1.0666  1.8271  1.6650
 3277SOL     OW21463   3.093   4.718   6.674  0.1072  0.3846  0.5780
 3277SOL    HW121464   3.025   4.654   6.695  1.4676 -1.4890 -0.8603
 3277SOL    HW221465   3.172   4.669   6.695 -0.0421  1.2867  3.3450
 3278SOL     OW21466   2.122   3.193  11.901 -0.2084 -1.2768 -0.0896
 3278SOL    HW121467   2.164   3.149  11.975 -1.6553 -3.4845 -0.5996
 3278SOL    HW221468   2.090   3.274  11.940 -0.4034 -2.1711  1.6124
 3279SOL     OW21469   2.236   1.427   7.200 -0.4064 -0.4458  0.1454
 3279SOL    HW121470   2.213   1.351   7.253  0.0108 -0.7331 -0.0812
 3279SOL    HW221471   2.165   1.490   7.208  1.4446  1.4298  1.6546
 3280SOL     OW21472   1.824   0.120   8.016 -0.3136 -0.1024 -0.0442
 3280SOL    HW121473   1.859   0.095   8.101 -2.6439 -0.5331  0.8137
 3280SOL    HW221474   1.828   0.214   8.034 -2.1312  0.1685 -1.0216
 3281SOL     OW21475   1.146   1.956   4.490  0.3151  0.3487 -0.1765
 3281SOL    HW121476   1.113   2.045   4.501 -0.8805 -0.1471  0.3033
 3281SOL    HW221477   1.192   1.939   4.571  0.3950 -0.5851 -0.4133
 3282SOL     OW21478   1.612   2.699   3.346 -0.4087  0.0707  0.1334
 3282SOL    HW121479   1.651   2.700   3.259 -3.1492 -0.6584 -1.1224
 3282SOL    HW221480   1.629   2.609   3.372 -2.6305 -0.3764  0.0370
 3283SOL     OW21481   4.499   0.075  13.966 -0.1833 -0.0705 -0.2472
 3283SOL    HW121482   4.444   4.734  13.965 -1.0725  0.5550 -0.4896
 3283SOL    HW221483   4.462   0.121  13.891 -3.2939 -4.3145 -1.2513
 3284SOL     OW21484   0.623   3.651   7.037 -0.8402  0.3081 -0.9496
 3284SOL    HW121485   0.579   3.587   7.094  0.3337 -0.3208 -0.7457
 3284SOL    HW221486   0.581   3.735   7.056 -0.8711 -0.0532  0.6124
 3285SOL     OW21487   1.325   0.803   4.408  0.2252 -0.0773  0.9356
 3285SOL    HW121488   1.288   0.753   4.480 -1.8225 -0.5162 -0.3897
 3285SOL    HW221489   1.308   0.891   4.439 -0.5649 -0.5251  1.7692
 3286SOL     OW21490   1.842   1.909   7.201 -0.1438 -0.0731 -0.8122
 3286SOL    HW121491   1.806   1.909   7.290  1.1204 -0.4479 -0.3063
 3286SOL    HW221492   1.802   1.827   7.172 -3.8409  2.1334 -1.9404
 3287SOL     OW21493   0.052   2.670   2.041 -0.7219  0.7727 -0.1554
 3287SOL    HW121494   0.009   2.717   2.112 -1.3919  0.2453 -0.2180
 3287SOL    HW221495   0.141   2.702   2.059 -0.5176  0.7078 -1.0334
 3288SOL     OW21496   2.895   1.036  17.240  0.5596  0.1641 -0.0880
 3288SOL    HW121497   2.871   1.128  17.224 -2.0525 -0.2102  1.6371
 3288SOL    HW221498   2.971   1.043  17.298  0.5415 -0.6529  0.0304
 3289SOL     OW21499   1.152   1.128   2.210 -0.3553 -0.0554  0.2282
 3289SOL    HW121500   1.205   1.146   2.132 -3.5247 -1.1015 -2.1917
 3289SOL    HW221501   1.195   1.170   2.284  0.2116  0.8634 -0.6193
 3290SOL     OW21502   0.627   0.858  15.154  0.3686  0.2132 -0.5081
 3290SOL    HW121503   0.672   0.810  15.223  3.3676 -0.3620 -2.8710
 3290SOL    HW221504   0.621   0.946  15.191  0.5871 -0.5677  1.3692
 3291SOL     OW21505   2.401   3.153   9.774 -0.5768  0.1087  0.5838
 3291SOL    HW121506   2.312   3.179   9.748 -0.7091 -1.0449 -0.0912
 3291SOL    HW221507   2.461   3.206   9.722 -0.2914 -0.4099  0.3836
 3292SOL     OW21508   0.622   0.327   8.328  0.6606 -0.6402 -0.2565
 3292SOL    HW121509   0.609   0.421   8.338 -1.4821 -0.9334 -0.1832
 3292SOL    HW221510   0.663   0.324   8.241  0.3676  1.3791 -0.4616
 3293SOL     OW21511   4.287   1.523   2.635 -0.5906 -0.3028 -0.1052
 3293SOL    HW121512   4.345   1.490   2.704  1.2014  0.8291 -1.0683
 3293SOL    HW221513   4.212   1.559   2.681 -0.3351 -0.5950  0.5353
 3294SOL     OW21514   0.635   0.466   7.897 -0.3755 -0.3931  0.0865
 3294SOL    HW121515   0.700   0.486   7.830 -0.2617  0.9511  0.6007
 3294SOL    HW221516   0.566   0.430   7.841  0.0694 -1.8237  0.4499
 3295SOL     OW21517   3.864   4.573   9.612  0.2927 -0.1774 -0.4400
 3295SOL    HW121518   3.943   4.600   9.659 -0.2413  1.8181 -0.6750
 3295SOL    HW221519   3.797   4.613   9.667  0.1592  0.7222 -1.2516
 3296SOL     OW21520   2.145   1.682   3.034 -0.5533 -0.6999  0.2146
 3296SOL    HW121521   2.161   1.639   3.118  0.0819 -0.6320  0.1270
 3296SOL    HW221522   2.149   1.772   3.065 -0.7983 -0.1978 -1.1841
 3297SOL     OW21523   2.649   2.296   8.998  0.8199  0.9022  0.0491
 3297SOL    HW121524   2.651   2.350   8.919 -1.8289 -0.2170 -0.7571
 3297SOL    HW221525   2.714   2.346   9.047  0.9044 -1.1938  2.0994
 3298SOL     OW21526   3.127   1.415   0.951  0.5351 -0.5118  0.3033
 3298SOL    HW121527   3.110   1.506   0.975  1.2160 -0.3770  0.2593
 3298SOL    HW221528   3.051   1.361   0.973  0.2184 -0.7980 -1.5039
 3299SOL     OW21529   3.634   3.291   9.224 -0.0245  0.0189  0.3611
 3299SOL    HW121530   3.645   3.274   9.317 -1.6818 -0.5101  0.4680
 3299SOL    HW221531   3.702   3.353   9.200 -1.3540  1.2992 -0.1055
 3300SOL     OW21532   3.655   1.036   3.522 -0.0163  0.6242 -0.1514
 3300SOL    HW121533   3.714   1.018   3.595 -0.3095 -0.4359 -0.1719
 3300SOL    HW221534   3.705   1.100   3.471  2.0450 -0.6286  0.2934
 3301SOL     OW21535   1.535   1.010  14.563 -0.6402 -0.7774 -0.0801
 3301SOL    HW121536   1.467   1.065  14.523 -0.2173  0.2161  0.5535
 3301SOL    HW221537   1.577   1.074  14.621  1.4221 -2.4333  0.2399
 3302SOL     OW21538   2.992   4.626   8.566  0.3962  0.1243 -0.1305
 3302SOL    HW121539   2.971   4.688   8.495  1.3321  0.1760 -0.3600
 3302SOL    HW221540   2.998   4.548   8.511 -1.6552 -1.2051  1.5171
 3303SOL     OW21541   4.149   0.240  16.355 -0.6631  0.0910 -0.0489
 3303SOL    HW121542   4.067   0.193  16.347  0.7425 -2.6926  2.0321
 3303SOL    HW221543   4.207   0.167  16.334  0.5206  0.7510  0.9411
 3304SOL     OW21544   3.811   3.052   6.267  0.4935 -0.1161  0.0892
 3304SOL    HW121545   3.772   2.973   6.304 -1.2635  0.6952 -0.0465
 3304SOL    HW221546   3.804   3.039   6.172  0.1673 -0.5906  0.1792
 3305SOL     OW21547   4.023   1.865  16.299 -0.1775  0.1283 -0.0106
 3305SOL    HW121548   4.021   1.825  16.386  1.4426 -1.8802 -0.8917
 3305SOL    HW221549   3.929   1.872  16.284 -0.3007  2.6410  1.9118
 3306SOL     OW21550   2.625   4.664   5.423  0.0422 -0.5840  0.3518
 3306SOL    HW121551   2.641   4.666   5.518  2.3535 -0.9520 -0.0126
 3306SOL    HW221552   2.715   4.653   5.392  0.1688  0.3696  0.3788
 3307SOL     OW21553   2.533   3.897   7.233 -0.0688  0.4372 -0.3011
 3307SOL    HW121554   2.580   3.870   7.312  0.1393 -0.4000 -0.7051
 3307SOL    HW221555   2.555   3.990   7.224 -1.6343  0.6235 -2.1218
 3308SOL     OW21556   0.952   0.920  17.036 -0.1201  0.1614 -0.0564
 3308SOL    HW121557   0.961   0.985  17.105  0.3276 -0.2863  0.3068
 3308SOL    HW221558   0.999   0.846  17.074 -0.7106 -0.8525 -1.2894
 3309SOL     OW21559   4.609   1.339  14.241 -0.4846 -0.2643 -0.4105
 3309SOL    HW121560   4.649   1.323  14.326 -2.0164  1.5071  0.6536
 3309SOL    HW221561   4.687   1.363  14.190 -1.0960  3.5563  0.4605
 3310SOL     OW21562   2.786   2.074  10.921  0.7486 -0.8338  0.1680
 3310SOL    HW121563   2.770   2.035  11.007  4.0183  1.1320  1.6871
 3310SOL    HW221564   2.793   1.990  10.875  1.3922  0.6586 -2.4202
 3311SOL     OW21565   2.053   1.276   6.258  0.5143 -0.0967 -0.2768
 3311SOL    HW121566   1.985   1.238   6.204 -0.8594  0.7487  0.8427
 3311SOL    HW221567   2.092   1.200   6.301 -1.8737 -1.4856 -0.5827
 3312SOL     OW21568   0.997   3.559   9.321 -0.4060  0.2029  0.1386
 3312SOL    HW121569   1.036   3.473   9.334 -0.1714  0.5400  1.7643
 3312SOL    HW221570   0.994   3.592   9.411 -2.6107  1.2070 -0.3008
 3313SOL     OW21571   4.536   0.236   5.807 -0.2976 -0.2039  0.0005
 3313SOL    HW121572   4.631   0.237   5.798 -0.2049 -2.5255  0.4970
 3313SOL    HW221573   4.537   0.214   5.900  0.8951  3.4677  0.8233
 3314SOL     OW21574   0.572   4.189   7.558  0.1000  0.2481 -0.2336
 3314SOL    HW121575   0.585   4.259   7.621  1.3054  1.4487 -1.8026
 3314SOL    HW221576   0.500   4.150   7.607  0.8107  1.9223  2.1357
 3315SOL     OW21577   3.342   0.222   0.627  0.3216 -0.1348  0.8119
 3315SOL    HW121578   3.432   0.247   0.606 -0.2878  0.8405 -0.6001
 3315SOL    HW221579   3.294   0.256   0.552  1.3660  0.5091  0.4316
 3316SOL     OW21580   4.672   4.708  12.577  0.2172 -0.2479 -0.0947
 3316SOL    HW121581   4.733   4.720  12.650 -0.4130  1.3278  0.1837
 3316SOL    HW221582   4.651   4.615  12.578  0.4846 -0.3297 -1.8260
 3317SOL     OW21583   2.527   0.310   6.526 -0.0340  0.0764 -0.5165
 3317SOL    HW121584   2.605   0.285   6.575 -0.0321 -0.6688 -0.8987
 3317SOL    HW221585   2.465   0.255   6.575  1.5507 -0.8344  0.4775
 3318SOL     OW21586   4.601   1.225  11.058  0.5027  0.6217 -0.3043
 3318SOL    HW121587   4.547   1.170  11.115  0.8267  0.4895 -0.1232
 3318SOL    HW221588   4.643   1.153  11.010 -0.3371  0.6066 -0.9940
 3319SOL     OW21589   3.749   1.667   5.870 -0.2445 -0.6216  0.0906
 3319SOL    HW121590   3.688   1.736   5.844 -1.3235 -2.1028 -1.2685
 3319SOL    HW221591   3.691   1.595   5.846  0.0535 -1.8232  2.9455
 3320SOL     OW21592   0.694   0.751  10.289  0.7481  0.0408  0.0734
 3320SOL    HW121593   0.695   0.752  10.193  1.2066 -0.5987  0.0696
 3320SOL    HW221594   0.609   0.708  10.301 -1.9451  5.3709 -0.1441
 3321SOL     OW21595   1.552   1.053  12.494  0.1455  0.1429  0.5066
 3321SOL    HW121596   1.619   1.011  12.549 -0.7823 -2.7991 -0.6005
 3321SOL    HW221597   1.505   0.978  12.457  1.2588 -1.0861  1.5669
 3322SOL     OW21598   0.904   2.526  17.201  0.1377  0.1439 -0.1110
 3322SOL    HW121599   0.902   2.431  17.194 -0.6182  0.0994  0.7458
 3322SOL    HW221600   0.836   2.535  17.268 -0.5946 -0.1065 -0.8147
 3323SOL     OW21601   4.229   4.348  16.201 -0.0235  0.0537  0.1099
 3323SOL    HW121602   4.274   4.264  16.205 -0.8596 -0.4705 -1.8121
 3323SOL    HW221603   4.158   4.332  16.139 -0.2113 -1.1168  0.6361
 3324SOL     OW21604   2.843   3.754   3.686  0.6252 -0.1578 -0.1529
 3324SOL    HW121605   2.867   3.712   3.769  0.4549 -1.2135 -0.6411
 3324SOL    HW221606   2.916   3.815   3.673 -0.1970  1.0442  0.9464
 3325SOL     OW21607   3.940   3.854  14.417  0.3893 -0.1079  0.2069
 3325SOL    HW121608   3.933   3.851  14.322 -1.3543 -0.0111  0.3291
 3325SOL    HW221609   4.006   3.923  14.427  0.3398  0.2036 -1.6295
 3326SOL     OW21610   4.648   2.864   2.248  0.6256  0.0054  0.1519
 3326SOL    HW121611   4.672   2.945   2.293  2.4472 -0.1104 -0.6194
 3326SOL    HW221612   4.604   2.810   2.313  0.2344 -0.7296 -0.7230
 3327SOL     OW21613   1.153   2.933   4.545 -0.1931  0.1500 -0.1657
 3327SOL    HW121614   1.244   2.901   4.547 -0.8677 -1.7910 -0.1034
 3327SOL    HW221615   1.159   3.024   4.573  1.8607 -0.2893  0.7938
 3328SOL     OW21616   0.836   4.230  14.495 -0.0135  0.0667 -0.2318
 3328SOL    HW121617   0.896   4.305  14.505  0.7939 -0.8531  1.6354
 3328SOL    HW221618   0.887   4.152  14.515  0.0985  0.2476  0.1884
 3329SOL     OW21619   0.471   0.478   3.734 -0.2527  0.0721  0.7997
 3329SOL    HW121620   0.424   0.396   3.718  1.0790 -0.2967 -1.1868
 3329SOL    HW221621   0.518   0.496   3.653 -2.2349 -1.2468 -0.6328
 3330SOL     OW21622   2.729   1.259   4.477  0.1536 -0.4497 -0.1364
 3330SOL    HW121623   2.757   1.338   4.522 -0.7899  0.3261 -0.9279
 3330SOL    HW221624   2.818   1.225   4.464  0.6469  0.6594  0.3954
 3331SOL     OW21625   0.384   1.927   4.032 -0.0896  0.1759 -0.5208
 3331SOL    HW121626   0.401   1.864   4.102  2.3846 -0.9495 -2.1457
 3331SOL    HW221627   0.410   2.000   4.088  2.1336 -0.5650 -0.6022
 3332SOL     OW21628   2.573   4.235   2.058  0.6073 -0.0110 -0.0454
 3332SOL    HW121629   2.633   4.162   2.072 -0.6030 -1.0157 -0.1422
 3332SOL    HW221630   2.503   4.192   2.009 -0.5843  1.3768  0.4329
 3333SOL     OW21631   4.544   2.423  12.312 -0.3208  0.8489  0.4992
 3333SOL    HW121632   4.582   2.340  12.284 -1.7668  1.0755 -2.1431
 3333SOL    HW221633   4.452   2.397  12.319  0.9030 -2.8541  2.9124
 3334SOL     OW21634   3.626   0.668   1.775  0.1628  0.1417 -0.0570
 3334SOL    HW121635   3.533   0.677   1.797  1.0491  1.4110  3.3232
 3334SOL    HW221636   3.670   0.729   1.835 -0.3801 -0.6272  1.1221
 3335SOL     OW21637   0.123   3.462   2.724 -0.0144 -0.0957  0.7284
 3335SOL    HW121638   0.203   3.417   2.696 -1.1060 -0.6726 -1.3951
 3335SOL    HW221639   0.160   3.478   2.811 -2.3987  0.1686  1.6990
 3336SOL     OW21640   2.730   2.625   7.074  0.5622  0.0436  0.4510
 3336SOL    HW121641   2.671   2.615   7.148  0.5721  0.5608  0.5297
 3336SOL    HW221642   2.778   2.705   7.097  0.3263  0.2770  0.1396
 3337SOL     OW21643   4.290   2.497  15.897 -0.2472 -0.1482  0.2006
 3337SOL    HW121644   4.222   2.530  15.956 -0.4119  1.4068 -0.8584
 3337SOL    HW221645   4.297   2.574  15.841  0.4214  0.6362  1.3737
 3338SOL     OW21646   0.383   3.374   2.216  0.0381  0.0342  0.4867
 3338SOL    HW121647   0.357   3.464   2.237 -2.0896  0.0090 -2.0478
 3338SOL    HW221648   0.450   3.356   2.282 -0.5303 -0.6414  0.8825
 3339SOL     OW21649   0.281   4.290   2.055 -0.5832 -0.3716 -0.0768
 3339SOL    HW121650   0.188   4.269   2.044 -0.2431 -1.2029 -1.4618
 3339SOL    HW221651   0.328   4.209   2.073 -0.0485  0.3229  1.5852
 3340SOL     OW21652   3.092   0.007   5.026  0.0143 -0.5801 -0.2456
 3340SOL    HW121653   3.141   4.690   5.088  0.3939 -0.1211 -0.1537
 3340SOL    HW221654   3.120   0.096   5.045  0.3813 -0.8760  0.6336
 3341SOL     OW21655   0.336   0.102  13.414  0.6471  0.6749  0.2219
 3341SOL    HW121656   0.293   0.105  13.328 -0.6127  0.6029  0.8496
 3341SOL    HW221657   0.345   0.008  13.403  4.1214  1.0885 -0.4767
 3342SOL     OW21658   2.757   2.018   2.978 -0.3903  0.4676  0.2010
 3342SOL    HW121659   2.762   2.051   3.068 -2.3994 -0.3731  0.6094
 3342SOL    HW221660   2.809   2.087   2.935  0.7021 -0.9409 -0.7146
 3343SOL     OW21661   2.656   2.538  16.140  0.1403 -0.0611 -0.3396
 3343SOL    HW121662   2.728   2.483  16.172 -1.5231 -1.1469  1.4929
 3343SOL    HW221663   2.704   2.617  16.114  0.0957 -0.2928 -1.1027
 3344SOL     OW21664   1.308   3.160   8.799 -0.0971 -0.2999  0.4739
 3344SOL    HW121665   1.293   3.146   8.893 -1.8262  0.4351  0.3126
 3344SOL    HW221666   1.396   3.131   8.778  0.4783  2.0271 -0.3091
 3345SOL     OW21667   0.174   4.153   4.683  0.2817  0.2665 -0.8039
 3345SOL    HW121668   0.219   4.224   4.639  0.6545  0.1611 -0.5862
 3345SOL    HW221669   0.239   4.142   4.752 -1.4244 -0.4076  0.7109
 3346SOL     OW21670   0.570   1.500   3.848  0.0015  0.2906  0.2121
 3346SOL    HW121671   0.510   1.440   3.893 -0.8299 -0.6932 -2.1798
 3346SOL    HW221672   0.596   1.443   3.775 -2.0281  1.5290 -1.4759
 3347SOL     OW21673   3.977   1.479  17.627  0.0025  0.5108 -0.2753
 3347SOL    HW121674   3.883   1.479  17.610 -0.1714 -1.6831  0.7412
 3347SOL    HW221675   3.974   1.478  17.723 -1.0627  2.6154 -0.2670
 3348SOL     OW21676   0.189   2.118  13.025 -0.1731 -0.1125  0.2176
 3348SOL    HW121677   0.093   2.116  13.022 -0.1560 -0.5882  0.0640
 3348SOL    HW221678   0.212   2.077  13.108  0.8217 -1.1876 -0.5956
 3349SOL     OW21679   1.965   1.368   2.363  0.9034  0.5663 -0.4861
 3349SOL    HW121680   2.026   1.368   2.436  0.0106  0.6087  0.2643
 3349SOL    HW221681   2.010   1.330   2.288  3.0963  1.9716  0.1373
 3350SOL     OW21682   2.867   0.513   1.494  0.1503 -0.3842  0.2112
 3350SOL    HW121683   2.797   0.509   1.428 -0.2266 -0.2405  0.6007
 3350SOL    HW221684   2.814   0.498   1.572 -2.1665 -1.8007 -1.6223
 3351SOL     OW21685   2.252   1.568   5.976  0.1384 -0.5500  0.2422
 3351SOL    HW121686   2.251   1.542   6.068  1.5376 -0.1864  0.3647
 3351SOL    HW221687   2.284   1.488   5.933  1.8884 -0.2318  0.9624
 3352SOL     OW21688   1.480   1.428   4.014 -0.2225  0.0796 -0.0303
 3352SOL    HW121689   1.554   1.386   4.058 -0.7341 -1.8201 -0.9944
 3352SOL    HW221690   1.503   1.518   4.037 -0.4552 -0.1218  1.0050
 3353SOL     OW21691   2.846   0.379  13.503  0.2507 -0.5147 -0.2813
 3353SOL    HW121692   2.825   0.464  13.465  1.5641  0.1046  0.3758
 3353SOL    HW221693   2.891   0.332  13.432  1.6549 -1.2226  1.0823
 3354SOL     OW21694   0.573   4.638   3.691 -0.5257 -0.3846  0.1735
 3354SOL    HW121695   0.481   4.657   3.674 -0.5373 -1.3894 -0.9167
 3354SOL    HW221696   0.610   4.723   3.668  0.8132 -1.0838 -0.2206
 3355SOL     OW21697   0.068   1.012   7.395  0.2375  0.0703  0.2379
 3355SOL    HW121698   0.090   1.042   7.483  1.9896  1.6698 -0.7522
 3355SOL    HW221699   0.043   0.923   7.420  0.9142 -0.9135 -2.5913
 3356SOL     OW21700   2.067   2.726   5.858 -0.0718  0.2500  0.3210
 3356SOL    HW121701   2.058   2.725   5.763  2.1888 -0.1117  0.1057
 3356SOL    HW221702   2.003   2.660   5.884 -1.4205  1.8304  0.9941
 3357SOL     OW21703   1.644   1.837   6.110  0.2156  0.4477  0.0330
 3357SOL    HW121704   1.709   1.903   6.088  0.5651 -0.7816 -2.6298
 3357SOL    HW221705   1.607   1.863   6.194 -0.4828  0.2560 -0.2131
 3358SOL     OW21706   3.345   0.830  10.437  0.4389  0.6882  0.2093
 3358SOL    HW121707   3.415   0.777  10.475 -2.5978 -2.4937  1.4316
 3358SOL    HW221708   3.305   0.867  10.516  1.3355  2.0399  0.0271
 3359SOL     OW21709   2.226   3.370   5.810  0.0260 -0.0857  0.0136
 3359SOL    HW121710   2.250   3.389   5.901  0.0397 -1.6579  0.3287
 3359SOL    HW221711   2.136   3.396   5.792 -0.5677 -0.6280  2.2110
 3360SOL     OW21712   4.166   3.951   4.365 -0.8188  0.6859  0.0481
 3360SOL    HW121713   4.107   3.992   4.303  2.3013  1.4738 -2.3983
 3360SOL    HW221714   4.253   3.975   4.334 -0.8266  1.3356  0.5174
 3361SOL     OW21715   3.695   2.087   5.539 -0.7899 -0.3829  0.0853
 3361SOL    HW121716   3.631   2.017   5.531 -1.2244 -0.0964  0.9993
 3361SOL    HW221717   3.687   2.103   5.633 -0.6801  1.3884 -0.2031
 3362SOL     OW21718   1.190   1.800   2.416 -0.0257 -0.1949 -0.1993
 3362SOL    HW121719   1.195   1.865   2.485 -0.4644  0.0264 -0.3731
 3362SOL    HW221720   1.179   1.721   2.469  0.9547 -0.3295 -0.2045
 3363SOL     OW21721   2.203   1.902   5.495  0.2783  0.2809  0.2118
 3363SOL    HW121722   2.206   1.968   5.565  0.0202  1.7215 -1.1368
 3363SOL    HW221723   2.219   1.821   5.544 -0.5535  0.9968  1.6697
 3364SOL     OW21724   1.195   2.536   0.703  0.2521 -0.7811 -0.6530
 3364SOL    HW121725   1.260   2.507   0.766 -1.5456  2.3862  2.6312
 3364SOL    HW221726   1.155   2.606   0.755  0.2446 -2.0533  1.0253
 3365SOL     OW21727   4.280   1.883   4.817  0.1174 -0.4527  0.5374
 3365SOL    HW121728   4.253   1.938   4.743 -1.7802 -3.0797 -0.7329
 3365SOL    HW221729   4.287   1.799   4.772 -1.4065 -0.1026 -0.3666
 3366SOL     OW21730   1.275   3.034   6.663  0.0235  0.2861  0.6346
 3366SOL    HW121731   1.283   2.939   6.667  0.2499  0.3156  0.8385
 3366SOL    HW221732   1.367   3.060   6.670  0.6254 -1.9699  1.2375
 3367SOL     OW21733   2.944   3.849   3.196  0.3281  0.2257  0.5474
 3367SOL    HW121734   2.876   3.883   3.255  0.1753  0.1762  0.4010
 3367SOL    HW221735   2.889   3.805   3.131  0.1408  0.7562  0.3469
 3368SOL     OW21736   1.530   2.449   1.172  0.2390 -0.3054  0.5417
 3368SOL    HW121737   1.449   2.419   1.131 -2.1072  1.8402  3.5559
 3368SOL    HW221738   1.586   2.439   1.096  0.1274 -3.3967  0.8915
 3369SOL     OW21739   0.461   0.107   6.721  0.0959 -0.0060 -0.2861
 3369SOL    HW121740   0.541   0.133   6.768 -1.0100 -0.0992  1.6311
 3369SOL    HW221741   0.480   0.140   6.633 -2.5975  1.6438 -0.2432
 3370SOL     OW21742   1.326   0.195  12.135 -0.0849 -0.2876 -0.0629
 3370SOL    HW121743   1.330   0.100  12.141 -1.3906 -0.2496  1.3731
 3370SOL    HW221744   1.340   0.191  12.040 -0.3487 -1.5407 -0.0442
 3371SOL     OW21745   0.212   3.125   3.904 -0.2493 -0.1225  0.1430
 3371SOL    HW121746   0.269   3.091   3.972  2.5460  2.5760 -0.8590
 3371SOL    HW221747   0.187   3.203   3.954 -1.5578 -0.0077 -0.6850
 3372SOL     OW21748   4.254   3.390   3.320  0.2446 -0.4318  0.2084
 3372SOL    HW121749   4.331   3.436   3.286 -0.2188 -0.7914 -1.3479
 3372SOL    HW221750   4.255   3.407   3.414  0.4874 -1.0797  0.3248
 3373SOL     OW21751   1.508   1.797  17.339 -0.0605 -0.3467 -0.1191
 3373SOL    HW121752   1.509   1.767  17.248 -2.4541  0.5351 -0.4272
 3373SOL    HW221753   1.430   1.756  17.378 -1.2890  1.2204 -0.9402
 3374SOL     OW21754   4.640   4.009   6.552  0.1784 -0.1165  0.0390
 3374SOL    HW121755   4.696   3.991   6.628 -0.3975  1.0984  0.7398
 3374SOL    HW221756   4.551   3.983   6.576  0.4454 -0.8391  0.2422
 3375SOL     OW21757   0.638   2.719   8.926 -0.1643  0.2036  0.0466
 3375SOL    HW121758   0.663   2.808   8.952  0.1310 -0.0684  0.6981
 3375SOL    HW221759   0.543   2.730   8.923 -0.2921 -0.4015  1.5190
 3376SOL     OW21760   3.455   1.559  10.237 -0.1439 -0.6348  0.2111
 3376SOL    HW121761   3.395   1.484  10.239 -1.5433  0.4785  0.2722
 3376SOL    HW221762   3.542   1.520  10.247 -0.3513 -0.7442  1.5660
 3377SOL     OW21763   0.009   2.789   5.182 -0.1846  0.4136  0.4123
 3377SOL    HW121764   4.651   2.795   5.173 -0.3811 -1.4014  1.3398
 3377SOL    HW221765   0.020   2.872   5.136  0.2465  0.2835  0.2860
 3378SOL     OW21766   3.388   2.645   5.416 -0.0929 -0.5014 -0.2048
 3378SOL    HW121767   3.386   2.714   5.482 -1.1328 -1.5163  0.8258
 3378SOL    HW221768   3.465   2.677   5.368 -0.3839  0.5322  0.0242
 3379SOL     OW21769   0.446   1.132   5.607  0.3559 -0.1898  0.6607
 3379SOL    HW121770   0.383   1.144   5.678 -0.7207 -0.1416 -0.3163
 3379SOL    HW221771   0.479   1.043   5.611  2.5441  0.6319  0.8761
 3380SOL     OW21772   3.200   0.842  13.487  0.0305  0.2128 -0.1797
 3380SOL    HW121773   3.285   0.824  13.526  0.1792  2.2356  0.4394
 3380SOL    HW221774   3.201   0.936  13.468 -1.8202 -0.2326 -2.6169
 3381SOL     OW21775   0.141   4.231   9.486 -0.1133 -0.3093  0.1450
 3381SOL    HW121776   0.080   4.220   9.413 -1.4730  1.4852  1.0150
 3381SOL    HW221777   0.092   4.202   9.563 -0.7308 -1.3053 -0.6268
 3382SOL     OW21778   2.831   4.428   4.783 -0.2951  0.0759 -0.2744
 3382SOL    HW121779   2.891   4.493   4.749 -0.7034  1.2923  1.3293
 3382SOL    HW221780   2.762   4.484   4.819 -0.3064 -0.4733  0.5535
 3383SOL     OW21781   0.975   3.843   4.101  0.0483  0.1411 -0.3744
 3383SOL    HW121782   1.012   3.768   4.146 -2.1529 -1.0023 -0.4675
 3383SOL    HW221783   1.034   3.915   4.125 -0.6565  0.3904  0.5747
 3384SOL     OW21784   3.495   3.552   3.894 -0.0625 -0.0907  0.1512
 3384SOL    HW121785   3.420   3.546   3.952 -0.8456  1.8422 -0.6621
 3384SOL    HW221786   3.451   3.545   3.809 -0.0277 -1.5735  0.2560
 3385SOL     OW21787   2.983   2.297   7.094 -0.4945 -0.4243 -0.5900
 3385SOL    HW121788   2.984   2.392   7.093  1.7337 -0.4697 -2.8808
 3385SOL    HW221789   2.905   2.276   7.146  0.6147 -2.2183  0.3359
 3386SOL     OW21790   4.729   0.716  14.100 -0.4477  0.2258  0.0714
 3386SOL    HW121791   4.686   0.784  14.152 -0.6917 -1.4065  2.0002
 3386SOL    HW221792   4.668   0.707  14.027 -0.0151  0.7832 -0.3525
 3387SOL     OW21793   1.210   1.135   6.475 -0.4140  0.6946  0.4346
 3387SOL    HW121794   1.204   1.040   6.466 -1.0625  0.7736  0.0255
 3387SOL    HW221795   1.277   1.150   6.409 -0.9569 -0.5772 -0.3889
 3388SOL     OW21796   0.349   4.569   7.721  0.1194 -0.1157 -0.5233
 3388SOL    HW121797   0.360   4.517   7.801  0.6982 -0.6982 -0.9868
 3388SOL    HW221798   0.289   4.518   7.667 -0.2610  0.0811 -0.2878
 3389SOL     OW21799   0.275   2.734   6.643 -0.4172  0.3230 -0.1504
 3389SOL    HW121800   0.209   2.775   6.698 -0.3530 -2.6934  2.2018
 3389SOL    HW221801   0.283   2.646   6.681 -1.3497  0.0458 -0.6036
 3390SOL     OW21802   4.612   3.337   8.894 -0.1294 -0.0735  0.0652
 3390SOL    HW121803   4.581   3.394   8.964  3.3619 -0.5173  1.9761
 3390SOL    HW221804   4.543   3.341   8.828  0.1526  0.9458 -0.1667
 3391SOL     OW21805   2.954   1.737   1.796 -0.1885 -0.0729  0.3549
 3391SOL    HW121806   2.892   1.690   1.853 -1.3182 -0.2275 -0.9968
 3391SOL    HW221807   3.041   1.706   1.819  0.3195 -0.8956 -2.7468
 3392SOL     OW21808   0.560   3.271   5.682 -0.6150 -0.3549  0.0402
 3392SOL    HW121809   0.470   3.246   5.703 -0.0841  1.0775  4.0481
 3392SOL    HW221810   0.565   3.210   5.609 -0.6342 -1.5109  1.0157
 3393SOL     OW21811   3.204   0.125  11.099 -0.4305  0.0049  0.1432
 3393SOL    HW121812   3.276   0.071  11.068 -1.1705 -0.9826  0.1429
 3393SOL    HW221813   3.134   0.115  11.034 -0.5416 -1.1510  0.4404
 3394SOL     OW21814   2.017   2.659  11.684 -0.6675 -0.0217 -0.2145
 3394SOL    HW121815   1.957   2.694  11.749 -0.8206 -0.0862 -0.3202
 3394SOL    HW221816   2.055   2.734  11.639 -0.5271 -1.2345 -2.1662
 3395SOL     OW21817   4.488   0.513   0.991  0.6559 -0.2148  0.5450
 3395SOL    HW121818   4.497   0.607   0.976 -0.8796 -0.5844 -2.5684
 3395SOL    HW221819   4.442   0.508   1.075  0.1782  2.4715  0.4529
 3396SOL     OW21820   0.308   1.414   3.471 -0.3791  0.0404  0.2729
 3396SOL    HW121821   0.389   1.452   3.437 -0.0144 -2.6086 -1.8313
 3396SOL    HW221822   0.317   1.319   3.474 -2.7570 -0.1629  1.2678
 3397SOL     OW21823   0.862   0.864   4.942 -0.1175  0.4701 -0.2108
 3397SOL    HW121824   0.936   0.875   5.003  0.4777 -2.3852 -0.4336
 3397SOL    HW221825   0.828   0.776   4.954 -0.6015  0.4208 -1.9972
 3398SOL     OW21826   1.701   2.580   5.086 -0.1057  0.1399  0.2738
 3398SOL    HW121827   1.636   2.612   5.148 -1.4010 -1.6607 -0.1167
 3398SOL    HW221828   1.744   2.513   5.139  0.9202 -0.9122 -1.8695
 3399SOL     OW21829   1.522   2.215   2.032 -0.0513 -0.1579 -0.2202
 3399SOL    HW121830   1.508   2.309   2.028 -1.4273 -0.4096 -1.1067
 3399SOL    HW221831   1.461   2.186   2.100 -0.3944  0.4567 -0.2753
 3400SOL     OW21832   1.319   0.205   4.153 -0.4893 -0.3168  0.0959
 3400SOL    HW121833   1.285   0.293   4.139  1.1130  0.2746  0.0516
 3400SOL    HW221834   1.317   0.161   4.068 -0.7026  0.9901 -0.5687
 3401SOL     OW21835   0.646   3.960  12.238 -0.4889  0.4369 -0.3308
 3401SOL    HW121836   0.557   3.974  12.270 -1.1483  0.8089 -2.3353
 3401SOL    HW221837   0.702   3.979  12.314  0.2951 -1.1945 -0.4883
 3402SOL     OW21838   2.543   4.719  15.376 -0.3021 -0.2378  0.2706
 3402SOL    HW121839   2.614   4.702  15.438 -1.0763 -3.1687  0.3808
 3402SOL    HW221840   2.532   0.076  15.367  0.8796 -0.0040  1.3117
 3403SOL     OW21841   1.790   3.549   8.627 -0.4058 -0.0643  0.0334
 3403SOL    HW121842   1.711   3.602   8.615 -2.0286 -2.4043  0.3081
 3403SOL    HW221843   1.829   3.606   8.693 -0.8330 -1.7692  1.7491
 3404SOL     OW21844   2.268   0.762   9.017 -0.1419 -0.2002 -0.3006
 3404SOL    HW121845   2.235   0.819   9.087  0.5221 -1.0572  0.7129
 3404SOL    HW221846   2.289   0.817   8.942  2.3132  0.3891  0.8156
 3405SOL     OW21847   0.737   4.531   1.590  0.4887  0.4277  0.7227
 3405SOL    HW121848   0.704   4.566   1.508  0.8702  3.6315  1.9322
 3405SOL    HW221849   0.794   4.606   1.611  0.9407  0.1130  0.6181
 3406SOL     OW21850   2.132   0.589   6.681 -0.0723  0.0923  0.1100
 3406SOL    HW121851   2.046   0.610   6.716  0.1477  1.0916  0.0408
 3406SOL    HW221852   2.182   0.656   6.728 -1.1919  1.1770 -0.2626
 3407SOL     OW21853   1.087   1.349   0.845  0.4554 -0.1379 -0.0471
 3407SOL    HW121854   1.149   1.278   0.860 -1.0647 -2.2956 -4.1346
 3407SOL    HW221855   1.143   1.427   0.842 -1.7690  1.4803  0.4534
 3408SOL     OW21856   4.073   1.469   3.852  0.0131 -0.1240  0.5565
 3408SOL    HW121857   4.142   1.510   3.904  0.5104  0.1606 -0.3115
 3408SOL    HW221858   4.002   1.533   3.851 -0.3686 -0.5562  0.4358
 3409SOL     OW21859   1.130   4.355   3.333 -0.2254 -0.1122  0.1188
 3409SOL    HW121860   1.074   4.306   3.273  1.1683  1.7104 -2.6650
 3409SOL    HW221861   1.199   4.290   3.345 -2.2522 -1.7401  2.7687
 3410SOL     OW21862   3.387   4.098   3.904 -0.1682  0.4469  0.4359
 3410SOL    HW121863   3.422   4.177   3.945  2.3188  0.7076 -2.1795
 3410SOL    HW221864   3.296   4.128   3.894 -0.3178 -0.5203 -1.1833
 3411SOL     OW21865   3.240   1.365   8.974 -0.3629 -0.0406  0.1494
 3411SOL    HW121866   3.226   1.273   8.993 -0.6341 -0.4051 -1.8881
 3411SOL    HW221867   3.156   1.398   8.943  1.1048  1.8554 -1.7896
 3412SOL     OW21868   2.377   0.156   4.014  0.4973 -0.5742  0.2768
 3412SOL    HW121869   2.365   0.112   3.930 -2.7227  0.4772  0.1742
 3412SOL    HW221870   2.470   0.175   4.024  0.1097  1.0389  0.9323
 3413SOL     OW21871   2.228   1.117   7.805 -0.5843  0.0164  0.2657
 3413SOL    HW121872   2.190   1.099   7.892  0.5923 -0.5354  0.6593
 3413SOL    HW221873   2.269   1.034   7.780  1.8878  0.4911  2.7894
 3414SOL     OW21874   2.506   1.726   6.741  0.7939 -0.1871  1.0127
 3414SOL    HW121875   2.496   1.790   6.812  0.6485  1.7850 -0.7756
 3414SOL    HW221876   2.554   1.654   6.783 -1.0607 -0.7594  2.1175
 3415SOL     OW21877   2.467   3.455   9.160  0.0030 -0.7824  0.9825
 3415SOL    HW121878   2.447   3.432   9.250  0.1026 -2.0365  0.6816
 3415SOL    HW221879   2.389   3.427   9.111 -0.1276  2.0144 -0.4146
 3416SOL     OW21880   3.625   3.408   5.049  0.3258  0.3387  0.8447
 3416SOL    HW121881   3.533   3.388   5.063 -0.0741  1.4126 -0.2032
 3416SOL    HW221882   3.649   3.362   4.968 -1.7888 -1.4956  1.2537
 3417SOL     OW21883   1.948   2.472  10.958  0.0717 -0.0951 -0.4822
 3417SOL    HW121884   2.001   2.518  10.893  3.4951 -3.6421 -0.1758
 3417SOL    HW221885   1.917   2.404  10.898 -0.8469  1.1550 -1.4159
 3418SOL     OW21886   3.835   0.911   8.873 -0.2925  0.2805 -0.3663
 3418SOL    HW121887   3.762   0.963   8.907 -0.3306  0.1088 -0.1864
 3418SOL    HW221888   3.819   0.924   8.779  1.7123  0.2464 -0.7102
 3419SOL     OW21889   1.815   3.346   6.233 -0.1057  0.1518 -0.4613
 3419SOL    HW121890   1.850   3.260   6.258  1.9226  0.7476 -1.2358
 3419SOL    HW221891   1.827   3.402   6.310 -2.4233  1.2318 -0.8954
 3420SOL     OW21892   2.993   0.064   9.621 -0.0617  0.5565 -0.1786
 3420SOL    HW121893   3.010   0.045   9.528  0.4670 -0.7936  0.1912
 3420SOL    HW221894   2.924   0.130   9.615 -0.5770 -0.0314 -0.6775
 3421SOL     OW21895   2.306   3.152   9.376  0.1441 -0.0306  0.5999
 3421SOL    HW121896   2.361   3.106   9.440 -1.2323  0.9038  2.4418
 3421SOL    HW221897   2.322   3.242   9.404 -4.2498  0.4687  1.4001
 3422SOL     OW21898   4.703   4.250   2.065 -0.1795 -0.4113 -0.4787
 3422SOL    HW121899   4.717   4.167   2.110  1.7579 -0.0999 -0.5092
 3422SOL    HW221900   4.646   4.280   2.135  2.5942 -0.4434  1.8261
 3423SOL     OW21901   0.314   1.835   6.647 -0.2806 -0.4007 -0.6622
 3423SOL    HW121902   0.322   1.740   6.652 -0.3236 -0.4399 -1.3670
 3423SOL    HW221903   0.354   1.852   6.562  1.8190 -2.2019 -0.0338
 3424SOL     OW21904   4.019   3.388   1.263 -0.0647  0.0177 -0.5542
 3424SOL    HW121905   3.990   3.362   1.350 -1.3166  1.4820 -0.5296
 3424SOL    HW221906   4.106   3.349   1.263 -0.1980 -0.2732 -2.9157
 3425SOL     OW21907   1.564   0.027   9.431 -0.5354  0.2509  0.2435
 3425SOL    HW121908   1.637   4.710   9.398 -1.8451 -1.7596  0.6307
 3425SOL    HW221909   1.552   0.098   9.367 -2.0472  0.3306  0.6179
 3426SOL     OW21910   1.844   2.548   5.898 -0.0715  0.2593  0.7516
 3426SOL    HW121911   1.862   2.483   5.830  0.1597  1.7371 -0.6101
 3426SOL    HW221912   1.771   2.506   5.944 -0.8967  1.7678  0.8163
 3427SOL     OW21913   0.457   0.047  16.575 -0.3267 -0.8669  0.2815
 3427SOL    HW121914   0.368   0.061  16.607 -0.7546 -0.7103 -0.9932
 3427SOL    HW221915   0.431   4.729  16.501  2.8741 -0.2675 -1.3010
 3428SOL     OW21916   2.443   1.882   9.108  0.4422  0.0138 -0.0547
 3428SOL    HW121917   2.515   1.930   9.068  1.8190 -1.1626  1.0034
 3428SOL    HW221918   2.396   1.873   9.025 -0.7727 -1.8064  0.8356
 3429SOL     OW21919   0.404   2.989   6.442  0.2574 -0.1644  0.2483
 3429SOL    HW121920   0.411   3.080   6.473  1.9453 -0.2008 -0.0407
 3429SOL    HW221921   0.311   2.971   6.432  0.1844  0.1318  0.3845
 3430SOL     OW21922   3.343   1.861   5.206 -0.3896  0.1180 -0.2915
 3430SOL    HW121923   3.416   1.811   5.170  0.2051 -0.3207  1.5738
 3430SOL    HW221924   3.353   1.853   5.301 -1.6782 -2.4826 -0.3852
 3431SOL     OW21925   2.264   3.013  14.575 -0.5301  0.0671  0.2750
 3431SOL    HW121926   2.343   2.962  14.592 -1.7363 -0.8146  3.2429
 3431SOL    HW221927   2.196   2.950  14.595 -0.0571 -1.1069 -1.8296
 3432SOL     OW21928   3.197   1.016   0.170  0.0339  0.4947 -0.0728
 3432SOL    HW121929   3.215   1.096   0.219 -0.3925 -0.3767  1.5157
 3432SOL    HW221930   3.105   1.031   0.149 -0.8217 -0.0531  3.2310
 3433SOL     OW21931   3.443   0.120   9.996 -0.1901 -0.6482  0.5056
 3433SOL    HW121932   3.378   0.090  10.060 -2.8796 -0.3188 -2.0563
 3433SOL    HW221933   3.404   0.090   9.914  0.3981 -0.0041 -0.0205
 3434SOL     OW21934   3.146   3.177   4.316  0.2947 -0.5461 -0.0118
 3434SOL    HW121935   3.060   3.198   4.351 -0.0042 -1.5028 -0.1821
 3434SOL    HW221936   3.134   3.195   4.222 -0.0302  2.8933  0.6919
 3435SOL     OW21937   2.400   3.228   4.216 -0.3991  0.2498  0.1483
 3435SOL    HW121938   2.408   3.321   4.236 -0.5593  0.4269 -0.6172
 3435SOL    HW221939   2.460   3.218   4.143  0.0024 -0.6896  0.6059
 3436SOL     OW21940   1.938   3.639  11.864 -0.2563 -0.5980 -0.1731
 3436SOL    HW121941   1.943   3.685  11.779 -0.1864 -1.2381 -0.5152
 3436SOL    HW221942   1.857   3.668  11.905 -0.8974 -2.1259 -0.3889
 3437SOL     OW21943   1.190   4.530   5.608 -0.1794 -0.1448  0.2444
 3437SOL    HW121944   1.264   4.482   5.572 -0.2588 -0.2400  0.2072
 3437SOL    HW221945   1.196   4.598   5.541 -1.3969  0.2774  0.5683
 3438SOL     OW21946   0.750   1.742   3.032 -0.5461 -0.0582  0.6343
 3438SOL    HW121947   0.750   1.742   2.936  1.1415  1.6473  0.6306
 3438SOL    HW221948   0.663   1.769   3.060 -0.3592  2.0593 -0.8635
 3439SOL     OW21949   2.292   0.264   8.176 -0.3372  0.6339  0.0885
 3439SOL    HW121950   2.337   0.193   8.223  0.8385  0.5755 -1.1370
 3439SOL    HW221951   2.219   0.283   8.234 -1.2139 -0.8204 -0.5287
 3440SOL     OW21952   4.438   1.051   3.353 -0.1234  0.2578  0.2937
 3440SOL    HW121953   4.521   1.045   3.400 -0.6031 -0.3547  1.0588
 3440SOL    HW221954   4.369   1.064   3.419 -1.1418 -1.8743 -0.3656
 3441SOL     OW21955   3.911   4.139  16.646  0.0572 -0.1588 -0.1929
 3441SOL    HW121956   4.004   4.159  16.658 -0.2969  1.6948 -0.4935
 3441SOL    HW221957   3.864   4.220  16.662  0.0633 -0.3544  0.8305
 3442SOL     OW21958   4.204   4.163   5.616 -0.1620 -0.0711 -0.0468
 3442SOL    HW121959   4.225   4.120   5.533 -1.4764  1.6033 -1.2494
 3442SOL    HW221960   4.230   4.097   5.681 -0.1010  0.3030  0.3057
 3443SOL     OW21961   2.813   1.750   3.821 -0.5970  0.1746  0.3061
 3443SOL    HW121962   2.838   1.742   3.913  2.9099  0.2777 -0.6435
 3443SOL    HW221963   2.777   1.662   3.811 -1.9369  0.5990  1.4293
 3444SOL     OW21964   2.888   3.948   2.287 -0.0059 -0.4566 -0.2593
 3444SOL    HW121965   2.956   4.001   2.329 -1.0425  0.6576 -0.0040
 3444SOL    HW221966   2.900   3.871   2.343 -2.3911 -0.2347  0.5570
 3445SOL     OW21967   0.273   1.116   9.759 -0.2678  0.5060  0.1458
 3445SOL    HW121968   0.271   1.030   9.800  1.0779  0.1348 -0.5421
 3445SOL    HW221969   0.208   1.162   9.812 -0.4992  2.6152 -1.9463
 3446SOL     OW21970   3.905   4.599   5.208 -0.1852  0.1692 -0.3566
 3446SOL    HW121971   3.990   4.558   5.195 -0.2228  0.4228 -1.4004
 3446SOL    HW221972   3.863   4.565   5.129  4.5042 -1.0634 -2.3060
 3447SOL     OW21973   0.298   3.553  15.289  0.1171 -0.1416  0.4856
 3447SOL    HW121974   0.344   3.523  15.211 -0.8268  0.0355 -0.1347
 3447SOL    HW221975   0.323   3.484  15.350  1.0966 -0.8420 -0.6949
 3448SOL     OW21976   0.307   4.567   3.345  0.0508 -0.5708  0.3795
 3448SOL    HW121977   0.322   4.553   3.251 -1.0236  1.7707 -0.1473
 3448SOL    HW221978   0.370   4.505   3.381 -1.4843 -1.3791  1.6684
 3449SOL     OW21979   3.900   3.499   4.818  0.1990  0.6596  0.3598
 3449SOL    HW121980   3.829   3.541   4.769 -1.6805 -1.1514  1.5564
 3449SOL    HW221981   3.946   3.570   4.864  0.2707  1.2333 -0.5764
 3450SOL     OW21982   0.386   4.594   9.325  0.2783 -0.2312  0.1475
 3450SOL    HW121983   0.419   4.561   9.241  0.6713  0.9438 -0.1607
 3450SOL    HW221984   0.354   4.681   9.301  4.8156  0.5979 -2.8916
 3451SOL     OW21985   4.720   2.249   7.954  0.5038 -0.0703  0.2232
 3451SOL    HW121986   0.056   2.202   7.994 -1.1326 -0.0232  3.3447
 3451SOL    HW221987   4.690   2.306   8.025 -2.1706 -1.8379  0.5282
 3452SOL     OW21988   3.039   4.075   7.926  0.2676 -0.2547 -0.4571
 3452SOL    HW121989   3.038   4.006   7.861 -2.4336 -0.4295 -0.2392
 3452SOL    HW221990   3.096   4.139   7.882  2.2498 -0.8570  1.1985
 3453SOL     OW21991   2.696   3.956   3.978  0.0665 -0.7007  0.2130
 3453SOL    HW121992   2.625   4.011   4.013 -1.0159 -1.1035 -1.3830
 3453SOL    HW221993   2.654   3.927   3.897  0.2981 -1.7399  0.4649
 3454SOL     OW21994   4.227   3.692   5.755  0.1018 -0.0530 -0.0903
 3454SOL    HW121995   4.220   3.678   5.849 -1.1949 -1.9325 -0.4785
 3454SOL    HW221996   4.322   3.680   5.744 -0.3845 -2.0967 -1.9411
 3455SOL     OW21997   3.316   2.998   9.925 -0.9260  0.2759 -0.2483
 3455SOL    HW121998   3.365   2.943   9.865  0.9236  3.5017 -1.7207
 3455SOL    HW221999   3.299   2.942  10.001 -1.9605  1.3731  0.3418
 3456SOL     OW22000   4.491   2.515   4.946  0.6350  0.2834 -0.0205
 3456SOL    HW122001   4.440   2.554   4.876 -0.9823 -0.2224  0.8913
 3456SOL    HW222002   4.439   2.535   5.023  0.9401  1.1289 -0.0375
 3457SOL     OW22003   0.939   0.210  15.400 -0.0753 -0.8089 -0.3536
 3457SOL    HW122004   0.958   0.304  15.398 -1.5249 -0.4477  2.1569
 3457SOL    HW222005   0.844   0.198  15.408 -0.6067  2.7159 -1.1914
 3458SOL     OW22006   1.051   3.999   8.499  0.2535 -0.7833  0.1174
 3458SOL    HW122007   1.049   4.017   8.405 -0.4313 -0.5867  0.1660
 3458SOL    HW222008   0.966   4.036   8.524  1.3331  1.3751  0.6674
 3459SOL     OW22009   4.039   3.512   9.266  0.4242 -0.3488  0.5972
 3459SOL    HW122010   4.105   3.485   9.202  1.1845 -0.4442  1.4213
 3459SOL    HW222011   4.040   3.438   9.327  0.6020 -0.5754  0.3236
 3460SOL     OW22012   1.442   1.435   8.911  0.8104  0.7753 -0.7525
 3460SOL    HW122013   1.449   1.529   8.900  0.0132  1.0432  1.0529
 3460SOL    HW222014   1.381   1.434   8.984  1.0992 -0.4963 -0.5136
 3461SOL     OW22015   0.374   2.425  11.680 -0.0981  0.3260 -0.0536
 3461SOL    HW122016   0.351   2.417  11.587  0.0463 -2.1467  0.1021
 3461SOL    HW222017   0.347   2.515  11.696 -0.1342 -0.0028  1.7368
 3462SOL     OW22018   4.206   2.155   7.811 -0.4001 -0.0480  0.4905
 3462SOL    HW122019   4.235   2.241   7.782 -1.0763  0.1726  0.4576
 3462SOL    HW222020   4.284   2.111   7.843 -0.6063 -0.1822  0.8018
 3463SOL     OW22021   3.597   3.523   8.673  0.2395  0.1848 -0.3696
 3463SOL    HW122022   3.543   3.450   8.644 -0.6931  0.2830  1.1179
 3463SOL    HW222023   3.536   3.593   8.649 -2.6504 -1.9610  0.7562
 3464SOL     OW22024   3.655   0.316  14.305 -0.1569 -0.1904  0.8581
 3464SOL    HW122025   3.564   0.292  14.326 -1.0136 -0.4559 -3.2312
 3464SOL    HW222026   3.675   0.365  14.385  1.6348 -0.4003  0.5252
 3465SOL     OW22027   1.633   4.410   5.888  0.3681  0.0968 -0.1891
 3465SOL    HW122028   1.662   4.463   5.813 -2.3866 -2.2646 -2.9297
 3465SOL    HW222029   1.555   4.367   5.853 -0.0751 -1.0593  2.2658
 3466SOL     OW22030   4.646   2.510   8.793  0.1836  0.1310 -0.0874
 3466SOL    HW122031   4.594   2.573   8.743 -2.7164 -0.9097  1.6299
 3466SOL    HW222032   4.589   2.433   8.800 -0.2554  0.5243  0.6679
 3467SOL     OW22033   4.561   2.605  17.277  0.0477  0.2508  0.2608
 3467SOL    HW122034   4.628   2.658  17.319  0.8049 -0.0844 -0.5099
 3467SOL    HW222035   4.604   2.585  17.193  0.5032  1.8995  0.0999
 3468SOL     OW22036   3.027   3.639  13.581 -0.0540  0.0700 -0.0448
 3468SOL    HW122037   2.932   3.644  13.590 -0.4005 -0.6301 -3.4161
 3468SOL    HW222038   3.049   3.729  13.555  1.3742 -0.2912 -0.0962
 3469SOL     OW22039   4.074   1.374  15.333  0.0199  0.4244 -0.2899
 3469SOL    HW122040   4.107   1.288  15.358 -1.9402  1.0843  4.6353
 3469SOL    HW222041   4.128   1.404  15.260 -0.8133 -0.3423 -1.2141
 3470SOL     OW22042   0.036   0.111   2.277  0.0904 -0.8478 -0.2442
 3470SOL    HW122043   4.698   0.052   2.287 -0.0940 -0.8634 -1.6972
 3470SOL    HW222044   0.004   0.192   2.315  0.7680 -0.8168  0.2635
 3471SOL     OW22045   0.162   2.730  14.275 -0.3298 -0.2960  0.1291
 3471SOL    HW122046   0.127   2.677  14.203  0.2841 -0.0823 -0.3193
 3471SOL    HW222047   0.079   2.763  14.311 -1.1403 -1.6239 -0.5000
 3472SOL     OW22048   1.589   1.417   7.565  0.3804 -0.5897  0.0904
 3472SOL    HW122049   1.555   1.494   7.519  1.6155  0.8572  1.5667
 3472SOL    HW222050   1.660   1.445   7.622  0.1890 -0.6454  0.3563
 3473SOL     OW22051   4.340   4.415   5.942 -0.6617  0.6196  0.5508
 3473SOL    HW122052   4.404   4.344   5.956  0.7811  1.3200 -2.4548
 3473SOL    HW222053   4.401   4.488   5.935 -0.9125  0.8065  0.3359
 3474SOL     OW22054   2.858   0.736   3.925  0.2277  0.0961 -0.0601
 3474SOL    HW122055   2.948   0.734   3.894  0.0262  2.9657 -0.8448
 3474SOL    HW222056   2.864   0.809   3.986 -0.5482 -0.5093  0.7493
 3475SOL     OW22057   1.705   4.336   6.484  0.0173  0.1936 -0.2488
 3475SOL    HW122058   1.735   4.386   6.560 -0.0805  1.4585 -1.0557
 3475SOL    HW222059   1.616   4.318   6.513  0.4402  0.5963  1.3046
 3476SOL     OW22060   1.958   4.492   8.393  0.4098  0.4287  0.4906
 3476SOL    HW122061   2.032   4.552   8.380 -0.3515  0.6776 -2.6440
 3476SOL    HW222062   1.989   4.416   8.343  0.3724  2.0143 -1.9838
 3477SOL     OW22063   0.396   1.558  12.027 -0.2168  0.5278  0.5618
 3477SOL    HW122064   0.486   1.588  12.044 -0.8714  1.1521  2.9090
 3477SOL    HW222065   0.373   1.603  11.946 -1.5037  0.7298  1.0351
 3478SOL     OW22066   2.578   4.614   1.287 -0.7305 -0.0674  0.1744
 3478SOL    HW122067   2.522   4.595   1.362 -0.8033 -0.8413 -0.0747
 3478SOL    HW222068   2.649   4.666   1.325 -2.4234  0.2633  2.8704
 3479SOL     OW22069   2.570   2.746  11.917 -0.0308 -0.8545  0.2196
 3479SOL    HW122070   2.665   2.740  11.926 -0.0572  0.0848  1.0820
 3479SOL    HW222071   2.569   2.828  11.869 -2.1492 -0.8908  0.1916
 3480SOL     OW22072   0.167   3.973   5.355 -0.2617  0.6871  0.0514
 3480SOL    HW122073   0.122   3.890   5.338 -0.4246  0.2756  2.4903
 3480SOL    HW222074   0.164   4.018   5.271 -1.9320  0.0674 -0.2163
 3481SOL     OW22075   3.516   4.717  10.712  0.7478 -0.2284  0.7548
 3481SOL    HW122076   3.575   4.659  10.664 -1.1276 -1.1087 -0.5059
 3481SOL    HW222077   3.480   4.656  10.777  0.1762 -1.9965 -1.2232
 3482SOL     OW22078   3.882   0.538  17.708 -0.6886  0.0296 -0.4593
 3482SOL    HW122079   3.969   0.578  17.705 -0.4612 -0.6194 -2.2294
 3482SOL    HW222080   3.832   0.593   0.022 -0.7035  0.8464 -1.2123
 3483SOL     OW22081   0.305   2.439   4.935 -0.0803 -0.1129 -0.2511
 3483SOL    HW122082   0.251   2.377   4.984 -0.4019  0.6479  0.3521
 3483SOL    HW222083   0.269   2.521   4.969  0.9992  1.0974 -2.0346
 3484SOL     OW22084   1.503   3.764   2.253 -0.1883  0.3908  0.1353
 3484SOL    HW122085   1.585   3.813   2.260  0.2311 -0.2515 -0.2748
 3484SOL    HW222086   1.515   3.685   2.305  2.4449 -0.1780 -1.3085
 3485SOL     OW22087   1.289   3.737   9.242 -0.6280 -0.0696 -0.1012
 3485SOL    HW122088   1.266   3.806   9.305  1.6687  0.2249  0.3996
 3485SOL    HW222089   1.346   3.776   9.176  0.2019 -1.2317 -0.0723
 3486SOL     OW22090   2.522   0.598   8.099 -0.4836 -0.6099 -0.1394
 3486SOL    HW122091   2.572   0.636   8.026  0.0897  1.3784  1.2783
 3486SOL    HW222092   2.539   0.505   8.084  0.3210 -0.5873  0.6400
 3487SOL     OW22093   3.907   3.908   5.344  0.9442 -0.0434  0.1671
 3487SOL    HW122094   3.822   3.866   5.333  1.3050 -0.6976 -0.0988
 3487SOL    HW222095   3.941   3.880   5.429  4.8945  0.5915 -1.2066
 3488SOL     OW22096   1.409   0.206   8.492 -0.6139 -0.0806 -0.5281
 3488SOL    HW122097   1.483   0.242   8.443 -0.3377 -2.5517 -1.8819
 3488SOL    HW222098   1.435   0.118   8.518 -1.7732 -0.3530 -0.3036
 3489SOL     OW22099   0.857   4.346  13.234  0.0270  0.5348  0.4361
 3489SOL    HW122100   0.848   4.319  13.325  1.1748  0.7928  0.6352
 3489SOL    HW222101   0.772   4.340  13.191  1.0346  0.2589 -1.5284
 3490SOL     OW22102   1.465   0.851  12.354  0.9343  0.1013  0.2125
 3490SOL    HW122103   1.498   0.782  12.297  0.0411 -0.9269  0.9459
 3490SOL    HW222104   1.451   0.803  12.435  0.5698  2.8629  1.7795
 3491SOL     OW22105   2.983   2.067   7.924 -0.1293  0.0895 -0.1248
 3491SOL    HW122106   3.073   2.095   7.909  0.0099 -1.8915 -3.0178
 3491SOL    HW222107   3.002   1.977   7.897  1.4502  0.8350 -1.5188
 3492SOL     OW22108   1.028   3.020  10.367  0.4439  0.0460 -0.6803
 3492SOL    HW122109   1.041   3.115  10.373  0.4009  0.0697 -0.9599
 3492SOL    HW222110   0.953   3.012  10.308  0.0521 -0.8889 -0.0448
 3493SOL     OW22111   4.092   1.999   3.148  0.7669  0.6676 -0.0235
 3493SOL    HW122112   4.076   1.935   3.217  1.7402  1.1473  0.6479
 3493SOL    HW222113   4.024   2.066   3.164 -0.1650 -0.4144  0.5317
 3494SOL     OW22114   2.262   3.930   9.771 -0.0179  0.5745  0.2973
 3494SOL    HW122115   2.352   3.950   9.745  0.1837  0.3477  0.8351
 3494SOL    HW222116   2.272   3.853   9.826 -1.6421  0.2416  0.1196
 3495SOL     OW22117   4.513   1.489   7.563 -0.3952  0.9514 -0.2566
 3495SOL    HW122118   4.489   1.569   7.610  0.3362  0.5006  0.8966
 3495SOL    HW222119   4.464   1.425   7.616  0.3265 -0.4062 -1.2210
 3496SOL     OW22120   0.474   4.706   4.202 -0.6144  0.2363 -0.3502
 3496SOL    HW122121   0.516   0.035   4.147  1.2667 -0.0567  0.7229
 3496SOL    HW222122   0.382   4.733   4.205 -0.2775  1.2488  1.0604
 3497SOL     OW22123   0.626   2.344   7.846 -0.3492  0.4522 -0.1013
 3497SOL    HW122124   0.629   2.404   7.920  2.0211 -1.3829  1.3116
 3497SOL    HW222125   0.700   2.383   7.799  0.9311 -0.3755  1.2542
 3498SOL     OW22126   0.990   1.333  12.424  0.3107 -0.1330 -0.1761
 3498SOL    HW122127   1.078   1.345  12.390  0.2550 -0.3802 -0.4042
 3498SOL    HW222128   0.932   1.385  12.369  1.8533 -0.1089 -1.7586
 3499SOL     OW22129   4.509   1.573   5.408  0.1537  0.5071  0.4282
 3499SOL    HW122130   4.571   1.570   5.335  0.0774 -2.0203  0.4560
 3499SOL    HW222131   4.539   1.651   5.455 -2.6802  0.6414  2.0437
 3500SOL     OW22132   3.411   4.579   6.047 -0.4565 -0.1284 -0.4052
 3500SOL    HW122133   3.341   4.596   5.984 -0.0071  0.4246 -0.7570
 3500SOL    HW222134   3.448   4.664   6.069  3.5155 -1.3501 -2.3481
 3501SOL     OW22135   2.128   1.410   6.657 -0.4218  0.0707 -0.1675
 3501SOL    HW122136   2.197   1.352   6.623  0.1146  1.2154 -1.0053
 3501SOL    HW222137   2.053   1.349   6.659 -1.5004  1.4020 -0.2894
 3502SOL     OW22138   4.685   0.010   8.093  0.4452  0.0183 -0.6529
 3502SOL    HW122139   4.675   0.053   8.009 -1.0743 -0.2294 -0.6011
 3502SOL    HW222140   4.727   0.084   8.137  3.2981 -1.3389 -1.1054
 3503SOL     OW22141   0.720   4.000   1.705 -0.0084  0.1787 -0.0467
 3503SOL    HW122142   0.663   3.937   1.750 -1.1196  0.0627 -1.6464
 3503SOL    HW222143   0.760   4.047   1.779 -1.8229  0.6583  0.6255
 3504SOL     OW22144   3.474   2.695   9.189  0.2745 -1.1069 -0.1851
 3504SOL    HW122145   3.414   2.627   9.221 -2.1622  0.2977 -1.7494
 3504SOL    HW222146   3.438   2.764   9.245  1.9095  0.9585 -1.6695
 3505SOL     OW22147   1.072   0.758   5.721  0.0286  0.7250  0.0228
 3505SOL    HW122148   1.008   0.815   5.679 -1.0793  0.3169  1.1467
 3505SOL    HW222149   1.034   0.752   5.809 -0.2949 -1.0445 -0.2440
 3506SOL     OW22150   2.791   3.429   3.003  0.0209  0.4256  0.0921
 3506SOL    HW122151   2.713   3.400   2.955 -0.2511 -0.3130  0.9785
 3506SOL    HW222152   2.746   3.427   3.088 -0.9210  1.3586 -0.3701
 3507SOL     OW22153   4.108   2.302   7.437  0.2267  0.2878 -0.3489
 3507SOL    HW122154   4.075   2.246   7.508 -1.4095  1.2807 -0.3228
 3507SOL    HW222155   4.066   2.276   7.356  2.3587 -1.9841 -0.7197
 3508SOL     OW22156   1.149   3.330  14.097 -0.6888 -0.6310  0.1435
 3508SOL    HW122157   1.193   3.405  14.136 -0.3422 -0.5443 -0.4265
 3508SOL    HW222158   1.079   3.371  14.046  2.4371  2.3019 -1.7339
 3509SOL     OW22159   1.323   0.579   1.393 -0.1015  0.1009 -0.1257
 3509SOL    HW122160   1.323   0.538   1.306 -3.8736  0.4583 -0.2891
 3509SOL    HW222161   1.290   0.507   1.446  2.7230 -0.7326  0.5104
 3510SOL     OW22162   3.939   1.660   4.982 -0.1269 -0.4747  0.1052
 3510SOL    HW122163   3.862   1.715   5.002 -0.7288 -0.0862 -3.3125
 3510SOL    HW222164   4.005   1.723   5.013 -2.9370  2.9014 -0.6817
 3511SOL     OW22165   4.669   3.419   8.001 -0.7620 -0.5829  0.5845
 3511SOL    HW122166   4.730   3.377   8.061 -2.9586 -2.3094  1.5517
 3511SOL    HW222167   4.596   3.357   8.003 -0.8526 -0.5163 -0.5145
 3512SOL     OW22168   3.542   4.537   7.577  0.6895  0.2150  0.0754
 3512SOL    HW122169   3.555   4.495   7.662 -0.9719 -0.5052 -0.0341
 3512SOL    HW222170   3.514   4.625   7.604  0.6434  0.5076 -0.9167
 3513SOL     OW22171   0.727   4.098   6.736  0.6246 -0.0201  0.4634
 3513SOL    HW122172   0.731   4.193   6.744 -0.6506  0.2917 -2.5124
 3513SOL    HW222173   0.663   4.066   6.800 -0.7870 -0.4302 -1.1589
 3514SOL     OW22174   1.373   4.188   1.568  0.4399 -0.5058  0.0050
 3514SOL    HW122175   1.334   4.201   1.654  1.3724 -2.7578  0.7632
 3514SOL    HW222176   1.394   4.096   1.581  1.9076 -0.3648 -1.3742
 3515SOL     OW22177   0.245   0.671  12.298 -0.1508 -1.1999  0.2226
 3515SOL    HW122178   0.183   0.714  12.357  0.5608 -0.9771  0.8036
 3515SOL    HW222179   0.195   0.679  12.216 -1.1215  2.0807  1.1334
 3516SOL     OW22180   0.855   1.886  13.684  0.0873 -0.0974  0.1683
 3516SOL    HW122181   0.803   1.954  13.727  1.2605  1.1906 -0.4675
 3516SOL    HW222182   0.927   1.869  13.745 -0.8378 -3.8498  0.2331
 3517SOL     OW22183   3.981   4.027   6.906 -0.2890  0.0295 -0.3449
 3517SOL    HW122184   3.951   4.114   6.931 -0.3997 -0.2062  0.3404
 3517SOL    HW222185   3.934   3.973   6.969  0.2837 -0.8136 -0.6429
 3518SOL     OW22186   1.951   2.015   9.471  0.0220 -0.2198 -0.1682
 3518SOL    HW122187   2.026   1.995   9.415 -0.2408 -1.7034 -0.0045
 3518SOL    HW222188   1.905   2.081   9.420 -0.8171  1.0530  2.2278
 3519SOL     OW22189   0.601   3.722   6.742  0.1359 -0.2447 -0.3042
 3519SOL    HW122190   0.507   3.704   6.751  0.1639 -0.8158 -1.1481
 3519SOL    HW222191   0.611   3.805   6.790 -1.9987 -0.3045  0.2787
 3520SOL     OW22192   4.125   0.663   2.862  0.3496  0.4167  0.0021
 3520SOL    HW122193   4.167   0.694   2.942  0.4965  0.8427 -0.2414
 3520SOL    HW222194   4.203   0.655   2.806 -0.6764 -1.0403 -1.2333
 3521SOL     OW22195   0.283   0.495   0.595 -0.7258 -0.0728 -0.1101
 3521SOL    HW122196   0.320   0.452   0.672  2.2457  0.9357 -0.9854
 3521SOL    HW222197   0.351   0.562   0.591 -0.6802 -0.2751 -2.5443
 3522SOL     OW22198   4.349   0.016   1.920 -0.2890 -0.1421 -0.6137
 3522SOL    HW122199   4.386   4.715   1.840 -2.7084  0.0172 -1.8104
 3522SOL    HW222200   4.324   0.103   1.890  0.5820 -0.1615 -1.4195
 3523SOL     OW22201   0.006   1.841   5.271  0.5535 -0.2293 -0.8411
 3523SOL    HW122202   4.715   1.764   5.221 -0.4922 -2.2105  2.7600
 3523SOL    HW222203   4.713   1.824   5.360  0.8474  0.2415 -0.6553
 3524SOL     OW22204   4.255   0.946   1.877 -0.2554  0.4426  0.5622
 3524SOL    HW122205   4.189   0.934   1.808  1.5560 -1.6876 -0.7783
 3524SOL    HW222206   4.333   0.982   1.836 -0.1205 -3.2075 -2.4483
 3525SOL     OW22207   0.193   4.691  10.171  0.4849 -0.1554  0.0573
 3525SOL    HW122208   0.260   4.732  10.227 -1.4707  3.4524 -0.2797
 3525SOL    HW222209   0.240   4.677  10.089  0.2012 -1.1467  0.0727
 3526SOL     OW22210   3.132   4.199   3.895 -0.1623 -0.0333 -0.4324
 3526SOL    HW122211   3.123   4.288   3.927 -1.0384  0.4967 -2.1854
 3526SOL    HW222212   3.039   4.175   3.897 -0.5083  1.4030  0.8249
 3527SOL     OW22213   2.688   3.641  15.237 -0.3225 -0.0329  0.3718
 3527SOL    HW122214   2.617   3.705  15.227 -0.2616  0.1161  0.8660
 3527SOL    HW222215   2.636   3.569  15.272  2.8838 -1.6455  1.7924
 3528SOL     OW22216   1.273   3.069  12.072  0.2134  0.0154  0.6869
 3528SOL    HW122217   1.237   3.023  12.148 -0.2675 -0.5189  0.1350
 3528SOL    HW222218   1.341   3.122  12.112 -0.7724  2.8514 -1.3847
 3529SOL     OW22219   3.311   2.015   9.422  0.4530 -0.1631 -0.1122
 3529SOL    HW122220   3.350   2.057   9.499 -0.9854 -0.4124  0.7542
 3529SOL    HW222221   3.233   2.070   9.412 -0.7128 -1.8381 -0.1595
 3530SOL     OW22222   2.798   4.071   8.596  0.1646  0.3636 -0.4879
 3530SOL    HW122223   2.722   4.075   8.537  0.8787 -0.6007 -1.4783
 3530SOL    HW222224   2.877   4.085   8.544 -0.9913  1.8623 -1.8526
 3531SOL     OW22225   2.910   0.029   4.647 -0.0681  0.1154  0.0435
 3531SOL    HW122226   2.962   4.685   4.653 -0.9863 -0.5627 -1.1328
 3531SOL    HW222227   2.862   0.029   4.565 -0.7648 -1.1787  0.4464
 3532SOL     OW22228   1.754   3.776   9.151 -0.0127  0.3721 -0.3266
 3532SOL    HW122229   1.699   3.769   9.073 -0.2644 -0.5091 -0.0677
 3532SOL    HW222230   1.773   3.869   9.164  1.1246  0.1971 -0.7187
 3533SOL     OW22231   1.467   0.986   5.096 -0.1106 -0.1666 -0.0121
 3533SOL    HW122232   1.528   0.918   5.123  2.2936  1.1072 -2.2335
 3533SOL    HW222233   1.507   1.029   5.020 -1.5436  0.3191 -0.4884
 3534SOL     OW22234   2.482   0.462   4.001 -0.4962  0.3834  0.0663
 3534SOL    HW122235   2.577   0.465   4.014 -0.3603  3.2144 -1.8045
 3534SOL    HW222236   2.475   0.463   3.906 -0.1566 -0.6157  0.0207
 3535SOL     OW22237   4.541   1.538   8.303 -0.4775  0.1488 -0.1611
 3535SOL    HW122238   4.576   1.559   8.216  0.8090 -0.3174  0.2461
 3535SOL    HW222239   4.598   1.466   8.329 -0.7278 -0.0183 -0.0780
 3536SOL     OW22240   1.151   3.418   6.089  0.2996  0.2830  0.1107
 3536SOL    HW122241   1.184   3.379   6.169 -0.0701 -0.5555 -0.1401
 3536SOL    HW222242   1.089   3.347   6.069  0.5028 -0.1989  1.2217
 3537SOL     OW22243   0.222   1.205   6.342 -0.0289  0.1514 -0.4653
 3537SOL    HW122244   0.132   1.186   6.317  0.6037 -0.1602 -2.5252
 3537SOL    HW222245   0.256   1.248   6.263 -0.3833  0.3713 -0.4961
 3538SOL     OW22246   3.750   0.402   9.351 -0.2854 -0.4145 -0.2221
 3538SOL    HW122247   3.839   0.376   9.375  0.4324  1.0383 -1.2957
 3538SOL    HW222248   3.704   0.321   9.372 -2.3854  1.0794  0.9317
 3539SOL     OW22249   4.144   1.177   8.531  0.0465 -0.2847 -0.3160
 3539SOL    HW122250   4.139   1.099   8.477 -2.2156 -0.2270 -0.1785
 3539SOL    HW222251   4.229   1.209   8.500 -0.8622  1.3689 -1.1137
 3540SOL     OW22252   2.342   4.407   5.823  0.2750  0.0429 -0.0119
 3540SOL    HW122253   2.249   4.411   5.799  0.2686  2.2342  0.4330
 3540SOL    HW222254   2.363   4.500   5.820 -0.1723  0.1325 -0.2841
 3541SOL     OW22255   2.803   4.105   6.760 -0.0987  0.2589 -0.0843
 3541SOL    HW122256   2.837   4.075   6.675 -0.6349  2.8297 -1.2217
 3541SOL    HW222257   2.709   4.094   6.746 -0.0252 -1.0282  0.4378
 3542SOL     OW22258   1.484   1.992   9.598  0.5170 -0.1801 -0.6553
 3542SOL    HW122259   1.473   1.939   9.519  0.8121 -1.1655 -0.0252
 3542SOL    HW222260   1.579   1.990   9.606  0.7205 -0.6649 -3.1383
 3543SOL     OW22261   1.490   4.625   1.441  0.2217 -0.4332  0.5085
 3543SOL    HW122262   1.523   4.601   1.355  1.1131  2.2216  0.1016
 3543SOL    HW222263   1.527   4.551   1.488 -0.3726 -0.0584  1.5599
 3544SOL     OW22264   3.247   1.584   7.366 -0.1803  0.4936 -0.0132
 3544SOL    HW122265   3.152   1.594   7.371 -0.3356  0.1090 -2.2368
 3544SOL    HW222266   3.252   1.489   7.360 -1.3783  0.4085  0.4058
 3545SOL     OW22267   2.979   4.720  14.708 -0.1748  0.1785  0.3321
 3545SOL    HW122268   2.936   0.068  14.715 -0.5401 -0.0265  0.6079
 3545SOL    HW222269   2.909   4.655  14.713  0.7327 -0.8635 -0.3139
 3546SOL     OW22270   1.297   4.132   8.938  0.2004 -0.3780  0.3189
 3546SOL    HW122271   1.241   4.200   8.975 -1.6789 -2.3673  1.0797
 3546SOL    HW222272   1.259   4.120   8.851 -0.0870  0.2737  0.3496
 3547SOL     OW22273   2.367   1.025   2.700 -0.4464 -0.2754 -0.1066
 3547SOL    HW122274   2.460   1.045   2.700 -0.8197  1.4993 -0.8498
 3547SOL    HW222275   2.366   0.962   2.628  2.3315 -0.5607  0.1439
 3548SOL     OW22276   1.093   2.257   4.488 -0.2958 -0.0314 -0.2827
 3548SOL    HW122277   1.005   2.290   4.507  0.1435  0.1001  1.5960
 3548SOL    HW222278   1.108   2.308   4.409  1.4363  0.5585  0.4297
 3549SOL     OW22279   3.583   0.823   9.350 -0.1964  0.4926  0.3276
 3549SOL    HW122280   3.589   0.786   9.261  0.5389  0.2414  0.4796
 3549SOL    HW222281   3.490   0.847   9.356 -0.8935 -1.7388 -1.2998
 3550SOL     OW22282   0.508   4.237  12.152 -0.2319  0.0158 -0.2502
 3550SOL    HW122283   0.514   4.324  12.190 -0.9205 -0.1952  0.3429
 3550SOL    HW222284   0.434   4.245  12.093 -0.2200  0.6291 -0.1781
 3551SOL     OW22285   0.450   3.969   2.148  0.0851  0.4865  0.2051
 3551SOL    HW122286   0.434   3.894   2.091 -0.4776  1.1924 -0.5800
 3551SOL    HW222287   0.517   4.019   2.101  0.4611  0.3933  0.6510
 3552SOL     OW22288   2.078   1.278   3.235  0.3895  0.3105  0.5670
 3552SOL    HW122289   2.070   1.186   3.212 -1.0307  0.5513  0.0732
 3552SOL    HW222290   2.162   1.303   3.196  1.4503 -0.5958  2.2532
 3553SOL     OW22291   3.945   4.397   7.881 -0.2370 -0.3029  0.0899
 3553SOL    HW122292   3.912   4.418   7.968  2.6725 -1.0725  1.3549
 3553SOL    HW222293   3.969   4.306   7.895 -0.0148 -0.2472  0.0578
 3554SOL     OW22294   1.976   0.772   8.543 -0.0896  0.0300  0.3339
 3554SOL    HW122295   1.908   0.705   8.536 -1.1508  0.9706  1.7272
 3554SOL    HW222296   1.945   0.841   8.486 -1.7653 -1.1926 -0.2234
 3555SOL     OW22297   3.703   3.795   1.252  0.5962 -0.9830  0.2791
 3555SOL    HW122298   3.741   3.765   1.170 -1.8909  0.7474 -1.5083
 3555SOL    HW222299   3.615   3.759   1.250 -0.4828  1.6570  0.4341
 3556SOL     OW22300   2.072   0.160   2.284 -0.0313  0.1068  0.0385
 3556SOL    HW122301   2.006   0.111   2.332  1.3417 -1.9734 -0.1946
 3556SOL    HW222302   2.138   0.167   2.353  0.1032 -2.5369  0.1625
 3557SOL     OW22303   3.880   1.832   3.678 -0.4919  0.1646  0.1101
 3557SOL    HW122304   3.867   1.891   3.604  1.0007 -1.2360 -1.2537
 3557SOL    HW222305   3.821   1.865   3.747 -0.3911 -1.7351  1.1171
 3558SOL     OW22306   1.342   1.900  11.465  0.2073  0.6184 -0.0120
 3558SOL    HW122307   1.274   1.928  11.527 -0.7675 -2.4011  0.2864
 3558SOL    HW222308   1.342   1.805  11.472  0.1265  0.5139 -1.3975
 3559SOL     OW22309   3.345   1.671   2.316  0.0329  0.1725  0.4993
 3559SOL    HW122310   3.372   1.760   2.340 -1.4342  0.5584  0.7317
 3559SOL    HW222311   3.339   1.667   2.221 -1.5459  0.2131  0.6067
 3560SOL     OW22312   3.188   3.862   8.967  0.1116 -0.6206 -0.1563
 3560SOL    HW122313   3.194   3.887   8.875  0.5157  0.2646  0.1036
 3560SOL    HW222314   3.224   3.776   8.985 -0.9541 -0.7398  1.3832
 3561SOL     OW22315   0.099   2.812   3.804  0.0853  0.2848 -0.5818
 3561SOL    HW122316   0.024   2.765   3.765 -1.2306  1.8872  0.0471
 3561SOL    HW222317   0.112   2.871   3.730 -1.2376  0.3671 -0.7585
 3562SOL     OW22318   4.588   1.869  14.720  0.2054 -0.0002 -0.5163
 3562SOL    HW122319   4.542   1.826  14.791 -0.6330  0.6354 -0.6775
 3562SOL    HW222320   4.556   1.817  14.646  0.9638 -1.9863  0.5713
 3563SOL     OW22321   3.683   0.223  16.710 -0.0284 -0.4833 -0.4053
 3563SOL    HW122322   3.654   0.313  16.701  0.5290 -0.0454  2.1592
 3563SOL    HW222323   3.651   0.197  16.797  0.5197  0.8892  0.2091
 3564SOL     OW22324   3.030   4.398   5.435 -0.6202 -0.2200  0.2207
 3564SOL    HW122325   3.019   4.443   5.519  0.4821 -2.4896  1.6041
 3564SOL    HW222326   3.125   4.388   5.426 -0.5738  1.2784 -0.8083
 3565SOL     OW22327   2.529   3.862  10.628 -0.6155  0.1568 -0.5464
 3565SOL    HW122328   2.483   3.938  10.663  0.5391  1.9942 -3.0541
 3565SOL    HW222329   2.454   3.802  10.625 -0.4819 -0.1690  2.7678
 3566SOL     OW22330   0.687   1.167   2.884 -0.1911  0.1393  0.1774
 3566SOL    HW122331   0.714   1.165   2.792 -1.6486 -0.6710 -0.2196
 3566SOL    HW222332   0.656   1.257   2.892  3.1154  1.2722  0.4654
 3567SOL     OW22333   2.290   2.398   4.338  0.2438 -0.6099 -0.5694
 3567SOL    HW122334   2.207   2.390   4.290  0.5620 -0.1738 -1.1922
 3567SOL    HW222335   2.285   2.484   4.377  1.9706 -1.1411  0.8260
 3568SOL     OW22336   3.975   2.551   7.801 -0.1350  0.2676  0.7684
 3568SOL    HW122337   4.038   2.574   7.869 -2.2412  1.4035  2.3171
 3568SOL    HW222338   3.892   2.534   7.846 -1.4206 -0.4973 -1.8995
 3569SOL     OW22339   2.867   4.248   2.209 -0.0411  0.4857 -0.0543
 3569SOL    HW122340   2.782   4.290   2.223  1.6722  4.0876 -0.4483
 3569SOL    HW222341   2.878   4.242   2.114 -0.2016 -1.2584  0.0456
 3570SOL     OW22342   3.638   0.888   1.510  0.0658 -0.6309 -0.0131
 3570SOL    HW122343   3.592   0.915   1.430 -0.2924  3.2077  1.4950
 3570SOL    HW222344   3.561   0.874   1.565  1.1434  1.2681  1.9747
 3571SOL     OW22345   0.200   2.031   7.250  0.2507  0.3113 -0.3045
 3571SOL    HW122346   0.207   2.041   7.345  2.2950 -0.3491 -0.4011
 3571SOL    HW222347   0.158   1.946   7.234 -1.9010  1.0553  1.2633
 3572SOL     OW22348   2.342   0.244  11.941 -0.0632 -0.5409  0.2775
 3572SOL    HW122349   2.401   0.169  11.935 -0.5146 -0.7343 -1.9874
 3572SOL    HW222350   2.257   0.201  11.939 -0.3978  0.0814  1.0388
 3573SOL     OW22351   3.832   4.209   2.398 -0.1478 -0.1585  0.1110
 3573SOL    HW122352   3.915   4.252   2.380  0.5312 -0.7634  1.7719
 3573SOL    HW222353   3.772   4.258   2.343 -0.5602  0.4425  1.1007
 3574SOL     OW22354   2.122   0.355   1.326 -0.5913 -0.1003  0.2718
 3574SOL    HW122355   2.191   0.406   1.284 -0.0860 -0.0649  1.1250
 3574SOL    HW222356   2.169   0.271   1.326 -2.5065 -1.1600  0.6987
 3575SOL     OW22357   4.249   4.505   3.744  0.1560 -0.1704  0.0453
 3575SOL    HW122358   4.266   4.475   3.655  0.3197 -2.2950  0.7697
 3575SOL    HW222359   4.237   4.417   3.780  1.5903 -0.1983  0.4444
 3576SOL     OW22360   0.163   0.411   9.051 -0.1565 -0.1900 -0.0368
 3576SOL    HW122361   0.149   0.476   8.982 -1.1488 -1.3837 -0.9653
 3576SOL    HW222362   0.252   0.439   9.073 -1.1118  1.1195  2.2280
 3577SOL     OW22363   0.738   1.476   6.013 -0.6184  0.3717 -0.0062
 3577SOL    HW122364   0.727   1.467   6.107  1.2407  0.3013  0.1854
 3577SOL    HW222365   0.655   1.440   5.981  0.1547 -1.9675  0.6367
 3578SOL     OW22366   1.678   2.677   9.319 -0.0465  0.1158 -0.5170
 3578SOL    HW122367   1.741   2.607   9.332 -0.0700 -0.4054 -3.1255
 3578SOL    HW222368   1.678   2.690   9.224  3.5147 -2.2508 -0.8395
 3579SOL     OW22369   2.131   4.083   9.226 -0.5618  0.7442 -0.2602
 3579SOL    HW122370   2.220   4.055   9.203  0.6005  3.6560  0.7272
 3579SOL    HW222371   2.136   4.176   9.204  0.8495  0.4387 -1.2286
 3580SOL     OW22372   4.097   4.641   1.118  0.8228  0.0966  0.4953
 3580SOL    HW122373   4.051   4.583   1.058 -2.0930  1.7296  1.1351
 3580SOL    HW222374   4.111   4.585   1.195 -0.9380  0.8245  1.3455
 3581SOL     OW22375   0.631   1.036   4.613  0.0741 -0.1558 -0.3799
 3581SOL    HW122376   0.594   1.052   4.700 -0.0166 -0.0298 -0.4415
 3581SOL    HW222377   0.716   0.994   4.626  0.3078  0.9788  1.7765
 3582SOL     OW22378   2.973   1.557   7.877 -0.2499  0.0823  0.4161
 3582SOL    HW122379   2.958   1.464   7.859 -1.7319  0.0515  1.8107
 3582SOL    HW222380   2.910   1.609   7.829  0.4989  0.2028 -0.4387
 3583SOL     OW22381   2.515   4.268   7.315 -0.2570  0.3615  0.1839
 3583SOL    HW122382   2.459   4.344   7.331  0.2094  0.7840 -0.2076
 3583SOL    HW222383   2.603   4.304   7.328 -0.1044 -0.2247  0.7648
 3584SOL     OW22384   1.117   0.658   7.900 -0.2250  0.1091 -0.2411
 3584SOL    HW122385   1.181   0.615   7.843 -0.6535 -0.1810 -0.5109
 3584SOL    HW222386   1.155   0.745   7.911  0.2663 -0.2188  0.6420
 3585SOL     OW22387   2.688   1.527   1.443 -0.4232  0.4927  0.0258
 3585SOL    HW122388   2.710   1.572   1.524  1.4882  0.1202 -0.2969
 3585SOL    HW222389   2.632   1.453   1.469  1.1576 -0.4320  0.7789
 3586SOL     OW22390   0.774   4.191  11.305 -0.1489 -0.0645 -0.0877
 3586SOL    HW122391   0.767   4.257  11.374  2.7540 -1.1818  1.2295
 3586SOL    HW222392   0.683   4.168  11.286 -0.5849  2.7382 -1.4821
 3587SOL     OW22393   3.689   0.996   0.596  0.0468 -0.7018 -0.3729
 3587SOL    HW122394   3.665   1.020   0.685 -0.7910 -0.4235 -0.6696
 3587SOL    HW222395   3.757   1.058   0.571  0.6454 -0.0639  2.9149
 3588SOL     OW22396   3.552   2.649   1.936 -0.2657 -0.1799  0.2350
 3588SOL    HW122397   3.634   2.649   1.986  0.7492 -0.3766 -1.4570
 3588SOL    HW222398   3.511   2.731   1.962 -1.3140 -0.2503 -1.2655
 3589SOL     OW22399   2.451   2.765   7.890  0.0396 -0.6518  0.3188
 3589SOL    HW122400   2.414   2.852   7.905  2.6951  0.2149  1.7522
 3589SOL    HW222401   2.531   2.783   7.940  0.0048  1.9410 -0.5316
 3590SOL     OW22402   3.469   0.045   9.146 -0.1100  0.0784 -0.9726
 3590SOL    HW122403   3.455   0.131   9.187 -0.2047 -1.1709  1.5694
 3590SOL    HW222404   3.481   0.065   9.053  1.2229  0.4428 -0.7237
 3591SOL     OW22405   3.230   0.878   7.767 -0.2784  0.9675  0.0710
 3591SOL    HW122406   3.245   0.827   7.688  0.8876 -1.5091  1.8975
 3591SOL    HW222407   3.316   0.919   7.783  1.6559 -2.9834 -0.1521
 3592SOL     OW22408   1.366   0.837  16.883 -0.0008  0.1804  0.2614
 3592SOL    HW122409   1.374   0.746  16.911  1.1743  0.2258  0.0535
 3592SOL    HW222410   1.321   0.877  16.958 -0.3419 -1.2946  0.8288
 3593SOL     OW22411   1.684   3.705   1.072 -0.3253 -0.2809  0.1390
 3593SOL    HW122412   1.628   3.691   0.996 -1.3502 -0.7324  0.9811
 3593SOL    HW222413   1.668   3.797   1.090 -0.2021 -0.9072  3.4546
 3594SOL     OW22414   4.263   1.354  15.751 -0.4626  0.0802 -0.0676
 3594SOL    HW122415   4.187   1.385  15.702 -0.3829  1.4413  0.6778
 3594SOL    HW222416   4.327   1.353  15.680 -1.8576  0.2317 -1.3282
 3595SOL     OW22417   2.376   0.983   4.041  0.2018 -0.0862 -0.2382
 3595SOL    HW122418   2.439   0.932   3.990 -0.4958 -0.1437 -1.0461
 3595SOL    HW222419   2.303   0.920   4.039  1.4886 -1.6170  1.2595
 3596SOL     OW22420   1.507   0.452   9.212  0.2372 -0.2183 -0.8618
 3596SOL    HW122421   1.492   0.512   9.138 -1.9743  0.1188 -0.1398
 3596SOL    HW222422   1.490   0.369   9.167  0.2373 -0.9940  0.5786
 3597SOL     OW22423   1.751   2.604   8.551 -0.5814  0.2714  0.1513
 3597SOL    HW122424   1.734   2.690   8.513  0.4413  0.9075  1.1441
 3597SOL    HW222425   1.680   2.605   8.615  1.0079 -3.9743  1.9910
 3598SOL     OW22426   1.247   0.250   5.593 -0.2766  0.2267  0.4987
 3598SOL    HW122427   1.299   0.313   5.543 -1.3604  0.7516  0.0429
 3598SOL    HW222428   1.167   0.300   5.602 -0.2639  0.1244  1.2070
 3599SOL     OW22429   1.183   3.363   5.560  0.0040  0.2795  0.0431
 3599SOL    HW122430   1.237   3.398   5.631  0.5145 -1.5132  0.5228
 3599SOL    HW222431   1.182   3.450   5.520  0.6670 -0.8046 -2.3130
 3600SOL     OW22432   2.762   4.444   7.824 -0.1590 -0.0845  0.2359
 3600SOL    HW122433   2.739   4.351   7.823 -1.3582  0.2400 -1.4801
 3600SOL    HW222434   2.676   4.486   7.818  0.5595  1.4457  0.4897
 3601SOL     OW22435   3.814   1.699  14.090  0.1320 -0.0688  0.0463
 3601SOL    HW122436   3.846   1.746  14.013  2.7290  0.2293  1.3125
 3601SOL    HW222437   3.897   1.693  14.138 -0.6977 -0.6930  1.3933
 3602SOL     OW22438   3.310   1.798   3.331  0.3108  0.0310  0.1454
 3602SOL    HW122439   3.283   1.826   3.419  0.5864  1.6089 -0.2666
 3602SOL    HW222440   3.226   1.789   3.287 -0.0745 -0.9549  1.0837
 3603SOL     OW22441   2.161   1.791   6.170 -0.0910 -0.1706  0.7533
 3603SOL    HW122442   2.190   1.718   6.225  3.7755  0.3527 -0.5465
 3603SOL    HW222443   2.067   1.772   6.176 -0.4741  2.1410  1.7671
 3604SOL     OW22444   0.389   1.422   5.862  0.1971 -0.0383  0.5885
 3604SOL    HW122445   0.393   1.373   5.780 -3.4475  0.3716  0.1744
 3604SOL    HW222446   0.305   1.467   5.856 -0.8489 -1.9604  1.0454
 3605SOL     OW22447   2.983   2.170   1.997 -0.3202 -0.4205 -0.0628
 3605SOL    HW122448   3.029   2.252   1.979  1.4516 -0.6492  3.3853
 3605SOL    HW222449   3.063   2.117   1.992 -0.3070 -0.5869  1.7154
 3606SOL     OW22450   0.580   0.855   8.897  0.2890 -1.3315  0.4134
 3606SOL    HW122451   0.593   0.918   8.968 -1.6705 -2.6130  1.9278
 3606SOL    HW222452   0.664   0.809   8.904  1.0492 -0.1854 -1.3668
 3607SOL     OW22453   3.676   2.550   5.762 -0.0241  0.0672  0.0709
 3607SOL    HW122454   3.634   2.486   5.704 -0.1436  1.8979 -1.8399
 3607SOL    HW222455   3.648   2.509   5.844  0.8107  1.4286  1.0359
 3608SOL     OW22456   1.167   3.086   9.032 -0.0121  0.1570  0.1986
 3608SOL    HW122457   1.178   3.059   9.124  0.9625 -0.1420 -0.0062
 3608SOL    HW222458   1.086   3.136   9.041 -1.6972 -1.8432 -4.1839
 3609SOL     OW22459   3.992   3.093   4.003  0.0784 -0.0296  0.5462
 3609SOL    HW122460   3.925   3.115   4.068  2.9477  0.6353  3.2402
 3609SOL    HW222461   3.981   2.998   4.000 -1.9887  0.1574  1.6525
 3610SOL     OW22462   2.775   2.913   4.752 -0.1762  0.2835  0.5002
 3610SOL    HW122463   2.794   2.946   4.664 -0.9945 -1.1214 -0.1995
 3610SOL    HW222464   2.788   2.995   4.800  2.5381 -0.0029  0.2416
 3611SOL     OW22465   4.444   3.304   2.859  0.0409 -0.0915  0.4932
 3611SOL    HW122466   4.514   3.265   2.805  0.6520 -1.4843  2.3025
 3611SOL    HW222467   4.465   3.263   2.943  0.3977 -0.7877  0.0729
 3612SOL     OW22468   1.417   0.256   2.918 -0.3183  0.5343  0.0035
 3612SOL    HW122469   1.491   0.312   2.941  0.5228 -0.7343  0.3958
 3612SOL    HW222470   1.460   0.198   2.856 -0.2539 -0.0919  0.6257
 3613SOL     OW22471   3.677   2.938  13.569 -0.3099 -0.0440 -0.2595
 3613SOL    HW122472   3.706   3.008  13.628  1.3547 -2.1380  1.3671
 3613SOL    HW222473   3.739   2.867  13.582  1.3140  1.0464 -2.0849
 3614SOL     OW22474   0.639   1.129   1.939 -0.6892  0.1031  0.1753
 3614SOL    HW122475   0.641   1.219   1.973  0.4820  0.3374 -0.5432
 3614SOL    HW222476   0.707   1.136   1.872  0.1012 -0.6297  0.9063
 3615SOL     OW22477   1.311   3.074   8.428  0.0583 -0.1956  0.0919
 3615SOL    HW122478   1.347   3.160   8.446 -3.7459  1.1085  1.5872
 3615SOL    HW222479   1.280   3.090   8.338 -0.6433 -3.1223 -0.1934
 3616SOL     OW22480   2.514   2.023   3.296  0.3470  0.5114 -0.3225
 3616SOL    HW122481   2.608   2.007   3.295 -0.4969 -4.3756 -1.1144
 3616SOL    HW222482   2.505   2.099   3.239 -0.5362  0.8155  0.2279
 3617SOL     OW22483   1.462   1.984  10.099  0.2549  0.1411  0.3938
 3617SOL    HW122484   1.533   1.920  10.105 -0.2446 -0.4993 -0.5213
 3617SOL    HW222485   1.506   2.048  10.042 -2.9452  2.0497  0.0648
 3618SOL     OW22486   1.867   3.195   6.569 -0.1001  0.2454 -0.3316
 3618SOL    HW122487   1.947   3.179   6.619 -0.7120  0.0731  0.5940
 3618SOL    HW222488   1.880   3.148   6.486 -0.0840  0.0113 -0.1984
 3619SOL     OW22489   3.500   3.431   8.954 -0.4030  0.0719  0.3521
 3619SOL    HW122490   3.506   3.526   8.945  0.3699 -0.2349 -2.4047
 3619SOL    HW222491   3.592   3.414   8.975 -0.0844  2.1020  0.5864
 3620SOL     OW22492   1.428   1.825   6.390  0.0327 -0.2387 -0.3141
 3620SOL    HW122493   1.445   1.918   6.376 -2.4455  0.3463  0.5687
 3620SOL    HW222494   1.375   1.836   6.469 -1.3341  0.3053 -1.3210
 3621SOL     OW22495   2.828   0.306   9.805 -0.2757  0.0359 -0.2411
 3621SOL    HW122496   2.893   0.319   9.736 -0.6937  1.9975 -0.2577
 3621SOL    HW222497   2.875   0.350   9.875 -0.0527  0.5446 -0.7116
 3622SOL     OW22498   2.477   3.290  17.300  0.1928 -0.0277 -0.7462
 3622SOL    HW122499   2.425   3.210  17.309  0.8531 -0.3415  0.3875
 3622SOL    HW222500   2.504   3.296  17.392  2.0618 -0.9732 -1.2292
 3623SOL     OW22501   1.036   3.345   2.826 -0.0767 -0.2663  0.1644
 3623SOL    HW122502   1.016   3.408   2.756 -1.3052  0.6678  1.3599
 3623SOL    HW222503   1.120   3.376   2.859 -0.8743  0.4088  1.5402
 3624SOL     OW22504   2.650   2.313   1.733 -0.2596  0.0026 -0.2199
 3624SOL    HW122505   2.740   2.320   1.700 -1.4015 -0.6272 -3.3877
 3624SOL    HW222506   2.599   2.348   1.661  0.6883 -1.5665 -1.6457
 3625SOL     OW22507   0.278   1.155   5.405 -0.5290  0.2065 -0.5293
 3625SOL    HW122508   0.360   1.141   5.359  0.0779  2.7519 -0.2067
 3625SOL    HW222509   0.316   1.146   5.493  2.4470  1.5126 -1.7234
 3626SOL     OW22510   2.802   3.991   5.211 -0.9326  0.5069  0.2788
 3626SOL    HW122511   2.858   4.066   5.230 -0.7135  0.2225  0.7374
 3626SOL    HW222512   2.721   4.002   5.261 -1.9023 -4.2276 -0.1818
 3627SOL     OW22513   3.855   4.483   3.585 -0.1169  0.4380 -0.1860
 3627SOL    HW122514   3.791   4.552   3.566  0.0219  0.4882 -0.4787
 3627SOL    HW222515   3.798   4.414   3.616 -0.6091  1.2139  0.6282
 3628SOL     OW22516   3.879   2.039   6.647 -0.0376 -0.4724 -0.0102
 3628SOL    HW122517   3.857   2.038   6.740 -0.7955 -0.4542 -0.1927
 3628SOL    HW222518   3.963   1.994   6.638 -0.3032 -1.0781  0.4757
 3629SOL     OW22519   2.591   1.511  12.557  0.3720  0.5493 -0.1390
 3629SOL    HW122520   2.672   1.488  12.510  0.8764  1.7979  0.1101
 3629SOL    HW222521   2.524   1.450  12.528 -0.1320  0.5084  1.1276
 3630SOL     OW22522   0.406   2.989  13.355 -0.2903  0.2299  0.2743
 3630SOL    HW122523   0.465   2.941  13.297  0.8919  0.7415  1.0698
 3630SOL    HW222524   0.447   2.979  13.441 -0.1019 -1.8927 -0.0560
 3631SOL     OW22525   1.552   2.385   2.746  0.2110  0.1271 -0.1601
 3631SOL    HW122526   1.586   2.327   2.678 -1.9104  1.7734 -2.6368
 3631SOL    HW222527   1.472   2.339   2.775  0.1562 -0.5369 -1.3641
 3632SOL     OW22528   1.529   4.433   3.846  0.0182 -0.3167  0.1788
 3632SOL    HW122529   1.451   4.422   3.901  0.0502 -0.3231  0.2221
 3632SOL    HW222530   1.507   4.522   3.817  1.8524  0.1264  0.2057
 3633SOL     OW22531   4.051   0.324  17.308  0.4404  0.3077 -0.2276
 3633SOL    HW122532   4.049   0.325  17.404 -1.2865  2.0317 -0.2746
 3633SOL    HW222533   3.956   0.310  17.299  0.2881  1.2557 -0.0767
 3634SOL     OW22534   3.866   1.176   4.740  0.3504 -0.4349  0.0415
 3634SOL    HW122535   3.864   1.147   4.831  0.2433 -0.7457 -0.0601
 3634SOL    HW222536   3.772   1.190   4.739  0.0777 -2.1733  1.4946
 3635SOL     OW22537   0.080   0.507   4.483  0.1958 -0.2747  0.5176
 3635SOL    HW122538   0.025   0.531   4.558 -1.0722 -0.2483 -0.4302
 3635SOL    HW222539   0.097   0.416   4.508  0.7358  0.0808  1.4654
 3636SOL     OW22540   3.730   3.724   3.851 -0.4171 -0.6686 -0.1715
 3636SOL    HW122541   3.744   3.735   3.945  0.8329 -1.1087 -0.3047
 3636SOL    HW222542   3.690   3.637   3.845  0.9724 -1.3562  0.3840
 3637SOL     OW22543   1.434   4.002   4.063 -0.6825  0.3805  0.0898
 3637SOL    HW122544   1.410   4.053   3.986 -0.5181  0.6169  0.1984
 3637SOL    HW222545   1.451   3.913   4.030  1.2692  1.0927 -0.8182
 3638SOL     OW22546   2.913   4.368   8.479  0.2170 -0.4746  0.5085
 3638SOL    HW122547   2.823   4.391   8.499  0.7770  1.5643  0.6977
 3638SOL    HW222548   2.889   4.303   8.414 -2.4955  1.0112  0.0241
 3639SOL     OW22549   0.067   0.391   3.243  0.4336  0.1939 -0.2359
 3639SOL    HW122550   0.018   0.315   3.276  0.2278  0.1415 -0.6655
 3639SOL    HW222551   0.138   0.381   3.306 -0.0875 -0.9555  0.1669
 3640SOL     OW22552   2.204   4.519   6.859  0.5865 -0.7490  0.2630
 3640SOL    HW122553   2.206   4.424   6.867 -2.6599 -0.9053 -0.7685
 3640SOL    HW222554   2.144   4.544   6.930  0.1898 -0.6288 -0.1151
 3641SOL     OW22555   0.477   2.834   4.308 -0.1576 -0.0274 -0.0305
 3641SOL    HW122556   0.524   2.796   4.234  1.1082  1.4129  0.0499
 3641SOL    HW222557   0.532   2.913   4.312 -1.8329  1.0469  1.8151
 3642SOL     OW22558   4.541   0.893   1.317 -0.0982  0.8765 -0.4367
 3642SOL    HW122559   4.627   0.935   1.315 -0.3472  1.3866 -0.4078
 3642SOL    HW222560   4.490   0.964   1.354  1.0093  0.2786  2.2069
 3643SOL     OW22561   1.807   2.327   7.650 -0.5858  0.5864  0.1360
 3643SOL    HW122562   1.846   2.243   7.625  1.8944  1.4969  1.0314
 3643SOL    HW222563   1.725   2.300   7.693 -0.4335 -0.7839 -0.4149
 3644SOL     OW22564   2.794   0.554   9.265  0.1068 -0.2016 -0.5588
 3644SOL    HW122565   2.829   0.499   9.195 -0.3311 -0.0577 -0.8922
 3644SOL    HW222566   2.859   0.548   9.335 -0.0836 -1.2715 -0.4750
 3645SOL     OW22567   2.699   0.861   3.686  0.5048  0.5596  0.1382
 3645SOL    HW122568   2.616   0.907   3.681  1.1065  1.4745 -1.4033
 3645SOL    HW222569   2.688   0.816   3.770 -0.9794  0.0958 -0.3081
 3646SOL     OW22570   1.967   3.052   9.827  0.4220 -0.3174 -0.4289
 3646SOL    HW122571   1.974   3.136   9.873 -0.2586 -0.5760  0.1583
 3646SOL    HW222572   2.060   3.036   9.812  0.1609 -1.2743 -1.0295
 3647SOL     OW22573   1.835   0.960   1.886  0.3773 -0.3830 -0.1792
 3647SOL    HW122574   1.885   0.964   1.804 -0.0781 -0.8486 -0.4827
 3647SOL    HW222575   1.795   0.874   1.874  1.0525 -0.4072 -2.2626
 3648SOL     OW22576   2.579   3.570   4.492  0.1677 -0.0860  0.0770
 3648SOL    HW122577   2.669   3.538   4.492 -0.3363 -1.5207 -0.2231
 3648SOL    HW222578   2.573   3.629   4.567 -1.4558 -0.1275 -0.0126
 3649SOL     OW22579   2.033   4.623   1.180 -0.2347  0.1415 -0.6644
 3649SOL    HW122580   2.126   4.617   1.203 -0.1378 -0.3328 -1.1792
 3649SOL    HW222581   1.995   4.671   1.253  0.4280 -0.0622 -0.1823
 3650SOL     OW22582   2.212   4.122   8.822  0.3241  0.1773 -0.4198
 3650SOL    HW122583   2.289   4.179   8.824  0.5843 -0.1286 -1.8961
 3650SOL    HW222584   2.239   4.056   8.759  2.4564  2.3846 -1.8569
 3651SOL     OW22585   4.604   1.804   5.532  0.5618 -0.0789 -0.4713
 3651SOL    HW122586   4.660   1.790   5.608  0.3871  3.1941  0.2494
 3651SOL    HW222587   4.553   1.878   5.564  0.4663  0.2633 -1.4226
 3652SOL     OW22588   2.667   0.388   1.971 -0.1891 -0.1019  0.2543
 3652SOL    HW122589   2.719   0.466   1.988 -0.4304 -0.1353  1.1233
 3652SOL    HW222590   2.584   0.434   1.985 -1.2834 -1.8953 -0.3452
 3653SOL     OW22591   4.107   3.162   7.274 -0.1744 -0.0941  0.5301
 3653SOL    HW122592   4.191   3.207   7.260 -0.1589 -1.4942 -3.7891
 3653SOL    HW222593   4.112   3.090   7.212  0.2093  0.0885  0.3479
 3654SOL     OW22594   3.875   4.548   5.885  0.0352 -0.1507  0.1227
 3654SOL    HW122595   3.967   4.559   5.910  0.0160  0.7251 -0.1616
 3654SOL    HW222596   3.832   4.503   5.957  0.3404  2.1520  1.7364
 3655SOL     OW22597   3.449   1.715   1.668 -0.1857  0.0724  0.5742
 3655SOL    HW122598   3.514   1.785   1.679 -0.6990  0.8522 -1.4734
 3655SOL    HW222599   3.481   1.679   1.586  0.6849  1.2940  0.3650
 3656SOL     OW22600   2.164   3.865   2.486 -0.4341  0.5730 -0.3628
 3656SOL    HW122601   2.095   3.800   2.475 -1.0819  0.5633  3.6886
 3656SOL    HW222602   2.174   3.862   2.581 -2.2142 -4.3488 -0.3238
 3657SOL     OW22603   1.810   3.552   5.314  0.4330  0.5207  0.1631
 3657SOL    HW122604   1.879   3.509   5.365  0.8029  1.0657  0.1196
 3657SOL    HW222605   1.853   3.606   5.248  0.8295 -1.1187 -0.9132
 3658SOL     OW22606   1.569   3.587   4.811 -0.2036  0.1031 -0.0915
 3658SOL    HW122607   1.579   3.577   4.905  1.2973 -0.0290 -0.2688
 3658SOL    HW222608   1.655   3.566   4.775  0.2226 -0.9557  1.5694
 3659SOL     OW22609   2.607   4.209   3.512 -0.4779 -0.0289 -0.2160
 3659SOL    HW122610   2.637   4.300   3.511 -0.0498 -0.1746 -0.5340
 3659SOL    HW222611   2.638   4.180   3.598  2.3659  0.1335 -1.1807
 3660SOL     OW22612   2.540   2.689   0.924 -0.3825  0.5558 -0.1204
 3660SOL    HW122613   2.459   2.652   0.959  0.3983  0.2940  1.3924
 3660SOL    HW222614   2.507   2.726   0.842 -0.1931  1.0181  0.0099
 3661SOL     OW22615   4.194   1.588   1.209 -0.1904  0.5547 -0.0804
 3661SOL    HW122616   4.194   1.609   1.115 -0.1125 -1.1353 -0.4580
 3661SOL    HW222617   4.108   1.546   1.214  0.8748 -1.9705 -2.5053
 3662SOL     OW22618   2.832   3.032   4.523  0.4242  0.3182  0.4215
 3662SOL    HW122619   2.764   3.076   4.472  1.4723  0.7771 -0.5933
 3662SOL    HW222620   2.846   2.958   4.464  1.2364  0.8363 -0.0387
 3663SOL     OW22621   1.601   4.694   4.308  0.8264 -0.2790 -0.7262
 3663SOL    HW122622   1.612   4.711   4.214 -1.5290  1.5884 -0.6537
 3663SOL    HW222623   1.539   0.020   4.344 -0.8893 -1.0333 -2.3481
 3664SOL     OW22624   3.022   2.565   3.979 -0.2241  0.2957  0.1178
 3664SOL    HW122625   2.979   2.482   3.958  1.7336 -0.8959  0.8233
 3664SOL    HW222626   3.076   2.568   3.900  0.0945  1.4776  0.3929
 3665SOL     OW22627   0.842   2.679   7.017  0.2384 -0.0100  0.3527
 3665SOL    HW122628   0.903   2.716   7.080  0.9783 -2.8785  1.2996
 3665SOL    HW222629   0.765   2.666   7.073  0.2419 -2.5811 -0.2573
 3666SOL     OW22630   0.048   1.401   4.224 -0.0554 -0.3584 -0.7639
 3666SOL    HW122631   4.721   1.472   4.232  0.0830 -0.1191 -1.7810
 3666SOL    HW222632   0.128   1.440   4.190 -0.3984  0.6809 -0.3696
 3667SOL     OW22633   1.516   0.850   5.482  0.5071 -0.7837 -0.3228
 3667SOL    HW122634   1.540   0.941   5.497 -1.4904 -0.7368  2.6809
 3667SOL    HW222635   1.453   0.841   5.553  0.0082  0.2159 -0.6394
 3668SOL     OW22636   0.459   3.989   8.484 -0.0662 -0.3640  0.2545
 3668SOL    HW122637   0.420   4.073   8.460 -0.9573 -1.2597 -1.4347
 3668SOL    HW222638   0.425   3.980   8.574  0.0453 -1.7752  0.1522
 3669SOL     OW22639   3.911   1.172   5.372  0.7835  0.2190  0.1081
 3669SOL    HW122640   3.893   1.178   5.279  0.7907 -1.7133 -0.0286
 3669SOL    HW222641   3.846   1.109   5.402  0.3870 -0.7165 -2.7027
 3670SOL     OW22642   4.348   2.080  15.884  0.0567 -0.0625  0.4010
 3670SOL    HW122643   4.378   2.164  15.918 -2.9279  1.4875 -0.7740
 3670SOL    HW222644   4.262   2.107  15.851  0.8590  1.9950 -0.0162
 3671SOL     OW22645   0.453   1.255   4.265  0.5133  0.5404 -0.8268
 3671SOL    HW122646   0.536   1.214   4.288  0.0157  1.0908  1.9368
 3671SOL    HW222647   0.456   1.329   4.326 -1.8128  0.2015 -0.2930
 3672SOL     OW22648   4.614   0.199   4.010 -0.3550  0.3086 -0.0020
 3672SOL    HW122649   4.656   0.284   4.024 -0.6204  0.3512  0.5436
 3672SOL    HW222650   4.563   0.180   4.089 -2.2866 -1.3906 -1.6545
 3673SOL     OW22651   1.013   3.695   3.120 -0.1721  0.0106 -0.1979
 3673SOL    HW122652   0.960   3.672   3.044  2.0650 -1.3741 -1.3111
 3673SOL    HW222653   1.028   3.607   3.153  0.5651  0.3597  0.4007
 3674SOL     OW22654   0.340   4.030   9.379  0.0006 -0.4017  0.1070
 3674SOL    HW122655   0.307   4.079   9.454 -0.4934  1.7236 -1.4994
 3674SOL    HW222656   0.426   4.006   9.414 -1.3214 -0.2860  3.4387
 3675SOL     OW22657   3.185   2.242   0.446  0.4529 -0.3798 -0.0513
 3675SOL    HW122658   3.138   2.300   0.506  0.0019 -1.5905  0.7454
 3675SOL    HW222659   3.272   2.257   0.483  0.1853  0.3117  0.2944
 3676SOL     OW22660   1.980   4.084   2.522  0.3701 -0.3956 -0.1402
 3676SOL    HW122661   1.949   4.146   2.456 -1.8862 -1.0044  0.3348
 3676SOL    HW222662   2.053   4.035   2.484 -0.2076 -0.4873 -1.1341
 3677SOL     OW22663   1.840   1.655   6.449 -0.2004 -0.7289 -0.2009
 3677SOL    HW122664   1.825   1.749   6.440  2.6957 -0.3548 -1.0608
 3677SOL    HW222665   1.936   1.651   6.449 -0.2127 -0.9970 -0.5551
 3678SOL     OW22666   1.617   0.797  14.069 -0.2921 -0.3725  0.0562
 3678SOL    HW122667   1.668   0.780  13.990  1.9404 -0.7920  1.5650
 3678SOL    HW222668   1.576   0.879  14.043 -2.6677 -1.8357 -0.8474
 3679SOL     OW22669   1.398   4.264   9.499  0.3590  0.0580  0.6010
 3679SOL    HW122670   1.453   4.340   9.483 -0.1851  0.0571 -1.2923
 3679SOL    HW222671   1.317   4.305   9.470 -0.2961 -1.5444  0.1387
 3680SOL     OW22672   4.417   4.616   4.164  0.2917  0.3921  0.2440
 3680SOL    HW122673   4.397   4.596   4.073  0.0954  2.0681 -0.0717
 3680SOL    HW222674   4.409   4.711   4.160  1.6978  0.5863  1.9352
 3681SOL     OW22675   3.904   3.967   2.494  0.9940  0.0628 -0.1092
 3681SOL    HW122676   3.956   3.984   2.573 -1.8424 -1.7241  2.1305
 3681SOL    HW222677   3.887   4.055   2.460 -0.3671 -0.7210 -1.4423
 3682SOL     OW22678   1.326   3.379   4.194  0.0208 -0.1166 -0.0033
 3682SOL    HW122679   1.414   3.380   4.231 -0.4161  3.4564  0.9028
 3682SOL    HW222680   1.279   3.432   4.258  1.1706 -1.9519  2.3567
 3683SOL     OW22681   4.440   1.124   2.503  0.5941 -0.2694 -0.5168
 3683SOL    HW122682   4.455   1.049   2.445  1.4753 -0.7355  0.3106
 3683SOL    HW222683   4.512   1.175   2.465  2.1255 -2.3572 -0.4542
 3684SOL     OW22684   1.892   4.496   1.476 -0.3064  0.0150 -0.2986
 3684SOL    HW122685   1.922   4.584   1.453  1.4914  0.1700  2.6343
 3684SOL    HW222686   1.852   4.448   1.403  0.8322  1.6359 -1.9841
 3685SOL     OW22687   1.882   2.568   7.549 -0.4098 -0.6901 -0.3283
 3685SOL    HW122688   1.958   2.572   7.607 -0.2707  0.2212 -0.5813
 3685SOL    HW222689   1.847   2.490   7.593  0.4211  0.3737  2.2557
 3686SOL     OW22690   3.717   0.158   9.444  0.2451 -0.6612 -0.3099
 3686SOL    HW122691   3.661   0.081   9.434 -2.8696  1.5886 -0.2245
 3686SOL    HW222692   3.797   0.125   9.404  0.1794 -0.7377 -0.3777
 3687SOL     OW22693   3.140   4.024   3.079  0.1200  0.1712 -0.2715
 3687SOL    HW122694   3.098   3.992   3.159  1.3545  1.9930  1.0965
 3687SOL    HW222695   3.070   4.011   3.015 -0.9581  0.7894  0.7865
 3688SOL     OW22696   2.308   0.499   9.063 -0.4376  0.0571 -0.4131
 3688SOL    HW122697   2.375   0.489   9.130  2.6290 -1.3427 -3.7238
 3688SOL    HW222698   2.324   0.592   9.046  1.7850 -0.0543  1.0781
 3689SOL     OW22699   1.853   0.468  17.385  0.2741  0.4563 -0.5158
 3689SOL    HW122700   1.780   0.406  17.382  0.4438  0.2507 -0.3579
 3689SOL    HW222701   1.811   0.525  17.450  0.4101 -0.5240  0.4319
 3690SOL     OW22702   1.396   3.547   9.699 -0.2801  0.4657  0.3227
 3690SOL    HW122703   1.485   3.553   9.665 -0.2585  0.2154  0.3332
 3690SOL    HW222704   1.413   3.549   9.793 -1.1844 -0.4748  0.5055
 3691SOL     OW22705   1.810   0.583   8.423 -0.6673 -0.1868 -0.1311
 3691SOL    HW122706   1.803   0.501   8.473  1.5029  0.7268  1.6701
 3691SOL    HW222707   1.725   0.619   8.400 -0.4968  0.2609 -0.0601
 3692SOL     OW22708   1.101   0.311  10.350 -0.6282  0.1412 -0.2572
 3692SOL    HW122709   1.095   0.276  10.438 -0.0946  1.9588  0.5046
 3692SOL    HW222710   1.091   0.231  10.299  0.4176 -0.3787  0.3640
 3693SOL     OW22711   2.418   2.775   4.117  0.2427  0.8531  0.3087
 3693SOL    HW122712   2.357   2.714   4.159  1.1023 -0.8085 -0.8551
 3693SOL    HW222713   2.477   2.714   4.073 -0.2956 -0.8779  1.9372
 3694SOL     OW22714   0.642   1.075   4.345  0.2434  0.0250 -0.4616
 3694SOL    HW122715   0.618   1.076   4.437  2.3144 -2.7230  0.1144
 3694SOL    HW222716   0.614   0.987   4.320  0.6105 -0.7177  1.7867
 3695SOL     OW22717   1.355   0.771   5.683  0.3496 -0.2259 -0.1147
 3695SOL    HW122718   1.261   0.753   5.693  0.8300 -1.6798  1.8176
 3695SOL    HW222719   1.395   0.686   5.702 -0.7551 -0.5613  0.7103
 3696SOL     OW22720   1.564   2.468  17.216  0.2736 -0.4543 -0.3185
 3696SOL    HW122721   1.577   2.438  17.306 -1.0862 -2.3163 -0.7383
 3696SOL    HW222722   1.649   2.456  17.173  0.2489  0.4755 -0.6217
 3697SOL     OW22723   1.343   3.928   5.009  0.3924 -0.2810  0.3385
 3697SOL    HW122724   1.351   3.846   5.056 -0.0928 -1.2734 -1.2995
 3697SOL    HW222725   1.395   3.917   4.929  0.4608  2.0665  0.0672
 3698SOL     OW22726   4.208   0.265  16.799 -0.5146 -0.0967  0.0705
 3698SOL    HW122727   4.188   0.296  16.887 -1.6235 -1.6938  0.3861
 3698SOL    HW222728   4.133   0.291  16.746 -0.2742 -0.7877 -0.6122
 3699SOL     OW22729   2.071   2.403   6.456  0.2180  0.2399  0.3039
 3699SOL    HW122730   2.026   2.488   6.456  0.2696  0.2670  0.9035
 3699SOL    HW222731   2.032   2.363   6.378  0.3800 -0.6771  0.6984
 3700SOL     OW22732   2.380   2.577  11.525  0.5092  0.1651 -0.7669
 3700SOL    HW122733   2.335   2.656  11.553  1.9222 -0.3214  2.8889
 3700SOL    HW222734   2.452   2.569  11.587  1.4866  0.0346 -1.9257
 3701SOL     OW22735   2.155   1.074   0.745  0.3549 -0.2783 -0.2541
 3701SOL    HW122736   2.125   1.140   0.808  1.9121  0.1979 -0.0009
 3701SOL    HW222737   2.198   1.010   0.802  2.1999  1.1511 -0.0325
 3702SOL     OW22738   3.854   3.386  11.460 -0.2774  0.3529 -0.4586
 3702SOL    HW122739   3.873   3.401  11.553  0.9655 -0.3651 -0.5937
 3702SOL    HW222740   3.944   3.386  11.427 -0.4455  3.2786 -0.8752
 3703SOL     OW22741   4.272   3.833   8.301 -0.5400  0.2054  0.0509
 3703SOL    HW122742   4.291   3.869   8.388  0.7472 -0.3008 -0.0098
 3703SOL    HW222743   4.219   3.757   8.322  1.0154 -0.2802  2.2596
 3704SOL     OW22744   3.200   1.030   3.252  0.2563 -0.1529  0.1211
 3704SOL    HW122745   3.173   1.119   3.276  1.4095 -0.2508  1.7362
 3704SOL    HW222746   3.118   0.980   3.249  0.6632 -0.8551  0.8869
 3705SOL     OW22747   3.236   2.634   9.708 -0.5284  0.1627 -0.3958
 3705SOL    HW122748   3.217   2.563   9.646  0.5842 -0.3222 -0.1882
 3705SOL    HW222749   3.314   2.605   9.756 -0.4418 -0.0522 -0.6635
 3706SOL     OW22750   2.946   0.541   3.715  0.0039  0.0516  0.3689
 3706SOL    HW122751   3.017   0.556   3.653 -0.5604 -0.0200 -0.2936
 3706SOL    HW222752   2.912   0.629   3.733  0.1036  0.0362  0.6330
 3707SOL     OW22753   1.619   0.358   4.821 -0.4452  0.0570 -0.2320
 3707SOL    HW122754   1.585   0.382   4.907 -0.2685  0.0299 -0.1553
 3707SOL    HW222755   1.653   0.271   4.841 -1.0894  0.1215  1.1306
 3708SOL     OW22756   1.866   3.364  12.952  0.4634 -0.2347 -0.1019
 3708SOL    HW122757   1.807   3.424  12.999  0.7966 -0.3133  0.4210
 3708SOL    HW222758   1.796   3.323  12.901  2.0807 -0.9873 -1.6960
 3709SOL     OW22759   0.909   1.684   5.309 -0.3714 -0.2596  0.3114
 3709SOL    HW122760   0.876   1.600   5.340 -2.1584 -0.0999 -1.1112
 3709SOL    HW222761   0.978   1.711   5.369  0.5958 -1.4687 -0.2685
 3710SOL     OW22762   1.514   3.537   7.923  0.3075 -0.3709 -0.7148
 3710SOL    HW122763   1.481   3.467   7.867  0.6475  0.0738 -1.4686
 3710SOL    HW222764   1.541   3.588   7.846 -1.1083  3.4078  1.3085
 3711SOL     OW22765   1.473   1.657   2.104 -0.1312 -0.1504 -0.0405
 3711SOL    HW122766   1.488   1.665   2.198  1.6738  0.0601 -0.3454
 3711SOL    HW222767   1.402   1.721   2.105  0.0470  0.0372  0.4043
 3712SOL     OW22768   0.496   4.291   6.034 -0.1823  0.1132 -0.2875
 3712SOL    HW122769   0.468   4.206   6.069 -1.9215  1.4607  1.6316
 3712SOL    HW222770   0.508   4.345   6.112 -2.3077  1.8617 -1.1631
 3713SOL     OW22771   2.103   2.001   3.408  0.2432  0.2328  0.6425
 3713SOL    HW122772   2.021   1.953   3.415  0.0119  0.3130 -1.3790
 3713SOL    HW222773   2.139   1.997   3.497 -1.0550 -0.6740  1.1177
 3714SOL     OW22774   0.039   4.709  17.056  0.2777 -0.4230  0.0814
 3714SOL    HW122775   4.728   4.697  17.137  1.3409  1.1990  0.9450
 3714SOL    HW222776   0.096   0.047  17.071  0.8962 -0.7198 -0.7748
 3715SOL     OW22777   2.692   4.644  13.085  0.0638 -0.2221  0.0010
 3715SOL    HW122778   2.631   4.594  13.140  0.4361  2.4294  2.8239
 3715SOL    HW222779   2.772   4.641  13.138  0.6965  2.2027 -0.8337
 3716SOL     OW22780   0.403   1.770   8.265 -0.0971 -0.3932 -0.5984
 3716SOL    HW122781   0.451   1.806   8.340 -1.2293  2.2042 -1.1321
 3716SOL    HW222782   0.314   1.771   8.301  0.0915  0.6485 -0.1693
 3717SOL     OW22783   3.691   1.402  16.755 -0.1024  0.3567  0.5422
 3717SOL    HW122784   3.697   1.307  16.745 -1.1182  0.3942 -0.4254
 3717SOL    HW222785   3.637   1.407  16.834  0.9267  2.0039  1.1438
 3718SOL     OW22786   2.889   0.739   0.375 -0.1619 -0.4983 -0.2022
 3718SOL    HW122787   2.963   0.724   0.434 -0.8639  3.4957  1.7310
 3718SOL    HW222788   2.925   0.691   0.301 -2.0989 -0.2696 -1.3023
 3719SOL     OW22789   4.521   1.981  15.701  0.1906  0.1332 -0.2940
 3719SOL    HW122790   4.449   1.989  15.763 -0.1325  0.0642 -0.6557
 3719SOL    HW222791   4.521   2.063  15.652 -2.4630  1.9065  2.6434
 3720SOL     OW22792   0.870   4.275   4.933  0.3605 -0.4330 -0.4668
 3720SOL    HW122793   0.949   4.328   4.925  0.5305 -0.7513 -0.9432
 3720SOL    HW222794   0.869   4.242   5.022 -1.4768  3.1658  0.8338
 3721SOL     OW22795   3.506   4.592   8.489 -0.1838  0.5362  0.2861
 3721SOL    HW122796   3.444   4.661   8.512  1.2337  1.4679  1.3028
 3721SOL    HW222797   3.519   4.631   8.402  0.2551  0.1904  0.1975
 3722SOL     OW22798   4.040   2.094  10.098 -0.1683 -0.1220 -0.3920
 3722SOL    HW122799   4.004   2.166  10.151 -3.1322 -0.3975 -2.0465
 3722SOL    HW222800   4.027   2.016  10.151  2.5061 -0.3670 -0.0772
 3723SOL     OW22801   4.545   2.447   8.375 -0.1768 -0.5093  0.4933
 3723SOL    HW122802   4.608   2.383   8.343  1.1865 -0.1774  2.5296
 3723SOL    HW222803   4.464   2.408   8.340 -1.1131  1.0388  0.9155
 3724SOL     OW22804   4.495   1.051   7.515  0.2188  0.0071  0.0924
 3724SOL    HW122805   4.517   0.959   7.530 -1.7293 -0.4005  0.5053
 3724SOL    HW222806   4.531   1.093   7.593  0.0254 -2.1421  1.3550
 3725SOL     OW22807   4.657   0.999   8.959  0.1669  0.0507  0.2711
 3725SOL    HW122808   4.640   0.908   8.983  0.2767  0.1037  0.5510
 3725SOL    HW222809   4.572   1.027   8.994  0.1450 -0.5885  0.7330
 3726SOL     OW22810   3.552   2.324   3.031  0.1351  0.3307 -0.4732
 3726SOL    HW122811   3.514   2.361   2.952  0.7922  0.4843 -0.7183
 3726SOL    HW222812   3.610   2.391   3.067  0.1911  0.4177 -0.7270
 3727SOL     OW22813   1.963   4.180   2.040  0.0895  0.3070  0.1668
 3727SOL    HW122814   2.038   4.239   2.047  1.6627 -1.5314 -1.2845
 3727SOL    HW222815   2.007   4.096   2.033 -2.6702 -1.1107 -0.1465
 3728SOL     OW22816   0.575   1.912   5.433  0.0358  0.4452 -0.2421
 3728SOL    HW122817   0.628   1.918   5.354  0.5128 -2.7441 -0.1822
 3728SOL    HW222818   0.631   1.890   5.508  0.7604  0.1438 -0.8629
 3729SOL     OW22819   2.650   2.452   8.495  0.9010  0.4143 -0.2996
 3729SOL    HW122820   2.601   2.509   8.436 -1.5705 -2.1325 -0.7607
 3729SOL    HW222821   2.618   2.365   8.470 -0.7590  1.3287 -1.3563
 3730SOL     OW22822   2.156   2.019   9.294  0.4974 -0.1691  0.4077
 3730SOL    HW122823   2.231   2.061   9.251 -1.8026  2.2941 -1.2302
 3730SOL    HW222824   2.100   2.017   9.216  1.3790  0.4928 -0.2423
 3731SOL     OW22825   0.832   2.286  13.741  0.0794  0.1094  0.2331
 3731SOL    HW122826   0.763   2.350  13.757 -0.0246  0.0309  0.1062
 3731SOL    HW222827   0.773   2.211  13.736  0.6779 -0.3663  0.3229
 3732SOL     OW22828   0.381   0.704   2.893 -0.2218 -0.4626 -0.9676
 3732SOL    HW122829   0.475   0.689   2.889  0.2666  2.0508  0.8840
 3732SOL    HW222830   0.382   0.782   2.836 -1.6220  1.0940  1.1166
 3733SOL     OW22831   3.356   1.933  11.734 -0.5212  0.4967  0.1494
 3733SOL    HW122832   3.329   2.020  11.763 -0.6758 -0.9074  4.2294
 3733SOL    HW222833   3.345   1.934  11.639  0.6044  1.5952  0.0268
 3734SOL     OW22834   0.474   0.833   7.428  0.3546 -0.1782 -0.1211
 3734SOL    HW122835   0.463   0.833   7.333  1.0940 -0.6838 -0.2068
 3734SOL    HW222836   0.437   0.749   7.455  1.8393 -0.7478  0.1089
 3735SOL     OW22837   2.002   3.662   2.782  0.0191  0.0985 -0.3118
 3735SOL    HW122838   1.979   3.575   2.749  2.5799 -0.5735 -0.3258
 3735SOL    HW222839   1.915   3.701   2.779  0.1430  0.4450  0.4425
 3736SOL     OW22840   4.226   0.327  13.318 -0.2016 -0.7600  0.0582
 3736SOL    HW122841   4.193   0.404  13.365  2.7057  0.2318  0.4893
 3736SOL    HW222842   4.146   0.306  13.271 -0.2841 -0.7604  0.1976
 3737SOL     OW22843   3.633   2.562  10.013 -0.8960  0.3792  0.0689
 3737SOL    HW122844   3.633   2.633  10.077  0.4300  0.1038  0.3732
 3737SOL    HW222845   3.541   2.559   9.984 -0.8777 -1.1212  0.1538
 3738SOL     OW22846   4.039   3.308   5.215  0.0628  0.1353 -0.1057
 3738SOL    HW122847   3.982   3.385   5.208  0.9841  0.9169  0.9845
 3738SOL    HW222848   4.045   3.298   5.310 -0.7876 -1.4897 -0.2337
 3739SOL     OW22849   4.541   4.635   7.224 -0.7388  0.2250  0.2665
 3739SOL    HW122850   4.462   4.619   7.173 -1.9998  1.4300  1.8604
 3739SOL    HW222851   4.501   4.642   7.311 -1.1356 -0.6867  0.1617
 3740SOL     OW22852   2.527   1.755   2.567 -0.0098  0.2885 -0.8728
 3740SOL    HW122853   2.586   1.824   2.597 -0.3426  0.5908 -0.9108
 3740SOL    HW222854   2.503   1.708   2.647  1.9824 -1.6510 -1.4161
 3741SOL     OW22855   3.025   3.500   8.759  0.0909 -0.8138 -0.0903
 3741SOL    HW122856   3.008   3.497   8.853  2.5666 -1.8052  0.3301
 3741SOL    HW222857   2.960   3.433   8.739 -2.6690  2.1680 -1.1273
 3742SOL     OW22858   3.277   1.623  15.647 -0.5507  1.0492  0.2411
 3742SOL    HW122859   3.262   1.708  15.604 -0.4795  0.3145 -1.2222
 3742SOL    HW222860   3.217   1.627  15.722 -0.1722  1.7907  0.5047
 3743SOL     OW22861   2.511   1.559   3.570 -0.0044  0.1324 -0.0532
 3743SOL    HW122862   2.519   1.652   3.550 -0.7571  0.2900  0.3740
 3743SOL    HW222863   2.445   1.561   3.640 -0.2092 -1.5436 -0.1965
 3744SOL     OW22864   3.311   0.578   1.555  0.3334 -0.3317 -0.5725
 3744SOL    HW122865   3.238   0.637   1.535  1.3729  1.2442  0.2979
 3744SOL    HW222866   3.282   0.502   1.504 -0.7480 -0.1925 -0.1549
 3745SOL     OW22867   4.671   3.257  15.514 -0.3997  0.1938 -0.5806
 3745SOL    HW122868   0.004   3.193  15.503  1.1844  1.8046  0.1607
 3745SOL    HW222869   4.706   3.343  15.489  0.4955 -0.0279 -0.0740
 3746SOL     OW22870   4.281   1.769   9.598 -0.0765  0.3326 -0.0630
 3746SOL    HW122871   4.201   1.776   9.652 -1.0125 -1.1000 -1.2646
 3746SOL    HW222872   4.338   1.821   9.655 -0.3946 -0.6894  1.1857
 3747SOL     OW22873   3.606   2.258   8.986 -0.2769  0.5397  0.1541
 3747SOL    HW122874   3.609   2.166   9.011 -1.1002  0.2928 -0.6520
 3747SOL    HW222875   3.532   2.252   8.926  1.3127 -3.0630 -1.4261
 3748SOL     OW22876   0.750   3.031   0.317  0.3536  0.4138 -0.4074
 3748SOL    HW122877   0.659   3.020   0.291 -0.4334 -2.9716  3.6345
 3748SOL    HW222878   0.782   3.108   0.271 -0.8711  2.1093  1.6028
 3749SOL     OW22879   0.172   0.357  14.283  0.4235 -0.5816 -0.1481
 3749SOL    HW122880   0.104   0.331  14.221  0.7224 -1.0074 -0.2976
 3749SOL    HW222881   0.178   0.278  14.336  2.7691  0.1780  0.7224
 3750SOL     OW22882   0.170   2.187  10.567 -0.2022  0.4859  0.0544
 3750SOL    HW122883   0.239   2.214  10.627  1.3707 -1.0342 -1.0452
 3750SOL    HW222884   0.208   2.103  10.538 -3.1845 -0.6286 -0.5565
 3751SOL     OW22885   3.234   1.782   7.835  0.0021  0.1071  0.4002
 3751SOL    HW122886   3.188   1.808   7.915 -0.5424 -1.5486  0.6278
 3751SOL    HW222887   3.252   1.692   7.861 -0.7429 -0.3126 -0.5367
 3752SOL     OW22888   4.504   4.507  15.032  0.1742 -0.6680 -0.1199
 3752SOL    HW122889   4.519   4.578  15.094 -0.5509  1.9028 -2.9220
 3752SOL    HW222890   4.593   4.471  15.027  0.9366  1.3057 -0.8055
 3753SOL     OW22891   4.582   2.818   3.232  0.0246 -0.0246  0.1574
 3753SOL    HW122892   4.674   2.844   3.244  0.5440 -2.3437  1.2077
 3753SOL    HW222893   4.562   2.829   3.139  0.1412  0.5339  0.1996
 3754SOL     OW22894   3.490   4.413   2.673 -0.4470  0.5441 -1.0822
 3754SOL    HW122895   3.542   4.355   2.617  1.7217  1.1777  0.2885
 3754SOL    HW222896   3.558   4.444   2.733 -1.7594  1.2136  0.0727
 3755SOL     OW22897   1.297   1.166   8.641  0.0472 -0.3066  0.4524
 3755SOL    HW122898   1.251   1.196   8.719 -1.9739  1.4817 -1.4238
 3755SOL    HW222899   1.305   1.073   8.663 -2.4970 -0.4260  0.7680
 3756SOL     OW22900   1.556   3.993   3.168  0.4528  0.0075 -0.6909
 3756SOL    HW122901   1.472   4.027   3.136  1.2380  0.8494 -1.8240
 3756SOL    HW222902   1.549   3.901   3.140  2.3278 -0.5181  0.5713
 3757SOL     OW22903   3.305   4.221   6.347  0.0621 -0.2597  0.1485
 3757SOL    HW122904   3.240   4.257   6.408 -0.8058 -0.8553 -0.4290
 3757SOL    HW222905   3.332   4.149   6.403  1.7882  1.6569  1.7817
 3758SOL     OW22906   3.341   1.261   1.041  0.0266 -0.5184 -0.1002
 3758SOL    HW122907   3.285   1.335   1.060 -0.7048 -1.4275  1.2765
 3758SOL    HW222908   3.289   1.187   1.073 -2.6952  0.9816 -1.0869
 3759SOL     OW22909   2.091   2.249   2.941 -0.2642 -0.6698 -0.0880
 3759SOL    HW122910   2.111   2.162   2.908 -0.2015 -1.5255  2.2568
 3759SOL    HW222911   2.009   2.227   2.984  1.0024 -1.0996  2.1182
 3760SOL     OW22912   4.177   2.070   5.684  0.3994  0.5478 -0.1396
 3760SOL    HW122913   4.114   2.043   5.617  1.2722  0.4804 -0.9433
 3760SOL    HW222914   4.255   2.042   5.635  0.1428 -1.2037  0.4478
 3761SOL     OW22915   1.282   1.008   2.957  0.0052  0.0575 -0.4240
 3761SOL    HW122916   1.227   1.007   3.036  1.0139  0.8653  0.2980
 3761SOL    HW222917   1.346   1.077   2.976  0.9016  0.0901 -3.6447
 3762SOL     OW22918   0.942   3.046   5.125  0.2083  0.0207  0.0604
 3762SOL    HW122919   1.016   3.025   5.069  0.8278  1.4950  0.3301
 3762SOL    HW222920   0.912   3.133   5.100  0.5782  0.4770  1.1714
 3763SOL     OW22921   0.688   3.616   5.032  0.5329 -0.1629 -0.1059
 3763SOL    HW122922   0.690   3.695   4.978  0.3299 -0.5419 -0.6685
 3763SOL    HW222923   0.627   3.655   5.095  0.9869 -2.0075  1.4538
 3764SOL     OW22924   1.466   4.437   6.982  0.2771  0.6886 -0.1790
 3764SOL    HW122925   1.422   4.356   6.957 -0.4404  1.3479 -1.0179
 3764SOL    HW222926   1.391   4.495   6.994 -0.1210  0.7071 -2.7514
 3765SOL     OW22927   2.990   2.454   4.976  0.1876  0.5928 -0.2452
 3765SOL    HW122928   3.060   2.404   5.018 -0.0451 -0.3000 -0.9123
 3765SOL    HW222929   2.980   2.409   4.892  1.5496  1.0521 -0.6471
 3766SOL     OW22930   3.273   3.147   7.014  0.0312 -0.2966 -0.4412
 3766SOL    HW122931   3.258   3.242   7.013  0.3687 -0.2393 -0.0182
 3766SOL    HW222932   3.233   3.119   7.097  0.3595  0.0372 -0.1705
 3767SOL     OW22933   3.990   4.137   2.088 -0.3518 -0.2648  0.2761
 3767SOL    HW122934   4.076   4.176   2.079 -0.5584  0.1391  0.0495
 3767SOL    HW222935   3.999   4.048   2.053  1.1000  0.8173 -2.0746
 3768SOL     OW22936   3.602   3.883  12.618  0.5617  0.0805 -0.0665
 3768SOL    HW122937   3.649   3.893  12.535  1.5303 -0.8751  0.3697
 3768SOL    HW222938   3.650   3.808  12.654  1.5285 -0.2788 -2.0672
 3769SOL     OW22939   3.991   1.450   0.167  0.5857 -0.5270 -0.0891
 3769SOL    HW122940   3.921   1.515   0.173  1.8041  0.7820 -0.0007
 3769SOL    HW222941   3.957   1.376   0.217  0.4077 -0.8800 -0.7230
 3770SOL     OW22942   2.426   4.581   3.400 -0.3642  0.3240  0.2569
 3770SOL    HW122943   2.411   4.498   3.356  1.6198  0.2644 -0.3026
 3770SOL    HW222944   2.448   4.630   3.321 -0.2888 -0.6072 -0.2982
 3771SOL     OW22945   0.450   0.024   9.112 -0.2379  0.1896  0.1763
 3771SOL    HW122946   0.488   0.007   9.026  1.1518  1.1640  0.6018
 3771SOL    HW222947   0.391   0.094   9.087  0.4222  1.3361  1.7922
 3772SOL     OW22948   2.634   0.805   4.815 -0.0568  0.2669  0.2097
 3772SOL    HW122949   2.602   0.895   4.811 -1.0589 -0.1119 -0.3662
 3772SOL    HW222950   2.632   0.781   4.723  0.3010 -2.2250  0.8549
 3773SOL     OW22951   1.360   1.360   8.485  0.6869  0.4089 -0.7695
 3773SOL    HW122952   1.336   1.278   8.528 -1.2096  0.5774 -1.4828
 3773SOL    HW222953   1.278   1.394   8.450  0.6893  0.0790 -1.0944
 3774SOL     OW22954   1.639   4.707   7.879  0.4124  0.0324  0.2756
 3774SOL    HW122955   1.584   0.048   7.888 -0.7106 -0.2586 -4.1824
 3774SOL    HW222956   1.711   0.006   7.930 -0.2953  2.0485 -0.1124
 3775SOL     OW22957   4.674   2.693   8.499 -0.2778  0.3134 -0.1627
 3775SOL    HW122958   4.663   2.603   8.468 -1.5011  0.9326 -1.5012
 3775SOL    HW222959   4.720   2.733   8.426 -0.8369  4.4196  1.7383
 3776SOL     OW22960   0.160   2.152   3.912  0.1992 -0.6752 -0.0611
 3776SOL    HW122961   0.242   2.105   3.895  1.0380  0.8260 -0.1684
 3776SOL    HW222962   0.143   2.131   4.004 -2.9378 -1.0060 -0.7235
 3777SOL     OW22963   1.600   2.177  10.315 -0.0948  0.4954  0.1239
 3777SOL    HW122964   1.536   2.219  10.372 -1.7400  0.7176 -1.8904
 3777SOL    HW222965   1.544   2.108  10.278 -3.2086  3.0761  0.1280
 3778SOL     OW22966   0.753   0.778  14.931  0.3241 -0.9375  0.1169
 3778SOL    HW122967   0.813   0.714  14.969 -0.0159 -1.4220 -0.1587
 3778SOL    HW222968   0.707   0.821  15.003  0.7908 -1.3667  0.6641
 3779SOL     OW22969   0.950   3.657   6.723  0.2805  0.0097 -0.2817
 3779SOL    HW122970   0.969   3.695   6.637 -1.2796  1.8492  0.1668
 3779SOL    HW222971   0.911   3.580   6.682 -1.5780  0.6663  0.2281
 3780SOL     OW22972   0.495   4.554   4.430  0.5684  0.6089 -0.1040
 3780SOL    HW122973   0.432   4.615   4.467  2.1342  2.2228 -0.1104
 3780SOL    HW222974   0.514   4.590   4.344 -0.3303  1.7732  0.1936
 3781SOL     OW22975   1.233   3.871  17.534  0.3657 -0.0435 -0.1597
 3781SOL    HW122976   1.298   3.850  17.467  0.6368  0.8089 -0.1623
 3781SOL    HW222977   1.262   3.959  17.557  1.0041 -0.9707  2.5654
 3782SOL     OW22978   4.658   4.159   8.627  0.3609 -0.4395  0.1701
 3782SOL    HW122979   4.633   4.084   8.681 -2.5206 -0.3977 -1.0698
 3782SOL    HW222980   4.631   4.226   8.689 -1.2912  0.3898 -1.4299
 3783SOL     OW22981   3.396   1.150   8.292  0.3805  0.1739  0.8317
 3783SOL    HW122982   3.473   1.188   8.333  0.2730  0.9579  0.3064
 3783SOL    HW222983   3.345   1.111   8.363 -1.7567 -1.0779 -1.3935
 3784SOL     OW22984   1.281   1.871   8.788 -0.4740 -0.4172  0.1002
 3784SOL    HW122985   1.186   1.869   8.786 -0.4016 -2.3229 -1.5238
 3784SOL    HW222986   1.308   1.830   8.706  0.6767 -1.6519  1.0878
 3785SOL     OW22987   3.449   3.628   1.218 -0.0492 -0.0435  0.3480
 3785SOL    HW122988   3.421   3.621   1.127 -1.3796  1.9933  0.6104
 3785SOL    HW222989   3.361   3.624   1.255  0.0873 -0.8140  0.6076
 3786SOL     OW22990   4.514   2.764  17.615  0.0500 -0.3518 -0.6518
 3786SOL    HW122991   4.449   2.830  17.638 -1.1196 -2.4385  2.0175
 3786SOL    HW222992   4.540   2.804  17.532  2.1492  1.1067  0.7298
 3787SOL     OW22993   1.650   0.798   4.725  0.1520 -0.2820  0.0956
 3787SOL    HW122994   1.588   0.736   4.687  1.0606 -1.2201  0.1216
 3787SOL    HW222995   1.720   0.815   4.661  0.8931  0.6006  1.1357
 3788SOL     OW22996   0.829   2.296   2.765  0.1808  0.4220 -0.2528
 3788SOL    HW122997   0.792   2.320   2.850  2.2589  0.1580  0.7353
 3788SOL    HW222998   0.758   2.244   2.726 -0.4616  0.2582  1.1345
 3789SOL     OW22999   1.850   4.232   8.063 -0.3537 -0.1309 -0.2954
 3789SOL    HW123000   1.881   4.201   7.978 -1.4948  0.1372 -0.8120
 3789SOL    HW223001   1.776   4.289   8.042 -0.2875 -0.3956 -1.2791
 3790SOL     OW23002   0.684   4.498  16.578  0.0940  0.0170  0.1996
 3790SOL    HW123003   0.706   4.405  16.576 -1.2131 -0.3135  0.9528
 3790SOL    HW223004   0.657   4.513  16.487 -0.5442 -0.0251  0.3785
 3791SOL     OW23005   3.738   1.165   8.293  0.1123  0.3644 -0.2935
 3791SOL    HW123006   3.792   1.244   8.297  0.8199 -0.0748 -1.0070
 3791SOL    HW223007   3.681   1.175   8.369  2.0500 -1.2515  1.3684
 3792SOL     OW23008   2.296   4.516   1.207  0.6181  0.5437  0.2633
 3792SOL    HW123009   2.381   4.561   1.206 -0.0001  1.6943 -0.0124
 3792SOL    HW223010   2.303   4.475   1.294 -0.3845 -0.6961 -0.2594
 3793SOL     OW23011   2.464   3.943   8.888  0.1781 -0.2036 -0.6282
 3793SOL    HW123012   2.375   3.928   8.918  0.5497 -3.0014 -0.9416
 3793SOL    HW223013   2.459   4.033   8.855  0.5451  0.2332  0.4935
 3794SOL     OW23014   0.101   2.342  10.364 -0.7485 -0.1681 -0.1449
 3794SOL    HW123015   0.129   2.274  10.425 -1.3534 -0.5862 -0.3211
 3794SOL    HW223016   0.091   2.422  10.415  1.1071  0.9114 -1.4766
 3795SOL     OW23017   4.583   4.650   2.323  0.1554  1.0008  0.6693
 3795SOL    HW123018   4.528   4.617   2.253  0.2067  1.8985  0.1992
 3795SOL    HW223019   4.518   4.635   2.392  1.9474 -0.2820  2.0981
 3796SOL     OW23020   3.624   1.800   7.739  0.1025  0.6209 -0.6822
 3796SOL    HW123021   3.595   1.763   7.822  1.7518 -1.0268 -0.8472
 3796SOL    HW223022   3.553   1.774   7.679 -1.0353  0.0428  0.9091
 3797SOL     OW23023   3.879   0.345   1.935  0.4307  0.0166 -0.1012
 3797SOL    HW123024   3.852   0.287   2.007  2.1395 -0.6217  0.0355
 3797SOL    HW223025   3.801   0.365   1.883  1.1432  2.1565 -0.3381
 3798SOL     OW23026   2.341   4.156   4.238 -0.3942  0.1465 -0.2376
 3798SOL    HW123027   2.279   4.097   4.196 -1.4589  0.3234  1.0874
 3798SOL    HW223028   2.294   4.178   4.318 -1.3214 -2.8111  0.0192
 3799SOL     OW23029   3.614   0.386   7.235  0.4271  0.0718  0.2882
 3799SOL    HW123030   3.616   0.448   7.163 -0.3069  0.2281  0.4028
 3799SOL    HW223031   3.572   0.310   7.193 -0.1899 -0.4121  1.7653
 3800SOL     OW23032   3.119   4.370   1.629 -0.0296  0.1084  0.2282
 3800SOL    HW123033   3.195   4.324   1.664 -0.6446 -0.3654  0.9354
 3800SOL    HW223034   3.121   4.348   1.536 -0.0299  0.5049  0.1346
 3801SOL     OW23035   0.536   4.339   5.282  0.3696  0.2778 -0.6002
 3801SOL    HW123036   0.608   4.347   5.220 -0.6128  1.3555 -1.6000
 3801SOL    HW223037   0.581   4.362   5.363  2.7733 -1.6998 -1.3683
 3802SOL     OW23038   3.324   1.739   5.450  0.2979  0.4005  0.0430
 3802SOL    HW123039   3.268   1.669   5.416 -0.6033  1.2816 -0.2830
 3802SOL    HW223040   3.337   1.692   5.532  2.6379 -1.5621 -1.4706
 3803SOL     OW23041   1.013   3.699   6.457  0.1364 -0.9467 -0.6856
 3803SOL    HW123042   0.961   3.772   6.491  1.3888 -0.2827 -0.1932
 3803SOL    HW223043   0.984   3.695   6.366 -2.8081 -0.1078  0.2044
 3804SOL     OW23044   4.520   3.563   7.146 -0.6706  0.1762  0.4660
 3804SOL    HW123045   4.541   3.497   7.080  0.2207  1.6097 -0.6938
 3804SOL    HW223046   4.424   3.555   7.149 -0.7216  0.8847  0.6285
 3805SOL     OW23047   0.590   3.656   3.900  0.0750 -0.0782 -0.0322
 3805SOL    HW123048   0.596   3.647   3.995 -1.2864 -1.1581 -0.0512
 3805SOL    HW223049   0.511   3.709   3.890 -0.1613 -0.3036  0.7005
 3806SOL     OW23050   3.110   0.161   6.470 -0.2917 -0.4225 -0.0005
 3806SOL    HW123051   3.057   0.108   6.411  1.1275 -0.2647 -1.4109
 3806SOL    HW223052   3.085   0.120   6.553  1.8900 -3.4494 -0.8648
 3807SOL     OW23053   1.195   0.207   7.048  0.2663 -0.3167  0.2376
 3807SOL    HW123054   1.159   0.258   7.120  2.5341 -0.8332  1.7434
 3807SOL    HW223055   1.126   0.141   7.047 -1.2363  1.2820 -1.1025
 3808SOL     OW23056   1.290   4.405  16.314 -0.2288 -0.5839  0.7027
 3808SOL    HW123057   1.358   4.465  16.345  0.8971 -1.0853 -0.7911
 3808SOL    HW223058   1.215   4.445  16.358  0.4865  0.7799  0.6911
 3809SOL     OW23059   4.564   1.439   4.712  0.1729 -0.0058  0.2685
 3809SOL    HW123060   4.628   1.497   4.670 -1.1273 -0.1097 -1.8599
 3809SOL    HW223061   4.534   1.390   4.636 -1.8022  1.9376 -0.2317
 3810SOL     OW23062   1.625   1.949   0.955  0.4331  0.0565  0.0387
 3810SOL    HW123063   1.629   2.034   0.912 -0.8199  0.0739 -0.0229
 3810SOL    HW223064   1.567   1.974   1.026 -0.0768 -2.6527  0.5814
 3811SOL     OW23065   1.029   4.146  11.146  0.0621 -0.2632  0.0321
 3811SOL    HW123066   1.032   4.061  11.101 -1.6337 -0.2675 -0.0731
 3811SOL    HW223067   0.954   4.137  11.204 -0.2078  0.0970 -0.2601
 3812SOL     OW23068   0.861   4.223   6.106 -0.4262  0.4278  0.1060
 3812SOL    HW123069   0.788   4.182   6.060 -0.9719  0.8601  0.5836
 3812SOL    HW223070   0.906   4.270   6.035  0.0334 -1.3030 -0.7451
 3813SOL     OW23071   1.667   2.960   9.409  0.3208 -0.1441 -0.1608
 3813SOL    HW123072   1.669   2.864   9.408 -1.8331 -0.1870 -0.4172
 3813SOL    HW223073   1.733   2.969   9.478 -1.2411  0.8757  1.1985
 3814SOL     OW23074   0.930   3.739   7.578  0.0620  0.8666  0.1617
 3814SOL    HW123075   0.871   3.815   7.575 -0.5531  0.4376  1.2497
 3814SOL    HW223076   0.950   3.721   7.487  1.0056 -1.2660  0.7983
 3815SOL     OW23077   3.209   0.920   6.996  0.2879 -0.0921  0.2484
 3815SOL    HW123078   3.183   1.011   7.013  0.7043 -0.3030  2.0641
 3815SOL    HW223079   3.303   0.913   7.011  0.7896  1.5266 -2.1963
 3816SOL     OW23080   3.032   2.886   5.640 -0.0341  0.0916  0.3088
 3816SOL    HW123081   2.975   2.948   5.593  0.8128  0.0675 -0.7289
 3816SOL    HW223082   3.071   2.843   5.564  0.3620 -0.3574  0.7648
 3817SOL     OW23083   3.149   3.601   3.885  0.1001  0.2363 -0.1353
 3817SOL    HW123084   3.230   3.652   3.897  1.1266 -1.0913 -1.3179
 3817SOL    HW223085   3.081   3.668   3.880 -1.3119 -1.0660  1.8470
 3818SOL     OW23086   3.519   4.297   4.025 -0.3505  0.8010 -0.4044
 3818SOL    HW123087   3.547   4.343   4.104  2.0235  0.0482 -0.7797
 3818SOL    HW223088   3.556   4.351   3.954  0.8234  0.8866  0.2692
 3819SOL     OW23089   2.968   0.901   3.197 -0.3220  0.4674 -0.1138
 3819SOL    HW123090   2.913   0.848   3.140 -1.1259  0.0642  1.0326
 3819SOL    HW223091   2.906   0.908   3.270 -1.6233 -0.6781 -1.1217
 3820SOL     OW23092   0.802   1.206   2.610  0.1515 -0.0459 -0.0327
 3820SOL    HW123093   0.769   1.233   2.524 -0.9703 -0.8672  0.1354
 3820SOL    HW223094   0.869   1.143   2.586 -1.3128 -1.1138 -1.3295
 3821SOL     OW23095   3.703   0.390   0.256 -0.2601  0.2765  0.0737
 3821SOL    HW123096   3.722   0.483   0.250  1.9680 -0.2435 -0.9942
 3821SOL    HW223097   3.791   0.365   0.283 -1.7408 -2.4482  2.3940
 3822SOL     OW23098   2.992   2.489   2.082 -0.2907 -0.4812  0.1185
 3822SOL    HW123099   2.993   2.582   2.058 -0.3304 -0.5856 -0.2844
 3822SOL    HW223100   2.912   2.484   2.135 -0.8684  2.8875 -0.4309
 3823SOL     OW23101   2.585   2.746   6.100 -0.0602  0.9913 -0.4220
 3823SOL    HW123102   2.502   2.705   6.076  0.4200  0.3144 -0.9157
 3823SOL    HW223103   2.558   2.784   6.184 -0.7084  1.2172 -0.7341
 3824SOL     OW23104   3.520   0.951   7.791  0.1087  0.3504  0.2913
 3824SOL    HW123105   3.569   0.872   7.813  1.7427  1.4141  0.5095
 3824SOL    HW223106   3.519   0.995   7.876 -2.5456 -0.9209  0.9197
 3825SOL     OW23107   1.552   1.147   4.335  0.7752 -0.0558 -0.9557
 3825SOL    HW123108   1.573   1.059   4.304  0.2463  0.1070 -1.7949
 3825SOL    HW223109   1.574   1.195   4.255  2.6506 -1.1886 -1.1116
 3826SOL     OW23110   0.243   0.390   9.627 -0.0527 -0.5579  0.1025
 3826SOL    HW123111   0.159   0.415   9.589  0.2085 -2.0228 -1.4319
 3826SOL    HW223112   0.212   0.318   9.683 -0.5080  0.7905  1.5859
 3827SOL     OW23113   2.848   2.492   3.410 -0.0150  0.3789  0.4714
 3827SOL    HW123114   2.759   2.528   3.410  0.1189  0.7000  2.7582
 3827SOL    HW223115   2.856   2.492   3.505 -2.9457  1.9762  0.7275
 3828SOL     OW23116   3.560   0.077  10.358  0.6544  0.6063 -0.6143
 3828SOL    HW123117   3.641   0.125  10.338  0.1479  0.8887 -2.0160
 3828SOL    HW223118   3.585   0.020  10.430  0.3297 -0.6678 -1.5158
 3829SOL     OW23119   0.530   0.932   9.949  0.2603 -0.2289 -0.3540
 3829SOL    HW123120   0.582   0.962   9.875 -1.2681  0.9859 -0.9618
 3829SOL    HW223121   0.533   0.838   9.935 -0.2592 -0.2834 -0.0928
 3830SOL     OW23122   2.551   4.060   5.277 -0.0869 -0.1500 -0.1613
 3830SOL    HW123123   2.566   4.130   5.341  1.5943  0.4591 -1.2111
 3830SOL    HW223124   2.478   4.025   5.327  2.6056  0.4308  4.1637
 3831SOL     OW23125   3.706   3.238   9.890 -0.1511  0.4747  0.0255
 3831SOL    HW123126   3.715   3.174   9.961 -0.7354  0.1639 -0.1879
 3831SOL    HW223127   3.616   3.221   9.862  0.2249  0.4788 -1.1672
 3832SOL     OW23128   2.422   3.079   9.157  0.0115 -0.1196 -0.4712
 3832SOL    HW123129   2.347   3.058   9.101  0.8595 -2.6112 -0.6507
 3832SOL    HW223130   2.378   3.108   9.237  0.5754 -0.8889  0.1107
 3833SOL     OW23131   2.032   3.964   8.068 -0.1556 -0.0136  0.2547
 3833SOL    HW123132   2.090   3.897   8.032  0.5103 -0.0287  1.3420
 3833SOL    HW223133   1.944   3.939   8.039 -0.3985 -1.6710  2.4076
 3834SOL     OW23134   3.840   3.874   3.265 -0.7647 -0.3591 -0.2868
 3834SOL    HW123135   3.884   3.946   3.221  0.8081 -0.4799  1.0875
 3834SOL    HW223136   3.914   3.815   3.275 -0.1644  0.6462  1.1935
 3835SOL     OW23137   3.700   4.584   7.239  0.1456  0.3345  0.0003
 3835SOL    HW123138   3.613   4.545   7.236 -0.1141  0.8670  0.6175
 3835SOL    HW223139   3.745   4.509   7.276  1.1932  0.9623  0.0288
 3836SOL     OW23140   0.820   1.768  13.305 -0.5729 -0.6291 -0.3368
 3836SOL    HW123141   0.872   1.718  13.240  0.2184  1.7815 -1.5528
 3836SOL    HW223142   0.871   1.744  13.383 -1.4674  1.6063  0.9133
 3837SOL     OW23143   0.723   2.613   3.878 -0.2877 -0.1047 -0.2533
 3837SOL    HW123144   0.784   2.586   3.810 -1.0507  0.0495 -0.9936
 3837SOL    HW223145   0.673   2.531   3.878 -0.8349  0.2295  0.0647
 3838SOL     OW23146   1.929   3.958  12.983  0.3323  0.6200  0.1641
 3838SOL    HW123147   1.991   4.027  12.958 -1.6115  2.4296  0.2885
 3838SOL    HW223148   1.898   3.992  13.067 -0.3011  1.8350 -0.5534
 3839SOL     OW23149   4.255   1.898   9.341  0.1473 -0.3519  0.5017
 3839SOL    HW123150   4.261   1.857   9.427  2.4358  1.0512  1.0088
 3839SOL    HW223151   4.307   1.978   9.350 -1.5245  0.6374  1.4005
 3840SOL     OW23152   3.680   3.656   2.919  0.1723  0.2510  0.1307
 3840SOL    HW123153   3.764   3.612   2.934 -0.1048  0.1360  1.3280
 3840SOL    HW223154   3.670   3.689   3.008  0.7474 -0.0645  0.3113
 3841SOL     OW23155   1.202   2.550   3.173 -0.5005 -0.1531 -0.2081
 3841SOL    HW123156   1.196   2.612   3.100  3.2259 -0.1306 -0.5286
 3841SOL    HW223157   1.254   2.602   3.234 -0.1253  1.2752 -1.7359
 3842SOL     OW23158   2.591   0.306  12.965 -0.2151  0.8523 -0.1797
 3842SOL    HW123159   2.655   0.376  12.961 -1.0369  1.7053  1.3677
 3842SOL    HW223160   2.545   0.341  13.042  2.9046 -0.2627  2.2099
 3843SOL     OW23161   0.127   1.615  12.099  0.2392 -0.6680  0.6209
 3843SOL    HW123162   0.133   1.626  12.004 -0.7678  1.5909  0.8052
 3843SOL    HW223163   0.200   1.556  12.115  2.1820  1.6948  0.3810
 3844SOL     OW23164   0.848   1.450  15.108  0.1754  0.0347  0.8038
 3844SOL    HW123165   0.891   1.364  15.113 -1.1822 -0.6651  0.6374
 3844SOL    HW223166   0.859   1.466  15.014  0.9587  0.3472  0.9510
 3845SOL     OW23167   1.096   0.958   8.843  0.1443  0.1027  0.7008
 3845SOL    HW123168   1.179   0.915   8.825 -0.1954 -0.1099 -0.3669
 3845SOL    HW223169   1.043   0.882   8.822 -0.2600  0.5340  0.1335
 3846SOL     OW23170   2.711   2.595   7.515  0.7665  0.0895 -0.0624
 3846SOL    HW123171   2.766   2.598   7.593  2.0743  1.0536 -1.0121
 3846SOL    HW223172   2.766   2.531   7.469 -1.5782 -0.0051 -2.7064
 3847SOL     OW23173   4.348   2.745  16.732 -0.0994  0.0012 -0.2381
 3847SOL    HW123174   4.412   2.789  16.787 -0.2959  1.5079 -1.2213
 3847SOL    HW223175   4.286   2.720  16.801 -1.3990 -0.9406 -1.7459
 3848SOL     OW23176   2.226   1.687   1.875  0.7872  0.1908  0.4095
 3848SOL    HW123177   2.179   1.770   1.882  0.9357  0.2971  0.1616
 3848SOL    HW223178   2.277   1.689   1.794  0.1088  0.6815 -0.0078
 3849SOL     OW23179   3.573   2.858   3.584  0.2922  0.0724  0.0557
 3849SOL    HW123180   3.503   2.818   3.636  0.7221 -0.8624 -0.0878
 3849SOL    HW223181   3.522   2.936   3.562 -1.3614 -0.3722  2.3287
 3850SOL     OW23182   1.155   4.569  10.797  0.5968 -0.0089  0.9601
 3850SOL    HW123183   1.086   4.538  10.855  0.5572  1.6667  1.7824
 3850SOL    HW223184   1.120   4.655  10.774  0.1804 -0.3439  0.3037
 3851SOL     OW23185   0.793   4.644   8.424 -0.0473 -0.4360  0.5031
 3851SOL    HW123186   0.846   4.677   8.497  0.8157 -0.7313  0.0060
 3851SOL    HW223187   0.709   4.689   8.429  0.7463  1.0221  0.7768
 3852SOL     OW23188   4.269   1.438  10.395  0.1257 -0.3990 -0.7043
 3852SOL    HW123189   4.253   1.483  10.312 -0.5471 -1.4905 -1.1660
 3852SOL    HW223190   4.245   1.509  10.455  1.5298 -0.4022 -0.1487
 3853SOL     OW23191   4.311   3.517  10.862  0.2956  0.2358 -0.3436
 3853SOL    HW123192   4.361   3.576  10.918  0.0869  1.5675 -1.5630
 3853SOL    HW223193   4.390   3.463  10.858 -1.7307 -2.7105 -0.9691
 3854SOL     OW23194   3.402   0.941  16.191  0.2642  0.6622 -0.0445
 3854SOL    HW123195   3.470   1.008  16.183 -0.1460  1.0005 -0.6921
 3854SOL    HW223196   3.349   0.986  16.258  1.6809  0.3844  1.2686
 3855SOL     OW23197   3.252   1.177   7.837  0.3778 -0.6205 -0.0418
 3855SOL    HW123198   3.298   1.261   7.829 -0.5879 -0.1015 -0.1438
 3855SOL    HW223199   3.293   1.137   7.913  1.6862  1.3178  0.2727
 3856SOL     OW23200   0.907   3.594   9.058  0.1787  1.0934  0.1779
 3856SOL    HW123201   0.815   3.567   9.054  0.5638  0.0404 -1.2471
 3856SOL    HW223202   0.928   3.590   9.152  1.0493  0.2299 -0.0603
 3857SOL     OW23203   1.099   0.703   1.626  0.1448 -0.1632  0.2550
 3857SOL    HW123204   1.100   0.685   1.720  1.8306  1.1450  0.4777
 3857SOL    HW223205   1.157   0.779   1.623  0.7729 -0.5468  2.6788
 3858SOL     OW23206   2.617   1.456   5.751 -0.1498  0.0136 -0.1964
 3858SOL    HW123207   2.649   1.422   5.667  0.4835  0.9313 -0.3395
 3858SOL    HW223208   2.530   1.417   5.757 -0.5690  0.8026 -1.1371
 3859SOL     OW23209   0.033   4.006   9.103  0.1954 -0.3115 -0.3221
 3859SOL    HW123210   4.700   3.949   9.133 -0.5053  0.7387  0.0558
 3859SOL    HW223211   4.717   4.064   9.049 -1.1613 -1.3322 -0.0847
 3860SOL     OW23212   0.650   0.495   5.450  0.1990 -0.1399 -0.1093
 3860SOL    HW123213   0.724   0.469   5.505  0.8744 -0.0273 -0.9628
 3860SOL    HW223214   0.619   0.407   5.431  0.1233  0.2993 -2.0844
 3861SOL     OW23215   0.464   2.249   0.228  0.5329  0.1416  0.6004
 3861SOL    HW123216   0.484   2.278   0.317  0.8417  0.1982  0.5111
 3861SOL    HW223217   0.425   2.164   0.249  0.1825  0.3300  0.7142
 3862SOL     OW23218   3.753   3.337   3.183  0.4114 -0.4716  0.0320
 3862SOL    HW123219   3.662   3.306   3.183 -1.1777  4.1392  1.2115
 3862SOL    HW223220   3.745   3.432   3.172 -1.0705 -0.4480  1.2205
 3863SOL     OW23221   3.581   0.285   0.045 -0.0430 -0.3764  0.0007
 3863SOL    HW123222   3.627   0.325   0.118 -0.6110 -1.1418  0.7832
 3863SOL    HW223223   3.493   0.309   0.073 -0.3132 -1.2273 -0.1004
 3864SOL     OW23224   0.178   1.514   3.144 -0.5225 -0.2645  0.1977
 3864SOL    HW123225   0.202   1.422   3.138  0.0390  0.0085 -1.7972
 3864SOL    HW223226   0.133   1.542   3.064 -0.6340 -3.0125 -0.6749
 3865SOL     OW23227   1.928   0.694   5.087 -0.3275  0.0369  0.3365
 3865SOL    HW123228   1.907   0.728   5.000  1.3243 -0.2252 -0.1651
 3865SOL    HW223229   2.017   0.729   5.101  0.5109 -1.7274 -0.6798
 3866SOL     OW23230   2.579   0.709  11.123  0.1047 -0.3157 -0.4486
 3866SOL    HW123231   2.498   0.660  11.138 -1.9176  3.0787 -0.2693
 3866SOL    HW223232   2.595   0.735  11.213  0.8933  0.3882 -0.7938
 3867SOL     OW23233   4.100   1.448   7.896  0.2607 -0.2028 -0.6911
 3867SOL    HW123234   4.085   1.440   7.802  3.4227  0.8243 -1.2785
 3867SOL    HW223235   4.009   1.461   7.921  0.8450 -1.4074  2.1535
 3868SOL     OW23236   3.826   2.387  10.183 -0.6661 -0.2792  0.0641
 3868SOL    HW123237   3.765   2.427  10.122 -2.0338 -1.4908  0.6235
 3868SOL    HW223238   3.771   2.373  10.260  1.0956  2.0268  1.7370
 3869SOL     OW23239   1.486   4.249   1.884  0.9787 -0.2077  0.3976
 3869SOL    HW123240   1.469   4.342   1.898  0.0307 -0.2880 -0.2353
 3869SOL    HW223241   1.580   4.251   1.865  0.9800  2.4155  0.7833
 3870SOL     OW23242   2.249   1.015   9.144 -0.1565  0.0814  0.0919
 3870SOL    HW123243   2.278   0.977   9.227  2.3829 -1.4454 -1.4977
 3870SOL    HW223244   2.318   1.081   9.135 -0.3508  0.2937  0.1527
 3871SOL     OW23245   3.509   3.312   2.852 -0.5612 -0.2202 -0.5813
 3871SOL    HW123246   3.486   3.398   2.886 -0.3978 -0.2809 -0.3194
 3871SOL    HW223247   3.588   3.332   2.802 -1.3438  0.7905 -1.4036
 3872SOL     OW23248   0.092   0.347   8.726  0.8905 -0.0939 -0.4663
 3872SOL    HW123249   0.130   0.259   8.717  0.5653 -0.2240 -0.5869
 3872SOL    HW223250   0.155   0.401   8.772  1.6912  0.0896 -1.7980
 3873SOL     OW23251   3.537   0.264   3.038 -0.2771  0.0093  0.1305
 3873SOL    HW123252   3.598   0.336   3.056  0.0467 -0.9078  2.7825
 3873SOL    HW223253   3.482   0.291   2.965  1.7073 -3.1513 -2.5079
 3874SOL     OW23254   3.504   3.446   5.979  0.0200  0.3559 -0.0160
 3874SOL    HW123255   3.459   3.373   6.023 -1.1012  0.1799 -1.4386
 3874SOL    HW223256   3.482   3.428   5.888 -0.0909  0.8781 -0.0956
 3875SOL     OW23257   4.358   1.341   8.149  0.6056 -0.7263 -0.2435
 3875SOL    HW123258   4.345   1.401   8.223  0.3395 -0.4405 -0.5209
 3875SOL    HW223259   4.274   1.296   8.148 -0.9641  2.2254 -2.2089
 3876SOL     OW23260   2.194   0.976   6.057  0.1341 -0.2367 -0.4360
 3876SOL    HW123261   2.103   0.977   6.026  0.1277  0.9197 -0.3844
 3876SOL    HW223262   2.172   1.007   6.145 -2.4127 -3.0884 -0.0560
 3877SOL     OW23263   2.147   1.103   6.704  0.1204  0.1422 -1.0187
 3877SOL    HW123264   2.223   1.049   6.723 -1.0152 -0.3447  2.1630
 3877SOL    HW223265   2.132   1.150   6.786 -2.1074 -1.1056 -0.7034
 3878SOL     OW23266   4.477   1.187   1.996  0.8819  0.6684  0.2897
 3878SOL    HW123267   4.395   1.205   2.043  0.2529  1.4317 -1.0924
 3878SOL    HW223268   4.452   1.186   1.904  2.1862  1.8749 -0.0646
 3879SOL     OW23269   3.786   3.091   4.246 -0.4635 -0.4430 -0.3011
 3879SOL    HW123270   3.737   3.051   4.318  0.5747  1.8535  1.6410
 3879SOL    HW223271   3.821   3.173   4.278  0.7258 -2.4657  3.5881
 3880SOL     OW23272   1.491   3.103   3.649  0.8237 -0.7873 -0.5299
 3880SOL    HW123273   1.580   3.084   3.619  1.3781 -1.1420  1.3177
 3880SOL    HW223274   1.503   3.127   3.741 -0.9378  1.1684 -0.8087
 3881SOL     OW23275   0.264   2.969   2.891  0.9680 -0.0363  0.0818
 3881SOL    HW123276   0.270   2.912   2.968  0.9095 -0.1145  0.0281
 3881SOL    HW223277   0.322   3.037   2.927 -0.2449  0.4352  1.1496
 3882SOL     OW23278   2.340   3.790   1.290 -0.2746  0.0262  0.0262
 3882SOL    HW123279   2.416   3.731   1.297  0.8409  1.8841  3.7299
 3882SOL    HW223280   2.267   3.729   1.299 -1.9071  2.3710  2.7956
 3883SOL     OW23281   2.558   1.911   5.808 -0.0400  0.3358 -0.0970
 3883SOL    HW123282   2.481   1.900   5.864  1.0631  1.3978  1.6406
 3883SOL    HW223283   2.521   1.966   5.738 -2.3557 -0.5938  0.3851
 3884SOL     OW23284   0.890   0.706   5.951  0.2826  0.4446  0.5682
 3884SOL    HW123285   0.856   0.620   5.928 -3.5157  2.4113 -1.3302
 3884SOL    HW223286   0.819   0.770   5.935  2.9784  2.6300 -2.8297
 3885SOL     OW23287   3.833   4.348   9.437 -0.0110  0.1758  0.2373
 3885SOL    HW123288   3.787   4.303   9.508  1.0245 -1.1262  0.0716
 3885SOL    HW223289   3.852   4.432   9.478 -1.1105  0.0515  1.0119
 3886SOL     OW23290   3.522   2.411   6.826  0.2926  0.5117  0.4677
 3886SOL    HW123291   3.475   2.339   6.783 -0.0390  1.5838 -0.9804
 3886SOL    HW223292   3.449   2.456   6.869 -1.1441 -0.0416 -1.3593
 3887SOL     OW23293   2.740   1.198  12.558 -0.3317 -0.5193 -0.7817
 3887SOL    HW123294   2.819   1.154  12.525  1.8057  1.6745  1.4420
 3887SOL    HW223295   2.720   1.256  12.485  0.9783  0.4252 -0.3893
 3888SOL     OW23296   3.200   0.160   9.768 -0.1085 -0.1074 -0.1024
 3888SOL    HW123297   3.133   0.149   9.700  0.1703  0.3548 -0.4534
 3888SOL    HW223298   3.154   0.121   9.842  0.1666  0.2689  0.2679
 3889SOL     OW23299   0.169   1.918   8.639  0.2368 -0.1440 -0.4569
 3889SOL    HW123300   0.110   1.965   8.698 -0.6273 -1.9435  0.1234
 3889SOL    HW223301   0.253   1.952   8.668 -1.5425  3.7325  0.2277
 3890SOL     OW23302   3.764   2.680   9.442  0.3899 -0.9056 -0.4864
 3890SOL    HW123303   3.708   2.636   9.505  0.2601  0.2538  0.2148
 3890SOL    HW223304   3.810   2.605   9.403 -0.3416 -1.9948  0.7680
 3891SOL     OW23305   2.053   0.566   7.890  0.1443  0.1416 -0.0202
 3891SOL    HW123306   2.031   0.473   7.895 -1.1065  0.3964 -0.6669
 3891SOL    HW223307   2.056   0.600   7.979 -0.5884  1.5060 -0.5233
 3892SOL     OW23308   3.379   4.625  11.090 -0.0995  0.7480 -0.3266
 3892SOL    HW123309   3.324   4.580  11.153 -0.3738  0.4433 -0.7797
 3892SOL    HW223310   3.431   4.688  11.139 -3.2125  2.2152  1.0621
 3893SOL     OW23311   2.909   3.286   2.595 -0.1205  0.1956  0.4447
 3893SOL    HW123312   2.818   3.270   2.569  0.3158 -2.4732  0.5271
 3893SOL    HW223313   2.954   3.216   2.547  0.1838 -0.6002  1.8766
 3894SOL     OW23314   2.800   0.562  13.764  0.4418  0.0836 -0.1316
 3894SOL    HW123315   2.850   0.481  13.751  0.4956 -0.3225  2.4490
 3894SOL    HW223316   2.864   0.629  13.740 -1.0638  1.2065 -0.9357
 3895SOL     OW23317   4.092   0.064  13.702  0.1648  0.0075  0.7193
 3895SOL    HW123318   4.078   4.706  13.702  0.6095 -0.0588 -3.1357
 3895SOL    HW223319   4.083   0.088  13.795 -0.1714 -1.8691  1.1831
 3896SOL     OW23320   4.156   0.425   4.623  0.1420 -0.1360 -0.1545
 3896SOL    HW123321   4.214   0.357   4.656  0.1018  0.2456  0.7101
 3896SOL    HW223322   4.184   0.500   4.676 -0.5908  0.3069 -0.3934
 3897SOL     OW23323   0.842   3.472   7.624  0.0188 -0.5552 -0.4140
 3897SOL    HW123324   0.778   3.507   7.686  1.0990 -1.2633  1.0981
 3897SOL    HW223325   0.877   3.556   7.595  1.1066 -0.8251  0.1125
 3898SOL     OW23326   4.542   0.988   4.936  0.2402  0.0600 -0.0957
 3898SOL    HW123327   4.532   1.042   5.014  0.1877  2.0654 -1.5081
 3898SOL    HW223328   4.521   1.049   4.866  1.1920 -1.5918 -1.8372
 3899SOL     OW23329   1.555   4.241   8.992 -0.9175  0.1307 -0.1056
 3899SOL    HW123330   1.465   4.216   8.972  0.0423 -0.8692 -3.1424
 3899SOL    HW223331   1.570   4.207   9.080  0.6555 -1.8562 -1.1388
 3900SOL     OW23332   4.120   0.005   3.385 -1.1268 -0.1884 -0.3050
 3900SOL    HW123333   4.186   0.036   3.322 -0.5640  1.1284  0.9404
 3900SOL    HW223334   4.057   4.715   3.318  0.1311 -3.3912 -0.2356
 3901SOL     OW23335   2.856   0.463   7.952 -0.3578 -0.9854  0.1682
 3901SOL    HW123336   2.933   0.513   7.978  0.0255 -1.2257 -0.4998
 3901SOL    HW223337   2.873   0.437   7.862  0.1784 -1.8912  0.5329
 3902SOL     OW23338   4.067   3.028   6.011  0.6973 -0.1507 -0.2632
 3902SOL    HW123339   4.027   2.945   5.983 -0.3173  0.2089  0.1197
 3902SOL    HW223340   4.099   3.054   5.924  0.0795 -1.6187 -0.9303
 3903SOL     OW23341   2.938   1.498   2.877  0.7288  0.3762 -0.2639
 3903SOL    HW123342   2.966   1.586   2.902 -0.2260  0.0358  1.9610
 3903SOL    HW223343   3.011   1.438   2.889  1.2475  0.4413 -3.1638
 3904SOL     OW23344   1.763   3.489   9.018  0.1685 -0.5623 -0.0819
 3904SOL    HW123345   1.855   3.492   9.043 -0.2482 -0.0770  1.3882
 3904SOL    HW223346   1.721   3.522   9.098  1.4835  0.6409  0.1073
 3905SOL     OW23347   0.162   1.430   6.507 -0.1403 -0.4128  0.2770
 3905SOL    HW123348   0.233   1.477   6.552 -1.9221  1.0077  1.5686
 3905SOL    HW223349   0.214   1.359   6.468  1.1856  0.5911  0.2135
 3906SOL     OW23350   1.368   2.814   5.868 -0.2154  0.4247 -0.4365
 3906SOL    HW123351   1.291   2.786   5.917 -1.7496  1.5632 -2.2350
 3906SOL    HW223352   1.379   2.742   5.806 -3.4684 -0.2162 -0.2443
 3907SOL     OW23353   4.134   4.413   2.902 -0.4005 -0.3396 -0.2810
 3907SOL    HW123354   4.068   4.348   2.925 -0.6042 -0.5938 -1.5769
 3907SOL    HW223355   4.191   4.362   2.844  0.5921  1.4868 -0.9129
 3908SOL     OW23356   0.196   3.585   3.742  0.2793 -0.0526 -0.1041
 3908SOL    HW123357   0.118   3.568   3.796 -0.2627  1.0952 -0.5245
 3908SOL    HW223358   0.147   3.596   3.661 -0.2598 -0.3807  0.1725
 3909SOL     OW23359   4.363   2.395  11.324 -0.4017  0.4611 -0.8012
 3909SOL    HW123360   4.414   2.402  11.405 -3.1117 -2.6182  1.1751
 3909SOL    HW223361   4.433   2.383  11.259 -1.5106 -2.7749 -1.3912
 3910SOL     OW23362   1.061   1.854   3.841  0.5025 -0.2975 -0.7477
 3910SOL    HW123363   1.127   1.828   3.905  0.4073  0.4465 -0.3433
 3910SOL    HW223364   1.099   1.933   3.804  0.5181 -1.2601 -2.7701
 3911SOL     OW23365   0.401   2.600  15.599  0.4477  0.1651 -0.1327
 3911SOL    HW123366   0.408   2.572  15.508 -0.4589  1.5126 -0.6254
 3911SOL    HW223367   0.312   2.572  15.621  0.2034 -0.2245 -1.6227
 3912SOL     OW23368   1.585   4.721   1.696  0.4750  0.5706  0.2380
 3912SOL    HW123369   1.570   4.682   1.610 -0.3182  3.0177 -0.7477
 3912SOL    HW223370   1.505   4.703   1.744  0.9136 -1.7613  0.0656
 3913SOL     OW23371   1.843   0.380   8.094  0.1015 -0.0352 -0.1293
 3913SOL    HW123372   1.878   0.414   8.176  1.6487 -0.6222 -0.5515
 3913SOL    HW223373   1.796   0.460   8.069  2.4588  1.0192 -1.1590
 3914SOL     OW23374   4.555   1.087   2.745 -0.2583 -0.2877 -0.0065
 3914SOL    HW123375   4.509   1.019   2.794  1.7352 -1.2136  0.6049
 3914SOL    HW223376   4.517   1.076   2.658  1.4792 -1.9750 -0.5599
 3915SOL     OW23377   3.243   3.756   3.589 -0.0077  0.5588 -0.1804
 3915SOL    HW123378   3.281   3.673   3.619 -0.0103  1.2079  1.6050
 3915SOL    HW223379   3.179   3.724   3.526  0.0824  0.5728 -0.2777
 3916SOL     OW23380   3.963   1.805   5.961 -0.1952  0.4178  0.0109
 3916SOL    HW123381   3.895   1.739   5.947 -0.3628  1.2906 -3.2041
 3916SOL    HW223382   3.942   1.876   5.901 -2.0248  0.1235  0.3223
 3917SOL     OW23383   1.930   3.431   5.725  0.1928  0.0829  0.1504
 3917SOL    HW123384   1.857   3.370   5.738  1.1759 -0.9260  0.9013
 3917SOL    HW223385   1.879   3.506   5.693  2.5392  2.4418  1.9408
 3918SOL     OW23386   2.086   1.907   5.777  0.1471  0.4416  0.4437
 3918SOL    HW123387   1.994   1.904   5.751  0.3561 -1.5915 -0.0704
 3918SOL    HW223388   2.085   1.831   5.836 -2.3428  0.3781  0.2995
 3919SOL     OW23389   2.016   0.037   7.255  0.8062  0.1673 -0.1061
 3919SOL    HW123390   1.942   0.014   7.311  0.7683 -0.3743 -0.3728
 3919SOL    HW223391   2.028   0.130   7.272 -0.4191  0.1775  0.6790
 3920SOL     OW23392   0.856   3.347   2.415 -0.7372  0.6878 -0.3398
 3920SOL    HW123393   0.884   3.306   2.333 -0.5365  0.7367 -0.2959
 3920SOL    HW223394   0.932   3.404   2.425 -0.5680  0.4945 -0.5153
 3921SOL     OW23395   1.948   0.066   6.789  0.0171 -0.1696 -0.5734
 3921SOL    HW123396   1.874   0.073   6.850 -0.4171 -0.1031 -1.0990
 3921SOL    HW223397   1.981   0.155   6.792  1.6872 -0.7066 -3.1332
 3922SOL     OW23398   4.239   1.721  11.295 -0.7411 -0.5355 -0.0488
 3922SOL    HW123399   4.273   1.635  11.321  1.3942 -0.1844 -1.6218
 3922SOL    HW223400   4.321   1.756  11.258 -1.9730 -0.6416 -2.8942
 3923SOL     OW23401   1.803   3.021  16.674  0.5618 -0.4952 -0.2154
 3923SOL    HW123402   1.731   3.035  16.612  0.2374  0.8437  0.4644
 3923SOL    HW223403   1.768   3.074  16.745 -0.1467  1.0487 -1.7185
 3924SOL     OW23404   2.595   4.148   4.167  0.2322 -0.2873 -0.7299
 3924SOL    HW123405   2.500   4.146   4.180  0.4207  0.1988  0.6792
 3924SOL    HW223406   2.631   4.157   4.255 -0.7918 -1.2312 -0.2134
 3925SOL     OW23407   2.670   3.889   0.661  0.3388  0.3247  0.3207
 3925SOL    HW123408   2.612   3.891   0.738 -1.0076 -1.3237 -0.6572
 3925SOL    HW223409   2.725   3.964   0.684 -0.2801  0.6980  0.5930
 3926SOL     OW23410   3.779   1.741  11.027 -0.1746  0.4012  0.0035
 3926SOL    HW123411   3.841   1.732  11.100  0.1232  0.2976 -0.2646
 3926SOL    HW223412   3.785   1.656  10.983 -0.8444 -0.6582  1.9340
 3927SOL     OW23413   3.765   2.122  10.963  0.0604  0.0349 -0.0076
 3927SOL    HW123414   3.820   2.134  11.040  0.2452 -0.4899 -0.0587
 3927SOL    HW223415   3.686   2.122  11.017 -0.6766 -2.8077 -1.0702
 3928SOL     OW23416   3.847   4.384   7.340 -0.5204 -0.1582  0.0482
 3928SOL    HW123417   3.859   4.354   7.430 -1.1562 -4.6394 -1.3733
 3928SOL    HW223418   3.838   4.300   7.297 -0.8187  0.1228 -0.4393
 3929SOL     OW23419   1.679   1.687   4.929 -0.1450 -0.7916 -0.0904
 3929SOL    HW123420   1.773   1.685   4.948 -0.4421  0.5300  1.5557
 3929SOL    HW223421   1.666   1.593   4.937 -0.4453 -0.7173  0.2706
 3930SOL     OW23422   0.923   2.575   7.432  0.2135 -0.0773 -0.5371
 3930SOL    HW123423   0.833   2.594   7.459 -0.0233  2.0441 -2.9158
 3930SOL    HW223424   0.978   2.646   7.464 -0.5823  0.0795  0.5130
 3931SOL     OW23425   2.510   4.216   6.257 -0.4798 -0.4084 -0.5208
 3931SOL    HW123426   2.483   4.306   6.276  1.6185 -0.0143  0.5600
 3931SOL    HW223427   2.492   4.213   6.163  1.1765  0.0064 -0.8549
 3932SOL     OW23428   2.598   1.056   2.412 -0.3650 -0.3754  0.2852
 3932SOL    HW123429   2.555   0.971   2.427 -1.6192  0.4906  1.5985
 3932SOL    HW223430   2.528   1.119   2.400 -1.2104 -1.0596  1.6502
 3933SOL     OW23431   4.101   1.524   5.347  0.1670  0.5629  0.2410
 3933SOL    HW123432   4.177   1.469   5.365 -1.7159 -1.3215  2.5261
 3933SOL    HW223433   4.141   1.599   5.303  0.9902 -0.6451 -1.0349
 3934SOL     OW23434   2.984   3.853   9.823 -0.0548 -0.0458 -0.4021
 3934SOL    HW123435   3.024   3.893   9.901 -0.2250 -0.3838 -0.1415
 3934SOL    HW223436   3.022   3.924   9.771  0.8038  0.3636  0.7687
 3935SOL     OW23437   1.025   1.091   3.107  0.3876 -0.5704 -0.2675
 3935SOL    HW123438   0.983   1.018   3.061  1.3860 -0.4768 -1.3273
 3935SOL    HW223439   0.991   1.085   3.196  0.6124 -0.3875 -0.1681
 3936SOL     OW23440   1.260   2.061  15.847  0.1329 -0.0860  0.0030
 3936SOL    HW123441   1.223   2.012  15.774  3.0200  0.8842 -2.0968
 3936SOL    HW223442   1.323   2.116  15.801  0.8279 -0.1123  0.9223
 3937SOL     OW23443   1.323   1.426   3.185 -0.2830 -0.0273 -0.6538
 3937SOL    HW123444   1.235   1.398   3.213  0.0979 -0.2600  0.3036
 3937SOL    HW223445   1.373   1.444   3.264  0.5652  1.7225 -1.5842
 3938SOL     OW23446   0.497   1.398   1.362  0.3747 -0.0163  0.0827
 3938SOL    HW123447   0.554   1.358   1.427 -1.9401 -0.6140  1.7647
 3938SOL    HW223448   0.454   1.324   1.319  1.1590 -1.0038  0.9965
 3939SOL     OW23449   1.668   0.642   6.015 -0.5400  0.2515 -0.2577
 3939SOL    HW123450   1.730   0.570   6.007 -1.7738 -0.7870 -0.5498
 3939SOL    HW223451   1.723   0.710   6.054 -0.0981 -0.0823 -0.2983
 3940SOL     OW23452   3.053   4.283   9.286 -0.1281 -0.5929  0.0769
 3940SOL    HW123453   2.978   4.224   9.275  2.4961 -4.3240  1.9588
 3940SOL    HW223454   3.126   4.235   9.246  0.0212  0.0082 -0.3686
 3941SOL     OW23455   1.646   4.591   4.816 -0.2499  0.1888  0.2061
 3941SOL    HW123456   1.596   4.596   4.734  0.6846  2.3701 -0.2575
 3941SOL    HW223457   1.583   4.571   4.885 -0.0004  0.9850  0.6690
 3942SOL     OW23458   2.441   4.424   4.287 -0.5801 -0.3390  0.4810
 3942SOL    HW123459   2.383   4.500   4.294  0.1017  0.2947 -0.6848
 3942SOL    HW223460   2.391   4.349   4.255 -1.5509 -0.3201  1.9424
 3943SOL     OW23461   1.001   0.373   3.763 -0.4506 -0.2430  0.0037
 3943SOL    HW123462   1.015   0.314   3.688 -0.6385 -2.5812  1.7912
 3943SOL    HW223463   1.020   0.458   3.723 -2.5125  0.1821 -0.0869
 3944SOL     OW23464   0.456   2.428   3.128  0.0712  0.4921  0.4459
 3944SOL    HW123465   0.421   2.341   3.148  0.4233 -0.1392 -1.6013
 3944SOL    HW223466   0.469   2.461   3.216 -0.8714 -1.0303  1.1543
 3945SOL     OW23467   4.009   2.826   3.527  0.2090 -0.3414  0.3420
 3945SOL    HW123468   4.087   2.796   3.574 -0.7131  2.0061  3.4532
 3945SOL    HW223469   3.961   2.854   3.606 -1.9570  1.3920 -1.5960
 3946SOL     OW23470   4.268   1.646   1.469  0.0790 -0.1280  0.2632
 3946SOL    HW123471   4.238   1.730   1.433  2.9497  0.6819 -0.2544
 3946SOL    HW223472   4.255   1.607   1.383 -0.7956 -1.9137  1.2123
 3947SOL     OW23473   0.959   1.830   0.349 -0.0146  0.5059 -0.4404
 3947SOL    HW123474   1.009   1.909   0.373  0.2065 -0.0452  0.8912
 3947SOL    HW223475   1.024   1.765   0.374  0.4154  0.1341 -2.5199
 3948SOL     OW23476   1.890   1.053   5.244 -0.0873  0.7324  0.0479
 3948SOL    HW123477   1.806   1.015   5.272  0.6396 -0.8949  0.0387
 3948SOL    HW223478   1.919   1.091   5.327  1.5540  1.1348 -0.7215
 3949SOL     OW23479   2.938   1.720   4.069 -0.1547 -0.0627 -0.3728
 3949SOL    HW123480   2.981   1.768   4.140 -0.6440  1.5841 -1.1942
 3949SOL    HW223481   2.923   1.637   4.115 -1.9015  0.1116 -0.6544
 3950SOL     OW23482   0.805   2.709   4.680 -0.4871  0.2123 -0.2437
 3950SOL    HW123483   0.763   2.782   4.725  2.6311  1.1125  1.1907
 3950SOL    HW223484   0.827   2.743   4.593 -1.3504 -0.2529 -0.6513
 3951SOL     OW23485   0.237   4.233   3.266  0.2105  0.4646 -0.3199
 3951SOL    HW123486   0.223   4.268   3.178  5.2569 -0.5324 -1.5233
 3951SOL    HW223487   0.332   4.223   3.258  0.0328  0.0073 -1.8249
 3952SOL     OW23488   0.773   0.995   9.287  0.5242  0.1240 -0.2115
 3952SOL    HW123489   0.831   1.041   9.348 -2.2764  2.5675  0.6232
 3952SOL    HW223490   0.694   0.979   9.338  1.1042 -0.4288  0.5140
 3953SOL     OW23491   0.279   1.505   7.483 -0.1505 -0.2067  0.1355
 3953SOL    HW123492   0.200   1.469   7.442 -0.8148  0.9325  0.4200
 3953SOL    HW223493   0.285   1.456   7.565  0.0487  2.6842  1.8483
 3954SOL     OW23494   0.115   2.233   5.010 -0.5531  0.2066  0.0197
 3954SOL    HW123495   0.096   2.198   5.097  0.9536 -0.8891 -0.1007
 3954SOL    HW223496   0.110   2.157   4.952  2.3609  0.9319 -1.1578
 3955SOL     OW23497   4.009   0.926   4.302 -0.1664 -0.7133  0.5105
 3955SOL    HW123498   4.090   0.971   4.326 -1.3365  0.4078  2.3993
 3955SOL    HW223499   3.954   1.004   4.292  1.7771  0.5338 -0.2801
 3956SOL     OW23500   3.769   1.300   3.617  0.2117 -0.2981  0.2638
 3956SOL    HW123501   3.783   1.368   3.551 -0.5977 -1.5128 -1.1531
 3956SOL    HW223502   3.848   1.247   3.606  0.0463 -0.5904  0.5090
 3957SOL     OW23503   0.352   3.432   7.017 -0.5584  0.7117  0.0030
 3957SOL    HW123504   0.435   3.399   7.051  0.2697  1.4791 -1.2814
 3957SOL    HW223505   0.346   3.383   6.935  0.7672  1.4539 -0.5330
 3958SOL     OW23506   2.991   2.250   4.501  0.3155  0.0931  0.2365
 3958SOL    HW123507   2.920   2.227   4.441 -0.6325 -0.4402  1.5678
 3958SOL    HW223508   3.044   2.170   4.504 -0.8299 -0.6628  0.2506
 3959SOL     OW23509   2.189   2.360   8.789  0.0333  0.0958  0.5611
 3959SOL    HW123510   2.250   2.301   8.834  1.2676 -0.6392 -2.0921
 3959SOL    HW223511   2.166   2.311   8.710  1.1722  1.2034 -0.4457
 3960SOL     OW23512   0.435   1.412   2.701 -0.3662  0.0167  0.0435
 3960SOL    HW123513   0.503   1.457   2.651 -1.1085 -0.9991 -1.8624
 3960SOL    HW223514   0.357   1.462   2.681  0.0577  2.0081  3.3757
 3961SOL     OW23515   0.586   2.232  14.931  0.0025  0.3101 -0.2042
 3961SOL    HW123516   0.672   2.258  14.898  0.9464 -0.5281  1.6434
 3961SOL    HW223517   0.581   2.141  14.902 -0.1888  0.3034 -0.1550
 3962SOL     OW23518   2.671   1.319   1.644  0.1528  0.0246 -0.0426
 3962SOL    HW123519   2.712   1.321   1.730 -0.9096  1.3066  0.4373
 3962SOL    HW223520   2.684   1.228   1.615 -0.3851  0.5770 -1.9875
 3963SOL     OW23521   3.497   3.668   6.761 -0.1866  0.1421 -0.4996
 3963SOL    HW123522   3.466   3.676   6.671  0.9993  0.3364 -0.8950
 3963SOL    HW223523   3.542   3.584   6.770 -1.0607 -0.3086 -0.3111
 3964SOL     OW23524   0.155   3.417   8.233  0.4442 -0.5401 -0.4584
 3964SOL    HW123525   0.175   3.473   8.158 -0.6187 -1.2369 -1.2730
 3964SOL    HW223526   0.233   3.427   8.287 -1.0543  0.5487  1.5273
 3965SOL     OW23527   4.397   0.354  16.076 -0.1426  0.7880 -0.3284
 3965SOL    HW123528   4.471   0.415  16.070  0.7608 -0.2412  0.4364
 3965SOL    HW223529   4.387   0.359  16.171  0.0536  0.2276 -0.2776
 3966SOL     OW23530   3.483   2.680   4.194  0.4075 -0.7855  0.0064
 3966SOL    HW123531   3.420   2.751   4.183  1.4607  0.8890  4.7138
 3966SOL    HW223532   3.476   2.657   4.286  1.2454 -0.7423  0.0869
 3967SOL     OW23533   3.325   4.706   5.610 -0.4110 -0.0899  0.0335
 3967SOL    HW123534   3.416   4.679   5.603 -0.9858 -2.6480  2.5881
 3967SOL    HW223535   3.314   4.704   5.705 -2.5800  0.6132 -0.1901
 3968SOL     OW23536   4.326   3.725   4.443  0.7115  0.3111 -0.0572
 3968SOL    HW123537   4.257   3.784   4.412 -1.6290 -0.1411  4.1578
 3968SOL    HW223538   4.314   3.647   4.390 -1.3471  0.8544 -0.4201
 3969SOL     OW23539   1.073   1.832  10.383  0.2191  0.0127  0.2849
 3969SOL    HW123540   1.126   1.859  10.308 -0.7529  2.0982  0.3612
 3969SOL    HW223541   1.092   1.904  10.444 -2.3431 -0.4239  1.5943
 3970SOL     OW23542   0.392   4.116   4.838 -0.2415 -0.3638  0.0140
 3970SOL    HW123543   0.405   4.211   4.842 -0.1702 -0.3378 -0.8025
 3970SOL    HW223544   0.389   4.093   4.931 -0.2200 -0.7689 -0.0863
 3971SOL     OW23545   4.064   1.459  15.608 -0.1729 -0.2947 -0.8450
 3971SOL    HW123546   4.043   1.441  15.516  0.4338  1.5077 -1.3261
 3971SOL    HW223547   4.039   1.551  15.617  0.5406 -0.2343  0.4869
 3972SOL     OW23548   2.495   0.051   3.189  0.3620  0.0408  0.4153
 3972SOL    HW123549   2.576   0.007   3.167 -0.8259 -2.3292  0.7109
 3972SOL    HW223550   2.519   0.144   3.191 -1.5412  0.5264  1.2713
 3973SOL     OW23551   0.450   0.610   9.593  0.4995  0.2208  0.1941
 3973SOL    HW123552   0.369   0.645   9.630 -0.5061 -2.3167  0.3889
 3973SOL    HW223553   0.418   0.520   9.596  0.2135  0.3492  0.9430
 3974SOL     OW23554   2.183   2.480   5.635  0.4690 -0.1744 -0.0261
 3974SOL    HW123555   2.263   2.499   5.685  0.4346  2.7542 -1.0538
 3974SOL    HW223556   2.174   2.561   5.584 -3.2618  0.2518  1.3238
 3975SOL     OW23557   0.950   0.264  12.225  0.3161  0.8809  0.4708
 3975SOL    HW123558   1.011   0.191  12.241  0.6020  1.3063  1.2824
 3975SOL    HW223559   0.941   0.251  12.131 -0.2984 -0.4478  0.7170
 3976SOL     OW23560   3.349   3.093  13.114 -0.5173 -0.2775 -0.2935
 3976SOL    HW123561   3.285   3.022  13.114 -0.8809  0.0594  0.5235
 3976SOL    HW223562   3.345   3.112  13.207 -2.1454 -1.5873 -0.0921
 3977SOL     OW23563   4.671   1.937   0.850  0.4631 -0.2028 -0.0416
 3977SOL    HW123564   4.720   1.856   0.864 -0.8630 -1.0986 -0.5396
 3977SOL    HW223565   4.582   1.920   0.881  0.3174  0.8922  0.1166
 3978SOL     OW23566   3.637   3.439   1.259  0.9089  0.0273  0.2531
 3978SOL    HW123567   3.562   3.387   1.288  0.4866  0.8472  0.6327
 3978SOL    HW223568   3.590   3.519   1.234  1.7420 -0.0623 -1.5975
 3979SOL     OW23569   3.158   2.777  10.079 -0.0456  0.5925  0.9227
 3979SOL    HW123570   3.108   2.718  10.022  0.5557  2.5625 -1.6410
 3979SOL    HW223571   3.085   2.802  10.136 -0.0935  2.3472  0.0732
 3980SOL     OW23572   1.502   3.143   2.339  0.2343 -0.0436 -0.5325
 3980SOL    HW123573   1.475   3.197   2.264  1.5795  1.1568 -0.1498
 3980SOL    HW223574   1.593   3.169   2.351 -0.3207  1.7974 -0.2103
 3981SOL     OW23575   3.343   4.358   0.430  0.0863 -0.5498 -0.0444
 3981SOL    HW123576   3.438   4.364   0.427  0.0285  0.2716 -0.2527
 3981SOL    HW223577   3.324   4.367   0.337 -0.2756 -1.9820 -0.1007
 3982SOL     OW23578   1.807   3.569   6.056 -0.5053 -0.1768  0.2504
 3982SOL    HW123579   1.815   3.490   6.108 -0.7501 -1.0773 -1.0860
 3982SOL    HW223580   1.732   3.548   6.001 -0.4647 -5.2333  2.1775
 3983SOL     OW23581   4.712   1.237   6.874 -0.5983  0.0970 -0.0705
 3983SOL    HW123582   4.696   1.204   6.962 -1.1218  1.2335  0.2656
 3983SOL    HW223583   4.693   1.331   6.884 -0.3677  0.1223  0.1316
 3984SOL     OW23584   3.096   1.950   5.733 -0.1625 -0.1853 -0.5030
 3984SOL    HW123585   3.076   2.009   5.806 -1.0235  0.1159 -0.9891
 3984SOL    HW223586   3.010   1.957   5.693 -1.0566 -2.1088  1.0546
 3985SOL     OW23587   0.683   2.376   3.014 -0.3487  0.7834 -0.8253
 3985SOL    HW123588   0.731   2.425   3.081 -0.2995 -0.0736 -0.2303
 3985SOL    HW223589   0.593   2.390   3.045 -0.4520 -0.0907 -0.7315
 3986SOL     OW23590   1.706   0.448   3.813 -0.0365 -0.3446  0.0024
 3986SOL    HW123591   1.682   0.520   3.871  3.6980  0.3083  0.7644
 3986SOL    HW223592   1.771   0.495   3.761 -1.6167  2.4570  0.5582
 3987SOL     OW23593   2.095   3.170  14.416  0.2746  0.0819  0.2122
 3987SOL    HW123594   2.170   3.122  14.451  0.7488  0.5125 -0.2104
 3987SOL    HW223595   2.091   3.124  14.332 -1.0366 -0.2439  0.4622
 3988SOL     OW23596   2.083   2.784   7.059  0.0468  0.3870  0.2185
 3988SOL    HW123597   1.998   2.758   7.095 -1.2604  2.1938 -1.5083
 3988SOL    HW223598   2.058   2.774   6.967 -0.3246 -1.0325  0.4869
 3989SOL     OW23599   2.282   2.148   7.835  0.5628  0.6924 -0.0821
 3989SOL    HW123600   2.316   2.088   7.901 -1.3444  1.1430  1.3211
 3989SOL    HW223601   2.357   2.170   7.780 -0.5451  4.8918  0.0848
 3990SOL     OW23602   1.392   3.413  16.610 -1.0436 -0.2227  0.3188
 3990SOL    HW123603   1.313   3.452  16.648 -0.7909  0.4787  0.1302
 3990SOL    HW223604   1.362   3.375  16.527 -0.0120 -0.5767  0.1082
 3991SOL     OW23605   3.555   0.981  13.355 -0.1388  0.3382 -0.3069
 3991SOL    HW123606   3.629   1.034  13.326 -0.0307  0.4884  0.2435
 3991SOL    HW223607   3.535   1.017  13.441  0.0441 -3.0281  1.1503
 3992SOL     OW23608   3.575   1.113   0.119  0.0903  0.1698  0.7227
 3992SOL    HW123609   3.611   1.031   0.154 -0.5497  0.9528  3.2370
 3992SOL    HW223610   3.530   1.088   0.039  1.0020  1.0012 -0.0478
 3993SOL     OW23611   0.744   2.663   1.261 -0.3699 -0.1913  0.3749
 3993SOL    HW123612   0.761   2.632   1.350 -1.1662 -2.0241 -0.1114
 3993SOL    HW223613   0.768   2.755   1.275  0.8467 -0.9680  3.3426
 3994SOL     OW23614   2.627   1.691  11.896 -0.1365  0.3516 -0.3211
 3994SOL    HW123615   2.646   1.775  11.937 -1.7330  1.0779 -1.0837
 3994SOL    HW223616   2.536   1.670  11.919 -0.1442  0.3115 -0.3866
 3995SOL     OW23617   2.170   1.491   2.566  0.0352  0.4460  0.2128
 3995SOL    HW123618   2.239   1.493   2.500 -1.3912  1.2617 -1.2560
 3995SOL    HW223619   2.175   1.400   2.594 -1.9660 -0.3737 -2.0636
 3996SOL     OW23620   2.437   3.958   0.065  0.5556  0.6113 -0.3589
 3996SOL    HW123621   2.468   4.009   0.140  1.3282 -2.5947  1.4973
 3996SOL    HW223622   2.400   3.891   0.123 -0.4188  0.2593 -1.3972
 3997SOL     OW23623   1.198   0.076   5.152  0.3101  0.7734 -0.6928
 3997SOL    HW123624   1.107   0.047   5.151  0.2413  0.9775  0.3539
 3997SOL    HW223625   1.226   0.053   5.241  1.9845 -0.9118 -1.6458
 3998SOL     OW23626   2.077   3.082  11.168  0.5929 -0.4461 -0.1609
 3998SOL    HW123627   2.123   3.013  11.214 -0.6510 -1.6564 -0.7432
 3998SOL    HW223628   2.089   3.063  11.075  1.2443  1.7773 -0.5498
 3999SOL     OW23629   2.353   3.375   3.151  0.2574  0.0452 -0.1342
 3999SOL    HW123630   2.321   3.461   3.179  1.5153  0.0039  1.4309
 3999SOL    HW223631   2.377   3.332   3.233  1.2213  0.2428 -0.3095
 4000SOL     OW23632   0.056   2.365   3.474 -0.5882  0.1326  0.0903
 4000SOL    HW123633   0.109   2.295   3.435  0.3831 -0.7971  3.0453
 4000SOL    HW223634   0.123   2.426   3.505  0.3132 -0.3865 -0.8214
 4001SOL     OW23635   3.778   2.702   3.423  0.7113 -0.3074  0.2206
 4001SOL    HW123636   3.868   2.709   3.455  0.3723 -1.7246  1.4839
 4001SOL    HW223637   3.760   2.795   3.434  4.4673  0.2571  1.6283
 4002SOL     OW23638   4.563   1.634   9.727  0.7269 -0.1404  0.0840
 4002SOL    HW123639   4.601   1.547   9.713 -3.6231 -1.7496 -1.6161
 4002SOL    HW223640   4.612   1.648   9.808 -0.0341 -1.4121  0.7688
 4003SOL     OW23641   2.344   0.302   4.906 -0.2148 -0.8394  0.1488
 4003SOL    HW123642   2.251   0.302   4.885 -0.2796  0.0604  0.4302
 4003SOL    HW223643   2.368   0.378   4.852  1.3890 -1.7745 -0.4876
 4004SOL     OW23644   0.133   1.728   4.186 -0.4174 -0.1197 -0.0320
 4004SOL    HW123645   0.200   1.683   4.134 -0.8350 -0.6894 -0.0804
 4004SOL    HW223646   0.061   1.722   4.123 -0.4736 -0.9784  0.1096
 4005SOL     OW23647   3.727   2.705   2.789 -0.3975  0.2158 -0.4955
 4005SOL    HW123648   3.716   2.673   2.879  1.0543 -0.9546 -0.7339
 4005SOL    HW223649   3.795   2.772   2.799 -0.8439  0.5462  0.3313
 4006SOL     OW23650   2.279   4.170  15.726 -0.0567 -0.0432 -0.2098
 4006SOL    HW123651   2.243   4.092  15.684 -1.5369  0.9314 -0.7513
 4006SOL    HW223652   2.360   4.169  15.675  0.2115  2.9003  0.1238
 4007SOL     OW23653   3.927   3.152   4.526 -0.4512 -0.2547 -0.4519
 4007SOL    HW123654   3.887   3.225   4.477  0.1503  1.8883  2.2488
 4007SOL    HW223655   3.855   3.149   4.589  0.6892  1.6727  0.9585
 4008SOL     OW23656   0.119   2.927   4.723 -0.2290  0.8511 -0.2054
 4008SOL    HW123657   0.134   2.882   4.807  0.7230 -1.0787 -1.4170
 4008SOL    HW223658   0.094   2.859   4.661 -0.4081 -0.3460  1.1834
 4009SOL     OW23659   3.859   3.379   7.765  0.1482  0.0875  0.4437
 4009SOL    HW123660   3.950   3.357   7.747 -0.8746 -1.9855 -2.0832
 4009SOL    HW223661   3.847   3.465   7.724 -0.9684 -0.5975 -0.6636
 4010SOL     OW23662   3.049   2.323   8.400  0.2143 -0.1605 -0.0542
 4010SOL    HW123663   3.086   2.264   8.466 -0.5085 -0.8040 -0.2182
 4010SOL    HW223664   3.056   2.271   8.320 -1.0537  0.4892 -0.5866
 4011SOL     OW23665   2.064   0.804   6.434  0.0839  0.1264 -0.2025
 4011SOL    HW123666   2.141   0.751   6.417  0.7698  0.9168  0.4617
 4011SOL    HW223667   2.003   0.738   6.400  1.1346 -0.8499 -0.1656
 4012SOL     OW23668   2.339   0.518   8.333 -0.0741  0.0253 -0.6023
 4012SOL    HW123669   2.387   0.479   8.406  0.7885  1.1284 -0.5925
 4012SOL    HW223670   2.374   0.478   8.253 -2.0238 -0.3052 -1.2944
 4013SOL     OW23671   0.306   4.028   7.381 -0.1470 -0.2031 -0.2014
 4013SOL    HW123672   0.218   4.059   7.402  0.6219  2.5485 -1.1308
 4013SOL    HW223673   0.280   3.980   7.302 -0.4658 -0.7333  0.2201
 4014SOL     OW23674   4.317   3.937   4.051  1.0769 -0.0644 -0.1590
 4014SOL    HW123675   4.305   4.011   4.111  2.4205  0.0037  0.0235
 4014SOL    HW223676   4.256   3.955   3.980 -0.4492 -0.5139  1.0133
 4015SOL     OW23677   3.709   2.484   9.075 -0.3408 -0.2706 -0.2861
 4015SOL    HW123678   3.681   2.480   9.166  1.7154 -2.1928  0.2719
 4015SOL    HW223679   3.661   2.414   9.030 -2.4770 -0.7046  2.6422
 4016SOL     OW23680   1.610   2.353   7.316 -0.1454  0.3440 -0.4935
 4016SOL    HW123681   1.561   2.308   7.248 -0.9913  0.5928 -0.0546
 4016SOL    HW223682   1.631   2.280   7.375 -0.2101  0.4275 -0.3663
 4017SOL     OW23683   3.237   3.369  11.777  0.0536  0.4264  0.2154
 4017SOL    HW123684   3.162   3.428  11.784  0.2767  0.5737  1.3810
 4017SOL    HW223685   3.282   3.397  11.697  1.8622  2.3087  1.8949
 4018SOL     OW23686   4.284   3.805  13.735 -0.0669 -0.6740  0.1513
 4018SOL    HW123687   4.242   3.873  13.788  0.5153 -0.5820  0.4906
 4018SOL    HW223688   4.281   3.836  13.645 -2.2882  0.3281  0.5560
 4019SOL     OW23689   3.743   2.531   0.845 -0.5456  0.1909 -0.4303
 4019SOL    HW123690   3.769   2.502   0.933 -2.7898  0.8834  0.4670
 4019SOL    HW223691   3.807   2.602   0.839 -0.5009  0.2831  1.0955
 4020SOL     OW23692   0.088   1.924   4.387 -0.4444  0.1364  0.0190
 4020SOL    HW123693   0.124   2.012   4.377  1.6602 -0.6472  0.7332
 4020SOL    HW223694   0.085   1.887   4.299 -2.1751  0.9355 -0.2641
 4021SOL     OW23695   3.399   0.302  11.972 -1.0393 -0.3748 -0.3562
 4021SOL    HW123696   3.385   0.243  12.047 -1.2955 -0.5843 -0.5688
 4021SOL    HW223697   3.314   0.345  11.964 -0.7725  0.2540  0.1277
 4022SOL     OW23698   3.266   0.127   4.759  0.4679  0.3416 -0.4918
 4022SOL    HW123699   3.357   0.157   4.759  0.6236 -0.1329  0.1107
 4022SOL    HW223700   3.232   0.155   4.843 -0.0081  0.6239 -0.7767
 4023SOL     OW23701   0.185   3.858   6.557 -0.6838 -0.7418  0.1842
 4023SOL    HW123702   0.203   3.769   6.528  1.1634  0.3843 -2.1165
 4023SOL    HW223703   0.097   3.870   6.521 -1.1153 -0.0360  1.4904
 4024SOL     OW23704   0.633   3.011  12.174 -0.5190  0.1014 -0.0392
 4024SOL    HW123705   0.685   3.082  12.211 -1.0432  0.1058  0.6834
 4024SOL    HW223706   0.551   3.051  12.203 -0.5937  0.0106 -0.1239
 4025SOL     OW23707   1.928   3.931  11.171 -0.6445 -0.1310 -0.6292
 4025SOL    HW123708   1.966   3.905  11.255 -0.1981  0.3793 -0.6735
 4025SOL    HW223709   1.891   4.014  11.201 -2.5109 -0.3969 -2.2485
 4026SOL     OW23710   3.587   0.086   1.486 -0.0628  0.9098 -0.2266
 4026SOL    HW123711   3.640   0.104   1.409 -0.5408  2.8819 -0.0929
 4026SOL    HW223712   3.620   0.154   1.545  1.0552 -0.2260  0.4705
 4027SOL     OW23713   2.253   2.689   3.065  0.7993 -0.2478 -0.0109
 4027SOL    HW123714   2.245   2.783   3.081 -1.4754 -0.3350 -0.6200
 4027SOL    HW223715   2.333   2.688   3.013  1.2856 -1.0707  0.7425
 4028SOL     OW23716   1.411   2.077   8.933 -0.5715  0.3313  0.4151
 4028SOL    HW123717   1.367   2.095   9.017 -0.6879  0.5656  0.3021
 4028SOL    HW223718   1.361   2.001   8.902 -1.6597  0.7540  1.1098
 4029SOL     OW23719   0.055   3.111   7.926 -0.0159 -0.0658 -0.3375
 4029SOL    HW123720   0.051   3.046   7.997 -0.1023 -0.2223 -0.4849
 4029SOL    HW223721   0.133   3.162   7.945  1.2909 -1.1912 -2.6407
 4030SOL     OW23722   2.740   2.233   7.297 -0.1978 -0.9368  0.0408
 4030SOL    HW123723   2.766   2.146   7.328 -1.9692 -1.3878  0.2713
 4030SOL    HW223724   2.645   2.236   7.305 -0.0136  1.6372  1.0927
 4031SOL     OW23725   4.237   2.115   0.313  0.0363  0.6310 -0.1381
 4031SOL    HW123726   4.149   2.076   0.318  0.7650 -1.2277 -1.4684
 4031SOL    HW223727   4.246   2.108   0.217  1.2244  1.1704 -0.0641
 4032SOL     OW23728   0.113   1.656  16.738  0.3133  0.2798  0.3926
 4032SOL    HW123729   0.073   1.577  16.776  2.0162  1.2343  4.2251
 4032SOL    HW223730   0.169   1.618  16.670 -0.3299 -0.0237  0.0377
 4033SOL     OW23731   4.091   3.134   3.618  0.6729  0.2309  0.8098
 4033SOL    HW123732   4.162   3.077   3.649  1.2670  1.2126  1.2482
 4033SOL    HW223733   4.097   3.109   3.525  1.7815  0.8360  0.7206
 4034SOL     OW23734   3.812   2.997   8.329  0.0472  0.3521  0.0235
 4034SOL    HW123735   3.738   2.941   8.354  0.6402  1.1528  3.5233
 4034SOL    HW223736   3.882   2.962   8.383 -0.9869 -2.3646 -0.3951
 4035SOL     OW23737   3.963   4.213   6.098  0.1763 -0.7923  1.0259
 4035SOL    HW123738   3.943   4.152   6.169  0.0427 -1.7580  0.1671
 4035SOL    HW223739   4.058   4.219   6.099  0.0079  1.5709  2.7217
 4036SOL     OW23740   0.682   4.158   8.943  0.1473  0.0813  0.0609
 4036SOL    HW123741   0.674   4.230   8.880 -1.7376 -0.1853  0.0004
 4036SOL    HW223742   0.666   4.083   8.885  0.8567  0.8402 -1.1286
 4037SOL     OW23743   0.087   1.139   2.735  0.0675  0.3685  0.3661
 4037SOL    HW123744   4.734   1.108   2.725  0.0511  0.6758 -0.4423
 4037SOL    HW223745   0.128   1.073   2.680 -0.3070  1.3024 -1.0197
 4038SOL     OW23746   4.735   2.937   9.751  0.2504 -0.1839 -0.2137
 4038SOL    HW123747   4.660   2.954   9.694 -0.8574  0.9824  1.6267
 4038SOL    HW223748   4.699   2.869   9.808  1.8179 -0.9898 -0.1869
 4039SOL     OW23749   2.023   0.301  13.226 -0.5968 -0.4958  0.7439
 4039SOL    HW123750   2.002   0.246  13.150  1.8753  0.4363 -0.6175
 4039SOL    HW223751   2.017   0.235  13.294 -0.4851 -2.7416 -1.4510
 4040SOL     OW23752   3.467   3.190  14.683  0.7101  0.0967  0.0647
 4040SOL    HW123753   3.371   3.185  14.689  1.0398 -1.5061  3.7746
 4040SOL    HW223754   3.477   3.264  14.744  3.2230  1.2729 -1.7574
 4041SOL     OW23755   0.955   0.260  11.637 -0.0728  0.7381  0.1674
 4041SOL    HW123756   0.983   0.345  11.673  1.5329  1.2169 -2.1966
 4041SOL    HW223757   0.990   0.192  11.695 -0.7615 -0.9254 -1.3895
 4042SOL     OW23758   1.359   4.402   8.656 -0.0707  0.1813 -0.1659
 4042SOL    HW123759   1.437   4.380   8.707 -0.5076 -2.2364 -0.5531
 4042SOL    HW223760   1.349   4.322   8.604 -1.3662  1.5445 -2.0066
 4043SOL     OW23761   3.643   0.448   9.086 -0.7475 -0.4025  0.4676
 4043SOL    HW123762   3.716   0.429   9.027 -0.5930  1.9764 -0.0979
 4043SOL    HW223763   3.684   0.420   9.168  1.1919 -0.8637 -0.6611
 4044SOL     OW23764   0.169   2.412   8.913 -0.0192 -0.1001 -0.3627
 4044SOL    HW123765   0.103   2.455   8.858 -0.1539  0.7044  0.4385
 4044SOL    HW223766   0.163   2.474   8.985  1.8232 -1.5924  1.0724
 4045SOL     OW23767   1.302   3.622  17.660  0.1274  0.0347  0.5425
 4045SOL    HW123768   1.294   3.702  17.609 -1.4601  0.1814  1.0199
 4045SOL    HW223769   1.391   3.630  17.695  0.8053  0.1231 -1.1848
 4046SOL     OW23770   1.856   0.443  10.921 -0.3063  0.0731 -0.1507
 4046SOL    HW123771   1.857   0.369  10.859  1.3174 -0.1774  0.1862
 4046SOL    HW223772   1.764   0.468  10.918 -0.0001  1.1314 -0.4363
 4047SOL     OW23773   3.920   3.823   7.895  0.7286  0.2011  0.3425
 4047SOL    HW123774   3.925   3.888   7.965 -1.4957  1.7824 -0.9693
 4047SOL    HW223775   3.981   3.844   7.824 -0.9254 -0.1837 -1.2109
 4048SOL     OW23776   1.535   2.165   3.968  0.6577 -0.5884 -0.0592
 4048SOL    HW123777   1.489   2.129   3.892  2.9526 -1.1592 -1.1741
 4048SOL    HW223778   1.598   2.094   3.976  1.9600  0.3951 -1.5953
 4049SOL     OW23779   3.764   3.362   5.773 -0.2125  0.1889  0.4312
 4049SOL    HW123780   3.699   3.387   5.839 -1.5134  4.7723 -2.5821
 4049SOL    HW223781   3.810   3.444   5.756  1.0439 -0.8223 -1.0597
 4050SOL     OW23782   2.055   4.032  10.002  0.6635 -0.3252  0.1834
 4050SOL    HW123783   2.147   4.056   9.995  0.5882 -0.5486 -1.6379
 4050SOL    HW223784   2.050   3.937  10.007  0.5615 -0.3199  0.1799
 4051SOL     OW23785   0.998   4.683   6.454 -0.0011 -0.1499  0.1749
 4051SOL    HW123786   1.034   4.595   6.456  0.8211  0.1663 -0.9942
 4051SOL    HW223787   1.063   4.724   6.511  1.7176 -0.3787 -1.6331
 4052SOL     OW23788   0.045   3.725   5.315 -0.2693 -0.2742 -0.3481
 4052SOL    HW123789   0.094   3.670   5.375  3.3889  1.9913 -1.2442
 4052SOL    HW223790   4.695   3.687   5.307 -0.6528  0.4347  0.4840
 4053SOL     OW23791   4.692   4.527   0.229  0.1909 -0.1835 -0.2869
 4053SOL    HW123792   0.026   4.572   0.275 -0.4639  1.8778 -1.2857
 4053SOL    HW223793   4.667   4.469   0.301  0.7850 -0.5963 -0.4177
 4054SOL     OW23794   0.241   1.715   4.485 -0.0963  0.4133  0.0259
 4054SOL    HW123795   0.190   1.782   4.439  3.5587  1.1811 -2.9695
 4054SOL    HW223796   0.281   1.766   4.555 -1.8844  0.0596  1.2824
 4055SOL     OW23797   3.733   1.429   6.217  0.3331  0.1578  0.3832
 4055SOL    HW123798   3.714   1.522   6.225 -0.8495  0.1026 -1.7654
 4055SOL    HW223799   3.804   1.435   6.154 -0.0989  3.2964  0.1913
 4056SOL     OW23800   4.582   3.482   6.581 -0.0032 -1.0857  0.0462
 4056SOL    HW123801   4.590   3.562   6.634 -0.7315 -1.1687  0.2847
 4056SOL    HW223802   4.610   3.522   6.499  2.4732 -2.6167  0.1451
 4057SOL     OW23803   3.417   0.745   3.758  0.2554  0.3250 -0.0445
 4057SOL    HW123804   3.446   0.711   3.673  0.6010  0.5743 -0.0286
 4057SOL    HW223805   3.483   0.810   3.784 -0.4776  0.8447  0.5020
 4058SOL     OW23806   2.206   2.239   6.981 -0.3445  0.6011  0.4790
 4058SOL    HW123807   2.269   2.307   7.005 -0.5928  0.6385  1.0195
 4058SOL    HW223808   2.170   2.231   7.069  0.2408 -0.7133  0.6038
 4059SOL     OW23809   2.311   2.678   4.581 -1.2343 -0.0884 -0.0568
 4059SOL    HW123810   2.392   2.728   4.571  0.4223 -2.6683  0.5165
 4059SOL    HW223811   2.247   2.740   4.544  1.4245  1.1767 -2.5460
 4060SOL     OW23812   0.367   2.080   5.025 -0.0286 -0.5505  0.5318
 4060SOL    HW123813   0.296   2.137   5.053 -0.5705 -0.1241 -1.7543
 4060SOL    HW223814   0.446   2.125   5.055 -0.5816 -0.7792  2.3687
 4061SOL     OW23815   2.588   1.069   4.863 -0.2964 -0.3495 -0.4539
 4061SOL    HW123816   2.591   1.119   4.945  2.1061 -0.8827 -0.2168
 4061SOL    HW223817   2.551   1.138   4.808 -1.5995 -0.1560  0.6822
 4062SOL     OW23818   4.347   4.588   3.447  0.0163  0.0410  0.3294
 4062SOL    HW123819   4.285   4.657   3.423  1.5715  0.9363 -1.0551
 4062SOL    HW223820   4.326   4.512   3.392 -0.8320  0.3819  0.1739
 4063SOL     OW23821   0.451   1.016   8.658  0.2128  0.2994  0.2734
 4063SOL    HW123822   0.498   0.934   8.676 -1.6601 -0.2631  2.6536
 4063SOL    HW223823   0.408   0.987   8.578 -0.1392 -2.1604  1.3393
 4064SOL     OW23824   3.765   1.857   5.006 -0.2346  0.1907  1.1833
 4064SOL    HW123825   3.722   1.907   5.076 -0.2310 -0.0013  1.3238
 4064SOL    HW223826   3.812   1.930   4.967 -1.5061 -0.1272 -0.9091
 4065SOL     OW23827   1.709   3.742  11.986  0.0097 -0.3624 -0.2708
 4065SOL    HW123828   1.696   3.662  12.038  1.1035  1.0504  2.1543
 4065SOL    HW223829   1.629   3.793  11.988 -0.2612 -0.8305  0.7325
 4066SOL     OW23830   4.040   1.428   8.523  1.2021  0.4155 -0.1003
 4066SOL    HW123831   4.049   1.471   8.608 -0.1388  0.9524 -0.2237
 4066SOL    HW223832   4.078   1.341   8.534 -0.2679 -0.0768  1.2012
 4067SOL     OW23833   4.501   3.919  15.843  0.2367 -0.0860  0.3665
 4067SOL    HW123834   4.582   3.908  15.893  0.4153  1.9460  0.5095
 4067SOL    HW223835   4.424   3.918  15.901 -1.0159 -0.9680 -1.3116
 4068SOL     OW23836   1.207   3.533   4.448 -0.3578  0.3548  0.2164
 4068SOL    HW123837   1.218   3.602   4.514  1.0488  0.1910  0.1526
 4068SOL    HW223838   1.259   3.468   4.496  0.0334  1.0508  0.7403
 4069SOL     OW23839   1.575   1.296   7.916 -0.1680 -0.2664  0.2039
 4069SOL    HW123840   1.572   1.366   7.851  0.2475 -0.0137  0.4504
 4069SOL    HW223841   1.579   1.349   7.997 -0.0366  0.2703 -0.1503
 4070SOL     OW23842   4.253   3.763   5.429 -0.7066 -0.0799  0.5019
 4070SOL    HW123843   4.182   3.785   5.490 -1.9420 -0.0690 -0.9447
 4070SOL    HW223844   4.288   3.850   5.407 -0.2179 -0.5147 -0.3913
 4071SOL     OW23845   4.448   2.669   0.934  0.1214  0.3286  0.6456
 4071SOL    HW123846   4.433   2.757   0.902  1.1394  0.5922  0.8717
 4071SOL    HW223847   4.358   2.638   0.940 -0.4082  2.0281  1.3075
 4072SOL     OW23848   1.619   4.005   8.575 -0.0543  0.0366  0.4538
 4072SOL    HW123849   1.712   4.002   8.552 -0.0201  1.0847  0.4536
 4072SOL    HW223850   1.632   4.035   8.665 -1.2051 -0.8357  0.9117
 4073SOL     OW23851   4.655   1.754   7.346 -0.4982 -0.7027  0.3058
 4073SOL    HW123852   4.573   1.705   7.335 -0.0035 -0.5536 -4.1861
 4073SOL    HW223853   4.630   1.817   7.413 -1.1227 -0.0166 -0.5599
 4074SOL     OW23854   3.946   4.085   3.479  0.2550  0.7419 -0.0567
 4074SOL    HW123855   3.858   4.112   3.455 -0.1309  0.7625  1.3850
 4074SOL    HW223856   3.979   4.059   3.393  0.2279  3.5669 -0.9283
 4075SOL     OW23857   1.231   3.482   9.141  0.1053 -0.2672 -0.3088
 4075SOL    HW123858   1.276   3.567   9.142  1.2297 -0.8660 -0.3734
 4075SOL    HW223859   1.199   3.475   9.231  0.0666 -2.0354 -0.4613
 4076SOL     OW23860   2.856   2.916   9.660 -0.2360 -0.2619 -0.2570
 4076SOL    HW123861   2.940   2.908   9.705 -0.8439  1.9074  1.2112
 4076SOL    HW223862   2.800   2.845   9.694 -0.6106  0.8076  1.3217
 4077SOL     OW23863   4.054   2.522  10.337  0.0244 -0.1036 -0.2996
 4077SOL    HW123864   4.044   2.533  10.243  2.4102  2.4363 -0.2420
 4077SOL    HW223865   4.041   2.427  10.342 -1.1400  0.0089 -1.0681
 4078SOL     OW23866   0.585   1.377   8.651 -0.3958 -0.1043  0.2061
 4078SOL    HW123867   0.621   1.359   8.738  0.8724 -0.0429 -0.3025
 4078SOL    HW223868   0.544   1.460   8.676 -2.3757 -0.5403 -1.6452
 4079SOL     OW23869   3.109   3.191   9.215 -0.0319  0.0738  0.3555
 4079SOL    HW123870   3.192   3.238   9.213 -0.2111  0.3149 -0.9269
 4079SOL    HW223871   3.134   3.099   9.225  1.6010  0.5433  0.6031
 4080SOL     OW23872   0.264   3.884   7.156 -0.0226 -0.2000  0.0992
 4080SOL    HW123873   0.179   3.852   7.124 -0.6650  0.6706  0.9318
 4080SOL    HW223874   0.285   3.954   7.094 -1.2173 -1.5972 -1.8947
 4081SOL     OW23875   2.766   2.638   1.908  0.1156  0.2048  0.3014
 4081SOL    HW123876   2.787   2.656   1.816  0.5376 -1.1082  0.1397
 4081SOL    HW223877   2.721   2.554   1.899  1.8276 -0.8400  1.5261
 4082SOL     OW23878   3.038   3.703   8.274  0.8071  0.3266 -0.7459
 4082SOL    HW123879   2.961   3.650   8.252 -0.2584  1.9122 -0.8082
 4082SOL    HW223880   3.065   3.645   8.346  0.4194  1.4924  0.3217
 4083SOL     OW23881   0.232   0.007   8.376 -0.7416  0.0122 -0.0221
 4083SOL    HW123882   0.184   0.027   8.457  0.3991 -1.4441  1.0351
 4083SOL    HW223883   0.226   4.648   8.380 -1.4135  0.0601  0.0782
 4084SOL     OW23884   3.102   4.582   4.762  0.0234  0.4595 -0.5355
 4084SOL    HW123885   3.140   4.514   4.818  0.1581  1.1643  0.2142
 4084SOL    HW223886   3.129   4.663   4.805  3.6384 -0.6420 -0.7396
 4085SOL     OW23887   0.239   2.350   5.320 -0.6349  0.0396 -0.1482
 4085SOL    HW123888   0.192   2.267   5.309 -3.5178  1.9228 -1.9562
 4085SOL    HW223889   0.171   2.417   5.316 -0.7922 -0.1658 -0.8715
 4086SOL     OW23890   4.685   1.303   3.036  0.3109 -0.1227 -0.1478
 4086SOL    HW123891   4.693   1.392   3.000  0.6576 -0.0344  0.1418
 4086SOL    HW223892   0.009   1.262   2.975  1.6707  0.4401  0.8004
 4087SOL     OW23893   2.781   2.201   4.338  0.0661  0.4084 -0.7224
 4087SOL    HW123894   2.757   2.288   4.306 -0.5674 -0.0889 -1.6137
 4087SOL    HW223895   2.705   2.186   4.395 -1.2076  0.1451 -2.4655
 4088SOL     OW23896   2.910   4.542  17.105 -0.1778  0.1303 -0.2124
 4088SOL    HW123897   2.861   4.473  17.061  0.7429  0.7869 -2.2635
 4088SOL    HW223898   2.993   4.526  17.059 -0.4875  0.5955 -0.9293
 4089SOL     OW23899   4.723   1.078  12.290  0.3281 -0.2586 -0.1074
 4089SOL    HW123900   4.690   1.004  12.343 -0.0205  0.2133  0.3390
 4089SOL    HW223901   0.078   1.055  12.304  0.0751 -1.7878 -0.9339
 4090SOL     OW23902   4.321   1.760   5.660 -0.4280 -0.7331  0.0760
 4090SOL    HW123903   4.239   1.710   5.660 -0.3419 -0.8794 -0.2635
 4090SOL    HW223904   4.331   1.779   5.566 -0.9065 -0.2255  0.1253
 4091SOL     OW23905   1.183   1.141   5.870 -0.2917  0.5021 -0.5971
 4091SOL    HW123906   1.137   1.173   5.948  1.4673  0.8493  0.3037
 4091SOL    HW223907   1.231   1.063   5.900 -2.3921 -0.6210 -0.1463
 4092SOL     OW23908   2.744   3.577   9.451 -0.2052 -0.3383 -0.0626
 4092SOL    HW123909   2.748   3.629   9.531 -1.9491 -0.9284  0.4059
 4092SOL    HW223910   2.766   3.491   9.487 -0.2217 -0.3228 -0.0164
 4093SOL     OW23911   0.654   2.164   5.367  0.1558  0.0320  1.2866
 4093SOL    HW123912   0.616   2.076   5.370  1.1478 -0.4297  0.5263
 4093SOL    HW223913   0.634   2.196   5.455  1.3876  3.0424  0.4705
 4094SOL     OW23914   0.657   0.763   9.530  0.0861 -0.3063  0.6644
 4094SOL    HW123915   0.572   0.726   9.555  0.4356  0.1179  2.4083
 4094SOL    HW223916   0.696   0.696   9.473 -0.3101 -0.6121  0.7508
 4095SOL     OW23917   0.508   3.846  12.766 -0.1327 -0.0814  0.2550
 4095SOL    HW123918   0.546   3.903  12.699 -0.0412 -1.1659 -0.6223
 4095SOL    HW223919   0.485   3.914  12.830 -1.0080 -0.8011  0.7036
 4096SOL     OW23920   4.736   3.776   3.226 -0.3560 -0.1323  0.0601
 4096SOL    HW123921   0.020   3.796   3.135 -3.0390  2.2897 -0.0316
 4096SOL    HW223922   0.076   3.725   3.251 -2.0001 -2.8919 -0.4751
 4097SOL     OW23923   3.287   0.122   1.313 -0.1753 -0.0872 -0.4422
 4097SOL    HW123924   3.211   0.064   1.314  1.0175 -1.6311 -0.3362
 4097SOL    HW223925   3.348   0.078   1.372 -0.2735  1.7028  1.0043
 4098SOL     OW23926   0.189   3.868  12.310  0.5699 -0.6318  0.0163
 4098SOL    HW123927   0.280   3.897  12.311 -0.3268  2.1366 -0.0002
 4098SOL    HW223928   0.143   3.945  12.277  0.8717 -0.8314 -0.8700
 4099SOL     OW23929   3.608   3.491   1.619 -0.2277  0.0899 -0.2475
 4099SOL    HW123930   3.522   3.509   1.582  0.6610  1.2729 -1.7041
 4099SOL    HW223931   3.670   3.527   1.556  1.7880  0.7380  2.0806
 4100SOL     OW23932   4.688   2.312   0.934  0.1775 -0.1492 -0.3901
 4100SOL    HW123933   0.042   2.290   0.912  0.0656 -2.2388  1.1637
 4100SOL    HW223934   4.647   2.287   0.851  0.7571 -1.2574 -0.3479
 4101SOL     OW23935   4.379   0.618   1.678  0.1431  0.3685  0.3818
 4101SOL    HW123936   4.289   0.611   1.709 -0.8947  2.1124 -2.2960
 4101SOL    HW223937   4.365   0.689   1.617  2.6677  0.0010 -0.6191
 4102SOL     OW23938   3.753   4.448   5.000  0.4810  0.2927 -0.1007
 4102SOL    HW123939   3.715   4.361   5.012  0.8617  0.2693  0.9113
 4102SOL    HW223940   3.834   4.425   4.954  0.4847 -0.3573  0.2295
 4103SOL     OW23941   0.975   0.296   4.966 -0.2345 -0.0210  0.5040
 4103SOL    HW123942   0.955   0.204   4.950  0.2178 -0.1847  0.8370
 4103SOL    HW223943   1.007   0.331   4.883 -0.4080 -0.5605  0.2144
 4104SOL     OW23944   3.385   1.412   2.404 -0.2598 -0.3119 -0.3978
 4104SOL    HW123945   3.395   1.506   2.392 -2.5883  0.1584  1.3710
 4104SOL    HW223946   3.406   1.413   2.497  0.2045  0.2913 -0.5163
 4105SOL     OW23947   0.193   1.809   2.935 -0.0914  0.3445 -0.0178
 4105SOL    HW123948   0.146   1.832   3.015 -1.2725  0.3320 -0.7075
 4105SOL    HW223949   0.175   1.881   2.874  1.8424  1.0872  0.2877
 4106SOL     OW23950   0.329   2.113  14.475  0.1191  0.6006  0.2454
 4106SOL    HW123951   0.348   2.112  14.569  2.5034 -0.9140 -0.2467
 4106SOL    HW223952   0.257   2.050  14.472  2.4036 -2.0535  1.5641
 4107SOL     OW23953   2.068   3.563  10.573 -0.1033 -0.5093 -0.0363
 4107SOL    HW123954   2.055   3.474  10.604 -1.6811 -0.1504  0.3373
 4107SOL    HW223955   1.978   3.590  10.552 -0.5599  0.0698  2.6267
 4108SOL     OW23956   3.424   0.116   8.472 -0.7052  0.0680 -0.4233
 4108SOL    HW123957   3.429   0.121   8.376 -1.3416  0.5115 -0.4349
 4108SOL    HW223958   3.331   0.129   8.490 -0.6405 -0.5578  0.3903
 4109SOL     OW23959   1.323   2.964  13.473  0.1650 -0.4254  0.0120
 4109SOL    HW123960   1.401   2.933  13.428 -0.2996 -1.8358  0.1831
 4109SOL    HW223961   1.348   2.952  13.565 -1.1556 -1.2804  0.2639
 4110SOL     OW23962   3.064   0.297   2.139 -0.0992  0.1160  0.1298
 4110SOL    HW123963   3.022   0.370   2.183 -0.8564  0.5774 -1.3447
 4110SOL    HW223964   3.120   0.265   2.209 -0.7292 -2.2874 -0.4642
 4111SOL     OW23965   2.164   3.271   9.696  0.5289 -0.2569  0.3199
 4111SOL    HW123966   2.122   3.254   9.612 -3.0602 -2.2865  2.4994
 4111SOL    HW223967   2.142   3.364   9.707 -1.3581 -0.8958  1.9996
 4112SOL     OW23968   1.033   2.594   9.146 -0.0070 -0.0987  0.3720
 4112SOL    HW123969   1.094   2.553   9.085 -2.5671  0.1339 -2.3367
 4112SOL    HW223970   0.963   2.535   9.174 -2.6101  1.8127 -2.2066
 4113SOL     OW23971   0.688   4.491   3.491 -0.6283 -0.4476 -0.1887
 4113SOL    HW123972   0.607   4.440   3.486 -0.7250 -0.2364 -0.7327
 4113SOL    HW223973   0.678   4.554   3.562 -1.5551 -1.1366  0.2941
 4114SOL     OW23974   2.936   1.261   7.476 -0.4085 -0.2675 -0.0879
 4114SOL    HW123975   2.942   1.174   7.437  2.4219  0.9515 -2.3581
 4114SOL    HW223976   2.969   1.228   7.559 -0.7763  0.5485  0.3822
 4115SOL     OW23977   1.422   4.692   3.238  0.2609 -0.2562 -0.0945
 4115SOL    HW123978   1.506   4.664   3.203  1.1826  2.1314  0.1775
 4115SOL    HW223979   1.453   0.043   3.259 -0.4208  0.1051 -0.6215
 4116SOL     OW23980   0.578   2.828   2.658  0.3057  0.6987  0.4283
 4116SOL    HW123981   0.645   2.848   2.593 -0.6267  1.0770 -0.4207
 4116SOL    HW223982   0.620   2.754   2.702 -2.3993 -1.0607  0.0732
 4117SOL     OW23983   4.094   2.049  16.503  0.3848  0.3422  0.0591
 4117SOL    HW123984   4.000   2.032  16.499  0.5196 -0.3435 -0.1602
 4117SOL    HW223985   4.108   2.113  16.433 -1.6342 -0.6788 -1.2516
 4118SOL     OW23986   2.853   3.747   9.179  0.0341  0.6117  0.0418
 4118SOL    HW123987   2.872   3.654   9.195  0.5288  0.8849  1.0101
 4118SOL    HW223988   2.782   3.737   9.115  0.2990 -2.0314  0.1373
 4119SOL     OW23989   1.611   2.856   2.164 -0.3660  0.2022  0.2402
 4119SOL    HW123990   1.689   2.803   2.150  1.2344  1.8156  3.0814
 4119SOL    HW223991   1.540   2.793   2.160 -0.5595  0.3763  1.0149
 4120SOL     OW23992   4.191   2.703  16.951 -0.6921 -0.1473 -0.3416
 4120SOL    HW123993   4.178   2.794  16.977 -0.2433  0.3227 -1.7331
 4120SOL    HW223994   4.105   2.677  16.920 -0.7339 -0.6360  0.1895
 4121SOL     OW23995   4.449   1.869   8.622 -0.0381  0.1064 -0.9974
 4121SOL    HW123996   4.452   1.800   8.689  3.3544  0.8589 -0.3390
 4121SOL    HW223997   4.443   1.822   8.539 -0.2792 -2.2323  0.3277
 4122SOL     OW23998   1.858   2.821   5.202 -0.3432 -0.3892 -0.0863
 4122SOL    HW123999   1.878   2.757   5.270  0.0753  0.3144  0.4516
 4122SOL    HW224000   1.848   2.767   5.124 -1.6643  0.0127 -0.1902
 4123SOL     OW24001   4.347   2.083   3.292  0.0300  0.3458 -0.3824
 4123SOL    HW124002   4.286   2.031   3.240 -1.0222 -0.4332  1.6522
 4123SOL    HW224003   4.299   2.166   3.292 -1.7511 -0.6982  1.3625
 4124SOL     OW24004   2.490   4.648   8.928  0.2884  0.5969  0.2021
 4124SOL    HW124005   2.432   4.690   8.991  1.0611  0.8910  0.7163
 4124SOL    HW224006   2.503   4.716   8.862  0.7536  0.0308 -0.2894
 4125SOL     OW24007   2.972   1.648   4.423 -0.7988  0.2183 -0.0087
 4125SOL    HW124008   3.041   1.684   4.368 -0.5140 -1.1030 -0.5182
 4125SOL    HW224009   2.933   1.728   4.457 -2.0300 -0.2480 -0.3434
 4126SOL     OW24010   1.855   3.719   6.289 -0.0762  0.4461  0.0412
 4126SOL    HW124011   1.932   3.662   6.293 -0.9670 -0.7442  0.2069
 4126SOL    HW224012   1.830   3.691   6.201 -0.2842 -1.9990  0.8735
 4127SOL     OW24013   1.607   1.746   9.846  0.4808  0.7548  0.1166
 4127SOL    HW124014   1.624   1.762   9.939 -0.4111  0.5772  0.3089
 4127SOL    HW224015   1.688   1.786   9.814  0.2122  0.0922 -1.3924
 4128SOL     OW24016   4.333   0.068   3.201 -0.2126 -0.3887  0.6817
 4128SOL    HW124017   4.397   0.136   3.179 -0.8901  0.0931  0.1692
 4128SOL    HW224018   4.376   4.725   3.172 -0.0171  0.9985 -2.8484
 4129SOL     OW24019   2.573   0.878   3.054  0.2283  0.3446 -0.1477
 4129SOL    HW124020   2.549   0.856   2.964 -2.7073  0.3090  0.6166
 4129SOL    HW224021   2.665   0.853   3.053 -0.4034 -2.0163 -0.3197
 4130SOL     OW24022   1.407   3.969  12.274 -0.7770 -0.5553 -0.2630
 4130SOL    HW124023   1.357   4.022  12.337 -0.2074 -1.7461  1.1868
 4130SOL    HW224024   1.437   3.889  12.317 -0.4028  1.8609  3.9582
 4131SOL     OW24025   3.345   4.491   9.040 -0.7370  0.1273  0.2463
 4131SOL    HW124026   3.358   4.586   9.042  2.9727 -0.3833 -0.4480
 4131SOL    HW224027   3.389   4.480   9.124 -0.3690 -1.1676 -0.1175
 4132SOL     OW24028   2.369   0.332   5.554  0.3403  0.2013 -0.5794
 4132SOL    HW124029   2.344   0.408   5.501  0.8390  0.9230  0.2038
 4132SOL    HW224030   2.417   0.284   5.486  0.0588  0.0626 -0.6778
 4133SOL     OW24031   3.953   0.597  15.227 -0.2107 -0.2770 -0.0602
 4133SOL    HW124032   4.023   0.659  15.206 -1.9508  1.5456 -0.4908
 4133SOL    HW224033   4.002   0.517  15.207 -1.4567 -0.3401 -2.9223
 4134SOL     OW24034   2.115   3.200   2.500 -0.2963 -0.2254  0.6256
 4134SOL    HW124035   2.075   3.143   2.435 -0.1524 -0.1522  0.4733
 4134SOL    HW224036   2.076   3.169   2.582  1.4604  0.1030  1.5719
 4135SOL     OW24037   4.466   0.129   6.670 -0.2713 -0.2962 -0.0666
 4135SOL    HW124038   4.417   0.187   6.613  0.0299 -0.1436 -0.1704
 4135SOL    HW224039   4.536   0.189   6.696 -0.3780  0.2929 -1.1801
 4136SOL     OW24040   0.982   3.035   5.977 -0.6662  0.3259 -0.5379
 4136SOL    HW124041   0.940   2.953   5.951 -0.2848 -0.8091  2.5486
 4136SOL    HW224042   1.062   3.037   5.925  0.9556  1.2567  2.0359
 4137SOL     OW24043   2.538   3.610   7.265 -0.1912 -0.1941 -0.0679
 4137SOL    HW124044   2.524   3.704   7.254  3.3478  0.4398  0.8352
 4137SOL    HW224045   2.483   3.567   7.199  1.1582  0.4985 -1.6420
 4138SOL     OW24046   2.684   1.762   5.261  0.4680 -0.5200  0.2708
 4138SOL    HW124047   2.714   1.679   5.224  0.7799 -0.4739  0.4171
 4138SOL    HW224048   2.669   1.737   5.352 -0.6215 -0.1701  0.1897
 4139SOL     OW24049   4.114   1.253   7.554 -0.4732 -0.4970 -0.1718
 4139SOL    HW124050   4.137   1.336   7.512  3.5189 -0.7731  1.4729
 4139SOL    HW224051   4.180   1.249   7.623 -0.0781 -0.4209 -0.5494
 4140SOL     OW24052   1.790   4.083   7.222 -0.1147 -0.4716 -0.2216
 4140SOL    HW124053   1.758   4.107   7.135  1.1963  0.2767 -0.5034
 4140SOL    HW224054   1.718   4.111   7.278  1.4230  1.0069  1.0085
 4141SOL     OW24055   3.713   3.145   6.719 -0.5821 -0.3855  0.7793
 4141SOL    HW124056   3.664   3.076   6.675 -1.7931  2.4153 -2.3309
 4141SOL    HW224057   3.732   3.199   6.642  0.6003 -1.4344  0.3267
 4142SOL     OW24058   3.988   2.479   9.398 -0.0879 -0.0420 -0.0945
 4142SOL    HW124059   4.003   2.400   9.346  1.3919 -1.7263  2.8559
 4142SOL    HW224060   3.972   2.449   9.488 -1.9683  2.3394  0.3680
 4143SOL     OW24061   0.120   3.483  16.158  0.3371  0.0846  0.4697
 4143SOL    HW124062   0.188   3.415  16.149 -0.6135 -0.6464 -1.2531
 4143SOL    HW224063   0.041   3.431  16.169  0.1384  0.5958  1.4530
 4144SOL     OW24064   3.825   4.356  15.404 -0.2354 -0.2921  0.0857
 4144SOL    HW124065   3.903   4.342  15.351  0.0468 -1.2743  0.7787
 4144SOL    HW224066   3.837   4.447  15.431 -0.9523 -0.3611  0.6509
 4145SOL     OW24067   0.628   2.358   3.881  0.1375  0.4684  0.8531
 4145SOL    HW124068   0.699   2.298   3.906  0.2941 -0.1143 -0.9808
 4145SOL    HW224069   0.563   2.299   3.844 -0.8722  2.2219 -0.1527
 4146SOL     OW24070   3.007   0.611  10.632  0.5817  0.2609 -0.2485
 4146SOL    HW124071   3.028   0.607  10.539  2.1098  0.6624  0.0905
 4146SOL    HW224072   3.092   0.634  10.670  0.7434 -1.1116  0.2259
 4147SOL     OW24073   3.779   0.925  11.205  0.2149  0.4742  0.5766
 4147SOL    HW124074   3.737   0.839  11.191 -1.4662  1.7280 -2.1298
 4147SOL    HW224075   3.754   0.945  11.295  0.1584  1.7942  0.2668
 4148SOL     OW24076   0.503   0.446  10.228 -0.2673 -0.0736  0.3873
 4148SOL    HW124077   0.515   0.438  10.133 -0.4707 -1.5851  0.4931
 4148SOL    HW224078   0.408   0.437  10.235 -0.2443 -2.2166 -1.9621
 4149SOL     OW24079   3.926   3.678   4.327  0.1689 -0.3154 -0.1621
 4149SOL    HW124080   3.978   3.646   4.401 -0.1588  1.3853  0.7978
 4149SOL    HW224081   3.874   3.749   4.364 -0.2859  1.2021 -3.7278
 4150SOL     OW24082   2.640   2.476   4.921 -0.5665  0.1084  0.3163
 4150SOL    HW124083   2.684   2.423   4.854  2.5173  1.1736  1.4831
 4150SOL    HW224084   2.583   2.410   4.959 -1.1012  0.6737  0.5023
 4151SOL     OW24085   1.516   3.873  17.626  0.6554  0.0741  0.3650
 4151SOL    HW124086   1.586   3.920  17.671  0.9015 -0.2548  0.3252
 4151SOL    HW224087   1.459   3.946  17.600  0.6432 -0.2640 -0.5499
 4152SOL     OW24088   2.319   1.720  13.726  0.2560  0.1526 -0.7053
 4152SOL    HW124089   2.384   1.717  13.655 -1.5523 -2.0579 -2.2727
 4152SOL    HW224090   2.324   1.631  13.761  0.8672  0.3573 -0.2690
 4153SOL     OW24091   1.660   3.324   6.800 -0.1839 -0.7373  0.3065
 4153SOL    HW124092   1.724   3.341   6.869 -1.8930  1.2080  1.4317
 4153SOL    HW224093   1.603   3.261   6.845  0.2146  0.0474  1.9367
 4154SOL     OW24094   1.342   3.466   2.291 -0.4336 -0.4390 -0.4383
 4154SOL    HW124095   1.319   3.507   2.208 -0.2914  3.9441  1.6935
 4154SOL    HW224096   1.392   3.396   2.249 -0.0009 -0.4770  0.1390
 4155SOL     OW24097   3.336   0.359   3.713 -0.6630 -0.2209  0.5555
 4155SOL    HW124098   3.308   0.394   3.798  0.2137  1.3912  0.1838
 4155SOL    HW224099   3.418   0.408   3.725 -0.7417  0.4987 -1.9926
 4156SOL     OW24100   0.984   0.202   2.155  0.1103  0.2734 -0.2989
 4156SOL    HW124101   0.973   0.223   2.247  0.7515 -1.4749  0.1792
 4156SOL    HW224102   1.037   0.122   2.158  1.5502  1.1646 -2.2388
 4157SOL     OW24103   2.625   0.763   4.542 -0.0204 -0.4446  0.5725
 4157SOL    HW124104   2.601   0.855   4.525 -0.8436 -0.2926  2.5593
 4157SOL    HW224105   2.560   0.708   4.499  0.9177 -1.3579  0.3210
 4158SOL     OW24106   2.397   1.776   6.497 -0.5803 -0.1099  0.2781
 4158SOL    HW124107   2.422   1.759   6.588 -1.4950  1.3241  0.8149
 4158SOL    HW224108   2.439   1.701   6.457 -1.0032 -0.0612 -0.2657
 4159SOL     OW24109   1.208   1.796  17.199  0.4090  0.6773 -0.0445
 4159SOL    HW124110   1.237   1.772  17.287 -3.6659  0.8541  1.3382
 4159SOL    HW224111   1.277   1.759  17.143 -0.2939  2.3615 -1.9938
 4160SOL     OW24112   0.631   4.472   3.884  0.7681 -0.5060  0.4935
 4160SOL    HW124113   0.606   4.537   3.818 -2.1777 -1.2235  0.9062
 4160SOL    HW224114   0.558   4.482   3.945  0.9887 -0.6585  0.7846
 4161SOL     OW24115   3.521   4.714   5.189  0.4421  0.1211  0.1930
 4161SOL    HW124116   3.467   0.032   5.246 -1.2977  1.0333 -2.3203
 4161SOL    HW224117   3.610   0.004   5.210  0.7773  0.7562 -2.0064
 4162SOL     OW24118   4.533   1.402   4.977  0.1901 -0.2940 -0.0625
 4162SOL    HW124119   4.629   1.407   4.983  0.2385 -0.1535 -1.0228
 4162SOL    HW224120   4.517   1.406   4.883 -0.1547 -2.0212 -0.0786
 4163SOL     OW24121   3.927   2.644   4.849  0.0703 -0.0270  0.6552
 4163SOL    HW124122   3.835   2.664   4.831  0.4998  0.3708 -1.1268
 4163SOL    HW224123   3.968   2.706   4.788 -0.6017  0.4244  0.6596
 4164SOL     OW24124   2.683   0.453   4.880 -0.3840  0.2935 -0.2457
 4164SOL    HW124125   2.646   0.421   4.798  0.7567  1.1382 -1.0947
 4164SOL    HW224126   2.720   0.368   4.905  0.3383  0.1981 -1.6777
 4165SOL     OW24127   0.735   1.214   2.361 -0.3554 -0.1767  0.0150
 4165SOL    HW124128   0.684   1.226   2.281 -0.5076  2.8535  0.5658
 4165SOL    HW224129   0.786   1.146   2.315  1.5812 -0.3655  2.4533
 4166SOL     OW24130   1.684   4.434   4.326  0.4300  0.1650 -0.4728
 4166SOL    HW124131   1.761   4.443   4.271 -0.2759  0.7293 -1.3793
 4166SOL    HW224132   1.671   4.526   4.349  0.4676  0.1695 -0.4701
 4167SOL     OW24133   1.177   1.374   2.773 -0.0651  0.6450  0.4202
 4167SOL    HW124134   1.196   1.285   2.745 -0.7620  1.0929 -1.5098
 4167SOL    HW224135   1.115   1.351   2.842 -1.4884  0.0508 -1.0446
 4168SOL     OW24136   2.275   4.212   2.454 -0.6921 -0.1604  0.3327
 4168SOL    HW124137   2.256   4.144   2.389  1.4695  1.5573 -2.0970
 4168SOL    HW224138   2.366   4.186   2.467  0.1767  2.6728 -0.0519
 4169SOL     OW24139   4.614   1.428   5.970  0.7044  0.4476  0.6290
 4169SOL    HW124140   4.661   1.398   5.893  0.8097  1.0523  0.4568
 4169SOL    HW224141   4.551   1.356   5.971  1.0129  0.1650 -0.9217
 4170SOL     OW24142   3.579   1.264  14.389  0.0543 -0.3947 -0.1777
 4170SOL    HW124143   3.636   1.336  14.417  0.4325 -1.4911  1.8269
 4170SOL    HW224144   3.491   1.299  14.400 -0.2132 -1.0503 -0.2421
 4171SOL     OW24145   4.043   0.025   8.302 -0.0100 -0.2628 -0.7336
 4171SOL    HW124146   4.130   4.723   8.288  0.4525  0.2936  0.6030
 4171SOL    HW224147   4.046   0.108   8.253  1.0721 -1.0654 -2.0336
 4172SOL     OW24148   0.491   2.846   8.459 -0.2436 -0.6541  0.2929
 4172SOL    HW124149   0.567   2.901   8.439 -0.4763 -0.3720  0.1843
 4172SOL    HW224150   0.527   2.797   8.533  1.6827  0.7180  0.2484
 4173SOL     OW24151   1.444   1.670   4.107  0.3889  0.3164  0.1323
 4173SOL    HW124152   1.381   1.712   4.166  0.7604 -0.6966  1.2564
 4173SOL    HW224153   1.526   1.708   4.138  1.2948 -1.0321 -0.6522
 4174SOL     OW24154   4.191   3.343  16.916 -0.9872 -0.3505 -0.0619
 4174SOL    HW124155   4.121   3.383  16.865 -2.6561 -0.4903  2.1628
 4174SOL    HW224156   4.187   3.367  17.008  0.8381  0.3986 -0.1689
 4175SOL     OW24157   4.285   3.890   4.809 -0.3530 -0.4302  0.0441
 4175SOL    HW124158   4.223   3.819   4.827 -0.4447 -0.6710 -1.2134
 4175SOL    HW224159   4.369   3.846   4.826 -1.6469 -2.9985 -0.2732
 4176SOL     OW24160   3.139   3.539   8.483 -0.1329  0.3731  0.0525
 4176SOL    HW124161   3.124   3.452   8.446 -1.0712  0.3641  0.4482
 4176SOL    HW224162   3.126   3.517   8.575 -2.8867  0.0063 -0.4063
 4177SOL     OW24163   2.246   0.825   7.365 -0.0438 -0.0889  0.0264
 4177SOL    HW124164   2.258   0.730   7.355 -0.1029  0.0167 -1.1080
 4177SOL    HW224165   2.310   0.863   7.306 -0.3751  0.6271  0.1245
 4178SOL     OW24166   1.087   4.421   4.859 -0.0575 -0.3282  0.1907
 4178SOL    HW124167   1.154   4.369   4.814 -0.2268 -0.7291  0.4093
 4178SOL    HW224168   1.077   4.485   4.788  1.5710 -2.2729 -1.8247
 4179SOL     OW24169   2.720   3.014   7.093  0.1525 -0.1158  0.1612
 4179SOL    HW124170   2.764   3.084   7.141  1.4588  0.0566 -1.3185
 4179SOL    HW224171   2.696   2.951   7.161  1.9480  0.5590  1.4179
 4180SOL     OW24172   2.614   0.590  14.928 -0.3643  0.0047 -0.0947
 4180SOL    HW124173   2.626   0.526  14.859 -1.5520 -1.0958  0.7032
 4180SOL    HW224174   2.674   0.549  14.991  0.4666  0.0792 -0.8502
 4181SOL     OW24175   3.925   4.169   4.518 -0.3311  0.1194 -0.2894
 4181SOL    HW124176   3.900   4.261   4.509 -2.0430 -0.4124 -0.8857
 4181SOL    HW224177   4.019   4.174   4.538 -1.0997  1.8945  2.8622
 4182SOL     OW24178   3.324   0.413  10.645 -0.3817 -0.7149 -0.7778
 4182SOL    HW124179   3.309   0.507  10.634  3.4384 -0.1275 -0.8172
 4182SOL    HW224180   3.407   0.395  10.600  1.1222  1.8549  0.9781
 4183SOL     OW24181   0.578   1.304  16.365 -0.0110  0.2968 -0.4049
 4183SOL    HW124182   0.604   1.363  16.435 -1.5825  0.5131  0.0141
 4183SOL    HW224183   0.510   1.367  16.342 -1.2034 -0.4023  1.1991
 4184SOL     OW24184   0.221   2.949   8.106 -0.2403  0.2280 -0.1138
 4184SOL    HW124185   0.247   2.899   8.029  2.1675  0.8878  0.2509
 4184SOL    HW224186   0.231   3.041   8.080  0.4562  0.2240  0.1448
 4185SOL     OW24187   4.075   0.833   6.633  0.4779 -0.5666 -0.0689
 4185SOL    HW124188   4.023   0.824   6.553  0.0004 -1.2062  0.3162
 4185SOL    HW224189   4.008   0.832   6.702  1.5512 -0.9677  0.9712
 4186SOL     OW24190   3.992   2.703   8.223 -0.0779 -0.3244 -0.2783
 4186SOL    HW124191   3.917   2.684   8.279 -1.7320  2.5564 -1.4921
 4186SOL    HW224192   3.965   2.778   8.169  0.2686 -1.1432 -1.5951
 4187SOL     OW24193   4.120   1.146  10.311 -0.2642  0.2853  0.1360
 4187SOL    HW124194   4.086   1.073  10.259 -1.3751  1.2342 -0.4757
 4187SOL    HW224195   4.212   1.123  10.323  0.3563  2.6394 -0.0217
 4188SOL     OW24196   0.704   0.787   6.729  0.4744  0.1721 -0.4739
 4188SOL    HW124197   0.719   0.863   6.785 -1.3160  0.0272  0.2080
 4188SOL    HW224198   0.795   0.759   6.737  0.6743  0.5525 -1.4649
 4189SOL     OW24199   1.850   2.808  11.165  0.3686 -0.4863  0.1923
 4189SOL    HW124200   1.896   2.789  11.247  1.5751 -0.7255 -0.5334
 4189SOL    HW224201   1.791   2.732  11.163 -1.5653  1.0692 -1.0517
 4190SOL     OW24202   1.976   3.119  13.034  0.0668  0.5898 -0.4917
 4190SOL    HW124203   1.986   3.096  12.941  0.6850 -1.3054  0.0595
 4190SOL    HW224204   1.923   3.198  13.022 -1.4640 -0.3751  0.0259
 4191SOL     OW24205   4.600   1.202   5.583 -0.0836 -0.0093  0.5443
 4191SOL    HW124206   4.676   1.146   5.567 -1.5260 -1.5966 -0.8363
 4191SOL    HW224207   4.524   1.147   5.601 -0.1939  0.2511  0.8666
 4192SOL     OW24208   4.406   4.116   7.166  0.0435 -0.0655  0.3277
 4192SOL    HW124209   4.352   4.065   7.107  0.8909 -0.8517  0.2346
 4192SOL    HW224210   4.480   4.059   7.188  0.5378  1.1007  1.7405
 4193SOL     OW24211   0.498   2.948  15.724 -0.1478  0.5264 -0.8633
 4193SOL    HW124212   0.546   2.928  15.644  0.0138 -0.1838 -0.5907
 4193SOL    HW224213   0.490   3.043  15.729  0.4002  0.5050  0.3957
 4194SOL     OW24214   2.802   4.336  16.950 -0.2218  0.2128  0.3950
 4194SOL    HW124215   2.791   4.356  16.857 -0.3745 -0.0130  0.3629
 4194SOL    HW224216   2.711   4.325  16.979  0.1461  0.7707  1.7660
 4195SOL     OW24217   1.906   1.657   6.151 -0.2292  0.1013 -0.4962
 4195SOL    HW124218   1.852   1.732   6.176 -1.1096 -0.3178 -1.1195
 4195SOL    HW224219   1.849   1.583   6.174 -1.0792  1.4547  1.7677
 4196SOL     OW24220   3.313   3.879   5.778  0.3021 -0.0522 -0.4356
 4196SOL    HW124221   3.291   3.876   5.684  0.1282 -0.3664 -0.3814
 4196SOL    HW224222   3.308   3.790   5.812  0.2421 -0.0984 -0.5641
 4197SOL     OW24223   2.930   0.299   0.565  0.0983 -0.3484 -0.0093
 4197SOL    HW124224   2.855   0.359   0.567  1.3707  1.3111 -2.0050
 4197SOL    HW224225   2.886   0.217   0.587  2.1714 -1.3520  0.4413
 4198SOL     OW24226   1.614   0.028   1.962  0.0031 -0.0337  0.4356
 4198SOL    HW124227   1.629   4.679   2.002  0.1545  0.6575  1.8756
 4198SOL    HW224228   1.638   0.015   1.870  1.0618 -0.4491  0.7762
 4199SOL     OW24229   4.544   0.584   1.902 -0.0394  0.4041  0.1992
 4199SOL    HW124230   4.466   0.609   1.852 -1.9175 -2.6034  1.6089
 4199SOL    HW224231   4.564   0.514   1.840  3.4430  0.1510  1.6211
 4200SOL     OW24232   2.743   0.424   7.224  0.3920  0.5234  0.6419
 4200SOL    HW124233   2.697   0.350   7.262 -1.5867  1.1816 -0.4861
 4200SOL    HW224234   2.778   0.375   7.150 -0.9929 -1.3840  1.2539
 4201SOL     OW24235   2.917   4.514   5.102 -0.2453 -0.0934  0.1823
 4201SOL    HW124236   2.900   4.550   5.189 -0.0504  0.4655 -0.0163
 4201SOL    HW224237   2.986   4.572   5.072 -0.5757 -0.6021 -1.6011
 4202SOL     OW24238   1.668   4.181   7.710  0.3221  0.3514 -0.3902
 4202SOL    HW124239   1.624   4.266   7.707  1.4146  0.9727  1.7913
 4202SOL    HW224240   1.640   4.145   7.795  1.2481  0.7725  0.0823
 4203SOL     OW24241   2.775   3.145   3.289  0.1480  0.1334  0.1669
 4203SOL    HW124242   2.841   3.156   3.220 -0.5861  1.4240 -0.3304
 4203SOL    HW224243   2.729   3.067   3.260  2.4114 -0.6546 -1.3401
 4204SOL     OW24244   2.926   4.197  13.882 -0.8798  0.3660 -0.8454
 4204SOL    HW124245   3.001   4.204  13.942 -1.0491  1.4312 -0.7647
 4204SOL    HW224246   2.967   4.226  13.801  0.1732  1.4702  0.0716
 4205SOL     OW24247   2.747   3.438   3.642 -0.2940 -0.3291  0.9990
 4205SOL    HW124248   2.763   3.522   3.597 -0.5431 -0.6793  0.2541
 4205SOL    HW224249   2.678   3.456   3.706  0.1510  1.1638  1.0633
 4206SOL     OW24250   1.082   2.195   5.534 -0.6485 -0.1000 -0.5253
 4206SOL    HW124251   1.068   2.101   5.536  0.6534 -0.2515  1.2316
 4206SOL    HW224252   1.032   2.205   5.452 -0.0147 -0.0954 -0.9066
 4207SOL     OW24253   2.424   1.352   8.668 -0.0153 -0.1251  0.3247
 4207SOL    HW124254   2.364   1.377   8.597 -2.2119  0.4831  2.3935
 4207SOL    HW224255   2.431   1.257   8.661  4.5473  0.1867  0.7177
 4208SOL     OW24256   4.556   3.181   4.887 -0.6308 -0.4036  0.1469
 4208SOL    HW124257   4.550   3.227   4.971 -0.3372 -0.5735  0.2577
 4208SOL    HW224258   4.634   3.218   4.846 -2.8481  3.3568 -0.6978
 4209SOL     OW24259   1.788   0.204  16.011 -0.0210  0.0294  0.2431
 4209SOL    HW124260   1.858   0.247  15.961  0.6344 -2.1360 -0.7088
 4209SOL    HW224261   1.837   0.135  16.055 -0.5230 -0.6655 -0.2760
 4210SOL     OW24262   2.752   3.976   1.787  0.0747 -0.1775  0.2642
 4210SOL    HW124263   2.716   4.052   1.832  0.4879  0.1814 -0.0184
 4210SOL    HW224264   2.751   3.928   1.870  0.0017 -0.0439  0.3410
 4211SOL     OW24265   2.434   2.538  10.535  0.2959 -0.0250 -0.4377
 4211SOL    HW124266   2.390   2.556  10.618  0.0096  0.7011 -0.7531
 4211SOL    HW224267   2.523   2.553  10.567  0.1968 -0.2423 -0.0542
 4212SOL     OW24268   1.457   0.542   5.740  0.0701  0.0095  0.0205
 4212SOL    HW124269   1.508   0.472   5.699  1.3597 -0.7308  2.8566
 4212SOL    HW224270   1.425   0.499   5.819  0.0194  0.1734  0.0891
 4213SOL     OW24271   2.248   0.202  15.401 -0.2322 -0.3324  0.7126
 4213SOL    HW124272   2.270   0.200  15.494  3.3161  0.7001 -0.0957
 4213SOL    HW224273   2.153   0.196  15.407 -0.0844 -2.2798  1.2547
 4214SOL     OW24274   3.879   4.399   0.417 -0.1250  0.9037  0.1366
 4214SOL    HW124275   3.896   4.373   0.326 -1.4482 -0.6448  0.3354
 4214SOL    HW224276   3.963   4.420   0.459 -0.0454 -0.4082  0.6289
 4215SOL     OW24277   4.237   1.290   2.150  0.2087  0.3461 -0.1020
 4215SOL    HW124278   4.253   1.351   2.222 -2.3067  0.7661  0.1016
 4215SOL    HW224279   4.156   1.243   2.171 -0.6112  2.0160  0.4889
 4216SOL     OW24280   0.234   2.286  11.231 -0.2953 -0.6256 -0.2389
 4216SOL    HW124281   0.163   2.258  11.173 -0.3636 -0.5422 -0.1957
 4216SOL    HW224282   0.258   2.198  11.261  0.7253  0.1250  1.1547
 4217SOL     OW24283   4.330   3.756  13.277 -0.2023  0.1399  0.2945
 4217SOL    HW124284   4.370   3.800  13.202  1.2838 -1.3774  0.2037
 4217SOL    HW224285   4.333   3.661  13.263 -0.5443  0.4724 -2.0635
 4218SOL     OW24286   3.245   4.376   7.898 -0.6981 -0.1899  0.2219
 4218SOL    HW124287   3.211   4.388   7.987 -1.9771 -0.2786 -0.2482
 4218SOL    HW224288   3.312   4.308   7.906  1.0289  1.7924  2.5412
 4219SOL     OW24289   1.202   1.826   7.799 -0.4379 -0.7050 -0.2678
 4219SOL    HW124290   1.132   1.821   7.735 -0.2764 -0.5900 -0.4509
 4219SOL    HW224291   1.147   1.825   7.878 -0.4471  0.3465 -0.2680
 4220SOL     OW24292   3.006   2.239   6.806  0.1774  0.4584 -0.3337
 4220SOL    HW124293   2.995   2.266   6.897  0.6486 -1.3863  0.2747
 4220SOL    HW224294   3.059   2.308   6.767 -0.2430 -0.3089 -2.2726
 4221SOL     OW24295   1.004   1.490  13.494  0.2761  0.4496 -0.5725
 4221SOL    HW124296   1.068   1.556  13.466  2.3334 -0.8737  1.1192
 4221SOL    HW224297   0.922   1.537  13.479 -0.3583 -0.6796 -0.6361
 4222SOL     OW24298   3.722   2.099   1.926  0.6821 -0.6549 -0.3514
 4222SOL    HW124299   3.794   2.039   1.946 -0.6851 -1.2615  2.8541
 4222SOL    HW224300   3.770   2.182   1.930  0.1729 -0.3694 -0.2032
 4223SOL     OW24301   1.467   3.876   6.885  0.1046 -0.0416 -0.6376
 4223SOL    HW124302   1.385   3.923   6.895  1.4994  1.6295  2.9429
 4223SOL    HW224303   1.460   3.822   6.964  1.2746  1.0073  0.1902
 4224SOL     OW24304   2.209   0.317  16.473 -0.1410 -0.3097 -0.2183
 4224SOL    HW124305   2.180   0.313  16.564 -1.0417 -2.0318 -0.5908
 4224SOL    HW224306   2.128   0.292  16.430  0.8655 -0.3429 -2.1106
 4225SOL     OW24307   2.304   4.403   4.885  0.4954  0.5949  0.2509
 4225SOL    HW124308   2.211   4.389   4.869  0.9096 -3.0492  1.0875
 4225SOL    HW224309   2.292   4.457   4.964 -0.1535  3.1806 -1.6084
 4226SOL     OW24310   4.450   4.394  13.508 -0.3661 -0.4595 -0.3331
 4226SOL    HW124311   4.425   4.464  13.568 -0.2423  0.3016 -1.1777
 4226SOL    HW224312   4.489   4.434  13.430 -0.8184 -0.4541 -0.5542
 4227SOL     OW24313   4.037   4.019   2.721 -0.1561  0.4984  0.4457
 4227SOL    HW124314   4.049   3.930   2.756 -0.7452  1.7331  3.8368
 4227SOL    HW224315   3.962   4.043   2.776 -0.2341 -0.0477  0.5818
 4228SOL     OW24316   4.262   2.708   3.626  0.6572 -0.1649 -0.0948
 4228SOL    HW124317   4.319   2.671   3.558  0.3004 -0.1419 -0.4044
 4228SOL    HW224318   4.300   2.661   3.700  2.7813 -0.2888 -1.2704
 4229SOL     OW24319   3.015   2.261  13.639 -0.9058  0.6733  0.2257
 4229SOL    HW124320   3.075   2.263  13.565 -0.0506 -0.9424  0.8743
 4229SOL    HW224321   2.951   2.325  13.607 -0.4655  0.4078 -1.1874
 4230SOL     OW24322   1.226   1.657   3.629  0.2168 -0.1795  0.5825
 4230SOL    HW124323   1.255   1.580   3.677  2.8818  0.1522 -0.4926
 4230SOL    HW224324   1.133   1.654   3.650  0.2178 -0.8495  0.4933
 4231SOL     OW24325   3.196   0.600  12.566 -0.2624 -0.6562  0.0312
 4231SOL    HW124326   3.179   0.646  12.648  0.8813 -0.7833  0.3414
 4231SOL    HW224327   3.288   0.620  12.552 -1.3170  1.9002 -3.2154
 4232SOL     OW24328   4.735   3.771   5.723 -0.4499 -0.1368 -0.1513
 4232SOL    HW124329   4.661   3.746   5.667 -1.5546  0.1242  1.1919
 4232SOL    HW224330   0.014   3.689   5.770 -1.4241 -0.6828 -0.7706
 4233SOL     OW24331   0.975   0.282   4.140  0.1409 -0.1227  0.0218
 4233SOL    HW124332   0.911   0.303   4.072 -0.8249  0.5935  1.1589
 4233SOL    HW224333   1.037   0.355   4.139 -0.0849  0.0503 -1.8207
 4234SOL     OW24334   2.686   4.588   8.242 -0.0975  0.0478  1.1430
 4234SOL    HW124335   2.772   4.609   8.206 -0.4861 -1.1059 -0.4689
 4234SOL    HW224336   2.631   4.626   8.173  0.0365  1.4343  1.7971
 4235SOL     OW24337   2.594   0.421   8.783  0.5090 -0.1213 -0.1966
 4235SOL    HW124338   2.554   0.467   8.857 -0.5698 -1.4373  0.0529
 4235SOL    HW224339   2.684   0.408   8.810  1.1894  1.8216 -1.5629
 4236SOL     OW24340   0.615   2.730   7.730 -0.2481  0.0922  0.1216
 4236SOL    HW124341   0.625   2.667   7.658  0.3074  1.1403 -0.7124
 4236SOL    HW224342   0.638   2.807   7.679  1.6015  0.7170  1.9073
 4237SOL     OW24343   0.007   2.511   4.980  0.0768 -0.3746  0.1555
 4237SOL    HW124344   4.648   2.514   4.980  0.0638 -0.7769 -0.7206
 4237SOL    HW224345   0.029   2.420   4.960 -0.9934 -0.7153  0.5347
 4238SOL     OW24346   0.385   0.287   4.503 -0.6302  0.2420  0.2413
 4238SOL    HW124347   0.417   0.365   4.549 -0.3057  0.6909 -0.7239
 4238SOL    HW224348   0.411   0.322   4.417 -3.7746 -0.0314 -0.8071
 4239SOL     OW24349   0.799   3.268   5.871 -0.8669 -0.4799  0.4012
 4239SOL    HW124350   0.875   3.213   5.852 -1.0806 -0.2732 -1.0531
 4239SOL    HW224351   0.755   3.251   5.788  2.5734 -0.0284 -1.4907
 4240SOL     OW24352   0.164   0.580   7.284  0.0905  0.0618  0.4242
 4240SOL    HW124353   0.243   0.568   7.231  0.7942  0.6865  1.3311
 4240SOL    HW224354   0.133   0.668   7.261 -1.2418 -0.5169  0.0263
 4241SOL     OW24355   2.634   0.015   3.758  0.3728  0.5460  0.1782
 4241SOL    HW124356   2.628   0.101   3.716  1.8266  0.5192 -0.0847
 4241SOL    HW224357   2.725   0.011   3.730  0.7047  0.0990  1.3421
 4242SOL     OW24358   1.793   1.581   3.429  0.6885  0.0109 -0.1673
 4242SOL    HW124359   1.864   1.558   3.370  1.9621 -0.0536  1.3842
 4242SOL    HW224360   1.769   1.496   3.467  0.6869  0.6541  1.2698
 4243SOL     OW24361   4.014   4.239   9.251  0.0940 -0.9103 -0.1063
 4243SOL    HW124362   3.941   4.281   9.296  0.9878  0.0642  0.4343
 4243SOL    HW224363   3.979   4.151   9.243  1.2917 -1.2693 -1.4124
 4244SOL     OW24364   3.089   2.165   9.410  0.0623 -0.3249 -0.1464
 4244SOL    HW124365   3.055   2.208   9.332  0.3958  1.1732  0.5510
 4244SOL    HW224366   3.021   2.200   9.468 -0.4908 -0.8459 -0.4707
 4245SOL     OW24367   1.641   1.967  15.246  0.3662 -0.1984  0.5881
 4245SOL    HW124368   1.665   1.998  15.333  1.3563  1.1132 -0.1611
 4245SOL    HW224369   1.550   1.995  15.237  0.6774  0.3222 -0.9566
 4246SOL     OW24370   2.409   2.813  12.187 -0.4249  0.7459 -0.0342
 4246SOL    HW124371   2.375   2.775  12.268 -0.1997  0.9889  0.1718
 4246SOL    HW224372   2.500   2.784  12.190 -0.2563  1.6323  3.1678
 4247SOL     OW24373   2.498   1.239  16.317 -0.1949  0.2308  1.4006
 4247SOL    HW124374   2.407   1.211  16.307  0.1004  0.0054 -0.6154
 4247SOL    HW224375   2.476   1.303  16.384 -0.6553  0.8489  0.6577
 4248SOL     OW24376   3.689   0.514   3.063 -0.7959 -0.4261 -0.2361
 4248SOL    HW124377   3.774   0.503   3.020  0.5679  0.0255  2.3737
 4248SOL    HW224378   3.664   0.604   3.042  0.0603 -0.6381 -2.1230
 4249SOL     OW24379   1.137   0.951   5.545  0.1989 -0.3957  0.1781
 4249SOL    HW124380   1.119   0.922   5.635 -1.1014 -2.2303 -0.6605
 4249SOL    HW224381   1.212   0.896   5.526 -1.0039 -1.6139 -1.0518
 4250SOL     OW24382   0.229   3.873   7.939 -0.0895  0.0869  0.1305
 4250SOL    HW124383   0.141   3.871   7.978  0.2413 -0.7197  0.8339
 4250SOL    HW224384   0.190   3.854   7.853  0.2418 -0.2714  0.0604
 4251SOL     OW24385   3.107   0.750   6.625  1.3505 -0.4922 -0.0436
 4251SOL    HW124386   3.192   0.733   6.586  0.2659 -0.5705 -2.3811
 4251SOL    HW224387   3.062   0.666   6.619 -0.8131  0.7114 -0.6954
 4252SOL     OW24388   3.092   0.535   3.196 -0.2247  0.4120 -0.6510
 4252SOL    HW124389   3.026   0.585   3.243  1.1365  0.1580  1.5622
 4252SOL    HW224390   3.165   0.596   3.205  0.1908  0.0157 -1.3236
 4253SOL     OW24391   1.801   2.053   5.119 -0.0684 -0.5782 -0.6427
 4253SOL    HW124392   1.731   1.989   5.107 -1.8153  0.8036  1.9193
 4253SOL    HW224393   1.882   2.004   5.122 -0.6951 -1.4733  2.4417
 4254SOL     OW24394   1.226   3.296  11.150 -0.5637 -0.8503  0.2055
 4254SOL    HW124395   1.258   3.358  11.215 -0.7299  0.4619 -0.9729
 4254SOL    HW224396   1.181   3.363  11.100 -0.6559 -1.7555 -0.9224
 4255SOL     OW24397   2.726   3.704   7.024  0.3913  0.3509  0.2023
 4255SOL    HW124398   2.727   3.799   7.034 -0.1349  0.5326 -1.3857
 4255SOL    HW224399   2.799   3.671   7.077  1.2805  2.0662  0.0262
 4256SOL     OW24400   0.615   2.914   7.541  0.1663  0.4401  0.0627
 4256SOL    HW124401   0.563   2.911   7.461  2.0895  1.1524 -1.2061
 4256SOL    HW224402   0.694   2.959   7.512  1.1431 -0.7198  0.9231
 4257SOL     OW24403   1.416   0.758   2.891 -0.0383 -0.4547  0.2684
 4257SOL    HW124404   1.372   0.842   2.885 -0.6390 -0.8996 -1.7463
 4257SOL    HW224405   1.509   0.780   2.883  0.2619 -1.7904 -0.0755
 4258SOL     OW24406   4.390   2.302  17.642 -0.5134  0.9282 -0.6052
 4258SOL    HW124407   4.329   2.258  17.582 -2.3791 -0.8975  2.6307
 4258SOL    HW224408   4.453   2.322  17.572 -1.1064  1.3340 -1.0165
 4259SOL     OW24409   0.134   0.769   2.173 -0.3678 -0.7693 -0.4366
 4259SOL    HW124410   0.214   0.716   2.168  0.1987  0.2476 -2.2002
 4259SOL    HW224411   0.075   0.725   2.234  0.0025 -0.4001  0.1908
 4260SOL     OW24412   2.184   1.384   1.916  0.2086 -0.2120  0.0541
 4260SOL    HW124413   2.180   1.480   1.917 -2.2356 -0.3748  3.7461
 4260SOL    HW224414   2.128   1.377   1.839 -0.5324 -0.3095  0.6091
 4261SOL     OW24415   4.733   2.446   1.320  0.0848  0.7016  0.6400
 4261SOL    HW124416   0.068   2.507   1.303 -0.1052  0.6373 -0.3540
 4261SOL    HW224417   4.689   2.452   1.236  1.4303  0.1386 -0.1015
 4262SOL     OW24418   4.388   2.340   8.664 -0.3601  0.2908 -0.8122
 4262SOL    HW124419   4.390   2.390   8.582 -0.4491  0.4515 -0.7155
 4262SOL    HW224420   4.340   2.265   8.629 -0.3654  0.6637 -1.6131
 4263SOL     OW24421   3.247   1.487   2.669  1.0348 -0.2080  0.4451
 4263SOL    HW124422   3.248   1.541   2.748  1.6934  0.6406 -0.1418
 4263SOL    HW224423   3.333   1.444   2.666  0.3946 -1.4702  0.2120
 4264SOL     OW24424   1.125   2.803  16.709  0.2257 -0.0296  0.0668
 4264SOL    HW124425   1.197   2.740  16.709 -0.2072 -0.5152  0.1192
 4264SOL    HW224426   1.105   2.806  16.803 -0.8591  0.9619 -0.2029
 4265SOL     OW24427   3.200   4.298   3.084  0.5997  0.0027  0.0106
 4265SOL    HW124428   3.223   4.292   2.992 -0.6638 -1.8147 -0.1897
 4265SOL    HW224429   3.185   4.206   3.103  0.2109  0.5376  2.2969
 4266SOL     OW24430   2.369   1.500  16.912 -0.3061 -0.5309  0.0770
 4266SOL    HW124431   2.346   1.533  16.825  1.3738  0.9732  0.2212
 4266SOL    HW224432   2.402   1.582  16.948 -0.0329 -0.2668 -0.7870
 4267SOL     OW24433   4.687   3.850   2.961  0.1957  0.0457  0.0192
 4267SOL    HW124434   4.640   3.929   2.987  0.9583  0.7416 -0.7281
 4267SOL    HW224435   4.615   3.786   2.960  0.8913 -0.7598  1.1178
 4268SOL     OW24436   1.388   2.621   3.599 -0.0057  0.0036 -0.8823
 4268SOL    HW124437   1.314   2.676   3.625  0.2584  1.1659 -2.5980
 4268SOL    HW224438   1.344   2.542   3.569  0.0646 -0.4021  0.1068
 4269SOL     OW24439   1.197   0.922   1.121  0.1305 -0.3648  0.0458
 4269SOL    HW124440   1.169   0.837   1.087  0.0316 -1.3380  2.5033
 4269SOL    HW224441   1.230   0.905   1.210 -1.4880 -0.5233  0.6085
 4270SOL     OW24442   2.780   0.551  10.729  0.4017 -0.0418  0.0880
 4270SOL    HW124443   2.767   0.465  10.689  0.7278 -0.9105  1.8390
 4270SOL    HW224444   2.865   0.571  10.690 -0.8038  1.8328 -1.5929
 4271SOL     OW24445   4.469   3.827   6.956  0.4318  0.0350 -0.1679
 4271SOL    HW124446   4.403   3.895   6.943 -1.0086 -1.4564 -0.5787
 4271SOL    HW224447   4.412   3.752   6.940 -0.6720  1.2105 -1.8014
 4272SOL     OW24448   0.310   3.237   7.700  0.3810 -0.2680 -0.6090
 4272SOL    HW124449   0.346   3.283   7.624  0.5211  1.2959  0.4322
 4272SOL    HW224450   0.219   3.263   7.698  0.9176  1.5435 -1.1171
 4273SOL     OW24451   1.357   1.823   4.322  0.7898 -0.1865  0.1902
 4273SOL    HW124452   1.269   1.847   4.352  0.9596 -1.3061  1.5900
 4273SOL    HW224453   1.400   1.856   4.401  1.4453 -1.7063  0.4717
 4274SOL     OW24454   1.455   0.188   1.149 -0.1951  0.3675 -0.1210
 4274SOL    HW124455   1.429   0.096   1.147  0.8303  0.0779 -0.1216
 4274SOL    HW224456   1.437   0.215   1.059 -0.9834  1.2411  0.3007
 4275SOL     OW24457   3.382   4.663   1.518  0.0299 -0.0637 -0.2652
 4275SOL    HW124458   3.478   4.665   1.513  0.1331  0.8509  1.9417
 4275SOL    HW224459   3.376   4.679   1.612  1.5471  2.6683 -0.6154
 4276SOL     OW24460   0.158   4.254   3.519  0.1042 -0.2459  0.1825
 4276SOL    HW124461   0.130   4.345   3.507 -0.0272 -0.2584  0.3820
 4276SOL    HW224462   0.196   4.231   3.435  2.0142 -0.5498  1.1286
 4277SOL     OW24463   1.668   1.403   9.411 -0.2676  0.2620  0.5445
 4277SOL    HW124464   1.711   1.430   9.492  0.1017  0.6183  0.2283
 4277SOL    HW224465   1.575   1.400   9.434 -0.7226 -1.1939 -1.5177
 4278SOL     OW24466   4.040   1.912  11.259  0.1407  0.0371 -0.5160
 4278SOL    HW124467   3.958   1.870  11.285 -1.0033  1.1317 -2.3324
 4278SOL    HW224468   4.096   1.835  11.271  2.0688  1.8446  2.2239
 4279SOL     OW24469   4.613   0.061   9.122 -0.2698 -0.3102  0.3143
 4279SOL    HW124470   4.646   4.708   9.131  0.9929  0.2420  1.0638
 4279SOL    HW224471   4.535   0.067   9.177  0.1391 -0.9458  0.9544
 4280SOL     OW24472   2.967   3.399   7.350  0.2033 -0.5982  0.5742
 4280SOL    HW124473   3.060   3.393   7.328  0.1419 -0.7095  0.3526
 4280SOL    HW224474   2.974   3.469   7.416 -1.7308  0.6851 -0.5859
 4281SOL     OW24475   3.781   4.059   2.811 -0.1509  0.2443  0.1875
 4281SOL    HW124476   3.739   4.087   2.730  0.1242 -1.9113 -0.6795
 4281SOL    HW224477   3.715   4.010   2.860  1.2910 -2.3050 -0.4314
 4282SOL     OW24478   1.738   1.628   4.232 -0.3169  0.5477 -0.1573
 4282SOL    HW124479   1.754   1.716   4.266  0.4284  0.7036 -0.9264
 4282SOL    HW224480   1.728   1.576   4.312  1.3093 -0.1998 -0.4519
 4283SOL     OW24481   2.154   1.250   5.271  0.4246  0.4296 -0.1885
 4283SOL    HW124482   2.175   1.165   5.308 -0.6732  0.7670  1.2153
 4283SOL    HW224483   2.088   1.236   5.203  0.1383 -0.5117  0.2769
 4284SOL     OW24484   0.047   3.037   5.045  0.0298 -0.6662 -0.0129
 4284SOL    HW124485   0.079   3.126   5.033 -0.8779 -0.5449 -1.5106
 4284SOL    HW224486   4.704   3.036   4.993  0.8403 -0.9156 -1.2556
 4285SOL     OW24487   3.613   3.845   9.255  0.4375 -0.5488  0.3782
 4285SOL    HW124488   3.550   3.864   9.186 -1.4177 -1.3493  1.8562
 4285SOL    HW224489   3.586   3.761   9.292 -0.8350 -0.0540  0.5904
 4286SOL     OW24490   1.369   3.780   5.535  0.2786 -0.2058  0.1045
 4286SOL    HW124491   1.448   3.784   5.588  0.1777 -2.7701  0.4448
 4286SOL    HW224492   1.304   3.742   5.594  0.2017 -0.9338 -0.4401
 4287SOL     OW24493   1.397   4.722   7.274 -0.0209 -0.4934  0.8496
 4287SOL    HW124494   1.309   0.023   7.284 -1.0518 -2.8356  0.7448
 4287SOL    HW224495   1.379   4.638   7.231  0.3468  1.4712 -3.0505
 4288SOL     OW24496   0.753   2.208   6.955  0.6018  0.6806  0.0389
 4288SOL    HW124497   0.774   2.253   7.037  2.6226  0.8085 -0.5472
 4288SOL    HW224498   0.841   2.173   6.940  0.5191 -0.0406  1.2201
 4289SOL     OW24499   2.085   0.442  12.636  0.2667  0.3141  0.3998
 4289SOL    HW124500   2.005   0.461  12.685  0.2421 -0.3637  0.6278
 4289SOL    HW224501   2.112   0.532  12.616  0.3418  0.9126  3.2278
 4290SOL     OW24502   1.092   2.372  16.338  0.5857 -0.7140 -0.1916
 4290SOL    HW124503   1.086   2.453  16.389 -0.7479 -1.3269  0.6193
 4290SOL    HW224504   1.074   2.313  16.411  2.8962 -1.2454 -0.0567
 4291SOL     OW24505   1.203   2.782   3.712 -0.4183 -0.1068 -0.3711
 4291SOL    HW124506   1.272   2.821   3.767 -1.1173 -0.8754  1.0390
 4291SOL    HW224507   1.139   2.850   3.733  0.9058  1.4450 -1.3890
 4292SOL     OW24508   0.543   1.269  17.218  0.0394 -0.1539  0.4597
 4292SOL    HW124509   0.581   1.357  17.220 -1.5929  0.5915 -1.4446
 4292SOL    HW224510   0.472   1.274  17.154 -0.2343 -0.1692  0.7605
 4293SOL     OW24511   2.617   3.904   3.012 -0.2474  0.5917  0.3772
 4293SOL    HW124512   2.633   3.901   2.918  1.0963 -2.9121  0.7062
 4293SOL    HW224513   2.707   3.900   3.043 -0.3497 -1.3412  0.4399
 4294SOL     OW24514   2.683   2.484   0.601  0.2571 -0.3839 -0.4587
 4294SOL    HW124515   2.621   2.547   0.638  0.8052 -0.2242  0.1892
 4294SOL    HW224516   2.767   2.527   0.585  0.3136 -0.3687 -0.1342
 4295SOL     OW24517   1.460   1.731   8.954 -0.1167 -0.4438 -0.1066
 4295SOL    HW124518   1.522   1.788   8.909 -1.0115 -1.1381 -2.2437
 4295SOL    HW224519   1.381   1.777   8.926  0.1957 -0.2132 -0.6008
 4296SOL     OW24520   3.164   3.587   1.768 -0.5800 -0.5119 -0.1570
 4296SOL    HW124521   3.212   3.602   1.849  1.2006  0.3743 -1.3621
 4296SOL    HW224522   3.233   3.590   1.701 -0.0066  1.4196  0.5091
 4297SOL     OW24523   1.894   3.008   8.527 -0.0119  0.4605  0.1444
 4297SOL    HW124524   1.833   2.947   8.486 -0.8739  1.1106  0.4528
 4297SOL    HW224525   1.904   2.964   8.611  6.7349  1.6396  0.0376
 4298SOL     OW24526   0.215   3.688   6.153 -0.7453  0.0285 -0.6493
 4298SOL    HW124527   0.264   3.611   6.125  1.9304  1.1988  0.7851
 4298SOL    HW224528   0.271   3.720   6.224 -1.4471  1.5875 -0.7933
 4299SOL     OW24529   3.377   3.515   6.492 -0.3680  0.5686 -0.6042
 4299SOL    HW124530   3.402   3.423   6.483 -1.6739  0.3144 -1.6060
 4299SOL    HW224531   3.451   3.568   6.462  2.4463 -1.8789  1.9859
 4300SOL     OW24532   0.377   0.262   5.046  0.3714  0.5738 -0.0186
 4300SOL    HW124533   0.319   0.283   5.119 -0.0350  2.5019 -0.9141
 4300SOL    HW224534   0.307   0.230   4.989  0.8066  2.1571 -1.4182
 4301SOL     OW24535   1.203   4.253   5.387 -0.2349  0.3284 -0.4219
 4301SOL    HW124536   1.283   4.275   5.435 -1.3800  0.6769  1.3379
 4301SOL    HW224537   1.205   4.157   5.394 -1.1696  0.1604 -2.3829
 4302SOL     OW24538   2.729   4.293   9.960 -0.6235  0.8740  0.7648
 4302SOL    HW124539   2.652   4.335   9.922 -0.0301 -1.3467 -2.8945
 4302SOL    HW224540   2.802   4.330   9.911 -0.4582 -0.6311 -0.1511
 4303SOL     OW24541   0.931   0.737   8.717  0.2799  0.6555 -0.1069
 4303SOL    HW124542   0.906   0.658   8.670 -1.5609  0.8546  0.5035
 4303SOL    HW224543   0.856   0.749   8.776 -0.0735  0.3303 -0.4924
 4304SOL     OW24544   0.607   2.810  14.069  0.1012 -0.2242 -0.2097
 4304SOL    HW124545   0.531   2.822  14.011 -1.9945 -0.2595  2.5288
 4304SOL    HW224546   0.676   2.836  14.008 -1.2507  2.1775 -0.7202
 4305SOL     OW24547   4.335   1.495   2.366 -0.4251  0.3566 -0.3994
 4305SOL    HW124548   4.353   1.507   2.460  0.4910 -0.4652 -0.4747
 4305SOL    HW224549   4.317   1.587   2.344 -1.0257  0.6355  1.2246
 4306SOL     OW24550   4.202   1.257   2.560 -0.0875  0.1042  0.1730
 4306SOL    HW124551   4.218   1.351   2.561 -0.2334  0.1276  0.2640
 4306SOL    HW224552   4.286   1.228   2.523 -0.7579 -1.6766  0.0315
 4307SOL     OW24553   1.746   0.775   7.796 -0.7628 -0.2972  0.0213
 4307SOL    HW124554   1.705   0.860   7.812  0.0991  0.3961 -1.4675
 4307SOL    HW224555   1.829   0.806   7.760 -0.9093  0.3087  0.1888
 4308SOL     OW24556   4.258   4.477   8.205 -0.2214 -0.6131  0.2926
 4308SOL    HW124557   4.252   4.510   8.116  3.0085  1.4247  0.8297
 4308SOL    HW224558   4.340   4.513   8.239 -0.5677  0.5285 -0.0859
 4309SOL     OW24559   0.065   4.531   3.450  0.1913  0.1966  0.1970
 4309SOL    HW124560   0.151   4.546   3.412 -0.3341  1.0470 -0.6506
 4309SOL    HW224561   0.011   4.583   3.391  0.9906  2.3477  1.3805
 4310SOL     OW24562   0.361   1.317  14.024  0.2464 -0.2338 -0.1171
 4310SOL    HW124563   0.444   1.280  13.994 -0.4813  0.3286 -2.7476
 4310SOL    HW224564   0.333   1.248  14.085 -0.7829 -2.0959 -2.6959
 4311SOL     OW24565   1.049   3.678   0.386 -0.2532  0.2253  0.1549
 4311SOL    HW124566   1.020   3.663   0.296  1.2531 -0.7282 -0.1533
 4311SOL    HW224567   0.964   3.700   0.424 -0.3631 -0.0448  0.0640
 4312SOL     OW24568   4.092   4.313   6.632  0.0943 -0.3378  0.2249
 4312SOL    HW124569   4.087   4.373   6.707 -0.9465 -0.0566 -0.0740
 4312SOL    HW224570   4.005   4.318   6.593 -0.5358 -0.3237  1.6649
 4313SOL     OW24571   2.544   3.918  13.903  0.1341 -0.2261 -0.4405
 4313SOL    HW124572   2.586   3.849  13.953  1.2147 -0.4422 -1.6418
 4313SOL    HW224573   2.531   3.979  13.975 -1.0662  0.8288 -1.5390
 4314SOL     OW24574   1.612   4.179   2.418  0.2514  0.5049  0.2407
 4314SOL    HW124575   1.558   4.167   2.340  0.8966  2.5979 -0.5338
 4314SOL    HW224576   1.590   4.099   2.465  1.3093  0.5913  0.8844
 4315SOL     OW24577   2.787   2.928   2.656  0.1840 -0.2763  0.0971
 4315SOL    HW124578   2.844   2.923   2.579 -1.3250 -0.4555 -1.0200
 4315SOL    HW224579   2.853   2.929   2.725 -0.5442 -0.0659  0.7912
 4316SOL     OW24580   2.352   0.734   6.089 -0.3242 -0.0516  0.5222
 4316SOL    HW124581   2.388   0.766   6.172 -2.2810  1.5815  0.7462
 4316SOL    HW224582   2.292   0.804   6.062 -0.1547  0.3319  1.1252
 4317SOL     OW24583   0.981   2.879  16.487  0.0600 -0.2543  0.3084
 4317SOL    HW124584   0.972   2.975  16.485  2.8249 -0.0411 -3.0975
 4317SOL    HW224585   1.038   2.874  16.564  1.3798  2.8806 -0.4318
 4318SOL     OW24586   1.550   1.182   3.553  0.0018 -0.1117  0.2738
 4318SOL    HW124587   1.546   1.088   3.537  1.0983  0.0273 -0.7939
 4318SOL    HW224588   1.472   1.187   3.609 -1.3561  1.9601 -1.8245
 4319SOL     OW24589   1.182   4.223   0.811  0.6936  0.0050 -0.1633
 4319SOL    HW124590   1.133   4.285   0.865  0.7823 -0.3044  0.2752
 4319SOL    HW224591   1.216   4.168   0.882 -3.7620 -4.7947 -1.7304
 4320SOL     OW24592   0.064   3.465   2.408  0.2218 -0.3688  0.4247
 4320SOL    HW124593   0.095   3.388   2.455  0.8810  0.0931  0.7508
 4320SOL    HW224594   0.020   3.509   2.481  1.3861  1.8472 -0.2227
 4321SOL     OW24595   0.948   3.868   8.744  0.2709 -0.2931 -0.2830
 4321SOL    HW124596   1.003   3.871   8.823  0.5422 -1.2369 -0.4357
 4321SOL    HW224597   0.860   3.861   8.781  0.2396 -1.6152 -0.5863
 4322SOL     OW24598   3.001   3.333   2.864  0.5219 -0.8397  0.1207
 4322SOL    HW124599   2.931   3.382   2.908  1.7735  1.2784 -0.2479
 4322SOL    HW224600   2.953   3.287   2.795 -1.7039  0.6770  0.6574
 4323SOL     OW24601   4.248   3.087  10.187  0.2283 -1.0186 -0.2294
 4323SOL    HW124602   4.299   3.144  10.244 -0.0896 -1.3097  0.3474
 4323SOL    HW224603   4.215   3.011  10.234  0.1881 -0.4892  0.5823
 4324SOL     OW24604   0.663   2.711   8.651  0.0936  0.4540  0.3681
 4324SOL    HW124605   0.736   2.649   8.648  0.8283  1.3388 -0.1189
 4324SOL    HW224606   0.658   2.727   8.745 -0.1669  0.0442  0.4236
 4325SOL     OW24607   1.614   3.671   7.713  0.1844 -0.2247 -0.0492
 4325SOL    HW124608   1.629   3.601   7.649 -1.5384  0.2604 -0.9850
 4325SOL    HW224609   1.575   3.746   7.668 -0.3893  0.4713  1.5943
 4326SOL     OW24610   2.013   0.116   4.557 -0.7634 -0.4021 -0.6628
 4326SOL    HW124611   1.964   0.155   4.485 -2.0292 -1.1357 -0.2041
 4326SOL    HW224612   1.981   0.027   4.547  0.6405 -0.9378 -0.3873
 4327SOL     OW24613   0.523   1.600   2.492 -0.0429  0.1830  0.5899
 4327SOL    HW124614   0.453   1.594   2.427 -0.7431  0.8989  1.2760
 4327SOL    HW224615   0.600   1.560   2.451 -1.8730 -1.8949 -0.7617
 4328SOL     OW24616   1.010   2.270  11.022  0.8320  0.0548 -0.2642
 4328SOL    HW124617   0.923   2.238  11.047  1.0681  0.1529  0.6975
 4328SOL    HW224618   0.996   2.363  11.041 -2.0771 -0.7455  1.6133
 4329SOL     OW24619   2.303   3.279   7.989 -0.7190 -1.3235 -0.3395
 4329SOL    HW124620   2.231   3.319   8.037  0.6512 -1.5144  1.8704
 4329SOL    HW224621   2.372   3.298   8.052  0.6195  0.6550 -2.3845
 4330SOL     OW24622   2.079   0.485   6.949 -0.0194 -0.2236 -0.0871
 4330SOL    HW124623   2.009   0.546   6.925 -1.2110 -1.8742 -0.8241
 4330SOL    HW224624   2.041   0.403   6.918  1.3389  0.0447 -2.4258
 4331SOL     OW24625   1.295   4.586  10.369 -0.4179  0.0681 -0.5649
 4331SOL    HW124626   1.224   4.646  10.391  0.6480  1.0677  0.1720
 4331SOL    HW224627   1.256   4.506  10.404 -2.2649  1.0388 -0.4145
 4332SOL     OW24628   4.403   0.598  12.177  0.2304  0.2034  0.0947
 4332SOL    HW124629   4.491   0.618  12.146  0.1805 -0.4631 -0.5004
 4332SOL    HW224630   4.427   0.526  12.236 -2.2125  0.8840  1.9263
 4333SOL     OW24631   2.349   4.377   8.175 -0.1909  0.3498 -0.0458
 4333SOL    HW124632   2.329   4.341   8.088  1.7403  0.6966 -0.6127
 4333SOL    HW224633   2.258   4.387   8.203 -0.1787  1.4391 -0.3819
 4334SOL     OW24634   4.244   4.358   2.632  0.9737 -0.4183  0.2831
 4334SOL    HW124635   4.254   4.293   2.562  1.5374 -0.1696  0.1315
 4334SOL    HW224636   4.168   4.404   2.596  0.3636 -1.4039  0.3312
 4335SOL     OW24637   1.002   1.126   8.204  0.0231  0.2507 -0.4511
 4335SOL    HW124638   0.934   1.188   8.179 -1.3488 -2.0538 -2.5164
 4335SOL    HW224639   1.081   1.152   8.158  0.9701 -0.9568  0.4816
 4336SOL     OW24640   0.299   4.069  13.184 -0.7745  0.6147 -0.1937
 4336SOL    HW124641   0.231   4.078  13.251 -0.8398 -2.4765  0.1515
 4336SOL    HW224642   0.351   4.002  13.227 -0.3252  1.4811  0.6083
 4337SOL     OW24643   4.473   1.787  14.950 -0.1856  0.4158 -0.0151
 4337SOL    HW124644   4.480   1.749  15.038  1.8265  1.7629  0.4096
 4337SOL    HW224645   4.421   1.712  14.920  1.1228 -0.2555 -0.6072
 4338SOL     OW24646   2.460   3.816  15.202  0.0591  0.4051 -0.8090
 4338SOL    HW124647   2.407   3.855  15.271 -1.5980  0.0653 -1.8915
 4338SOL    HW224648   2.428   3.852  15.119  1.1991 -1.3051 -1.9737
 4339SOL     OW24649   0.553   2.065   2.240 -0.1466  0.3849  0.2139
 4339SOL    HW124650   0.538   2.042   2.332 -0.9552  0.4408  0.1011
 4339SOL    HW224651   0.498   2.142   2.228  0.9778  1.3052  0.9420
 4340SOL     OW24652   3.306   1.047   8.512 -0.6787 -0.3214 -0.1555
 4340SOL    HW124653   3.271   0.961   8.490  0.3775 -0.4515 -1.3589
 4340SOL    HW224654   3.228   1.088   8.547  0.3402 -0.2053  1.9619
 4341SOL     OW24655   1.255   1.035   7.006  0.7199 -0.1918 -0.2233
 4341SOL    HW124656   1.164   1.017   7.026  0.6495  0.7625  0.3120
 4341SOL    HW224657   1.254   1.130   6.996 -0.3956 -0.1254  0.6420
 4342SOL     OW24658   2.955   3.947   2.894  0.0251  0.3464  0.1736
 4342SOL    HW124659   2.934   3.858   2.867  1.2710  1.6239 -4.9113
 4342SOL    HW224660   2.920   4.005   2.826 -0.4467 -0.5177 -0.3204
 4343SOL     OW24661   4.596   4.310   9.015  0.3269 -0.3065  0.2640
 4343SOL    HW124662   4.559   4.280   9.098  0.9671  1.6578  1.2686
 4343SOL    HW224663   4.617   4.402   9.033 -0.1934 -0.1867  0.2584
 4344SOL     OW24664   3.856   4.309   5.725 -0.2378 -0.0267 -0.1721
 4344SOL    HW124665   3.951   4.298   5.719 -0.5162 -1.0972 -2.8615
 4344SOL    HW224666   3.836   4.398   5.754  1.1476  0.1953  0.0573
 4345SOL     OW24667   0.891   1.008   2.259 -0.1965 -0.1462 -0.2639
 4345SOL    HW124668   0.979   1.045   2.259 -0.2990  0.0986 -1.4574
 4345SOL    HW224669   0.887   0.985   2.166 -0.5248  0.6335 -0.4387
 4346SOL     OW24670   3.529   0.977   8.671  0.2779 -0.3521 -0.0011
 4346SOL    HW124671   3.449   0.990   8.620 -1.5431 -0.0461  2.8655
 4346SOL    HW224672   3.584   0.927   8.612 -0.3178  1.0400 -1.7161
 4347SOL     OW24673   4.129   1.133  10.646 -0.1941  0.2767  0.9675
 4347SOL    HW124674   4.182   1.080  10.706  1.2377 -1.1799 -1.5942
 4347SOL    HW224675   4.193   1.181  10.594 -0.5062 -0.1562  0.1844
 4348SOL     OW24676   2.914   1.368  13.987  0.2348  0.3181 -0.3000
 4348SOL    HW124677   2.857   1.293  13.971  0.4387 -0.0792  0.8206
 4348SOL    HW224678   2.941   1.387  13.897  2.3612  1.1561  0.5068
 4349SOL     OW24679   2.531   2.207   7.734 -0.0526  0.3055  0.4540
 4349SOL    HW124680   2.550   2.263   7.810  0.7209  0.1210  0.3983
 4349SOL    HW224681   2.604   2.230   7.676 -1.6370 -1.6775 -2.3071
 4350SOL     OW24682   0.720   1.517  11.669 -0.1652  0.9068 -0.3242
 4350SOL    HW124683   0.662   1.576  11.717 -0.8922 -2.5671  3.1182
 4350SOL    HW224684   0.796   1.523  11.727  0.3429 -0.3903 -0.8540
 4351SOL     OW24685   3.225   1.531   4.235  0.3157 -0.3592 -0.2180
 4351SOL    HW124686   3.216   1.518   4.140  0.7555 -1.1325 -0.1544
 4351SOL    HW224687   3.319   1.549   4.245  0.3283 -0.1425 -0.6953
 4352SOL     OW24688   2.733   1.632   4.970 -0.7463  0.0497  0.0906
 4352SOL    HW124689   2.802   1.574   4.936 -0.6364 -0.3592  1.0214
 4352SOL    HW224690   2.783   1.704   5.007  0.6464 -1.1463  0.5091
 4353SOL     OW24691   2.312   2.423  12.685  0.0546 -0.0870  0.4100
 4353SOL    HW124692   2.388   2.413  12.742  0.5704 -1.1538 -0.4641
 4353SOL    HW224693   2.350   2.471  12.612  2.7047  0.6114  2.2580
 4354SOL     OW24694   0.733   4.527   6.096 -0.9001  0.4681  0.0012
 4354SOL    HW124695   0.744   4.456   6.032 -0.6231  0.1521  0.3927
 4354SOL    HW224696   0.776   4.600   6.053 -1.2224 -0.8386 -2.5630
 4355SOL     OW24697   2.720   4.496   8.922 -0.3016 -0.4236  0.0563
 4355SOL    HW124698   2.689   4.492   9.012 -0.2266 -1.4512  0.0457
 4355SOL    HW224699   2.647   4.534   8.874 -0.1049  0.6310  0.5996
 4356SOL     OW24700   4.504   3.559   5.568  0.6586 -0.0802 -0.4000
 4356SOL    HW124701   4.437   3.532   5.506  0.5617 -2.0884  0.6059
 4356SOL    HW224702   4.583   3.510   5.545  0.2796 -0.1832 -1.4488
 4357SOL     OW24703   2.004   0.054   2.749  0.4585 -0.0564  0.4421
 4357SOL    HW124704   2.046   0.040   2.664 -0.7201  1.2711 -0.3639
 4357SOL    HW224705   2.024   4.700   2.772 -1.6379 -0.5636  0.2290
 4358SOL     OW24706   0.115   3.746   7.477 -0.8423  0.2069 -0.1896
 4358SOL    HW124707   0.037   3.709   7.434 -1.9124  1.6414  0.5131
 4358SOL    HW224708   0.171   3.780   7.407 -0.2171 -1.7235 -0.6180
 4359SOL     OW24709   4.012   1.992  17.570  0.2974 -0.0434 -0.4420
 4359SOL    HW124710   4.058   1.913  17.598 -0.5329 -0.5767 -0.5900
 4359SOL    HW224711   3.922   1.969  17.593  0.4069  2.6133  2.7378
 4360SOL     OW24712   4.396   3.328   8.735  0.0052 -0.1872 -0.1105
 4360SOL    HW124713   4.389   3.233   8.741 -1.5098 -0.0418  0.4788
 4360SOL    HW224714   4.344   3.347   8.657 -0.3971  1.3917  0.5323
 4361SOL     OW24715   3.734   0.829   7.021  0.2881 -0.0511 -0.1796
 4361SOL    HW124716   3.674   0.757   7.001  0.5201  0.1885 -1.7552
 4361SOL    HW224717   3.687   0.835   7.104 -0.2421  1.7947 -0.6086
 4362SOL     OW24718   1.001   3.957   6.166  0.5783  0.5799  0.2842
 4362SOL    HW124719   1.057   3.968   6.089  0.1642 -0.5645 -0.1741
 4362SOL    HW224720   0.956   4.041   6.176  0.7130  0.4770  1.8120
 4363SOL     OW24721   0.103   4.529  16.509 -0.1744  0.4721 -0.6537
 4363SOL    HW124722   0.056   4.516  16.427 -0.6481 -0.5274 -0.2200
 4363SOL    HW224723   0.138   4.441  16.522  1.5248  1.1910 -0.2963
 4364SOL     OW24724   1.969   2.268   6.782  0.1265 -0.3962  0.1713
 4364SOL    HW124725   1.948   2.255   6.874  0.4290  1.0415  0.4546
 4364SOL    HW224726   2.058   2.303   6.790 -0.1726 -0.1120  2.1401
 4365SOL     OW24727   3.808   4.427   8.579 -0.5471 -0.1428 -0.5433
 4365SOL    HW124728   3.823   4.364   8.650 -0.9568  0.8684  0.4512
 4365SOL    HW224729   3.787   4.364   8.510  1.2163 -0.8885 -0.4002
 4366SOL     OW24730   2.903   0.142  12.348 -0.1985 -0.4516 -0.6348
 4366SOL    HW124731   2.965   0.088  12.398  0.1339 -0.5491 -1.1537
 4366SOL    HW224732   2.837   0.147  12.418  0.4119  1.8911 -0.2497
 4367SOL     OW24733   4.491   1.912  12.338 -0.3393  0.0696  0.0398
 4367SOL    HW124734   4.560   1.846  12.333 -1.8056 -1.3706 -0.9945
 4367SOL    HW224735   4.484   1.945  12.248  1.2152 -2.0910 -0.8798
 4368SOL     OW24736   3.083   3.976   3.668 -0.2400  0.1220  0.2402
 4368SOL    HW124737   3.134   3.896   3.667  0.5396  0.6440 -2.5621
 4368SOL    HW224738   3.151   4.044   3.668  0.4845 -0.6153 -0.4822
 4369SOL     OW24739   2.991   1.568   7.386  0.3829  0.1544 -0.5362
 4369SOL    HW124740   2.998   1.553   7.292  0.4299  0.8020 -0.6357
 4369SOL    HW224741   2.936   1.492   7.406  0.7500  0.0225 -0.0280
 4370SOL     OW24742   4.389   0.635  14.221 -0.1981 -0.3042 -0.6682
 4370SOL    HW124743   4.456   0.698  14.194  0.4679 -0.1378  1.3397
 4370SOL    HW224744   4.309   0.663  14.178 -1.0477 -2.0454 -0.1933
 4371SOL     OW24745   2.194   3.234   7.094 -0.8377  0.0290 -0.2751
 4371SOL    HW124746   2.137   3.201   7.024 -0.7701 -1.1010  0.2124
 4371SOL    HW224747   2.149   3.187   7.163 -0.2970  2.1975  1.5691
 4372SOL     OW24748   4.358   4.435  17.580  0.0308  0.1424 -0.1821
 4372SOL    HW124749   4.391   4.427  17.491 -1.6806  0.1290 -0.8028
 4372SOL    HW224750   4.294   4.506  17.570 -1.4617 -1.0149  1.2510
 4373SOL     OW24751   1.669   3.156  10.793  0.0057  0.3817  0.4401
 4373SOL    HW124752   1.740   3.118  10.742  0.1768  1.3723 -0.0619
 4373SOL    HW224753   1.689   3.129  10.883  1.0361  2.7198  0.9024
 4374SOL     OW24754   3.605   0.817   7.242 -0.2105  0.3703 -0.6358
 4374SOL    HW124755   3.581   0.755   7.311  2.0522  0.7707  0.5155
 4374SOL    HW224756   3.644   0.892   7.287 -1.0294  1.7847 -2.2933
 4375SOL     OW24757   4.034   2.889   2.391  0.4879  0.0644  0.5500
 4375SOL    HW124758   4.012   2.927   2.306  0.1493 -0.8155  0.2425
 4375SOL    HW224759   4.042   2.966   2.447 -0.0712  0.6641 -0.2124
 4376SOL     OW24760   2.505   3.465   3.813  0.5663 -0.0504  1.1760
 4376SOL    HW124761   2.425   3.514   3.830  0.1362  0.1254 -1.4719
 4376SOL    HW224762   2.558   3.490   3.889 -0.2447 -0.8258  2.0027
 4377SOL     OW24763   3.728   3.847   4.127 -0.5844  0.7190  0.0315
 4377SOL    HW124764   3.767   3.870   4.211  1.1439 -0.0444 -0.5718
 4377SOL    HW224765   3.638   3.820   4.146  0.0881 -0.2796  1.7759
 4378SOL     OW24766   3.733   2.273   3.407  0.2526 -0.1101  0.5125
 4378SOL    HW124767   3.768   2.343   3.352  3.6475 -0.9985  1.5455
 4378SOL    HW224768   3.787   2.292   3.485 -0.5928 -0.8773  1.2816
 4379SOL     OW24769   0.294   4.115   6.387  0.4804  0.2769 -0.1357
 4379SOL    HW124770   0.283   4.035   6.438  1.1956 -0.2361 -0.7903
 4379SOL    HW224771   0.239   4.110   6.309 -1.9654 -1.5904  1.6647
 4380SOL     OW24772   3.119   2.714  12.392  0.0781 -0.2341 -0.1333
 4380SOL    HW124773   3.212   2.705  12.411 -0.1669 -0.7854  0.7906
 4380SOL    HW224774   3.079   2.745  12.473  2.5894  0.0864  0.9714
 4381SOL     OW24775   3.199   2.247   3.649  0.1188 -0.1805 -0.5621
 4381SOL    HW124776   3.294   2.253   3.656  0.2968 -1.2971 -2.0996
 4381SOL    HW224777   3.181   2.235   3.556  0.9698  0.4432 -0.8098
 4382SOL     OW24778   3.496   2.185  14.184 -0.3969  0.2272  0.2181
 4382SOL    HW124779   3.525   2.174  14.093 -1.2098 -2.8359  0.3080
 4382SOL    HW224780   3.425   2.121  14.178 -1.2167  1.2187 -0.5887
 4383SOL     OW24781   2.354   4.681   5.426  0.6257 -0.5479 -0.3093
 4383SOL    HW124782   2.353   4.586   5.430 -0.7400 -0.4607  1.5465
 4383SOL    HW224783   2.449   4.689   5.427  0.5393  0.4582 -0.1260
 4384SOL     OW24784   1.449   1.607   2.997 -0.3552  0.4813 -0.0795
 4384SOL    HW124785   1.433   1.545   3.068  1.3486  0.6157  0.4121
 4384SOL    HW224786   1.434   1.688   3.046 -2.5457 -1.3717  2.2984
 4385SOL     OW24787   0.896   4.214   2.686  0.2910 -0.0695 -0.2565
 4385SOL    HW124788   0.870   4.134   2.641  0.3866 -0.2269 -0.0343
 4385SOL    HW224789   0.980   4.233   2.643  1.5437 -0.3313  2.0810
 4386SOL     OW24790   2.871   2.321   5.251  0.6342 -0.7981 -0.4495
 4386SOL    HW124791   2.888   2.391   5.189  1.2451  0.1850  0.8304
 4386SOL    HW224792   2.821   2.257   5.200 -0.8187 -1.0039  1.2411
 4387SOL     OW24793   1.634   2.459   6.053  0.4265  0.2317 -0.3696
 4387SOL    HW124794   1.565   2.485   5.992  0.9418  1.6166 -0.3727
 4387SOL    HW224795   1.580   2.447   6.131  1.6018 -1.4554  0.1760
 4388SOL     OW24796   2.625   3.234   4.063  0.4479 -0.6765  0.0260
 4388SOL    HW124797   2.644   3.327   4.046 -1.3522 -0.3488 -0.2064
 4388SOL    HW224798   2.622   3.199   3.974 -1.8032  0.4786 -0.3442
 4389SOL     OW24799   2.110   2.996  13.234 -0.6307  0.1180 -0.1043
 4389SOL    HW124800   2.043   2.937  13.270 -1.7917  1.0370 -0.7515
 4389SOL    HW224801   2.060   3.020  13.156 -2.3585 -0.1607  0.9037
 4390SOL     OW24802   1.410   1.015  10.395 -0.3854  0.0274  0.1616
 4390SOL    HW124803   1.422   1.100  10.352  0.7813 -0.2770 -0.1146
 4390SOL    HW224804   1.361   0.958  10.336 -1.3801 -0.8145  1.8192
 4391SOL     OW24805   1.339   3.039   7.756  0.0890  0.0913 -0.0248
 4391SOL    HW124806   1.399   3.061   7.685 -1.0493  3.6389  0.1132
 4391SOL    HW224807   1.254   3.063   7.720  0.5743  1.0071 -0.5860
 4392SOL     OW24808   0.482   3.274   0.084 -0.0660 -0.7541  0.5134
 4392SOL    HW124809   0.447   3.239   0.166  1.3048 -0.2367  1.3195
 4392SOL    HW224810   0.574   3.253   0.096 -0.1022 -0.9344  0.4738
 4393SOL     OW24811   0.062   4.662   3.021 -0.3754  0.0265 -0.4352
 4393SOL    HW124812   0.125   4.636   2.953  0.9488  0.9552  0.4525
 4393SOL    HW224813   0.043   0.013   2.988  1.0754  0.8034  0.8073
 4394SOL     OW24814   0.476   2.281   8.955  0.0131 -0.1344 -0.1318
 4394SOL    HW124815   0.404   2.287   8.891 -1.2569  3.4840  1.6388
 4394SOL    HW224816   0.513   2.193   8.951  0.3344 -0.0279  0.6114
 4395SOL     OW24817   4.283   2.184  12.683 -0.6540 -0.0126 -0.1149
 4395SOL    HW124818   4.290   2.103  12.735  1.9587  0.1297 -0.2524
 4395SOL    HW224819   4.353   2.178  12.618 -1.6617 -0.1468 -1.1879
 4396SOL     OW24820   0.242   0.670   8.580  0.0999 -0.3379 -0.0554
 4396SOL    HW124821   0.294   0.668   8.500  1.1730  1.6577  0.5971
 4396SOL    HW224822   0.171   0.731   8.559 -0.5413 -0.6407  1.2023
 4397SOL     OW24823   0.061   2.893   8.330 -0.1464  0.3564  0.0335
 4397SOL    HW124824   0.122   2.872   8.401 -1.2682 -1.7865  0.3890
 4397SOL    HW224825   0.124   2.932   8.270  1.3675 -2.9577 -0.5253
 4398SOL     OW24826   0.690   4.309   8.114 -0.1688 -0.4841  0.6078
 4398SOL    HW124827   0.739   4.384   8.081 -0.0029 -0.4814  0.8577
 4398SOL    HW224828   0.704   4.331   8.206 -2.4808  1.3869  0.5276
 4399SOL     OW24829   0.183   4.233  16.268 -0.5594  0.1072 -0.1223
 4399SOL    HW124830   0.152   4.150  16.232 -1.5669  0.1036  0.7674
 4399SOL    HW224831   0.278   4.226  16.259 -0.5449  0.7438 -0.4571
 4400SOL     OW24832   4.356   2.386   8.080  0.5971  0.3611  0.3875
 4400SOL    HW124833   4.434   2.441   8.090 -0.4037  1.6151  1.3890
 4400SOL    HW224834   4.298   2.458   8.053 -1.1847  0.4417  4.4646
 4401SOL     OW24835   3.338   3.907   1.879  0.3103 -0.6512 -0.1239
 4401SOL    HW124836   3.358   3.903   1.973  2.6840  0.0042 -0.6018
 4401SOL    HW224837   3.302   3.995   1.870  2.3378  0.4907  2.7509
 4402SOL     OW24838   0.077   3.865   9.586  0.1164 -0.1681  0.2580
 4402SOL    HW124839   0.145   3.801   9.565 -0.5406 -1.0012  0.6277
 4402SOL    HW224840   0.065   3.834   9.676  2.9279 -1.3028  0.2358
 4403SOL     OW24841   0.175   1.880   3.520  0.0252  0.4088 -0.4179
 4403SOL    HW124842   0.202   1.822   3.591  2.4137  0.7084 -1.0912
 4403SOL    HW224843   0.180   1.823   3.443  0.0923 -2.3504  1.6165
 4404SOL     OW24844   2.927   4.207  15.757  0.2517  0.6286  0.1686
 4404SOL    HW124845   2.945   4.122  15.717  1.0016  0.1196  1.5481
 4404SOL    HW224846   2.873   4.176  15.830 -2.3655 -1.4189 -2.6714
 4405SOL     OW24847   2.755   0.513   4.036 -0.2501 -0.7076 -0.5389
 4405SOL    HW124848   2.777   0.561   4.116 -1.3561  0.3030 -0.8350
 4405SOL    HW224849   2.786   0.569   3.965 -0.5728 -1.0240 -0.9270
 4406SOL     OW24850   2.818   2.900  11.938 -0.0350  0.3410 -0.1838
 4406SOL    HW124851   2.885   2.910  12.006 -0.8272  1.0969  0.4879
 4406SOL    HW224852   2.789   2.991  11.945 -0.5401  0.3970 -3.1514
 4407SOL     OW24853   2.016   0.840  13.251  0.3688 -0.1998  0.0916
 4407SOL    HW124854   2.049   0.859  13.339  0.2179 -0.8661  0.2990
 4407SOL    HW224855   1.989   0.750  13.269  0.9032 -0.3084  0.3493
 4408SOL     OW24856   2.083   4.692   9.432 -0.4235 -0.2632  0.0768
 4408SOL    HW124857   2.013   0.021   9.426  1.6943  2.0295  0.8126
 4408SOL    HW224858   2.164   0.000   9.411 -1.2316  2.6293  3.1256
 4409SOL     OW24859   3.816   1.759  11.351  0.3933  0.0916  0.1099
 4409SOL    HW124860   3.749   1.691  11.351  0.7982 -0.3034 -1.3906
 4409SOL    HW224861   3.839   1.768  11.443 -1.5073 -2.1573  0.8024
 4410SOL     OW24862   1.712   1.437   6.141  0.5087 -0.8157 -0.7415
 4410SOL    HW124863   1.666   1.365   6.098  1.6311 -0.8958 -1.7973
 4410SOL    HW224864   1.650   1.478   6.201 -0.3588 -2.0405 -0.8107
 4411SOL     OW24865   1.392   2.337   4.160 -0.0387  0.0068 -0.2011
 4411SOL    HW124866   1.388   2.271   4.091 -0.5380 -0.6223  0.4196
 4411SOL    HW224867   1.307   2.378   4.147  0.6817  0.7622 -2.5728
 4412SOL     OW24868   2.557   2.056  10.105 -0.7021 -0.0555 -0.1694
 4412SOL    HW124869   2.506   1.979  10.081 -0.4834  0.1092 -1.1538
 4412SOL    HW224870   2.593   2.024  10.188  0.8936 -0.7451 -1.1408
 4413SOL     OW24871   2.110   3.624   1.345 -0.1979  0.7258  0.2399
 4413SOL    HW124872   2.034   3.569   1.329 -0.5970  1.0704  0.9132
 4413SOL    HW224873   2.085   3.706   1.303 -1.8070 -0.9431 -1.9978
 4414SOL     OW24874   3.094   0.049  12.841  0.1718 -0.5822  0.0553
 4414SOL    HW124875   3.170   0.071  12.787 -1.2471  0.8468 -1.3759
 4414SOL    HW224876   3.082   4.691  12.830 -0.6396 -0.4780  0.0410
 4415SOL     OW24877   1.171   2.002  13.504  0.2426  0.1718 -0.4305
 4415SOL    HW124878   1.150   1.914  13.472 -2.0906  0.8521 -0.7904
 4415SOL    HW224879   1.248   1.995  13.560  0.2268 -1.3982 -0.6063
 4416SOL     OW24880   4.241   1.015   3.099 -0.1852  0.6449 -0.2241
 4416SOL    HW124881   4.300   1.083   3.132  0.2150 -1.2505  2.9612
 4416SOL    HW224882   4.168   1.011   3.161  0.6257 -2.1276  0.5784
 4417SOL     OW24883   3.557   2.944   8.764  0.2806  0.2830  0.5276
 4417SOL    HW124884   3.557   2.855   8.798 -0.4797  0.1626  0.2251
 4417SOL    HW224885   3.512   2.992   8.833 -2.6712  0.8499 -1.7683
 4418SOL     OW24886   2.922   3.990  10.745 -0.1059  0.5430 -0.3819
 4418SOL    HW124887   2.958   4.068  10.787 -0.0733 -0.2487  1.0598
 4418SOL    HW224888   2.842   3.971  10.793  0.8645 -0.2006  0.9177
 4419SOL     OW24889   2.351   3.559   2.853  0.1224  0.7459 -0.0924
 4419SOL    HW124890   2.258   3.535   2.849  0.2672  0.1554  0.0736
 4419SOL    HW224891   2.340   3.653   2.865 -0.8312  0.4998  0.9625
 4420SOL     OW24892   2.396   2.312   5.889  0.2747  0.2730 -0.0792
 4420SOL    HW124893   2.342   2.344   5.961  0.9992  0.1154  0.5336
 4420SOL    HW224894   2.371   2.384   5.831  2.7287 -0.7449 -2.3962
 4421SOL     OW24895   0.693   3.363   1.957  0.2766 -0.0664  0.0853
 4421SOL    HW124896   0.684   3.268   1.958  0.7816 -0.1223 -0.7364
 4421SOL    HW224897   0.604   3.387   1.931  0.0461 -0.8463  0.1723
 4422SOL     OW24898   4.490   3.270   5.143  0.9171 -0.1615  0.3897
 4422SOL    HW124899   4.546   3.347   5.137  2.5022 -1.3006  0.6480
 4422SOL    HW224900   4.542   3.204   5.188 -0.9657 -0.4953  2.0927
 4423SOL     OW24901   3.137   3.010   8.507  0.0922 -0.6521  0.0959
 4423SOL    HW124902   3.130   3.023   8.602  0.9398  1.0742 -0.0851
 4423SOL    HW224903   3.044   2.997   8.485  0.0638 -1.4687  0.7084
 4424SOL     OW24904   4.006   4.687   6.196  0.2148  0.2907  0.2907
 4424SOL    HW124905   4.046   4.646   6.119  0.3625  1.7328 -0.4023
 4424SOL    HW224906   3.957   4.611   6.227  2.0988 -0.7352  0.7411
 4425SOL     OW24907   3.824   4.646   7.555  0.5115  0.2800  0.0469
 4425SOL    HW124908   3.873   4.564   7.555 -1.4744 -0.8830  0.2002
 4425SOL    HW224909   3.743   4.624   7.509  0.8636  0.3752 -0.6299
 4426SOL     OW24910   4.253   2.780   4.431  0.5683 -0.1096  0.8136
 4426SOL    HW124911   4.178   2.798   4.374  0.4369  3.1267  2.0725
 4426SOL    HW224912   4.290   2.861   4.464  0.6345  0.1071  0.2085
 4427SOL     OW24913   1.099   2.079   6.060 -0.0598  0.2509 -0.3067
 4427SOL    HW124914   1.187   2.054   6.029  0.3646  1.3613  0.0312
 4427SOL    HW224915   1.105   2.167   6.097  0.9005 -0.5587  1.4779
 4428SOL     OW24916   0.956   3.285  10.404  0.9195 -0.1004 -0.0249
 4428SOL    HW124917   0.989   3.365  10.444  0.1175  0.8116 -1.1980
 4428SOL    HW224918   0.871   3.274  10.449 -0.0405  0.3605 -1.7302
 4429SOL     OW24919   0.257   3.685  17.435  0.3785 -0.4512 -0.7391
 4429SOL    HW124920   0.310   3.613  17.401  0.4553 -0.3021 -0.9362
 4429SOL    HW224921   0.195   3.703  17.364 -0.4245  0.6117  0.2191
 4430SOL     OW24922   1.852   1.162   4.967 -0.4296  0.1981  0.5289
 4430SOL    HW124923   1.929   1.219   4.963  1.8622 -2.9014  0.0277
 4430SOL    HW224924   1.849   1.137   5.059  0.0199 -2.8827 -0.2980
 4431SOL     OW24925   0.377   4.194  16.043  0.0319  0.0283 -0.1545
 4431SOL    HW124926   0.443   4.178  15.975 -2.8088 -2.4321 -2.3714
 4431SOL    HW224927   0.299   4.206  15.989  1.0166 -0.5274 -1.7145
 4432SOL     OW24928   1.454   1.967   2.377 -0.1944 -0.2686  0.3456
 4432SOL    HW124929   1.378   1.916   2.406  0.3502 -0.2952  1.7244
 4432SOL    HW224930   1.417   2.043   2.332 -2.0625 -0.8706  0.8612
 4433SOL     OW24931   2.597   1.660   4.543  0.2997  0.2806 -0.2018
 4433SOL    HW124932   2.554   1.635   4.461  1.0427  0.7387 -0.7179
 4433SOL    HW224933   2.553   1.744   4.550  1.3163  0.7725  0.3245
 4434SOL     OW24934   4.439   0.579   7.469 -0.2388 -0.2997 -0.2209
 4434SOL    HW124935   4.512   0.641   7.460 -1.5676  1.0544 -1.8064
 4434SOL    HW224936   4.363   0.635   7.451 -1.7702 -2.5811 -0.8896
 4435SOL     OW24937   3.464   0.807   6.998  0.0463 -0.2754  0.0545
 4435SOL    HW124938   3.477   0.784   7.090  0.1779  0.3403  0.1874
 4435SOL    HW224939   3.408   0.738   6.962  0.7230 -1.1509  0.6676
 4436SOL     OW24940   1.158   2.052  10.566  0.0845 -0.2030 -0.0837
 4436SOL    HW124941   1.228   2.089  10.512  0.3562 -0.1466  0.2983
 4436SOL    HW224942   1.153   2.112  10.641 -1.5419  0.3943 -0.6748
 4437SOL     OW24943   1.381   4.230   2.655 -0.2983 -0.0288 -0.3549
 4437SOL    HW124944   1.443   4.291   2.614 -0.9886  1.7747  1.2814
 4437SOL    HW224945   1.436   4.166   2.700 -1.2529 -0.6866 -0.1466
 4438SOL     OW24946   2.226   2.413   0.210  0.7438  0.6123  0.2404
 4438SOL    HW124947   2.212   2.485   0.270 -1.8727 -0.4022  0.8503
 4438SOL    HW224948   2.316   2.391   0.234  0.6942 -1.1081 -1.1293
 4439SOL     OW24949   3.896   1.498  10.283  0.5725  0.5747 -0.9058
 4439SOL    HW124950   3.835   1.503  10.209  0.8926  0.2374 -1.1972
 4439SOL    HW224951   3.974   1.543  10.250  2.0260 -0.3736  1.2266
 4440SOL     OW24952   0.408   0.814   5.921  0.0876 -0.1596 -0.1710
 4440SOL    HW124953   0.436   0.775   5.839  1.1137  0.9579 -0.3658
 4440SOL    HW224954   0.465   0.765   5.981 -1.0163  0.3644  1.3234
 4441SOL     OW24955   2.741   1.462   2.645 -0.1036 -0.1645 -0.1106
 4441SOL    HW124956   2.783   1.463   2.732 -1.4934 -2.0210  0.5706
 4441SOL    HW224957   2.779   1.541   2.606  0.8047  0.1764  1.4701
 4442SOL     OW24958   4.464   2.716   7.818 -0.1406 -0.1016 -0.5977
 4442SOL    HW124959   4.504   2.633   7.842  0.1123  0.0946 -0.3333
 4442SOL    HW224960   4.530   2.784   7.805  2.5121 -2.5123  0.4088
 4443SOL     OW24961   4.694   3.071   6.984  0.1836  0.2285  0.0917
 4443SOL    HW124962   0.013   3.098   7.058  0.4604 -1.7053  0.5852
 4443SOL    HW224963   0.030   3.067   6.921 -0.6520 -1.9759 -0.7104
 4444SOL     OW24964   2.595   2.406  15.359 -0.3564  0.2577  0.2006
 4444SOL    HW124965   2.666   2.425  15.421  0.3804  0.7810 -0.8163
 4444SOL    HW224966   2.541   2.354  15.418  1.0296 -0.4533  0.8577
 4445SOL     OW24967   2.070   1.000   8.939 -0.1827  0.1308  0.2394
 4445SOL    HW124968   2.076   1.088   8.903  0.6117  0.4112  1.0459
 4445SOL    HW224969   2.129   1.016   9.013  0.3953 -0.5930 -0.0568
 4446SOL     OW24970   4.278   1.696   7.302 -0.3548 -0.3195 -0.1979
 4446SOL    HW124971   4.281   1.778   7.352 -1.6448  0.0766 -0.7869
 4446SOL    HW224972   4.345   1.713   7.235  0.1424 -1.5225 -0.0095
 4447SOL     OW24973   3.433   2.315   6.525 -0.4305  0.0810  0.4568
 4447SOL    HW124974   3.502   2.251   6.544 -0.9433 -0.2581  1.2299
 4447SOL    HW224975   3.366   2.268   6.576 -0.7794  0.4470  0.3413
 4448SOL     OW24976   0.324   0.249   6.154  0.5229  0.1882 -0.5297
 4448SOL    HW124977   0.409   0.256   6.110  1.0327 -1.0190  0.2510
 4448SOL    HW224978   0.335   0.164   6.198 -1.3529 -0.5283 -1.4512
 4449SOL     OW24979   1.636   1.404   4.666 -0.0117 -0.4714 -0.2446
 4449SOL    HW124980   1.654   1.310   4.670 -0.8489 -0.7180 -2.7636
 4449SOL    HW224981   1.587   1.411   4.585 -0.6041  0.9418  0.2336
 4450SOL     OW24982   1.967   4.201   3.992  0.3911  0.3037  0.4975
 4450SOL    HW124983   1.906   4.265   3.956 -0.6533 -0.4545  0.9090
 4450SOL    HW224984   1.925   4.186   4.077  1.4048  1.7403  1.2379
 4451SOL     OW24985   1.568   3.788   9.393 -0.2625  0.3012 -0.6919
 4451SOL    HW124986   1.588   3.701   9.429 -0.9201 -0.8298 -3.0397
 4451SOL    HW224987   1.631   3.794   9.322  0.9331 -3.2920  0.0379
 4452SOL     OW24988   2.195   0.986   2.252 -0.5427 -0.2672 -0.2997
 4452SOL    HW124989   2.158   1.066   2.215  1.1308  0.8538  0.4936
 4452SOL    HW224990   2.255   1.029   2.312  0.4659 -2.3369  0.1794
 4453SOL     OW24991   3.463   2.130   3.661 -0.4448  0.1366  0.2102
 4453SOL    HW124992   3.470   2.079   3.580  1.0231  1.3658 -0.4307
 4453SOL    HW224993   3.399   2.078   3.710  0.2064 -0.4939  0.3831
 4454SOL     OW24994   2.906   0.727   8.567 -0.0386 -0.2450  0.6291
 4454SOL    HW124995   2.832   0.766   8.615 -1.0241 -0.7683 -0.4841
 4454SOL    HW224996   2.953   0.680   8.635  1.0343 -3.4883 -2.3921
 4455SOL     OW24997   1.321   0.033   8.811  0.2844  0.0137  0.3915
 4455SOL    HW124998   1.381   0.030   8.736  0.8130  0.7749  0.7791
 4455SOL    HW224999   1.250   4.712   8.784 -1.0529  0.4932  2.9038
 4456SOL     OW25000   2.722   1.136  12.842  0.7879  0.1171  0.5923
 4456SOL    HW125001   2.809   1.119  12.879  0.0754 -0.6198  1.9051
 4456SOL    HW225002   2.737   1.174  12.755 -0.6918 -0.9571 -0.1209
 4457SOL     OW25003   1.173   1.492  12.302 -0.2198  0.0537 -0.0096
 4457SOL    HW125004   1.156   1.580  12.269 -1.7717  0.7857  2.6754
 4457SOL    HW225005   1.245   1.506  12.364  0.5361  0.4881 -1.0019
 4458SOL     OW25006   1.411   0.235  11.881  0.1734 -0.3099 -0.3519
 4458SOL    HW125007   1.498   0.197  11.870 -0.2068 -1.1052 -0.6183
 4458SOL    HW225008   1.388   0.251  11.790 -1.2323  2.2539  0.4407
 4459SOL     OW25009   2.366   1.701   4.750  0.2580 -0.0904  0.0315
 4459SOL    HW125010   2.406   1.776   4.707  0.3134 -1.0562 -1.6115
 4459SOL    HW225011   2.275   1.698   4.720 -0.1059  0.9355  0.9967
 4460SOL     OW25012   1.536   0.822   3.237 -0.5553 -0.0362 -0.0836
 4460SOL    HW125013   1.513   0.796   3.326 -3.1337 -1.5108 -1.1809
 4460SOL    HW225014   1.478   0.897   3.233  0.9578  1.1477  0.1506
 4461SOL     OW25015   0.488   1.221   8.467 -0.2834  0.5883 -0.4614
 4461SOL    HW125016   0.504   1.144   8.521 -2.6037  0.9807  0.7913
 4461SOL    HW225017   0.511   1.287   8.532  1.0453 -1.7291  1.4133
 4462SOL     OW25018   0.189   4.627  14.123  0.0136  0.4279  0.5200
 4462SOL    HW125019   0.107   4.667  14.150 -0.1303  0.8065 -0.4781
 4462SOL    HW225020   0.177   4.539  14.159  3.5632  0.4451  1.7843
 4463SOL     OW25021   0.156   2.587  17.613  0.2332 -0.3463  0.4099
 4463SOL    HW125022   0.251   2.601  17.608  0.4033 -1.1896  1.3033
 4463SOL    HW225023   0.131   2.615  17.700  0.7219 -1.8395  1.0403
 4464SOL     OW25024   3.147   1.340   0.451  0.4211  0.2794 -0.1398
 4464SOL    HW125025   3.188   1.324   0.537 -1.9211 -0.8041  0.7978
 4464SOL    HW225026   3.182   1.426   0.432  0.0972  0.2243 -0.9604
 4465SOL     OW25027   2.455   4.307   9.260  0.2592  0.2180  0.6736
 4465SOL    HW125028   2.379   4.329   9.206 -1.1167 -1.9346  1.7036
 4465SOL    HW225029   2.415   4.276   9.342 -0.4270  1.0390  0.6391
 4466SOL     OW25030   4.209   2.337   3.267 -0.3780 -0.7363  0.3506
 4466SOL    HW125031   4.255   2.412   3.228 -1.0476 -0.8665 -0.6988
 4466SOL    HW225032   4.225   2.361   3.358  0.6824  0.4885 -0.1385
 4467SOL     OW25033   2.188   4.043   4.019  0.4603  0.1932 -0.1630
 4467SOL    HW125034   2.104   4.086   4.010  0.1591 -0.3159  0.1812
 4467SOL    HW225035   2.230   4.074   3.939 -0.0804  0.3610 -0.3829
 4468SOL     OW25036   0.454   3.823   7.723  1.0406 -0.1811 -0.2914
 4468SOL    HW125037   0.479   3.894   7.782 -1.4808 -0.5930  1.2770
 4468SOL    HW225038   0.417   3.877   7.653 -0.6327 -1.8548 -0.7111
 4469SOL     OW25039   0.130   4.131   6.157 -0.1292  0.1749 -0.1563
 4469SOL    HW125040   0.178   4.206   6.123  0.5834  0.3246  1.2098
 4469SOL    HW225041   0.066   4.116   6.087  1.7593 -1.8275 -1.4609
 4470SOL     OW25042   1.288   0.061   6.356  0.0988  0.2254 -0.2960
 4470SOL    HW125043   1.239   0.019   6.286  1.7168 -1.3652 -0.4825
 4470SOL    HW225044   1.342   0.119   6.304  0.2393  0.0441 -0.3518
 4471SOL     OW25045   1.846   4.643   7.708 -0.1726  0.2362  0.0430
 4471SOL    HW125046   1.811   4.572   7.655 -2.1827  0.0771  1.5700
 4471SOL    HW225047   1.774   4.680   7.759  0.1331  0.5590  0.2458
 4472SOL     OW25048   4.171   2.197   2.942  0.5267 -0.2748  0.5298
 4472SOL    HW125049   4.147   2.113   2.980  0.2346 -0.6324 -0.4308
 4472SOL    HW225050   4.264   2.188   2.920 -0.1893 -1.6922 -1.8579
 4473SOL     OW25051   4.341   2.545   3.182 -0.3058  0.0419 -0.1259
 4473SOL    HW125052   4.283   2.609   3.140  0.3938  0.4793 -0.4220
 4473SOL    HW225053   4.410   2.537   3.116 -1.4509  0.8202 -1.4307
 4474SOL     OW25054   3.006   2.648   9.214  0.5948  0.3164  1.1900
 4474SOL    HW125055   2.969   2.562   9.192  2.2252 -0.2331  0.6124
 4474SOL    HW225056   3.066   2.658   9.140 -1.1720  0.9084 -0.1693
 4475SOL     OW25057   0.468   2.751   6.961 -0.0873 -0.2696 -0.0416
 4475SOL    HW125058   0.381   2.774   6.995  0.9890  2.2480  0.9488
 4475SOL    HW225059   0.458   2.657   6.947  3.1245 -0.8925  1.9425
 4476SOL     OW25060   2.263   3.646   6.866 -0.0309  0.1061 -0.0589
 4476SOL    HW125061   2.202   3.688   6.806 -1.9577 -2.1336  0.3511
 4476SOL    HW225062   2.235   3.556   6.851  1.9026 -0.6369  0.7575
 4477SOL     OW25063   1.782   3.381  10.929  0.3366  0.5304  0.3518
 4477SOL    HW125064   1.733   3.463  10.940  2.7592  1.9564  0.6473
 4477SOL    HW225065   1.708   3.322  10.939 -0.4500  1.5690  0.7407
 4478SOL     OW25066   3.437   1.384   7.838  0.1000  0.4060 -0.1578
 4478SOL    HW125067   3.503   1.378   7.907 -0.6561  0.3041  0.5592
 4478SOL    HW225068   3.385   1.459   7.867 -1.1355 -0.4873 -0.0824
 4479SOL     OW25069   4.076   2.077   4.252 -0.2182 -0.2764 -0.1971
 4479SOL    HW125070   4.127   2.017   4.306  0.3195 -0.0574 -0.4684
 4479SOL    HW225071   4.053   2.149   4.311 -2.1573  0.1943 -1.5261
 4480SOL     OW25072   3.189   0.286   5.286  0.0380  0.0795 -0.5461
 4480SOL    HW125073   3.234   0.297   5.202  2.8427  1.1600  1.0948
 4480SOL    HW225074   3.259   0.238   5.331  0.7322 -0.9815 -2.7955
 4481SOL     OW25075   4.242   4.228   2.362 -0.0464  0.0855  0.0581
 4481SOL    HW125076   4.168   4.275   2.324 -1.2990 -1.9629 -0.0420
 4481SOL    HW225077   4.212   4.137   2.352 -0.5710  0.6380 -3.2219
 4482SOL     OW25078   0.301   3.331   5.241  0.2207 -0.9847 -0.2716
 4482SOL    HW125079   0.387   3.334   5.198  0.5729  0.0372  0.4933
 4482SOL    HW225080   0.282   3.239   5.222 -0.3244 -0.7322 -0.9314
 4483SOL     OW25081   1.616   3.067   6.688  0.1148  0.2615 -0.1835
 4483SOL    HW125082   1.689   3.127   6.676 -1.4306  2.5031  1.6779
 4483SOL    HW225083   1.613   3.048   6.781  0.8803 -0.6329 -0.3513
 4484SOL     OW25084   0.042   1.249   0.761 -0.6470 -0.9253 -0.4454
 4484SOL    HW125085   0.022   1.203   0.679  1.3656 -0.8364 -1.0127
 4484SOL    HW225086   4.698   1.299   0.767 -0.8583 -1.4268  0.9636
 4485SOL     OW25087   2.491   3.954  16.189  0.5869  0.0761  0.7201
 4485SOL    HW125088   2.549   3.886  16.155  0.5400 -0.5598  1.9186
 4485SOL    HW225089   2.476   3.994  16.103 -0.1799 -2.4307 -0.3244
 4486SOL     OW25090   0.939   4.233  10.907 -0.4278  0.0660 -0.2124
 4486SOL    HW125091   0.968   4.221  10.997 -0.3577  0.9531 -0.1143
 4486SOL    HW225092   0.994   4.166  10.868 -0.4698 -0.8827  1.3586
 4487SOL     OW25093   2.915   3.080   0.712  0.1986  0.2104  0.4543
 4487SOL    HW125094   2.851   3.040   0.772  0.1076 -3.2768 -1.9793
 4487SOL    HW225095   2.975   3.006   0.709  1.2459  1.1622 -1.6549
 4488SOL     OW25096   1.028   0.084  10.683 -0.3955 -0.2759  0.1427
 4488SOL    HW125097   1.089   0.157  10.691 -2.3533  1.4537 -0.6852
 4488SOL    HW225098   0.981   0.089  10.766  0.6232  2.9014  0.5105
 4489SOL     OW25099   0.107   2.511   2.828 -0.0794 -0.6013 -0.7711
 4489SOL    HW125100   0.105   2.572   2.902  0.1630 -0.5830 -0.7790
 4489SOL    HW225101   0.025   2.463   2.836  1.0042 -2.2261  0.5211
 4490SOL     OW25102   0.306   1.370   7.133  0.0257  0.4309 -0.2693
 4490SOL    HW125103   0.340   1.446   7.181  0.6990  2.0040 -3.2432
 4490SOL    HW225104   0.212   1.390   7.139  0.0255 -0.7261  3.9130
 4491SOL     OW25105   2.955   0.249   1.478 -0.4094  0.3019 -0.4371
 4491SOL    HW125106   2.929   0.216   1.564  1.7620  0.1443  0.1588
 4491SOL    HW225107   2.921   0.338   1.481  1.3942  0.9685  0.0769
 4492SOL     OW25108   1.262   3.741   4.645  0.0316 -0.3419  0.1842
 4492SOL    HW125109   1.192   3.719   4.706 -1.6766 -0.2783 -1.7450
 4492SOL    HW225110   1.319   3.802   4.692 -0.1238 -2.0302  2.5783
 4493SOL     OW25111   4.013   3.977   4.015  0.8889  0.2748  0.0197
 4493SOL    HW125112   3.987   3.886   3.999 -2.0849  0.6489  2.4458
 4493SOL    HW225113   4.029   4.009   3.926  0.2244 -0.0813 -0.2261
 4494SOL     OW25114   0.292   2.411   7.772 -0.4499  0.0692  0.0614
 4494SOL    HW125115   0.316   2.332   7.821  2.3303  0.7739 -0.2160
 4494SOL    HW225116   0.228   2.448   7.833 -0.4176  2.0605 -1.1230
 4495SOL     OW25117   2.122   0.817   8.100 -0.4082 -0.5829 -0.1035
 4495SOL    HW125118   2.055   0.771   8.151 -0.0294  0.2305  1.1152
 4495SOL    HW225119   2.195   0.803   8.159  1.1260 -0.7756 -2.0699
 4496SOL     OW25120   0.686   4.497   5.576 -0.3452 -0.1339 -0.6491
 4496SOL    HW125121   0.739   4.553   5.633  2.4702 -0.6877 -2.7276
 4496SOL    HW225122   0.670   4.427   5.639 -0.3853  2.7658  2.5413
 4497SOL     OW25123   0.280   1.560  10.667 -0.0317 -0.4637  0.1406
 4497SOL    HW125124   0.202   1.611  10.689  0.9589  0.6080  1.1199
 4497SOL    HW225125   0.358   1.610  10.690  0.3119 -1.9345  2.1676
 4498SOL     OW25126   0.816   1.164   1.726 -0.2760 -0.3206 -0.3974
 4498SOL    HW125127   0.785   1.123   1.646  1.2062 -1.7926 -0.2303
 4498SOL    HW225128   0.910   1.174   1.710 -0.4094  1.0644 -0.3579
 4499SOL     OW25129   3.963   2.439   6.724  0.1421  0.2736 -0.9532
 4499SOL    HW125130   4.004   2.362   6.762 -1.3001 -1.3644 -2.7336
 4499SOL    HW225131   3.958   2.418   6.631 -0.1039 -1.8717 -0.4578
 4500SOL     OW25132   3.684   2.522   8.678 -0.7493  0.5150  0.6309
 4500SOL    HW125133   3.768   2.507   8.720 -1.1340 -2.3666  0.3609
 4500SOL    HW225134   3.637   2.574   8.743 -0.7825  2.2822 -0.8274
 4501SOL     OW25135   4.721   2.361  15.407  0.4326  0.1427 -0.1777
 4501SOL    HW125136   0.037   2.388  15.483  1.5737 -1.3390 -0.4349
 4501SOL    HW225137   0.055   2.366  15.342 -0.8942 -0.0857 -1.6295
 4502SOL     OW25138   4.171   4.415   7.499  0.2168 -0.4606  0.1627
 4502SOL    HW125139   4.095   4.414   7.557 -0.5059 -1.0921 -0.7976
 4502SOL    HW225140   4.164   4.504   7.464  0.4655  0.2702  1.9267
 4503SOL     OW25141   1.858   1.794   8.956 -0.4866  0.0258  0.7663
 4503SOL    HW125142   1.838   1.701   8.944  2.7265 -0.8799  2.4641
 4503SOL    HW225143   1.807   1.834   8.885  0.2328 -0.2000  0.1239
 4504SOL     OW25144   0.651   0.902   2.612 -0.6372 -0.3850 -0.6098
 4504SOL    HW125145   0.623   0.981   2.659 -0.5126 -0.2242 -0.8051
 4504SOL    HW225146   0.628   0.924   2.522 -2.2617  0.6123  0.0459
 4505SOL     OW25147   3.088   2.952   5.052  0.6052  0.0802  0.6365
 4505SOL    HW125148   3.040   2.876   5.020 -0.2121  0.9068 -0.1056
 4505SOL    HW225149   3.173   2.919   5.023  0.6831 -0.0852  1.0518
 4506SOL     OW25150   0.627   2.653   7.185  0.6311 -0.6997  0.0469
 4506SOL    HW125151   0.566   2.587   7.152 -0.1413 -0.8497  1.7661
 4506SOL    HW225152   0.584   2.733   7.154 -0.8304 -1.7107 -0.5586
 4507SOL     OW25153   4.373   0.966   6.715  0.4868  0.2830 -0.6022
 4507SOL    HW125154   4.377   1.050   6.760  2.1865 -0.9760  1.5830
 4507SOL    HW225155   4.298   0.922   6.757  2.0220 -0.4055  1.4011
 4508SOL     OW25156   0.453   0.298  14.054  0.8512 -0.2177 -0.1619
 4508SOL    HW125157   0.535   0.335  14.022  0.8633 -1.5487 -1.6913
 4508SOL    HW225158   0.407   0.277  13.972 -0.6656  0.7589  0.4462
 4509SOL     OW25159   2.551   1.474  16.503 -0.4154 -0.1561  0.8811
 4509SOL    HW125160   2.640   1.451  16.477 -0.8220 -0.7399  0.0101
 4509SOL    HW225161   2.551   1.568  16.518 -1.2387 -0.3689  2.2793
 4510SOL     OW25162   2.729   1.154   9.310 -0.2601  0.2325 -0.1829
 4510SOL    HW125163   2.759   1.122   9.225  0.0215  0.7090 -0.2666
 4510SOL    HW225164   2.736   1.250   9.305 -1.4758  0.2716 -1.1940
 4511SOL     OW25165   3.104   2.858  12.018 -0.2658 -0.0947 -0.2489
 4511SOL    HW125166   3.169   2.791  12.041 -1.5900 -1.1626  0.3551
 4511SOL    HW225167   3.150   2.901  11.945 -0.5863  1.2175  0.3211
 4512SOL     OW25168   0.696   0.341   2.447 -0.0492 -0.1054  0.4253
 4512SOL    HW125169   0.624   0.331   2.509 -1.5641  0.7531 -1.1832
 4512SOL    HW225170   0.631   0.370   2.382 -0.9248 -0.7794  1.0010
 4513SOL     OW25171   1.879   0.836   3.740  0.2866 -0.1894 -0.2114
 4513SOL    HW125172   1.897   0.745   3.718 -1.5568 -0.8159  0.9094
 4513SOL    HW225173   1.803   0.827   3.797  1.1025  1.3055  1.0999
 4514SOL     OW25174   2.604   1.517   6.937  0.1489  0.5826 -0.4495
 4514SOL    HW125175   2.584   1.427   6.909 -1.6537  0.4172  1.3794
 4514SOL    HW225176   2.549   1.529   7.015 -0.4505 -1.4824 -0.5404
 4515SOL     OW25177   0.260   1.145   5.796  0.0203 -0.3481  0.0595
 4515SOL    HW125178   0.224   1.156   5.884 -1.2061 -1.4158 -0.3099
 4515SOL    HW225179   0.180   1.105   5.762  1.6235 -0.7438 -3.2633
 4516SOL     OW25180   1.767   3.850   4.973  0.5649 -0.2894 -0.1939
 4516SOL    HW125181   1.772   3.927   5.030  0.5031 -1.4130  1.3273
 4516SOL    HW225182   1.760   3.886   4.884  0.1656 -1.5096 -0.6511
 4517SOL     OW25183   0.444   0.061  11.593  0.6433  0.8155 -0.1974
 4517SOL    HW125184   0.433   0.142  11.643 -0.8017  0.4665  0.0494
 4517SOL    HW225185   0.538   0.055  11.578  0.8043  0.3191  0.9848
 4518SOL     OW25186   2.216   4.606   2.023  0.3791  0.1649 -0.0119
 4518SOL    HW125187   2.274   4.669   2.065 -1.1136  1.2000  0.4781
 4518SOL    HW225188   2.135   4.613   2.073  0.3033  2.2263 -0.4636
 4519SOL     OW25189   2.338   0.843  12.549 -0.1111 -0.0980 -0.1359
 4519SOL    HW125190   2.316   0.791  12.472  2.6150  1.4977 -1.9857
 4519SOL    HW225191   2.409   0.897  12.513  0.4460 -0.3150  0.6239
 4520SOL     OW25192   1.342   2.189   2.270 -0.1018 -0.1668 -0.2075
 4520SOL    HW125193   1.364   2.229   2.354 -2.0422  1.7290 -0.5884
 4520SOL    HW225194   1.265   2.245   2.254  1.0399  1.3345 -0.4889
 4521SOL     OW25195   4.441   0.233   1.768  0.1559  0.0415  0.2947
 4521SOL    HW125196   4.518   0.288   1.783 -0.5490  1.1558 -0.2190
 4521SOL    HW225197   4.442   0.232   1.672  1.0908 -1.5804  0.3112
 4522SOL     OW25198   4.206   1.832   7.756 -0.3947 -0.5675  0.2906
 4522SOL    HW125199   4.183   1.838   7.849  1.2765  0.0150  0.6589
 4522SOL    HW225200   4.121   1.804   7.720  0.1266 -0.4623 -1.0122
 4523SOL     OW25201   0.234   3.559   8.627  0.1073  0.6045 -0.3080
 4523SOL    HW125202   0.158   3.504   8.610 -0.2032  0.4586  1.5792
 4523SOL    HW225203   0.199   3.647   8.624  0.0547  0.5480 -1.2615
 4524SOL     OW25204   0.637   3.044  13.733  0.2084 -0.0611 -0.1330
 4524SOL    HW125205   0.562   3.022  13.790  0.7150  0.5144  0.7538
 4524SOL    HW225206   0.704   3.035  13.800 -1.7247  1.6590  2.0631
 4525SOL     OW25207   1.452   2.176  11.762 -0.6473 -0.3793  0.2450
 4525SOL    HW125208   1.519   2.173  11.830 -1.2637  0.4054  0.8860
 4525SOL    HW225209   1.372   2.175  11.815 -1.3226 -3.5368 -0.8111
 4526SOL     OW25210   2.867   3.782  14.036 -0.7342 -0.2945  0.2670
 4526SOL    HW125211   2.782   3.779  14.080 -0.6532  1.0614  0.5176
 4526SOL    HW225212   2.876   3.688  14.023  0.8919 -0.5238  2.9916
 4527SOL     OW25213   3.706   0.585   4.055 -0.5665 -0.7892 -0.4452
 4527SOL    HW125214   3.727   0.549   4.141 -0.7432  0.1357 -0.0224
 4527SOL    HW225215   3.745   0.516   4.001  2.9533  0.9129 -0.0438
 4528SOL     OW25216   4.453   0.759   6.247  0.2071  0.0181  0.2697
 4528SOL    HW125217   4.516   0.690   6.265 -1.4492 -1.5814 -0.0733
 4528SOL    HW225218   4.475   0.812   6.324 -1.0442  1.0441 -0.0803
 4529SOL     OW25219   4.175   1.009   2.715  0.6524 -0.4844 -0.6633
 4529SOL    HW125220   4.194   1.100   2.691 -2.2187  0.5267  1.0112
 4529SOL    HW225221   4.184   0.971   2.627 -0.1339 -1.4588 -0.3174
 4530SOL     OW25222   4.275   3.126   3.300 -0.3148 -0.2674  0.0596
 4530SOL    HW125223   4.250   3.219   3.306  0.6942 -0.0693  1.2538
 4530SOL    HW225224   4.190   3.084   3.287 -0.4809 -0.8059  2.8347
 4531SOL     OW25225   1.295   4.663   1.796 -0.4408 -0.3072 -0.5013
 4531SOL    HW125226   1.247   4.609   1.733 -0.9467 -0.8199  0.3154
 4531SOL    HW225227   1.234   0.000   1.791  1.0429  1.0107  1.0451
 4532SOL     OW25228   3.223   4.084   5.178  0.3987  0.3413  0.4560
 4532SOL    HW125229   3.294   4.147   5.170 -0.4191  0.9069 -2.2903
 4532SOL    HW225230   3.184   4.101   5.092  1.0199 -0.0845  0.0911
 4533SOL     OW25231   1.068   0.533   4.434 -0.3242  0.0334 -0.5325
 4533SOL    HW125232   1.144   0.567   4.481  0.0522 -0.5054 -0.7495
 4533SOL    HW225233   1.031   0.617   4.405 -2.5549 -0.5035  0.7277
 4534SOL     OW25234   3.249   2.883   6.959  0.0878  0.4429  0.2604
 4534SOL    HW125235   3.283   2.970   6.979 -0.3792 -0.3187  4.4940
 4534SOL    HW225236   3.155   2.898   6.954 -0.2510 -1.3728  1.0316
 4535SOL     OW25237   3.857   0.926   4.032  0.2806 -0.1510  0.0370
 4535SOL    HW125238   3.900   0.978   4.100 -0.4450 -0.5638  0.8051
 4535SOL    HW225239   3.825   0.997   3.976 -1.2503 -0.4425  0.5297
 4536SOL     OW25240   3.394   4.521   9.460 -0.0977 -0.2597  0.9647
 4536SOL    HW125241   3.302   4.512   9.483 -0.5215  0.4732 -0.4317
 4536SOL    HW225242   3.436   4.475   9.533  1.2087 -0.8716 -0.1769
 4537SOL     OW25243   3.547   1.884  11.310  0.2885 -0.0480  0.1679
 4537SOL    HW125244   3.638   1.873  11.338  0.7435 -1.8800 -1.9529
 4537SOL    HW225245   3.567   1.922  11.225  0.7397 -1.3445 -0.3152
 4538SOL     OW25246   2.372   3.307   3.667  0.0221 -0.1428  0.1139
 4538SOL    HW125247   2.431   3.370   3.708  0.7027 -0.9536  0.3995
 4538SOL    HW225248   2.328   3.277   3.747  2.9297  1.7889  2.4352
 4539SOL     OW25249   3.241   2.172   4.781 -0.3494  0.1480 -0.0774
 4539SOL    HW125250   3.225   2.266   4.775  0.7433  0.1886 -2.6491
 4539SOL    HW225251   3.162   2.130   4.814  0.7122 -0.9819  1.0334
 4540SOL     OW25252   2.833   1.474   6.408  0.2018 -0.1369 -0.6520
 4540SOL    HW125253   2.817   1.407   6.341  0.0722  0.3191 -1.0772
 4540SOL    HW225254   2.797   1.427   6.483  2.5180  1.4503  1.4330
 4541SOL     OW25255   2.452   3.911  12.631 -0.1153 -0.3888  0.4298
 4541SOL    HW125256   2.540   3.874  12.621 -0.8123 -1.3957 -2.1061
 4541SOL    HW225257   2.446   3.935  12.538  1.6559  1.2801  0.7351
 4542SOL     OW25258   1.782   3.812  13.468  0.4614  0.6860 -0.4393
 4542SOL    HW125259   1.731   3.753  13.523  0.9547  0.3809 -0.3089
 4542SOL    HW225260   1.868   3.770  13.463 -0.2352 -0.8244  0.2942
 4543SOL     OW25261   1.875   1.499   2.665  0.1917  0.5967  0.1292
 4543SOL    HW125262   1.863   1.580   2.714 -1.5248  0.5180 -0.1722
 4543SOL    HW225263   1.967   1.507   2.641 -0.0290 -1.0239 -1.2645
 4544SOL     OW25264   4.135   1.321   4.861 -0.2380 -0.0791 -0.0831
 4544SOL    HW125265   4.042   1.343   4.867  0.3168  1.3153  3.5940
 4544SOL    HW225266   4.171   1.408   4.850  0.8235 -0.3604  1.1000
 4545SOL     OW25267   4.123   3.274   7.764 -0.5035 -0.1683 -0.1523
 4545SOL    HW125268   4.127   3.333   7.839 -0.0209  0.7325 -0.8827
 4545SOL    HW225269   4.091   3.194   7.804 -0.1714 -0.3415 -0.2359
 4546SOL     OW25270   4.224   2.400   9.603  0.7394  0.2049  0.1060
 4546SOL    HW125271   4.139   2.439   9.582  0.7817  1.6745  2.7541
 4546SOL    HW225272   4.243   2.452   9.681 -0.5735  0.3067  0.3546
 4547SOL     OW25273   4.712   2.111   5.534  0.3559 -0.0646  0.2952
 4547SOL    HW125274   4.680   2.200   5.523  0.2197 -0.6573 -4.0855
 4547SOL    HW225275   0.030   2.122   5.612  0.5315 -1.2584  0.3412
 4548SOL     OW25276   3.898   0.258   4.867  0.1527 -0.2858  0.6444
 4548SOL    HW125277   3.980   0.207   4.871  0.8026  0.6854 -0.4295
 4548SOL    HW225278   3.848   0.213   4.799  0.6008 -0.3131  0.3359
 4549SOL     OW25279   4.247   1.445   3.348  0.1710 -0.0448  0.0858
 4549SOL    HW125280   4.255   1.409   3.260  0.4679  1.8667 -0.6761
 4549SOL    HW225281   4.337   1.440   3.379 -1.3693  0.1701  4.6008
 4550SOL     OW25282   3.298   0.592   5.259 -0.0277 -0.3789  0.1459
 4550SOL    HW125283   3.216   0.640   5.270 -0.4946 -1.2323  0.3795
 4550SOL    HW225284   3.290   0.573   5.166  0.5284  0.9737 -0.1782
 4551SOL     OW25285   3.381   1.851   2.025  0.2240  0.4966  0.2073
 4551SOL    HW125286   3.414   1.904   1.953 -0.4408 -0.2091 -0.6261
 4551SOL    HW225287   3.356   1.924   2.081  0.0870 -0.5142  1.4734
 4552SOL     OW25288   4.217   3.772  16.197  0.0301  0.5356  0.3410
 4552SOL    HW125289   4.267   3.836  16.147  0.5710  0.1758  0.4120
 4552SOL    HW225290   4.135   3.817  16.212 -0.5085 -1.1107  2.3997
 4553SOL     OW25291   4.634   0.946   2.374  0.3199 -0.4610 -0.7541
 4553SOL    HW125292   4.705   0.952   2.437  0.7194 -2.2720 -1.0202
 4553SOL    HW225293   4.679   0.960   2.291  1.1387  0.2078 -0.1891
 4554SOL     OW25294   2.449   0.777   6.327  0.0089 -0.1952 -0.0017
 4554SOL    HW125295   2.399   0.705   6.366  1.4928  0.3464  2.8651
 4554SOL    HW225296   2.539   0.750   6.342 -0.6349 -0.9372  2.5126
 4555SOL     OW25297   0.624   0.158   3.634  0.5317 -0.0850 -0.8738
 4555SOL    HW125298   0.660   0.211   3.563  0.4256  0.0341 -0.8396
 4555SOL    HW225299   0.541   0.202   3.653 -0.1010 -0.5409 -2.5307
 4556SOL     OW25300   2.473   1.103  11.782 -0.0341 -0.2258  0.1019
 4556SOL    HW125301   2.487   1.148  11.865  1.3264  1.5712 -1.0943
 4556SOL    HW225302   2.388   1.133  11.752 -0.0452  0.3456  0.7125
 4557SOL     OW25303   4.229   4.134   1.734  0.7027  0.2603  0.4868
 4557SOL    HW125304   4.278   4.126   1.652 -0.7633 -1.8948 -0.1475
 4557SOL    HW225305   4.162   4.067   1.725 -1.0196  2.3032 -2.0784
 4558SOL     OW25306   1.468   4.588   5.361 -0.3700  0.1022 -0.8980
 4558SOL    HW125307   1.541   4.547   5.314 -1.9867 -3.1278 -0.5955
 4558SOL    HW225308   1.407   4.611   5.290  0.1503  0.1179 -1.3453
 4559SOL     OW25309   0.101   4.463   8.700  0.3756 -0.2571  0.5891
 4559SOL    HW125310   0.083   4.385   8.753 -2.3847 -0.6018 -0.8119
 4559SOL    HW225311   0.157   4.517   8.755  0.8938  1.0488 -1.2435
 4560SOL     OW25312   4.658   2.473  16.777 -0.4553 -0.8204 -0.1395
 4560SOL    HW125313   4.721   2.403  16.758 -1.2356 -1.6231  0.2455
 4560SOL    HW225314   4.583   2.446  16.724 -1.6550 -0.2028  1.2560
 4561SOL     OW25315   2.942   2.315   3.896 -0.0830  0.4022 -0.1674
 4561SOL    HW125316   2.867   2.261   3.922 -0.2081 -0.4898 -2.3902
 4561SOL    HW225317   2.958   2.282   3.808 -1.4291 -0.0384 -0.2487
 4562SOL     OW25318   0.495   0.611   5.736 -0.2966  0.3156  0.0267
 4562SOL    HW125319   0.443   0.533   5.755 -0.5825  0.4673 -0.1201
 4562SOL    HW225320   0.557   0.563   5.681  0.7206 -0.3637  1.7939
 4563SOL     OW25321   1.135   0.147   1.760  0.1657 -0.6188  0.3235
 4563SOL    HW125322   1.186   0.227   1.775 -3.2961  1.4831  1.0049
 4563SOL    HW225323   1.051   0.189   1.740  1.5263  2.0036  0.0682
 4564SOL     OW25324   0.015   0.460   4.060  0.2032 -0.0164  0.4209
 4564SOL    HW125325   4.729   0.518   3.988  1.0878 -0.8770 -0.5460
 4564SOL    HW225326   0.035   0.523   4.130  0.4654  2.9590 -2.3790
 4565SOL     OW25327   3.694   3.707   7.268  0.2539 -0.1497  0.1045
 4565SOL    HW125328   3.625   3.690   7.333 -1.0439 -1.2254 -1.5680
 4565SOL    HW225329   3.654   3.661   7.195  2.5266  0.3829 -1.4617
 4566SOL     OW25330   1.572   1.217   5.242 -0.1029  0.6920 -0.2498
 4566SOL    HW125331   1.525   1.155   5.187  3.0766 -0.0983 -2.0465
 4566SOL    HW225332   1.504   1.259   5.295  0.0614  2.1277 -1.1864
 4567SOL     OW25333   2.504   1.902  12.831  0.5637  0.1117  0.3119
 4567SOL    HW125334   2.566   1.899  12.758  0.5833 -0.2237  0.3451
 4567SOL    HW225335   2.422   1.935  12.794 -0.0335 -0.6663  0.9553
 4568SOL     OW25336   2.654   4.410   2.253 -0.4274  0.4686  0.3234
 4568SOL    HW125337   2.678   4.492   2.211 -0.1278 -1.6258 -3.5877
 4568SOL    HW225338   2.597   4.365   2.191  1.7082 -1.8509  0.0023
 4569SOL     OW25339   2.845   4.079   0.762 -0.3835  0.1451 -0.1492
 4569SOL    HW125340   2.867   4.172   0.758  0.3027 -0.0300 -0.3808
 4569SOL    HW225341   2.918   4.052   0.707  0.2366 -0.9480  1.2144
 4570SOL     OW25342   0.509   0.868   7.873  0.1253  0.1460  0.4053
 4570SOL    HW125343   0.508   0.784   7.827  0.8387  0.3349  0.0347
 4570SOL    HW225344   0.589   0.905   7.834  0.2453  0.2585  0.7588
 4571SOL     OW25345   2.828   4.224   4.982  0.1857 -0.0837  0.2913
 4571SOL    HW125346   2.919   4.199   4.999 -0.0249 -1.5524 -0.7958
 4571SOL    HW225347   2.848   4.294   4.919 -1.8777 -0.1550 -0.4332
 4572SOL     OW25348   3.385   1.153   0.322  0.1428  0.1733  0.1887
 4572SOL    HW125349   3.444   1.132   0.249 -1.0520  2.5338 -1.4327
 4572SOL    HW225350   3.432   1.231   0.353  2.5049 -0.4689 -1.7142
 4573SOL     OW25351   3.435   3.785  11.204 -0.1405  0.3809  0.0572
 4573SOL    HW125352   3.494   3.849  11.245  1.7009 -1.1355 -0.2046
 4573SOL    HW225353   3.380   3.836  11.145  0.0899  1.3394  0.6577
 4574SOL     OW25354   1.762   3.657  14.142 -0.4798  0.4825  0.4913
 4574SOL    HW125355   1.760   3.752  14.155 -0.5878  0.5000  0.3458
 4574SOL    HW225356   1.686   3.626  14.190  0.7713 -0.6307  1.7418
 4575SOL     OW25357   1.218   3.685   2.546 -0.1567  0.2201 -0.2735
 4575SOL    HW125358   1.232   3.777   2.523 -1.3963  0.0690 -1.6798
 4575SOL    HW225359   1.269   3.675   2.626  0.9095 -1.3395 -1.1428
 4576SOL     OW25360   4.541   0.734   8.224  0.7097  0.4603  0.7138
 4576SOL    HW125361   4.576   0.740   8.135  0.6205 -0.4995  0.6217
 4576SOL    HW225362   4.601   0.675   8.269 -1.8312 -1.6829  1.2900
 4577SOL     OW25363   0.073   1.285   8.174 -0.1814  0.4621  0.0000
 4577SOL    HW125364   0.004   1.280   8.109 -0.8763 -0.4521  0.8075
 4577SOL    HW225365   0.120   1.364   8.146  0.2718  0.1193 -0.2045
 4578SOL     OW25366   3.321   4.073   4.283  0.1193 -0.6273  0.5513
 4578SOL    HW125367   3.249   4.065   4.220  0.7480  2.9472 -0.6541
 4578SOL    HW225368   3.315   4.167   4.302 -0.3186 -1.0913  2.7308
 4579SOL     OW25369   0.577   2.557   5.849  0.1917 -0.2699  0.3834
 4579SOL    HW125370   0.672   2.564   5.835  0.1254 -0.2592 -0.0804
 4579SOL    HW225371   0.540   2.590   5.767  0.2040  1.6592  1.1560
 4580SOL     OW25372   2.924   3.604   7.160 -0.0439 -0.1787  0.3275
 4580SOL    HW125373   2.984   3.662   7.207 -0.0806 -1.2970  1.7510
 4580SOL    HW225374   2.926   3.525   7.214 -1.3381 -0.2231  0.3153
 4581SOL     OW25375   2.005   2.649   3.877 -0.0366 -0.1417  0.5721
 4581SOL    HW125376   1.975   2.628   3.965 -2.0665 -2.6400 -0.7197
 4581SOL    HW225377   2.015   2.743   3.863 -0.2206 -0.1528  0.3675
 4582SOL     OW25378   1.679   3.800   1.504 -0.0093 -0.2404  0.2828
 4582SOL    HW125379   1.677   3.839   1.591  0.4577  0.5978 -0.0802
 4582SOL    HW225380   1.727   3.870   1.461  1.0865 -1.1585 -0.0018
 4583SOL     OW25381   1.127   4.445   1.944 -0.2319 -0.3072  0.2117
 4583SOL    HW125382   1.097   4.355   1.938  1.9382 -1.0197  0.2817
 4583SOL    HW225383   1.054   4.477   1.890  0.3281 -0.3614 -0.5620
 4584SOL     OW25384   1.213   3.153   4.982  0.3166  0.1318 -0.2332
 4584SOL    HW125385   1.224   3.058   4.993 -0.8084  0.0410  0.1555
 4584SOL    HW225386   1.247   3.178   5.067  0.6701 -1.1765  0.0121
 4585SOL     OW25387   0.170   0.566   8.079  0.0722 -0.1412 -0.0644
 4585SOL    HW125388   0.213   0.560   7.994 -2.0407  2.3588 -1.3362
 4585SOL    HW225389   0.086   0.608   8.058 -0.1077 -0.3427  0.2664
 4586SOL     OW25390   3.646   1.047   9.007 -0.3652  0.0552  0.5781
 4586SOL    HW125391   3.558   1.033   8.972  0.2128  1.4488 -1.4357
 4586SOL    HW225392   3.648   1.112   9.077 -0.3271 -0.0064  0.6340
 4587SOL     OW25393   0.779   0.404  14.580 -0.5193  0.3487  0.3686
 4587SOL    HW125394   0.735   0.458  14.647  0.2165  1.1430  0.2053
 4587SOL    HW225395   0.702   0.351  14.560 -0.7343  0.1147  1.7596
 4588SOL     OW25396   3.773   2.392   5.133 -0.0850 -0.0138  0.4549
 4588SOL    HW125397   3.708   2.359   5.195  1.9040 -1.0753  1.9802
 4588SOL    HW225398   3.756   2.344   5.052 -0.5802  1.1447 -0.1161
 4589SOL     OW25399   3.068   2.070   2.714  0.4336 -0.4605  0.2279
 4589SOL    HW125400   3.012   2.112   2.779  1.1356  0.8492 -0.0233
 4589SOL    HW225401   3.151   2.083   2.759  1.4502  1.1193 -2.1220
 4590SOL     OW25402   0.895   2.626   5.517  0.2768 -0.1572  0.5285
 4590SOL    HW125403   0.933   2.714   5.520  1.2488 -0.5469 -0.1869
 4590SOL    HW225404   0.974   2.571   5.512  0.7660  0.6271 -0.5013
 4591SOL     OW25405   4.499   2.213  15.554  0.1339  0.1806 -0.4549
 4591SOL    HW125406   4.479   2.296  15.598  1.9288  0.6636 -0.5256
 4591SOL    HW225407   4.569   2.246  15.497  0.8117 -2.4490 -1.1260
 4592SOL     OW25408   0.015   1.924   7.819 -0.1218 -0.2671 -0.9583
 4592SOL    HW125409   0.002   1.988   7.749  0.2913  0.7316 -0.1220
 4592SOL    HW225410   0.103   1.946   7.848 -0.1852  0.6553 -1.4659
 4593SOL     OW25411   1.378   2.039   3.346  0.1616  0.0441 -1.1045
 4593SOL    HW125412   1.397   1.976   3.416  1.2833  2.4677  0.7812
 4593SOL    HW225413   1.311   2.096   3.384 -0.2029  0.0871 -1.8094
 4594SOL     OW25414   3.679   1.776   4.479  0.2702 -0.0962 -0.4326
 4594SOL    HW125415   3.757   1.751   4.430  0.7119 -0.0776  0.2624
 4594SOL    HW225416   3.720   1.809   4.559 -0.1437  0.6970 -0.5524
 4595SOL     OW25417   4.023   3.158  17.106 -0.0039  0.5538  0.3424
 4595SOL    HW125418   3.982   3.187  17.024  3.1954  0.3470 -1.3238
 4595SOL    HW225419   4.062   3.239  17.138 -0.5901  2.0781 -2.7883
 4596SOL     OW25420   0.268   0.896   9.895  0.3798 -0.2919  0.0739
 4596SOL    HW125421   0.217   0.883   9.975 -0.2656  2.6339  0.1570
 4596SOL    HW225422   0.354   0.916   9.930  0.7237  0.5319 -1.2127
 4597SOL     OW25423   1.251   3.669   7.226 -0.2766 -0.4586 -0.5547
 4597SOL    HW125424   1.254   3.576   7.207 -0.2686 -0.7226  0.7885
 4597SOL    HW225425   1.157   3.682   7.243 -0.3725  0.0839 -1.4556
 4598SOL     OW25426   0.276   0.613   6.591 -0.4022  0.3468  0.2251
 4598SOL    HW125427   0.336   0.687   6.599  0.2948 -0.0531 -1.2848
 4598SOL    HW225428   0.317   0.556   6.525 -1.1400  0.6080 -0.4592
 4599SOL     OW25429   1.265   4.241  11.231  0.1775  0.2756 -0.1382
 4599SOL    HW125430   1.183   4.205  11.198 -0.6585  0.1787  2.0895
 4599SOL    HW225431   1.312   4.280  11.156  1.7882  1.0594  1.2845
 4600SOL     OW25432   4.531   1.515   3.421 -0.3174 -0.3839 -0.1334
 4600SOL    HW125433   4.539   1.538   3.513 -0.7437 -0.9106  0.0314
 4600SOL    HW225434   4.582   1.433   3.418 -3.3957 -2.2371 -1.5316
 4601SOL     OW25435   2.810   4.282   5.270 -0.1236 -0.2236 -0.1464
 4601SOL    HW125436   2.833   4.326   5.188 -1.2129  0.6422 -0.0015
 4601SOL    HW225437   2.885   4.311   5.322 -1.8521 -0.4111  2.4561
 4602SOL     OW25438   3.995   1.783  16.790 -0.1376 -0.5499 -0.0631
 4602SOL    HW125439   4.038   1.702  16.815  1.2221 -0.7586 -3.0938
 4602SOL    HW225440   4.056   1.850  16.821 -0.9984 -0.8196  2.2027
 4603SOL     OW25441   2.308   1.878   1.093  0.1295  0.2357  0.5206
 4603SOL    HW125442   2.334   1.955   1.143 -2.1642  1.8128 -0.7232
 4603SOL    HW225443   2.388   1.857   1.044  0.1963  2.4284 -0.3025
 4604SOL     OW25444   4.178   1.614   0.941 -0.4290  0.2817  0.3467
 4604SOL    HW125445   4.115   1.568   0.885  0.6186 -0.1643 -0.4681
 4604SOL    HW225446   4.150   1.704   0.926 -0.9294 -0.1653 -1.3750
 4605SOL     OW25447   1.100   3.114   7.719 -0.3506 -0.1603 -0.2342
 4605SOL    HW125448   1.069   3.172   7.650 -2.8063  1.8107  2.5035
 4605SOL    HW225449   1.035   3.122   7.790  2.1172 -2.1186  2.2483
 4606SOL     OW25450   0.395   3.604   5.363  0.4699  0.4167  0.1772
 4606SOL    HW125451   0.446   3.682   5.342  2.3362 -0.5867  0.9385
 4606SOL    HW225452   0.410   3.540   5.293 -1.5474  2.5100 -2.1594
 4607SOL     OW25453   0.628   0.324   5.748  0.7078  0.2119 -0.1466
 4607SOL    HW125454   0.714   0.320   5.706  0.9699  1.1701  0.3073
 4607SOL    HW225455   0.591   0.254   5.694  0.7967  0.0766 -0.0322
 4608SOL     OW25456   2.341   2.325   3.736  0.0155 -0.5347 -0.1391
 4608SOL    HW125457   2.365   2.247   3.685 -1.1670  0.6180 -2.4148
 4608SOL    HW225458   2.256   2.348   3.698 -0.2736 -0.3937  0.5892
 4609SOL     OW25459   1.168   1.001   3.907  0.5200  0.2607 -0.0458
 4609SOL    HW125460   1.230   1.072   3.923 -0.7486  1.6140 -1.0812
 4609SOL    HW225461   1.111   1.002   3.984  2.1898 -3.7649  1.2036
 4610SOL     OW25462   2.927   0.162   4.034  0.0042 -0.5340  0.1053
 4610SOL    HW125463   2.993   0.094   4.017  1.5309  0.2287  2.8867
 4610SOL    HW225464   2.988   0.235   4.039  0.6383 -1.1049  0.7830
 4611SOL     OW25465   1.358   0.667   9.401 -0.1608  0.1939  0.2241
 4611SOL    HW125466   1.379   0.591   9.345  1.3878 -0.9749  2.4126
 4611SOL    HW225467   1.442   0.685   9.444  0.3083 -1.3837 -0.0307
 4612SOL     OW25468   4.733   3.425   5.467 -0.0743 -0.0261  0.2000
 4612SOL    HW125469   0.056   3.493   5.495 -0.4064  0.2347  0.2841
 4612SOL    HW225470   0.058   3.352   5.465  0.3395  0.2895  1.8586
 4613SOL     OW25471   4.418   1.773   8.388 -0.7392 -0.2078  0.1162
 4613SOL    HW125472   4.466   1.708   8.337 -0.0596  0.7283 -0.4455
 4613SOL    HW225473   4.329   1.738   8.382 -1.3010  0.9346  1.6853
 4614SOL     OW25474   1.416   3.920   2.911  0.1240 -0.0287  0.7339
 4614SOL    HW125475   1.341   3.901   2.967  1.4732  0.0739  2.5653
 4614SOL    HW225476   1.424   3.836   2.865  0.3980 -0.0475  0.8158
 4615SOL     OW25477   3.258   3.608   5.878  0.0343 -0.6000 -0.1892
 4615SOL    HW125478   3.248   3.524   5.834  2.1195 -0.3120 -1.2411
 4615SOL    HW225479   3.208   3.591   5.958  2.2797  0.5662  1.4542
 4616SOL     OW25480   3.354   3.501   3.656 -0.7324 -0.1130 -0.0475
 4616SOL    HW125481   3.291   3.438   3.621 -1.4512  0.9620 -0.7037
 4616SOL    HW225482   3.434   3.490   3.605 -0.4893  0.2661  0.2502
 4617SOL     OW25483   2.050   1.902   1.928  0.2161 -0.0095  0.6138
 4617SOL    HW125484   1.986   1.840   1.963  0.9067 -1.5295 -0.8017
 4617SOL    HW225485   1.992   1.978   1.924  0.7260  0.3091 -0.7428
 4618SOL     OW25486   1.331   1.676   6.833  0.1056 -0.1821  0.0869
 4618SOL    HW125487   1.335   1.755   6.887 -2.0435 -0.8998  1.2984
 4618SOL    HW225488   1.329   1.716   6.746  0.4210 -1.8564 -0.6868
 4619SOL     OW25489   0.364   4.110   7.699 -0.1667 -0.3500 -0.5011
 4619SOL    HW125490   0.339   4.133   7.789 -1.2836 -0.6034 -0.7465
 4619SOL    HW225491   0.282   4.109   7.649 -0.1730 -2.6202 -0.4276
 4620SOL     OW25492   0.141   3.853   2.367  0.4584  0.3844 -0.3805
 4620SOL    HW125493   0.150   3.877   2.459 -2.3398 -3.0000  0.7715
 4620SOL    HW225494   0.064   3.796   2.370 -0.8961  2.2135 -0.2562
 4621SOL     OW25495   2.798   0.965   9.519  0.3254  0.3265  0.1820
 4621SOL    HW125496   2.725   0.910   9.490  1.3265 -0.1569 -1.4280
 4621SOL    HW225497   2.778   1.044   9.470  0.0866  0.4036  0.4011
 4622SOL     OW25498   2.068   0.131   9.095  0.2867 -1.0288  0.1971
 4622SOL    HW125499   2.122   0.108   9.170  1.6641 -3.1453 -1.4306
 4622SOL    HW225500   2.125   0.117   9.019 -1.6210 -0.0746 -1.4063
 4623SOL     OW25501   3.388   3.345   8.534  0.7702  0.5112 -0.1538
 4623SOL    HW125502   3.344   3.324   8.616 -0.7982  0.7744 -0.9310
 4623SOL    HW225503   3.317   3.312   8.479  0.6504 -0.9510  0.8750
 4624SOL     OW25504   2.296   2.163   9.516  0.0057 -0.1107 -0.1764
 4624SOL    HW125505   2.275   2.097   9.450 -1.2789 -0.6709  0.7928
 4624SOL    HW225506   2.234   2.231   9.491 -0.8775  0.4477  3.6466
 4625SOL     OW25507   1.779   0.191   4.333 -0.3515  0.1784  0.0289
 4625SOL    HW125508   1.733   0.268   4.300 -0.7937 -0.2849 -0.4410
 4625SOL    HW225509   1.761   0.196   4.427  0.3754  2.0419  0.0683
 4626SOL     OW25510   1.863   1.431   8.676  0.0920 -0.2845 -0.0114
 4626SOL    HW125511   1.872   1.416   8.582  1.2761  3.6178 -0.5470
 4626SOL    HW225512   1.768   1.418   8.679 -0.2892  2.6413  0.6714
 4627SOL     OW25513   1.488   2.987  16.603  0.0352 -0.4812  0.8415
 4627SOL    HW125514   1.466   3.078  16.582 -1.4194 -0.9699  0.2339
 4627SOL    HW225515   1.432   2.942  16.540  0.4343 -2.4552  1.8960
 4628SOL     OW25516   2.140   3.742   7.979 -0.1266 -0.7499  0.4059
 4628SOL    HW125517   2.058   3.712   7.939  0.4548 -0.0291 -1.3002
 4628SOL    HW225518   2.200   3.676   7.945  1.0095  0.8571 -0.7063
 4629SOL     OW25519   4.229   4.122   6.068  0.4470 -0.3405 -0.3746
 4629SOL    HW125520   4.287   4.064   6.117  0.0531 -1.1307 -0.8604
 4629SOL    HW225521   4.272   4.113   5.983 -3.5189  0.6474 -2.4835
 4630SOL     OW25522   0.637   3.628   4.148  0.3456 -0.5056 -0.2406
 4630SOL    HW125523   0.606   3.590   4.230  1.0697 -1.2106 -0.2897
 4630SOL    HW225524   0.660   3.714   4.183  0.9024 -1.6083  2.0992
 4631SOL     OW25525   2.602   3.796  17.648  0.0471 -0.2436 -0.4174
 4631SOL    HW125526   2.534   3.859  17.674 -0.7417 -1.0346 -0.5739
 4631SOL    HW225527   2.643   3.782  17.733  0.3311  1.5714 -0.2416
 4632SOL     OW25528   2.589   0.167   0.994 -0.2477 -0.1521  0.3440
 4632SOL    HW125529   2.669   0.218   0.980 -0.4313  0.2994  0.9797
 4632SOL    HW225530   2.536   0.238   1.029  1.1061 -0.2510  2.6164
 4633SOL     OW25531   2.605   0.439   1.082  0.2979 -0.7751 -0.3554
 4633SOL    HW125532   2.598   0.523   1.127 -1.8030 -1.0412 -0.1789
 4633SOL    HW225533   2.697   0.414   1.092  0.3837 -0.9170 -1.4888
 4634SOL     OW25534   4.081   2.793   5.062  0.2635 -0.5197  0.1026
 4634SOL    HW125535   4.100   2.861   4.998  0.3374 -1.3573 -0.7575
 4634SOL    HW225536   4.056   2.721   5.004  1.2211 -0.3483 -0.5136
 4635SOL     OW25537   4.506   0.587   0.635 -0.6539 -0.5865 -0.3976
 4635SOL    HW125538   4.480   0.498   0.659  1.7551 -1.6739 -1.8418
 4635SOL    HW225539   4.483   0.638   0.712  0.7294 -0.9765  0.2650
 4636SOL     OW25540   3.497   3.665  11.811 -0.0456 -0.4996  0.3559
 4636SOL    HW125541   3.519   3.648  11.719 -2.4584 -0.7412 -0.1656
 4636SOL    HW225542   3.535   3.590  11.857  0.6862 -0.8393 -0.7923
 4637SOL     OW25543   0.922   4.316   3.582 -0.2982 -0.0975 -0.2500
 4637SOL    HW125544   0.995   4.365   3.544 -0.0396 -1.2225 -1.2037
 4637SOL    HW225545   0.846   4.368   3.559  1.2062  2.1604 -0.1611
 4638SOL     OW25546   2.946   3.272   7.069 -0.2159 -0.3123 -0.2980
 4638SOL    HW125547   2.957   3.337   6.999 -2.5342  1.8525  1.3489
 4638SOL    HW225548   3.015   3.296   7.130 -0.5046  0.2654 -0.1953
 4639SOL     OW25549   4.158   2.696   6.442 -0.3439 -0.4619  0.2566
 4639SOL    HW125550   4.164   2.669   6.351 -1.1310 -3.3413  1.0613
 4639SOL    HW225551   4.117   2.782   6.432  0.5327 -0.1632 -0.6944
 4640SOL     OW25552   3.069   0.913   1.411  0.5887  0.2848 -0.2593
 4640SOL    HW125553   3.130   0.858   1.361  0.0109 -0.3329 -0.2814
 4640SOL    HW225554   3.036   0.852   1.477  0.1543 -0.0205 -0.7588
 4641SOL     OW25555   2.286   1.936   9.668 -0.2507  0.3758  0.1929
 4641SOL    HW125556   2.363   1.880   9.657 -0.4008  0.4915 -1.4225
 4641SOL    HW225557   2.313   2.021   9.634 -1.9027  1.0866  0.6537
 4642SOL     OW25558   1.886   0.517   4.789 -0.2650  0.9846  0.4389
 4642SOL    HW125559   1.794   0.492   4.777  0.7125 -3.1414  1.7548
 4642SOL    HW225560   1.879   0.598   4.840 -0.0573  1.8782 -0.9658
 4643SOL     OW25561   3.595   4.109  13.301 -0.2399 -0.6382 -0.5879
 4643SOL    HW125562   3.532   4.073  13.364 -0.4944 -1.0708 -1.0806
 4643SOL    HW225563   3.613   4.034  13.244  2.8879 -0.3457 -0.0114
 4644SOL     OW25564   4.056   1.968   2.559  0.4911  0.2696 -0.0326
 4644SOL    HW125565   4.140   1.939   2.592 -0.5790 -1.3312  1.2929
 4644SOL    HW225566   4.090   2.045   2.513  0.8260 -0.1176 -0.4303
 4645SOL     OW25567   0.585   1.660   2.102 -0.1760 -0.4398  0.1129
 4645SOL    HW125568   0.606   1.728   2.039  0.1125  0.5346  1.2569
 4645SOL    HW225569   0.544   1.715   2.169 -1.6639  0.0877 -1.2384
 4646SOL     OW25570   1.573   3.988  13.111 -0.1493 -0.0044 -0.4689
 4646SOL    HW125571   1.527   4.048  13.170 -1.1095 -0.2554 -0.9735
 4646SOL    HW225572   1.657   4.030  13.093  0.8356 -1.7198  0.1296
 4647SOL     OW25573   0.387   3.968   5.084 -0.1419  0.1770 -0.7979
 4647SOL    HW125574   0.391   3.879   5.051 -3.1948  0.1365 -0.9910
 4647SOL    HW225575   0.296   3.993   5.096 -0.6483 -1.4718 -1.2457
 4648SOL     OW25576   3.079   4.451  16.738  0.1933 -0.4672  0.2851
 4648SOL    HW125577   3.002   4.506  16.734  1.1022  0.8153  0.4635
 4648SOL    HW225578   3.147   4.505  16.697  1.3808 -1.2072  1.2581
 4649SOL     OW25579   3.479   2.276   2.016  1.0814  0.1572 -0.0698
 4649SOL    HW125580   3.461   2.206   2.079 -0.3384  0.6003  0.0212
 4649SOL    HW225581   3.545   2.238   1.958 -0.7857  1.3633 -2.9950
 4650SOL     OW25582   4.472   3.739   8.107  0.4192 -0.0588 -0.1961
 4650SOL    HW125583   4.431   3.654   8.089 -2.4157  0.7905  2.3805
 4650SOL    HW225584   4.455   3.743   8.201  0.0096 -2.0576 -0.1756
 4651SOL     OW25585   0.767   1.828   7.332  0.0003  0.2516 -0.3235
 4651SOL    HW125586   0.836   1.835   7.398 -1.3552  0.0816  1.0926
 4651SOL    HW225587   0.779   1.737   7.307  1.6029  0.4710 -0.4009
 4652SOL     OW25588   3.844   3.126   2.963  0.1225  0.1945  0.4749
 4652SOL    HW125589   3.791   3.174   3.027 -0.9136  1.8744 -1.6664
 4652SOL    HW225590   3.887   3.199   2.920  0.4882 -0.7982 -0.8412
 4653SOL     OW25591   2.504   3.235  16.024 -0.3550 -0.7522 -0.4535
 4653SOL    HW125592   2.413   3.209  16.007 -1.0008  0.6355  0.9020
 4653SOL    HW225593   2.523   3.283  15.943 -1.3775 -1.0098 -0.8464
 4654SOL     OW25594   3.101   4.337   1.356 -0.4315  0.2538  0.0969
 4654SOL    HW125595   3.148   4.393   1.294 -1.4744  0.5288 -0.4479
 4654SOL    HW225596   3.030   4.302   1.302 -0.3983  2.4414 -1.3587
 4655SOL     OW25597   1.560   3.617   4.468  0.0030  0.2944  0.2500
 4655SOL    HW125598   1.630   3.641   4.528 -0.6893  1.4117  0.6228
 4655SOL    HW225599   1.507   3.549   4.509  0.1080 -0.0660 -0.2129
 4656SOL     OW25600   1.536   3.173   4.726  0.2713  0.0200 -0.4238
 4656SOL    HW125601   1.445   3.153   4.747  0.7674  2.7677  4.5089
 4656SOL    HW225602   1.526   3.254   4.676 -0.0939 -0.6119 -1.3584
 4657SOL     OW25603   1.724   2.239  16.153 -0.4852 -0.0096  0.0135
 4657SOL    HW125604   1.810   2.258  16.116 -1.5470  0.5691 -2.1707
 4657SOL    HW225605   1.675   2.225  16.072  1.0186 -1.9965 -0.5569
 4658SOL     OW25606   4.404   4.520   2.106  0.2883  0.4616 -0.0148
 4658SOL    HW125607   4.453   4.513   2.024  2.3892 -1.3454  1.3785
 4658SOL    HW225608   4.345   4.588   2.075  1.9263  1.6874 -0.4365
 4659SOL     OW25609   0.561   1.472   5.279  0.2724 -0.0439 -0.3826
 4659SOL    HW125610   0.565   1.391   5.229  0.3001 -0.7091  0.6919
 4659SOL    HW225611   0.611   1.439   5.353 -0.6467 -1.1308 -0.2467
 4660SOL     OW25612   2.911   2.314   6.409 -0.2959  0.3892 -0.0314
 4660SOL    HW125613   2.874   2.272   6.331  2.1790  0.2773 -1.1450
 4660SOL    HW225614   2.847   2.290   6.476 -0.9774 -2.6530 -1.7244
 4661SOL     OW25615   1.363   2.844  16.025  0.3899 -0.0673 -0.2282
 4661SOL    HW125616   1.424   2.917  16.032  0.1181  0.3024 -1.6956
 4661SOL    HW225617   1.382   2.799  16.107 -2.7066  0.9883  1.0802
 4662SOL     OW25618   1.643   1.255  16.241 -0.1177 -0.8959 -0.2947
 4662SOL    HW125619   1.572   1.319  16.247  0.4112 -0.2384 -1.0002
 4662SOL    HW225620   1.621   1.198  16.314 -1.9682 -1.7342 -1.5140
 4663SOL     OW25621   2.013   3.453   5.462 -0.4773 -0.0958 -0.2757
 4663SOL    HW125622   2.043   3.363   5.457 -1.0911 -0.0511 -5.1782
 4663SOL    HW225623   1.998   3.461   5.556  1.4774  0.8961 -0.0574
 4664SOL     OW25624   2.615   4.714   5.072  0.4568 -1.0027 -0.2006
 4664SOL    HW125625   2.634   4.627   5.107  0.6109 -0.6311  0.6364
 4664SOL    HW225626   2.613   4.691   4.979  0.3897 -0.5141 -0.3208
 4665SOL     OW25627   0.734   1.601   1.725 -0.0653 -0.1231  0.0106
 4665SOL    HW125628   0.804   1.635   1.780  0.7839 -0.3449 -0.9216
 4665SOL    HW225629   0.776   1.535   1.669 -0.7006  1.7355 -2.6658
 4666SOL     OW25630   0.574   2.056   0.042  0.6921  0.5121 -0.2862
 4666SOL    HW125631   0.585   2.144   0.078  0.1969  1.0994 -1.5743
 4666SOL    HW225632   0.627   2.002   0.101  0.2068  0.4668  0.1093
 4667SOL     OW25633   3.571   2.336   6.248  0.3974 -0.2862  0.0598
 4667SOL    HW125634   3.524   2.255   6.225  1.1954 -1.3895  2.2713
 4667SOL    HW225635   3.626   2.303   6.319  3.0023  0.7739 -1.4714
 4668SOL     OW25636   1.136   1.763   2.862 -0.4214 -0.2509  0.2028
 4668SOL    HW125637   1.124   1.706   2.939  0.8535  1.1165  1.4059
 4668SOL    HW225638   1.088   1.836   2.902 -0.3518  1.0968 -2.1767
 4669SOL     OW25639   1.724   2.352  10.590 -0.3573  0.0486 -0.0227
 4669SOL    HW125640   1.798   2.412  10.600  0.4413 -0.5827 -2.3387
 4669SOL    HW225641   1.731   2.327  10.498  0.4453 -0.5847  0.2237
 4670SOL     OW25642   1.707   0.290  11.986 -0.5488  0.3532  0.4301
 4670SOL    HW125643   1.723   0.246  12.069  1.0078 -0.5388 -0.3463
 4670SOL    HW225644   1.752   0.233  11.925 -1.0852 -0.5393  0.8705
 4671SOL     OW25645   4.290   3.788   8.600 -0.6688  0.3810 -0.1676
 4671SOL    HW125646   4.249   3.859   8.649  0.5243  0.6364  0.4594
 4671SOL    HW225647   4.286   3.714   8.662  0.4677  0.7373  0.3298
 4672SOL     OW25648   1.636   2.796  12.388 -0.1532 -0.3199  0.5575
 4672SOL    HW125649   1.697   2.809  12.461 -1.4249  0.3139  1.5204
 4672SOL    HW225650   1.661   2.708  12.360 -2.2799 -0.3037 -1.4152
 4673SOL     OW25651   3.133   0.063   7.762 -0.4471  0.3418 -0.0436
 4673SOL    HW125652   3.106   4.711   7.784  0.3805 -0.0318 -0.5665
 4673SOL    HW225653   3.224   0.068   7.790 -0.0920 -1.7713 -0.8099
 4674SOL     OW25654   2.926   1.923  15.339 -0.5206  0.0597 -0.2088
 4674SOL    HW125655   2.934   1.976  15.259  1.5985  0.8987  0.5863
 4674SOL    HW225656   2.855   1.863  15.315 -0.6713 -0.2818  1.1180
 4675SOL     OW25657   2.292   0.115   2.109 -0.9298 -0.5884 -0.3013
 4675SOL    HW125658   2.349   0.169   2.163  0.0301 -1.5612 -0.3545
 4675SOL    HW225659   2.221   0.122   2.174 -0.2798  0.5934  0.2940
 4676SOL     OW25660   3.893   4.673   2.072  0.2573  0.6628  0.3539
 4676SOL    HW125661   3.952   4.640   2.004  0.4042  2.1166 -0.2329
 4676SOL    HW225662   3.924   0.026   2.083  0.7434  0.6486 -0.8849
 4677SOL     OW25663   1.179   4.142   2.928  0.7695  0.3605  0.7856
 4677SOL    HW125664   1.258   4.169   2.976  0.1838 -1.1086  2.5645
 4677SOL    HW225665   1.180   4.049   2.948 -1.9700 -0.1341 -1.4932
 4678SOL     OW25666   4.533   4.030   8.399  0.0900  0.0931  0.0163
 4678SOL    HW125667   4.602   4.070   8.451  1.0470 -0.6633 -0.6702
 4678SOL    HW225668   4.552   3.936   8.408  0.6414  0.1910 -0.1152
 4679SOL     OW25669   2.847   4.029  14.187  0.2031 -0.4558  0.4898
 4679SOL    HW125670   2.839   3.960  14.121  1.0406 -1.1899  1.1678
 4679SOL    HW225671   2.907   4.090  14.143  0.5367 -0.1728  1.3385
 4680SOL     OW25672   4.244   0.663   6.857  0.3422 -0.3875 -0.1920
 4680SOL    HW125673   4.189   0.713   6.796  0.5442 -0.1613 -0.1894
 4680SOL    HW225674   4.183   0.596   6.888  1.6881 -0.3597  2.5476
 4681SOL     OW25675   4.434   1.939   3.520  0.1195 -0.0668  0.3170
 4681SOL    HW125676   4.406   1.992   3.445 -0.7292  0.8569  1.2831
 4681SOL    HW225677   4.383   1.859   3.514  0.6028 -0.2581 -1.1954
 4682SOL     OW25678   1.431   2.962  13.770  0.2113  0.8822 -0.2957
 4682SOL    HW125679   1.356   2.931  13.822  0.5977  0.2356 -0.1275
 4682SOL    HW225680   1.407   3.054  13.759  0.8337  1.0182 -0.4748
 4683SOL     OW25681   3.241   0.741   3.298  0.0422 -0.2554  0.3041
 4683SOL    HW125682   3.309   0.797   3.261 -0.6749 -0.6808 -1.7168
 4683SOL    HW225683   3.179   0.800   3.339  1.7438  2.3275 -0.8077
 4684SOL     OW25684   4.660   0.539   4.699  0.2690  0.2934  0.4235
 4684SOL    HW125685   4.589   0.595   4.734  0.6012  0.6676  0.5049
 4684SOL    HW225686   4.681   0.484   4.774  0.7222  0.7607  0.6426
 4685SOL     OW25687   2.201   4.701   8.318 -0.3077 -0.6849 -0.3357
 4685SOL    HW125688   2.157   0.042   8.351  1.7619 -0.0685  0.9582
 4685SOL    HW225689   2.242   4.662   8.395 -1.4189 -0.2632  0.4685
 4686SOL     OW25690   4.424   3.035   9.954  0.6645 -0.6600  0.3888
 4686SOL    HW125691   4.358   3.082  10.004  1.5940 -1.7746  2.6650
 4686SOL    HW225692   4.510   3.067   9.982  0.4593  0.3800 -0.1359
 4687SOL     OW25693   1.392   4.726   7.591 -0.1306  0.0308  0.2661
 4687SOL    HW125694   1.354   4.640   7.576  0.5803 -0.5488  1.7950
 4687SOL    HW225695   1.466   4.727   7.530  2.7232 -2.8203  3.6205
 4688SOL     OW25696   4.565   1.189   8.072 -0.4221  0.4871 -0.3186
 4688SOL    HW125697   4.515   1.264   8.104  0.2184  0.5303  0.5884
 4688SOL    HW225698   4.549   1.121   8.138  3.1082 -0.9187 -0.8957
 4689SOL     OW25699   0.002   3.243  16.386 -0.1988 -0.1949 -0.0017
 4689SOL    HW125700   4.644   3.257  16.388  0.1271  2.1339 -0.1638
 4689SOL    HW225701   0.013   3.148  16.382  0.7459  0.0205 -2.6255
 4690SOL     OW25702   3.975   4.055   6.315  0.1923 -0.1455  0.1263
 4690SOL    HW125703   3.960   3.970   6.272  2.4699 -1.4751  1.9139
 4690SOL    HW225704   4.063   4.052   6.352  0.4518  1.0850 -0.4172
 4691SOL     OW25705   2.978   1.759   7.669  0.2272  0.0816 -0.0461
 4691SOL    HW125706   2.987   1.723   7.581  2.0676 -0.5157  0.3843
 4691SOL    HW225707   3.068   1.781   7.693 -0.0455  0.8937  0.2271
 4692SOL     OW25708   2.627   0.185   2.601  0.5976 -0.2959  0.0948
 4692SOL    HW125709   2.636   0.142   2.686  1.2989 -0.8140 -0.2513
 4692SOL    HW225710   2.559   0.133   2.558  1.3558 -0.7015 -0.6159
 4693SOL     OW25711   2.479   0.046   0.755 -0.2477  0.6851 -0.1475
 4693SOL    HW125712   2.515   0.090   0.832  0.5529  2.7289 -1.7025
 4693SOL    HW225713   2.423   4.722   0.804 -0.5937  1.6236  0.6090
 4694SOL     OW25714   2.108   2.892  10.296  0.2726 -0.0186  0.1394
 4694SOL    HW125715   2.142   2.973  10.258  1.3209 -0.1278  0.8382
 4694SOL    HW225716   2.016   2.914  10.280  0.2209 -0.2634  0.1036
 4695SOL     OW25717   3.861   2.490   3.282  0.5617  0.1979  0.2024
 4695SOL    HW125718   3.936   2.473   3.339  0.8794 -1.0070 -0.5794
 4695SOL    HW225719   3.819   2.558   3.334  1.4890  0.6417  0.3711
 4696SOL     OW25720   2.566   3.642  10.413  0.2610 -0.0440 -0.2845
 4696SOL    HW125721   2.533   3.712  10.470  0.8614  0.5647 -0.6886
 4696SOL    HW225722   2.659   3.663  10.408  0.3038  0.5015  2.3084
 4697SOL     OW25723   0.986   0.292   6.342 -0.1867  0.1968  0.4512
 4697SOL    HW125724   0.977   0.374   6.392 -0.1318 -0.0166  0.8106
 4697SOL    HW225725   1.080   0.282   6.332 -0.3526 -2.1612  1.3139
 4698SOL     OW25726   1.204   2.420  11.805  0.2959  0.0220  0.1286
 4698SOL    HW125727   1.220   2.385  11.718 -1.3034  1.4693 -0.7330
 4698SOL    HW225728   1.289   2.463  11.821  0.1211 -0.8328  3.4977
 4699SOL     OW25729   2.172   4.088   7.672  0.4239 -0.0190 -0.2601
 4699SOL    HW125730   2.246   4.143   7.645 -0.6705  0.4168 -2.4191
 4699SOL    HW225731   2.213   4.003   7.662  1.4510  0.6033 -1.3349
 4700SOL     OW25732   0.134   0.547  11.165  0.4775  0.0917  0.2108
 4700SOL    HW125733   0.151   0.540  11.259  1.6832 -0.0707 -0.0189
 4700SOL    HW225734   0.071   0.617  11.147 -0.8145 -1.5234 -1.5325
 4701SOL     OW25735   3.424   4.261   5.124 -0.5090  0.2384 -0.3456
 4701SOL    HW125736   3.489   4.239   5.057 -0.0205  2.4934 -0.6095
 4701SOL    HW225737   3.473   4.331   5.168  2.0633 -2.1373  0.5848
 4702SOL     OW25738   4.184   4.664  16.462  0.5772  0.3158  0.1762
 4702SOL    HW125739   4.216   4.688  16.375  1.6969 -1.1525  0.1737
 4702SOL    HW225740   4.096   4.697  16.448  0.4455  0.5273  1.4986
 4703SOL     OW25741   1.274   1.232   7.259  0.2725  0.1533 -0.2488
 4703SOL    HW125742   1.346   1.235   7.195 -0.7190  1.5313 -1.2837
 4703SOL    HW225743   1.330   1.234   7.337 -0.7859  0.4113  0.5114
 4704SOL     OW25744   0.963   4.685  15.313  0.4323  0.3543  0.1918
 4704SOL    HW125745   0.977   0.036  15.347  0.4318  0.9518 -1.3473
 4704SOL    HW225746   0.869   4.669  15.321  0.3975  0.4760  0.0348
 4705SOL     OW25747   0.086   0.882   8.508  0.0560 -0.4632  0.1299
 4705SOL    HW125748   0.128   0.870   8.422  1.3309  0.5637  0.5994
 4705SOL    HW225749   0.126   0.965   8.535  1.1143 -1.2669  1.0158
 4706SOL     OW25750   2.291   3.980   2.270 -0.1170  0.1372 -0.2451
 4706SOL    HW125751   2.374   3.942   2.297 -0.7559 -0.7786  0.4446
 4706SOL    HW225752   2.236   3.941   2.338  1.5065 -2.3399 -0.3950
 4707SOL     OW25753   1.490   0.418  12.986  0.6546 -0.6441  0.1214
 4707SOL    HW125754   1.528   0.331  12.975  2.4605  0.4252 -1.9161
 4707SOL    HW225755   1.444   0.408  13.070 -3.4940 -2.5375 -2.3924
 4708SOL     OW25756   4.319   1.357   4.076 -0.9151  0.2486  0.2936
 4708SOL    HW125757   4.318   1.432   4.135 -1.7518 -1.1684  2.0929
 4708SOL    HW225758   4.380   1.389   4.010 -1.9082  1.1505 -0.1931
 4709SOL     OW25759   2.475   1.903   4.577  0.2325 -0.1422  0.1987
 4709SOL    HW125760   2.486   1.994   4.603 -0.9777  0.3508 -1.0259
 4709SOL    HW225761   2.431   1.919   4.493  0.6049  0.6053  0.1525
 4710SOL     OW25762   0.377   3.378   3.105 -0.3558 -0.0779  0.1351
 4710SOL    HW125763   0.412   3.299   3.065  0.7756  0.0110  0.9394
 4710SOL    HW225764   0.365   3.353   3.197  0.3207  1.4987  0.6584
 4711SOL     OW25765   3.861   1.220  17.051  0.1916  0.2290 -0.3266
 4711SOL    HW125766   3.951   1.224  17.018  0.6110 -1.0235  0.6694
 4711SOL    HW225767   3.828   1.154  16.990  3.1957 -0.9837 -0.6060
 4712SOL     OW25768   3.105   1.566  10.238 -0.6526  0.2033 -0.1078
 4712SOL    HW125769   3.173   1.507  10.269 -0.5724  0.4604  0.2031
 4712SOL    HW225770   3.130   1.604  10.153  1.0025  0.6399  0.5747
 4713SOL     OW25771   0.015   4.537   9.171  0.2851 -0.1588  0.0907
 4713SOL    HW125772   0.019   4.554   9.265 -0.3073 -1.6961  0.4027
 4713SOL    HW225773   0.076   4.463   9.166  1.4305  0.7698  0.4971
 4714SOL     OW25774   1.251   0.338   1.580  0.2045  0.2197 -0.0705
 4714SOL    HW125775   1.322   0.278   1.556 -0.6660 -0.5655 -0.6681
 4714SOL    HW225776   1.183   0.291   1.532 -0.9590 -0.3408  2.1579
 4715SOL     OW25777   0.941   4.303   5.372  0.3165 -0.1697 -0.1871
 4715SOL    HW125778   0.899   4.294   5.287 -1.3426  1.0736  0.5060
 4715SOL    HW225779   1.033   4.294   5.347  0.3255 -0.4746 -0.0485
 4716SOL     OW25780   3.257   4.371   2.228  0.0069  0.1967  0.4545
 4716SOL    HW125781   3.334   4.421   2.201  0.5101 -1.1572 -0.6033
 4716SOL    HW225782   3.221   4.429   2.296 -1.7042  1.3289 -1.4209
 4717SOL     OW25783   2.338   1.386   5.818 -0.1530 -0.4419  0.0543
 4717SOL    HW125784   2.365   1.294   5.822  0.4013 -0.2426  1.0385
 4717SOL    HW225785   2.257   1.374   5.770  0.2057 -0.2775 -0.5973
 4718SOL     OW25786   1.175   2.845  14.841 -1.0663 -0.0093  0.0144
 4718SOL    HW125787   1.116   2.910  14.804  1.0961  1.5859 -0.5984
 4718SOL    HW225788   1.261   2.877  14.815  0.4078 -1.0996  3.5236
 4719SOL     OW25789   4.088   1.223   4.534  0.1991 -1.2468 -0.7556
 4719SOL    HW125790   4.014   1.278   4.509  1.2474 -0.1178 -1.3751
 4719SOL    HW225791   4.046   1.175   4.605 -1.9874 -1.9162 -2.4876
 4720SOL     OW25792   0.381   1.917   1.849 -0.0095 -0.3576 -0.1216
 4720SOL    HW125793   0.352   1.983   1.785  0.3291  2.1545  2.3100
 4720SOL    HW225794   0.426   1.864   1.784 -0.2718 -1.5253  0.6466
 4721SOL     OW25795   3.811   2.007  17.247  0.4319  0.0499  0.0189
 4721SOL    HW125796   3.790   2.017  17.154 -1.1923 -0.9366  0.2757
 4721SOL    HW225797   3.865   2.084  17.261  1.2188 -0.3608 -0.7997
 4722SOL     OW25798   3.532   2.973   4.636  0.3767  0.1726 -0.5948
 4722SOL    HW125799   3.512   3.055   4.683 -1.9389 -0.3308 -0.7131
 4722SOL    HW225800   3.522   2.917   4.713 -0.1984  1.6114  0.3872
 4723SOL     OW25801   4.355   4.596  13.666  0.6763  0.2627  0.8226
 4723SOL    HW125802   4.295   4.566  13.735 -1.9239 -1.2695 -2.1072
 4723SOL    HW225803   4.376   4.688  13.682  3.2351 -0.8912  4.0509
 4724SOL     OW25804   4.215   2.070   4.630  0.1813 -0.0280 -0.7619
 4724SOL    HW125805   4.293   2.126   4.630 -1.1157  1.7614 -0.4869
 4724SOL    HW225806   4.149   2.138   4.642 -1.3673 -1.8517  1.1047
 4725SOL     OW25807   0.769   1.632  13.592  0.5465 -0.0728  0.2034
 4725SOL    HW125808   0.785   1.725  13.607 -2.9400  0.7113 -1.0005
 4725SOL    HW225809   0.688   1.619  13.641 -0.2618 -0.6870 -1.3131
 4726SOL     OW25810   2.094   1.095  14.701  0.3225 -0.1296  0.1519
 4726SOL    HW125811   2.113   1.151  14.777 -0.0290  0.0140  0.1336
 4726SOL    HW225812   2.183   1.068  14.681  0.0152 -0.9539 -0.0773
 4727SOL     OW25813   0.576   4.612  10.172  0.1215 -0.2287 -0.5515
 4727SOL    HW125814   0.519   4.542  10.141 -0.5982  0.5729 -1.0407
 4727SOL    HW225815   0.610   4.570  10.251  3.3445  1.5617 -0.9552
 4728SOL     OW25816   0.572   0.138   5.565 -0.1344  0.1311  0.1830
 4728SOL    HW125817   0.512   0.116   5.494  0.8841  1.3577 -1.0621
 4728SOL    HW225818   0.643   0.078   5.542 -1.7749 -0.8834 -2.2737
 4729SOL     OW25819   2.624   0.151   7.817 -0.5724 -0.2300 -0.2750
 4729SOL    HW125820   2.698   0.097   7.790 -1.8359 -2.1703  0.1518
 4729SOL    HW225821   2.580   0.167   7.734 -1.7457  0.6937  0.5235
 4730SOL     OW25822   3.365   2.190   8.059 -0.5872  0.3105  0.1863
 4730SOL    HW125823   3.381   2.280   8.088 -0.1296  0.5009 -0.6525
 4730SOL    HW225824   3.287   2.170   8.111 -1.4413 -1.0531 -1.6159
 4731SOL     OW25825   4.519   4.486   5.278  0.0556  0.4241  0.1249
 4731SOL    HW125826   4.509   4.474   5.372 -1.5214  3.0351  0.3044
 4731SOL    HW225827   4.602   4.442   5.265 -0.4239 -0.6772  0.8435
 4732SOL     OW25828   4.377   3.062   8.683 -0.4723  0.0207  0.0341
 4732SOL    HW125829   4.414   2.987   8.730  0.5709 -0.5744 -1.7127
 4732SOL    HW225830   4.432   3.051   8.605  0.6169  0.6283  0.7287
 4733SOL     OW25831   3.021   0.378   9.189  0.3248 -0.4586  0.3892
 4733SOL    HW125832   3.093   0.441   9.186 -0.1619  0.0445 -0.8058
 4733SOL    HW225833   3.060   0.302   9.233  1.7219 -0.5752 -1.0317
 4734SOL     OW25834   3.658   0.169   9.723 -0.1109 -0.3738 -0.6788
 4734SOL    HW125835   3.698   0.167   9.636 -3.2876 -1.2472 -2.1114
 4734SOL    HW225836   3.659   0.265   9.732 -0.0163 -0.7507  2.9450
 4735SOL     OW25837   2.099   1.357   5.703  0.2555  0.0274 -0.7378
 4735SOL    HW125838   2.030   1.372   5.767 -0.2626 -3.1456 -0.5245
 4735SOL    HW225839   2.107   1.262   5.711 -3.1726 -0.3594 -1.9569
 4736SOL     OW25840   0.639   3.013   7.205 -0.2288  0.2847  0.1448
 4736SOL    HW125841   0.585   2.946   7.248 -2.0520 -0.1258 -2.7335
 4736SOL    HW225842   0.720   3.015   7.256 -0.5934  1.5444  0.6750
 4737SOL     OW25843   4.044   2.025   2.190 -0.7142 -0.1307  0.1023
 4737SOL    HW125844   4.090   2.034   2.274  0.5305 -1.8969 -0.3859
 4737SOL    HW225845   4.042   2.119   2.174  0.7029 -0.2657 -0.7970
 4738SOL     OW25846   0.540   1.520   7.036 -0.3921 -0.1316 -0.2060
 4738SOL    HW125847   0.485   1.565   6.971 -1.1592  0.4884  0.8838
 4738SOL    HW225848   0.501   1.546   7.119  0.0318 -0.7576  0.1788
 4739SOL     OW25849   3.964   1.143   6.476 -0.0361  0.4146  0.5563
 4739SOL    HW125850   3.881   1.179   6.447 -1.2990 -2.3310  0.7339
 4739SOL    HW225851   3.957   1.116   6.568  1.0772 -0.4663  0.3886
 4740SOL     OW25852   3.020   3.659   0.112  0.1992 -0.1477  0.5342
 4740SOL    HW125853   3.015   3.706   0.195  0.6548  2.3522 -0.8524
 4740SOL    HW225854   3.025   3.727   0.045 -2.5412  0.4985  0.9927
 4741SOL     OW25855   3.609   2.463  17.214 -0.3198 -0.0950 -0.4612
 4741SOL    HW125856   3.566   2.400  17.272  0.3035 -0.1655 -0.0622
 4741SOL    HW225857   3.697   2.466  17.252 -1.0942 -3.6547  1.5367
 4742SOL     OW25858   3.823   3.462  13.416  0.4690 -0.2907  0.3038
 4742SOL    HW125859   3.809   3.441  13.509 -0.7330 -0.3672  0.0987
 4742SOL    HW225860   3.907   3.421  13.395  1.1126  2.4927 -2.3900
 4743SOL     OW25861   1.224   2.504   6.142  0.3266 -0.4535 -0.3399
 4743SOL    HW125862   1.217   2.587   6.095 -1.6574 -0.2334  0.3384
 4743SOL    HW225863   1.154   2.455   6.099  0.2549 -2.2857  1.8808
 4744SOL     OW25864   2.718   2.849   7.365  0.0851  0.8094  0.3361
 4744SOL    HW125865   2.649   2.894   7.413  0.8538  2.1874  0.1888
 4744SOL    HW225866   2.720   2.769   7.416  1.4848 -0.1589 -1.2231
 4745SOL     OW25867   0.861   2.834  14.502  0.4894  0.2658 -0.2154
 4745SOL    HW125868   0.765   2.824  14.498  0.4961  0.4636 -0.8928
 4745SOL    HW225869   0.870   2.862  14.411 -1.3367  1.7690  0.0518
 4746SOL     OW25870   0.095   3.921   4.826 -0.0901  0.1757 -0.5022
 4746SOL    HW125871   0.157   3.988   4.801  0.1603 -0.1890 -0.8577
 4746SOL    HW225872   0.010   3.956   4.800 -0.4659  0.6001  1.2956
 4747SOL     OW25873   1.376   2.704   4.672 -0.0087  0.0540 -0.5076
 4747SOL    HW125874   1.338   2.626   4.713 -0.9978  2.2045  2.7254
 4747SOL    HW225875   1.412   2.739   4.754  0.8298 -1.1297 -0.3745
 4748SOL     OW25876   1.695   0.778   5.739  0.2677 -0.5774 -0.0964
 4748SOL    HW125877   1.656   0.703   5.784  1.6362 -1.3978 -0.2846
 4748SOL    HW225878   1.657   0.766   5.652  0.3805  1.4014 -0.4044
 4749SOL     OW25879   0.868   1.957   7.037 -0.0839 -0.1003  0.4156
 4749SOL    HW125880   0.818   1.998   7.107  0.2084 -1.7255  1.5730
 4749SOL    HW225881   0.816   1.876   7.028 -0.2312  0.1661 -1.2391
 4750SOL     OW25882   0.489   2.444   7.589  0.1500 -0.0194 -0.0837
 4750SOL    HW125883   0.480   2.420   7.681  1.3721  2.0075  0.5637
 4750SOL    HW225884   0.396   2.456   7.571  0.3111  1.3053 -0.0919
 4751SOL     OW25885   0.066   0.011   5.979 -0.2047  0.0007  0.1795
 4751SOL    HW125886   0.126   0.084   5.963 -0.4765  0.3191  0.6217
 4751SOL    HW225887   0.099   4.704   6.058 -1.4115 -1.1705  0.0462
 4752SOL     OW25888   1.722   4.344  12.173  0.7251 -0.0953 -0.2410
 4752SOL    HW125889   1.683   4.284  12.109  2.3712 -0.9509 -0.4499
 4752SOL    HW225890   1.817   4.333  12.173  0.5623 -1.4955  0.3868
 4753SOL     OW25891   3.440   3.270   2.095  0.0812  0.0899  0.0035
 4753SOL    HW125892   3.468   3.361   2.106 -0.2475  0.0204  1.4372
 4753SOL    HW225893   3.520   3.219   2.110  0.0759 -0.2906 -1.3092
 4754SOL     OW25894   2.089   2.238   5.585  0.1332 -0.1685  0.4298
 4754SOL    HW125895   2.098   2.328   5.616  0.4286 -0.4437  1.1302
 4754SOL    HW225896   2.163   2.198   5.631 -1.6204 -1.6755  1.9382
 4755SOL     OW25897   0.352   3.761   3.882 -0.1642  1.2900  0.0103
 4755SOL    HW125898   0.297   3.690   3.849  0.5745 -0.4020  2.4502
 4755SOL    HW225899   0.342   3.745   3.976 -0.2993  1.6983  0.0672
 4756SOL     OW25900   4.683   0.392   1.771  0.2669 -0.0462 -0.0294
 4756SOL    HW125901   4.708   0.407   1.862  2.3707  1.6098 -0.8924
 4756SOL    HW225902   0.025   0.408   1.720  0.3413 -2.3129 -0.6206
 4757SOL     OW25903   1.768   4.163   1.628 -0.0246 -0.0500  0.5514
 4757SOL    HW125904   1.749   4.092   1.689  2.1424 -1.2480 -0.1874
 4757SOL    HW225905   1.821   4.221   1.683 -2.9066  1.3286  1.8724
 4758SOL     OW25906   1.121   2.202   0.709  0.4933  0.3335 -0.5623
 4758SOL    HW125907   1.189   2.186   0.644 -1.7116 -0.6210 -2.5723
 4758SOL    HW225908   1.148   2.290   0.739 -0.0243  0.8528 -1.6248
 4759SOL     OW25909   2.217   0.137   6.180  0.9640 -0.2504  0.4285
 4759SOL    HW125910   2.188   0.152   6.090  1.2333  0.3596  0.4410
 4759SOL    HW225911   2.169   0.060   6.211 -0.1024  0.6727  1.0845
 4760SOL     OW25912   1.128   1.240   8.904  0.4449  0.0283 -1.1765
 4760SOL    HW125913   1.134   1.145   8.893 -1.2877 -0.1729 -0.4463
 4760SOL    HW225914   1.187   1.251   8.978  0.0194  0.2268 -0.8653
 4761SOL     OW25915   4.418   1.510  11.413  0.0124  0.1775 -0.6884
 4761SOL    HW125916   4.484   1.493  11.345  0.5335 -1.1752  0.1671
 4761SOL    HW225917   4.468   1.538  11.490  0.9683 -1.1975 -0.8117
 4762SOL     OW25918   4.584   2.586   0.664  0.7095 -0.2143  0.0844
 4762SOL    HW125919   4.673   2.551   0.671  0.9474  0.0020 -2.0824
 4762SOL    HW225920   4.569   2.624   0.751  3.1046  1.6565 -0.3101
 4763SOL     OW25921   3.304   2.045  14.045  0.5374  0.5195 -0.4826
 4763SOL    HW125922   3.285   2.108  13.976 -0.6612  0.6789 -0.0007
 4763SOL    HW225923   3.219   2.003  14.058  0.1854  1.7478  1.1329
 4764SOL     OW25924   2.374   3.002   5.814  0.2313 -0.1308  0.4657
 4764SOL    HW125925   2.396   2.944   5.887  0.8034 -1.9273 -1.1383
 4764SOL    HW225926   2.459   3.025   5.777 -0.6955  0.9751 -0.9670
 4765SOL     OW25927   1.486   3.836   4.775  0.1759 -0.0855  0.0150
 4765SOL    HW125928   1.540   3.874   4.705 -1.2762  3.1919  0.7063
 4765SOL    HW225929   1.505   3.742   4.776 -2.7562 -0.6655 -0.0393
 4766SOL     OW25930   3.815   3.605   8.510  0.0681 -0.4011 -0.6948
 4766SOL    HW125931   3.755   3.580   8.579  1.9928  1.7068  1.7297
 4766SOL    HW225932   3.768   3.568   8.435 -0.1158  0.6128 -1.0814
 4767SOL     OW25933   0.715   4.331  10.047 -0.0044  0.1704  0.1067
 4767SOL    HW125934   0.664   4.371   9.977 -2.0157 -1.1356  0.8199
 4767SOL    HW225935   0.803   4.362  10.025 -0.6030  2.5281  1.1118
 4768SOL     OW25936   0.244   0.128   7.018 -0.0157  0.5337  0.3881
 4768SOL    HW125937   0.156   0.138   7.052  0.5962  1.5578  1.6693
 4768SOL    HW225938   0.228   0.064   6.949 -0.2159 -0.5425  1.4492
 4769SOL     OW25939   4.230   3.312   0.560 -0.1367  0.4661 -0.5226
 4769SOL    HW125940   4.272   3.351   0.484  0.7310  0.1505 -0.2028
 4769SOL    HW225941   4.157   3.371   0.581  1.6907  3.0196 -1.3994
 4770SOL     OW25942   3.018   3.253  16.807 -0.1498  0.4145  0.3437
 4770SOL    HW125943   2.963   3.259  16.729 -1.1206  1.2649  1.0959
 4770SOL    HW225944   2.973   3.326  16.849  0.0977  0.0009  1.3387
 4771SOL     OW25945   2.466   0.268   2.263  0.9721 -0.1968  0.1444
 4771SOL    HW125946   2.451   0.297   2.354 -0.7541  0.4891 -0.3617
 4771SOL    HW225947   2.562   0.269   2.265  0.9848 -1.1832 -0.2082
 4772SOL     OW25948   1.269   1.604   0.821  0.3817  0.0909  0.0455
 4772SOL    HW125949   1.342   1.659   0.851  1.1434 -1.4817  1.1123
 4772SOL    HW225950   1.320   1.539   0.772  0.2910 -1.0766  1.4797
 4773SOL     OW25951   1.476   3.233   3.167 -0.0192  0.0667  0.0710
 4773SOL    HW125952   1.459   3.172   3.238  0.9351  0.5384  0.7063
 4773SOL    HW225953   1.526   3.306   3.203 -0.8092  0.1584  0.9597
 4774SOL     OW25954   3.163   1.668   8.390 -0.2095 -0.2525  0.0133
 4774SOL    HW125955   3.125   1.587   8.356  0.7763 -0.7794  0.1703
 4774SOL    HW225956   3.223   1.629   8.454  2.4162  0.0600 -2.2808
 4775SOL     OW25957   2.227   0.226  10.010 -0.1687 -0.2004  0.1494
 4775SOL    HW125958   2.293   0.292  10.031 -0.5625  0.1412  0.3180
 4775SOL    HW225959   2.286   0.162   9.969 -1.0158 -1.5072  0.9703
 4776SOL     OW25960   2.032   4.589   7.069 -0.5904  0.1199  0.1362
 4776SOL    HW125961   2.031   4.665   7.127 -1.9167  0.7544 -0.7222
 4776SOL    HW225962   1.972   4.530   7.115  1.4365 -1.2517  1.0107
 4777SOL     OW25963   0.139   2.143   5.741  0.9664  0.1141 -0.4952
 4777SOL    HW125964   0.197   2.136   5.816 -0.7757 -0.3470  0.8066
 4777SOL    HW225965   0.208   2.169   5.681  0.5701 -1.2649 -1.5425
 4778SOL     OW25966   2.331   4.331  17.055 -0.1224 -0.0281  0.0003
 4778SOL    HW125967   2.415   4.303  17.092 -0.5442 -1.3772 -0.0419
 4778SOL    HW225968   2.302   4.388  17.125  1.0151 -0.7317  1.0461
 4779SOL     OW25969   0.945   4.390   9.916  0.2762  0.2073 -0.0040
 4779SOL    HW125970   1.014   4.325   9.926 -0.8129 -0.7013  1.5457
 4779SOL    HW225971   0.936   4.387   9.820 -4.0249 -1.0002  0.4399
 4780SOL     OW25972   4.358   4.607   0.313  0.0243  0.0646  0.3995
 4780SOL    HW125973   4.425   4.624   0.247 -0.6894  1.4098 -0.0015
 4780SOL    HW225974   4.297   4.550   0.266 -2.4349  1.8408  1.3924
 4781SOL     OW25975   0.025   4.095   1.834 -0.0015  0.1829  0.1069
 4781SOL    HW125976   4.684   4.116   1.782 -0.3793 -0.1196  0.5535
 4781SOL    HW225977   4.722   4.118   1.918 -0.1133  1.2100 -0.2230
 4782SOL     OW25978   0.500   1.779   1.661 -0.2431  0.2103  0.2295
 4782SOL    HW125979   0.590   1.749   1.651 -0.0600  1.0998 -0.8497
 4782SOL    HW225980   0.500   1.844   1.590  0.0974  1.0802  1.0366
 4783SOL     OW25981   1.199   0.461   8.548 -0.1004 -0.4439  0.0895
 4783SOL    HW125982   1.162   0.432   8.465 -1.4679  3.0221 -0.4902
 4783SOL    HW225983   1.179   0.378   8.591  1.9270 -1.8003 -1.6237
 4784SOL     OW25984   2.762   4.575   2.048 -0.0571  0.2468  0.3277
 4784SOL    HW125985   2.709   4.611   1.977  0.5887  0.9211  0.1847
 4784SOL    HW225986   2.848   4.581   2.006 -0.2011 -0.4880 -0.0816
 4785SOL     OW25987   1.383   2.708   2.171  0.0525  0.1180  0.3178
 4785SOL    HW125988   1.340   2.705   2.256 -0.2150  2.7172  0.2771
 4785SOL    HW225989   1.347   2.789   2.136 -0.9331  0.5276  2.3088
 4786SOL     OW25990   2.429   0.635   4.418 -0.3235  0.3626  0.1423
 4786SOL    HW125991   2.429   0.560   4.476  1.3357  1.0595  1.0430
 4786SOL    HW225992   2.335   0.647   4.401 -0.1518 -1.4744 -2.0175
 4787SOL     OW25993   2.952   0.951   5.536  0.6049  0.2781 -0.2357
 4787SOL    HW125994   2.929   0.889   5.605  2.3052  0.8551  0.8387
 4787SOL    HW225995   3.014   1.008   5.581  0.2078 -0.5046  1.2987
 4788SOL     OW25996   1.508   0.882   1.529  0.4163  0.5037  0.7547
 4788SOL    HW125997   1.531   0.792   1.553 -3.4153 -0.7531 -0.2556
 4788SOL    HW225998   1.593   0.923   1.516 -0.7736  3.0161  0.9755
 4789SOL     OW25999   4.396   1.027   5.564 -0.1584  0.5581  0.3520
 4789SOL    HW126000   4.317   1.080   5.577  0.3764  1.5885 -0.6588
 4789SOL    HW226001   4.364   0.975   5.490  0.3114  2.0523 -0.8859
 4790SOL     OW26002   2.734   0.982  16.024 -0.6054 -0.7467 -0.4251
 4790SOL    HW126003   2.692   0.996  16.110  0.6111  0.4927 -0.0251
 4790SOL    HW226004   2.657   1.012  15.976 -0.9987  0.3971  0.8920
 4791SOL     OW26005   2.386   2.808   3.378  0.2277  0.0693  0.0256
 4791SOL    HW126006   2.356   2.851   3.298 -0.2759  0.2269  0.2942
 4791SOL    HW226007   2.449   2.874   3.408  0.0190 -0.1901  1.0318
 4792SOL     OW26008   0.403   3.425   1.383 -0.5142 -0.5376 -0.0030
 4792SOL    HW126009   0.322   3.393   1.424 -0.2118 -1.2313  0.0608
 4792SOL    HW226010   0.400   3.520   1.395 -0.4945 -0.3245 -1.6382
 4793SOL     OW26011   2.160   2.373   0.854  0.2055 -0.3579  0.0730
 4793SOL    HW126012   2.072   2.376   0.817  1.2023  0.4760 -2.2054
 4793SOL    HW226013   2.151   2.286   0.893 -0.7604 -0.2973 -0.0111
 4794SOL     OW26014   2.700   1.042   1.291 -0.0687  0.4708  0.8513
 4794SOL    HW126015   2.746   1.044   1.375 -0.1340  0.4885  0.8866
 4794SOL    HW226016   2.613   1.020   1.325  0.5972 -0.9473  1.6348
 4795SOL     OW26017   3.792   1.594   8.891 -0.6363 -0.1218 -0.7597
 4795SOL    HW126018   3.724   1.661   8.887  1.0157  1.6559  1.4594
 4795SOL    HW226019   3.804   1.596   8.986 -1.6634 -0.0956 -0.6233
 4796SOL     OW26020   3.437   4.038   8.158  0.1133 -0.2405  0.3728
 4796SOL    HW126021   3.466   4.083   8.237  2.2028  0.8161 -0.9854
 4796SOL    HW226022   3.364   3.984   8.187  0.8953 -1.2090  0.5495
 4797SOL     OW26023   2.694   1.969   9.661 -0.6043  0.6973 -0.3828
 4797SOL    HW126024   2.634   1.896   9.652 -1.3778  1.0450  1.9363
 4797SOL    HW226025   2.637   2.041   9.636 -0.8112  0.0814 -1.6873
 4798SOL     OW26026   2.704   2.003   2.338 -0.1101 -0.4376  0.1439
 4798SOL    HW126027   2.642   2.053   2.391 -0.0538  1.2703 -1.4330
 4798SOL    HW226028   2.639   1.937   2.315  0.7971 -1.1983 -0.2278
 4799SOL     OW26029   4.051   0.588   8.080  0.0765 -0.2984 -0.2915
 4799SOL    HW126030   4.031   0.681   8.070 -1.5971 -0.8331 -1.9195
 4799SOL    HW226031   4.129   0.592   8.136  0.8678 -0.1786 -1.4101
 4800SOL     OW26032   1.493   1.230   6.061  0.1906 -0.1904  0.0483
 4800SOL    HW126033   1.496   1.161   5.995  0.1193 -1.7804  1.7150
 4800SOL    HW226034   1.464   1.301   6.005 -0.8040 -0.6088  0.0449
 4801SOL     OW26035   1.108   2.375   7.543  0.1393  0.7404 -0.2257
 4801SOL    HW126036   1.036   2.421   7.500 -1.3980  0.0244  1.6061
 4801SOL    HW226037   1.161   2.433   7.599 -0.8471  2.1416 -0.7635
 4802SOL     OW26038   3.193   4.399  16.122  0.1685  0.3997 -0.5019
 4802SOL    HW126039   3.116   4.410  16.065 -0.1561  1.8513  0.2155
 4802SOL    HW226040   3.204   4.306  16.105 -1.7279  0.5025 -2.3395
 4803SOL     OW26041   0.641   0.262  11.899  0.1805 -0.4297  0.6326
 4803SOL    HW126042   0.666   0.310  11.820  2.7493  1.0039  2.3100
 4803SOL    HW226043   0.731   0.263  11.932  0.7703 -1.0089 -0.9623
 4804SOL     OW26044   2.488   3.448  17.076  0.3082  0.8453  0.3380
 4804SOL    HW126045   2.495   3.379  17.143 -0.4420  1.1286  0.7110
 4804SOL    HW226046   2.545   3.513  17.117 -1.3712  1.1190  2.2780
 4805SOL     OW26047   1.571   3.722   5.718  0.8171  0.7104  0.0444
 4805SOL    HW126048   1.644   3.670   5.684  0.7799  0.7426 -0.0863
 4805SOL    HW226049   1.608   3.790   5.774 -1.2318  2.1156 -0.3108
 4806SOL     OW26050   4.497   2.840   4.002 -0.3884  0.1593  0.0809
 4806SOL    HW126051   4.494   2.745   3.986 -2.5434  0.4570 -1.4331
 4806SOL    HW226052   4.545   2.879   3.929  0.8321  0.0421  0.8219
 4807SOL     OW26053   0.151   0.216  17.121  0.3603  0.2804  0.2817
 4807SOL    HW126054   0.182   0.286  17.064  0.3690  0.3185  0.3330
 4807SOL    HW226055   0.146   0.263  17.205  1.3768  0.9475 -0.0364
 4808SOL     OW26056   3.465   1.770   6.344 -0.4043 -0.0976 -0.0546
 4808SOL    HW126057   3.497   1.860   6.349 -1.6523  0.4674 -2.0671
 4808SOL    HW226058   3.391   1.791   6.401 -0.7515 -0.5190 -0.3519
 4809SOL     OW26059   1.333   1.332   5.351  0.3848 -0.8108  0.0195
 4809SOL    HW126060   1.289   1.416   5.365  0.5282 -0.5241 -1.2802
 4809SOL    HW226061   1.375   1.316   5.436 -2.3272 -1.1569  1.2937
 4810SOL     OW26062   3.885   3.399   9.725  0.4264 -0.1629 -0.1092
 4810SOL    HW126063   3.888   3.337   9.652 -0.8420 -0.7062  0.2990
 4810SOL    HW226064   3.864   3.343   9.800 -1.3198  0.5827 -0.0524
 4811SOL     OW26065   1.725   2.275   8.605 -0.2738 -0.3035 -0.0297
 4811SOL    HW126066   1.689   2.363   8.592  3.6092  1.1389 -0.9181
 4811SOL    HW226067   1.794   2.305   8.664  0.1160  0.9346 -1.1270
 4812SOL     OW26068   0.332   0.224   3.689 -0.7026 -0.2389  0.1149
 4812SOL    HW126069   0.335   0.244   3.596 -2.2260 -0.3667  0.0418
 4812SOL    HW226070   0.333   0.128   3.691  0.7880 -0.2417 -1.4655
 4813SOL     OW26071   4.001   2.469   5.516 -0.1231  0.2626  0.0839
 4813SOL    HW126072   4.030   2.412   5.587  1.6680  0.2260 -0.6624
 4813SOL    HW226073   3.926   2.424   5.477  1.7710 -3.1831  0.3530
 4814SOL     OW26074   0.747   2.076   1.607 -0.1439 -0.5637  0.4647
 4814SOL    HW126075   0.759   2.156   1.556 -0.3157 -0.1237  1.1081
 4814SOL    HW226076   0.696   2.023   1.547  1.5385  2.7608 -3.8812
 4815SOL     OW26077   0.534   0.171   6.463 -0.0203  0.4576  0.0976
 4815SOL    HW126078   0.488   0.120   6.396  1.9442  1.0285 -1.6917
 4815SOL    HW226079   0.621   0.142   6.436 -0.9866 -1.3238 -1.0675
 4816SOL     OW26080   1.702   3.207   3.796 -0.1756 -0.5714 -0.5858
 4816SOL    HW126081   1.655   3.271   3.849 -1.8418 -2.3312  0.0511
 4816SOL    HW226082   1.794   3.228   3.812  0.0556 -1.8027 -0.3584
 4817SOL     OW26083   2.658   2.771   3.794  0.0254 -0.0884  0.3715
 4817SOL    HW126084   2.589   2.717   3.756 -1.1101  1.2044  0.6021
 4817SOL    HW226085   2.702   2.811   3.719 -2.5322 -2.7914 -2.5937
 4818SOL     OW26086   3.009   1.422  14.314  0.0710 -0.1368 -0.3829
 4818SOL    HW126087   3.059   1.354  14.359 -0.5941  0.2994  1.0243
 4818SOL    HW226088   3.059   1.441  14.235  1.5919 -0.5993  0.4669
 4819SOL     OW26089   3.833   1.465   5.514  0.1705  0.0765 -0.0618
 4819SOL    HW126090   3.924   1.495   5.502  0.0730  1.2971  2.1822
 4819SOL    HW226091   3.835   1.375   5.482 -0.9371  0.1178 -0.2485
 4820SOL     OW26092   2.250   1.075  16.691 -0.6560  0.2447 -0.0765
 4820SOL    HW126093   2.278   1.132  16.763  2.6336 -0.0466 -1.1132
 4820SOL    HW226094   2.220   1.140  16.627 -1.7332 -0.1445  0.0416
 4821SOL     OW26095   3.062   4.675   1.299 -0.2172 -0.4510 -0.2357
 4821SOL    HW126096   2.982   4.646   1.255 -1.0439 -0.4498  1.2990
 4821SOL    HW226097   3.061   4.607   1.366 -0.4295 -1.3134 -1.1064
 4822SOL     OW26098   4.394   0.070   6.329 -0.9912  0.2329 -0.0498
 4822SOL    HW126099   4.307   0.074   6.369 -0.8019 -2.5186  0.6011
 4822SOL    HW226100   4.421   0.158   6.356  1.1956  0.4033 -2.7548
 4823SOL     OW26101   4.347   0.904  13.760 -0.2969 -0.1187  0.8111
 4823SOL    HW126102   4.283   0.877  13.694  0.4317  0.9697 -0.3515
 4823SOL    HW226103   4.426   0.939  13.718 -1.2968 -1.8205 -2.5224
 4824SOL     OW26104   1.453   2.166   6.653 -0.0782 -0.0685  0.0547
 4824SOL    HW126105   1.372   2.146   6.606 -0.3789  1.1568  0.0443
 4824SOL    HW226106   1.500   2.234   6.604 -1.2210 -0.4036 -1.5004
 4825SOL     OW26107   2.879   3.472   2.127  0.2919  0.5854  0.1573
 4825SOL    HW126108   2.962   3.426   2.140 -0.4836 -1.0328 -0.5270
 4825SOL    HW226109   2.859   3.459   2.034 -0.1087  1.2770  0.1490
 4826SOL     OW26110   1.476   3.341   3.896 -0.2992  0.1500 -0.3806
 4826SOL    HW126111   1.385   3.330   3.870 -1.1014  2.2319  1.5064
 4826SOL    HW226112   1.468   3.382   3.982 -1.9636 -1.7809  0.3782
 4827SOL     OW26113   3.149   1.180   1.397 -0.5851 -0.0626  0.4339
 4827SOL    HW126114   3.073   1.201   1.342 -0.9835 -2.3036  0.0967
 4827SOL    HW226115   3.131   1.086   1.405  1.3600 -0.5213 -0.5285
 4828SOL     OW26116   0.205   1.681   8.802 -0.4344  0.3828  0.5551
 4828SOL    HW126117   0.200   1.775   8.786 -3.0412 -0.0882 -1.4679
 4828SOL    HW226118   0.129   1.648   8.755 -0.1980  1.3996 -0.5463
 4829SOL     OW26119   1.797   0.698  13.881  0.5910 -0.1142 -0.3702
 4829SOL    HW126120   1.827   0.627  13.937  0.8220 -0.2301 -0.6425
 4829SOL    HW226121   1.884   0.723  13.851  0.2311 -0.1254 -1.3994
 4830SOL     OW26122   0.175   3.429   4.408 -0.3976 -0.3136  0.0612
 4830SOL    HW126123   0.200   3.500   4.466 -0.1613 -0.5529  0.2545
 4830SOL    HW226124   0.080   3.442   4.404 -0.6625 -1.7710  1.3136
 4831SOL     OW26125   3.328   3.850  12.723  0.4332 -0.0874  0.8796
 4831SOL    HW126126   3.281   3.932  12.709  1.0561 -0.2257 -1.9509
 4831SOL    HW226127   3.418   3.866  12.694  0.3038 -0.3515  0.3328
 4832SOL     OW26128   2.471   0.317   0.523 -0.4374  0.0165  0.3798
 4832SOL    HW126129   2.463   0.394   0.467 -2.5942  0.2905  1.0541
 4832SOL    HW226130   2.476   0.362   0.607 -0.9617  1.0383 -0.1488
 4833SOL     OW26131   0.572   4.409   2.154  0.1157  0.0942  0.3245
 4833SOL    HW126132   0.503   4.469   2.180 -0.2081 -0.2141  0.1790
 4833SOL    HW226133   0.644   4.467   2.131 -0.3729  0.4308 -0.3563
 4834SOL     OW26134   4.040   1.388   3.493  0.0190  0.2254 -0.2534
 4834SOL    HW126135   4.105   1.427   3.434  1.1028  0.7827  1.3160
 4834SOL    HW226136   3.985   1.465   3.510 -2.0021 -0.0796 -5.2576
 4835SOL     OW26137   2.709   4.403  16.704 -0.0093 -0.0085 -0.3703
 4835SOL    HW126138   2.694   4.485  16.658 -3.2051 -0.3955 -0.0007
 4835SOL    HW226139   2.739   4.343  16.635  2.6025  0.9159 -0.0479
 4836SOL     OW26140   2.249   0.998   3.072 -0.1673 -0.1686 -0.2991
 4836SOL    HW126141   2.168   1.009   3.123 -0.2258  1.2324 -0.6996
 4836SOL    HW226142   2.300   1.079   3.067 -0.6140  0.0933 -0.5800
 4837SOL     OW26143   0.612   2.627  13.449  0.1822 -0.2605  0.3624
 4837SOL    HW126144   0.552   2.573  13.398  0.4597 -0.7071  0.5135
 4837SOL    HW226145   0.688   2.635  13.390 -0.9588  0.5066 -0.9857
 4838SOL     OW26146   2.333   1.839   5.963 -0.0700  0.3421  0.1011
 4838SOL    HW126147   2.301   1.753   5.935  0.9346 -0.2780  0.8822
 4838SOL    HW226148   2.271   1.839   6.036 -0.8344 -0.5031 -0.5409
 4839SOL     OW26149   2.667   0.055   6.838  0.8690 -0.1070 -0.3459
 4839SOL    HW126150   2.729   4.722   6.815 -1.4921 -3.2606  2.9034
 4839SOL    HW226151   2.599   0.007   6.884 -1.2971  2.8246 -0.5286
 4840SOL     OW26152   3.215   1.630  12.451 -0.5448  0.2066 -0.4771
 4840SOL    HW126153   3.275   1.653  12.522  0.7213 -1.1543 -1.0715
 4840SOL    HW226154   3.227   1.706  12.394 -1.0169  2.1144  1.9698
 4841SOL     OW26155   3.454   4.128   3.258 -0.3116 -0.0394 -0.1589
 4841SOL    HW126156   3.396   4.058   3.285  1.5216 -0.9989  1.2873
 4841SOL    HW226157   3.477   4.107   3.167  1.0672  1.1446 -0.1025
 4842SOL     OW26158   0.585   4.382   6.300 -0.6594 -0.0152  0.2936
 4842SOL    HW126159   0.645   4.433   6.245  0.2091  0.1821  1.4292
 4842SOL    HW226160   0.629   4.380   6.385  1.3499 -0.1385 -0.7340
 4843SOL     OW26161   2.753   4.526   7.273 -0.1871 -0.7240  0.1209
 4843SOL    HW126162   2.809   4.463   7.318  0.5191  0.6638  1.1733
 4843SOL    HW226163   2.774   4.603   7.326  1.1212 -0.5356 -0.6781
 4844SOL     OW26164   4.535   2.229   7.084 -0.5944 -0.4407  0.2901
 4844SOL    HW126165   4.486   2.275   7.014 -2.6239 -2.5144  0.3471
 4844SOL    HW226166   4.534   2.141   7.046 -0.0835 -1.1659  2.0025
 4845SOL     OW26167   3.746   2.854   9.858 -0.1113  0.4995 -0.1324
 4845SOL    HW126168   3.785   2.911   9.793 -1.3136 -0.1491 -1.4141
 4845SOL    HW226169   3.765   2.889   9.945  0.9006 -0.5179  0.0580
 4846SOL     OW26170   1.432   3.241  14.033 -0.2042 -0.4106  0.0568
 4846SOL    HW126171   1.347   3.235  14.076 -1.2553  0.5348 -1.9463
 4846SOL    HW226172   1.422   3.224  13.939 -0.7009  0.0398  0.0341
 4847SOL     OW26173   3.217   3.398   4.641  0.2453  0.0322  0.6101
 4847SOL    HW126174   3.153   3.450   4.593  0.6511 -0.8196 -0.8667
 4847SOL    HW226175   3.214   3.424   4.733 -0.9574 -1.8062  1.0790
 4848SOL     OW26176   2.714   1.320   6.601  0.3224  0.3650  0.4993
 4848SOL    HW126177   2.746   1.339   6.689 -1.4220 -3.2474  1.9323
 4848SOL    HW226178   2.643   1.256   6.595  0.7188  0.1694 -2.5115
 4849SOL     OW26179   0.257   0.709   8.307 -0.0488 -0.0478 -0.2747
 4849SOL    HW126180   0.210   0.672   8.232  0.3759 -1.4163  0.1519
 4849SOL    HW226181   0.307   0.783   8.272  1.5792 -1.1396 -0.2164
 4850SOL     OW26182   3.664   0.328   6.851  0.4158  0.1398 -0.0098
 4850SOL    HW126183   3.615   0.254   6.816 -0.4991  0.7327  0.0179
 4850SOL    HW226184   3.742   0.283   6.882 -0.1396 -0.4715  0.5005
 4851SOL     OW26185   2.746   2.384   5.492  0.5338 -1.1234  0.0060
 4851SOL    HW126186   2.791   2.342   5.419 -0.0676 -0.8284 -0.5301
 4851SOL    HW226187   2.767   2.324   5.563 -0.9803  0.6339  1.9412
 4852SOL     OW26188   0.042   2.437  11.347 -0.0646 -0.2389  0.4198
 4852SOL    HW126189   0.114   2.403  11.295  0.0713  2.2837 -1.0553
 4852SOL    HW226190   0.054   2.391  11.430  0.1702  1.7461  1.4838
 4853SOL     OW26191   1.359   2.198   6.014  0.3681 -0.4650 -0.2443
 4853SOL    HW126192   1.448   2.189   5.980  1.1337  1.9152  1.1065
 4853SOL    HW226193   1.318   2.222   5.931 -1.1482 -1.6761  0.1627
 4854SOL     OW26194   4.356   0.820   1.500  0.5473  0.9495  0.2212
 4854SOL    HW126195   4.262   0.832   1.493 -0.0628 -3.9197  0.0585
 4854SOL    HW226196   4.379   0.824   1.407  1.0066 -0.8963  0.2440
 4855SOL     OW26197   3.263   3.851   8.268  0.4853 -0.1867  0.1778
 4855SOL    HW126198   3.183   3.798   8.270 -1.0234  2.0238 -1.2714
 4855SOL    HW226199   3.316   3.814   8.339 -0.6875 -0.6802  0.8081
 4856SOL     OW26200   1.273   1.632  14.573  0.7637  0.3127 -0.8859
 4856SOL    HW126201   1.190   1.632  14.525 -0.1931  0.1895  0.7934
 4856SOL    HW226202   1.246   1.615  14.663  0.4937  0.7500 -0.8855
 4857SOL     OW26203   3.031   0.269   7.038 -0.4291  0.6877 -0.1104
 4857SOL    HW126204   3.024   0.363   7.054  0.8737  0.9343 -1.0740
 4857SOL    HW226205   2.952   0.240   7.083 -0.3713 -1.5219 -1.4333
 4858SOL     OW26206   4.387   0.549   3.153 -0.1182 -0.5045 -0.4414
 4858SOL    HW126207   4.400   0.599   3.234  1.4883 -0.4767 -0.7217
 4858SOL    HW226208   4.316   0.603   3.117  0.5938  1.0212  0.4277
 4859SOL     OW26209   0.678   1.759   6.574 -0.5117 -0.5493  0.2917
 4859SOL    HW126210   0.758   1.730   6.617 -0.4145  0.3698  0.7237
 4859SOL    HW226211   0.666   1.853   6.587  2.6501 -0.0171 -0.6962
 4860SOL     OW26212   4.288   4.281  14.995  0.0480  0.3280  0.4487
 4860SOL    HW126213   4.372   4.235  14.999 -1.5418 -2.7056 -0.8364
 4860SOL    HW226214   4.297   4.338  15.071  1.1854  0.5158  0.1683
 4861SOL     OW26215   4.415   0.082   3.584  0.1924  0.3206 -0.6134
 4861SOL    HW126216   4.468   0.109   3.510  2.1767 -0.3028  0.5956
 4861SOL    HW226217   4.381   4.731   3.567  1.2227 -0.8259  3.0254
 4862SOL     OW26218   2.520   0.005   1.960  0.3798 -0.0892 -0.1376
 4862SOL    HW126219   2.473   4.660   1.952  0.2631 -0.1330  0.9640
 4862SOL    HW226220   2.463   0.052   2.021 -0.0550  0.0972 -0.6881
 4863SOL     OW26221   4.452   3.790   5.876  0.1710  0.1291  0.8816
 4863SOL    HW126222   4.467   3.807   5.969  1.2046  3.1680  0.1616
 4863SOL    HW226223   4.522   3.845   5.841 -1.6083  0.2994 -2.3794
 4864SOL     OW26224   2.970   1.956  12.669 -0.5161  0.6557  0.2494
 4864SOL    HW126225   2.957   1.877  12.615 -2.5344  3.2280 -3.0195
 4864SOL    HW226226   2.923   1.926  12.747 -0.1365  1.7942  0.9175
 4865SOL     OW26227   1.305   4.221   8.465  0.3640 -0.7805 -0.0913
 4865SOL    HW126228   1.242   4.232   8.393 -0.2801  0.9608  0.7428
 4865SOL    HW226229   1.376   4.172   8.424  2.9747  1.4608  1.7214
 4866SOL     OW26230   3.707   2.638   6.095  0.0661  0.3825 -0.0850
 4866SOL    HW126231   3.704   2.713   6.154  0.9721  0.4131 -0.0674
 4866SOL    HW226232   3.620   2.600   6.100 -0.8521  2.6369  1.1905
 4867SOL     OW26233   2.806   2.330   3.192  0.3968 -0.0026 -0.1251
 4867SOL    HW126234   2.864   2.370   3.128 -0.9883 -0.7211 -1.8247
 4867SOL    HW226235   2.819   2.397   3.259  1.3608  0.1973 -0.5140
 4868SOL     OW26236   1.954   4.003   4.490 -0.1151 -0.2799 -0.1689
 4868SOL    HW126237   1.948   3.932   4.554 -0.4131 -0.7183 -0.6798
 4868SOL    HW226238   1.977   4.075   4.549  1.1261 -0.6264 -0.2323
 4869SOL     OW26239   3.185   1.766  10.889  0.2190 -0.2376  0.3290
 4869SOL    HW126240   3.130   1.842  10.871  1.6896  0.5042 -1.0810
 4869SOL    HW226241   3.136   1.734  10.964  0.0886  0.4600  0.5383
 4870SOL     OW26242   2.432   2.808   2.118 -0.4632  0.2002 -0.0605
 4870SOL    HW126243   2.408   2.715   2.121  0.8381 -0.1194  0.4430
 4870SOL    HW226244   2.440   2.824   2.212 -1.6756 -1.5577  0.3511
 4871SOL     OW26245   1.123   0.115  11.784 -0.1014  0.0560  0.2975
 4871SOL    HW126246   1.130   0.021  11.802 -0.6838  0.0702  0.6318
 4871SOL    HW226247   1.195   0.144  11.729 -2.0901  0.4494 -2.0902
 4872SOL     OW26248   2.908   4.538   6.739 -0.2304 -0.1880  0.0004
 4872SOL    HW126249   2.890   4.492   6.821  0.5209 -4.1243 -2.0893
 4872SOL    HW226250   2.879   4.469   6.680 -0.5722  0.1250 -0.1966
 4873SOL     OW26251   2.571   2.008   5.265 -0.3967  0.0855  0.1113
 4873SOL    HW126252   2.606   1.923   5.291 -0.3147  0.2111  0.4108
 4873SOL    HW226253   2.644   2.032   5.208 -2.1030  2.4730 -1.0560
 4874SOL     OW26254   3.977   0.394   0.284 -0.6098 -0.0434  0.1689
 4874SOL    HW126255   4.012   0.310   0.256 -2.0642 -1.0998  1.5383
 4874SOL    HW226256   4.032   0.457   0.239  1.0043 -0.7704  1.1392
 4875SOL     OW26257   1.941   0.469   1.505  0.1702  0.1062  0.1254
 4875SOL    HW126258   2.000   0.446   1.433  0.1610  0.9192 -0.1315
 4875SOL    HW226259   1.853   0.470   1.467 -0.1322 -4.9598  0.6084
 4876SOL     OW26260   0.802   0.525   2.657 -0.3486  0.1789 -0.4876
 4876SOL    HW126261   0.787   0.450   2.599  0.7186 -1.0300  0.7814
 4876SOL    HW226262   0.784   0.594   2.594  2.6639  1.4381  0.0286
 4877SOL     OW26263   2.734   2.541   2.287  0.1315 -0.4249 -0.1387
 4877SOL    HW126264   2.711   2.517   2.377 -0.5298 -1.4660 -0.5898
 4877SOL    HW226265   2.722   2.456   2.244  0.1796 -0.5680  0.1317
 4878SOL     OW26266   3.239   4.449   8.801  0.7508  0.2471  0.0669
 4878SOL    HW126267   3.151   4.420   8.826 -0.3635  1.6126 -2.2295
 4878SOL    HW226268   3.271   4.453   8.891 -1.0212  1.3135  0.6596
 4879SOL     OW26269   4.662   0.283   1.070  0.2847 -0.1210  0.4784
 4879SOL    HW126270   4.582   0.231   1.077  0.2874 -0.9333 -4.9873
 4879SOL    HW226271   4.618   0.356   1.026 -0.1526 -1.7985 -1.8650
 4880SOL     OW26272   1.983   0.803   4.855  0.1107  0.1247  0.1237
 4880SOL    HW126273   2.034   0.816   4.776  1.1468 -0.8801  0.6257
 4880SOL    HW226274   1.901   0.845   4.827  0.4115  0.5121 -0.1627
 4881SOL     OW26275   2.064   4.599  12.980 -0.4898 -0.3827 -0.2503
 4881SOL    HW126276   2.105   4.668  12.929 -2.2566  0.7895 -0.1018
 4881SOL    HW226277   1.969   4.608  12.966 -0.8995  1.1511  3.4725
 4882SOL     OW26278   0.098   0.208  17.660  0.3387 -0.2419  0.2140
 4882SOL    HW126279   0.088   0.256  17.742 -0.2770  0.3637 -0.2067
 4882SOL    HW226280   0.144   0.278  17.613  3.1354 -1.3679  1.3333
 4883SOL     OW26281   4.275   4.233   9.523  0.2571  0.3503 -0.2235
 4883SOL    HW126282   4.228   4.297   9.471  2.3488  0.9214 -1.4405
 4883SOL    HW226283   4.202   4.182   9.557 -0.8709  2.5304  0.5758
 4884SOL     OW26284   2.817   4.521   9.595 -0.6794  1.1941 -0.4425
 4884SOL    HW126285   2.807   4.551   9.504 -0.7691  1.0417 -0.4822
 4884SOL    HW226286   2.773   4.581   9.655 -1.3072  0.7771 -0.4823
 4885SOL     OW26287   3.807   1.968   8.065 -0.4839 -0.3269 -0.5327
 4885SOL    HW126288   3.856   2.018   8.130  0.6219 -0.2663 -1.4255
 4885SOL    HW226289   3.714   1.985   8.082  0.0866 -0.0593  2.2739
 4886SOL     OW26290   1.411   3.831  12.967  0.4594  0.1791  0.2583
 4886SOL    HW126291   1.463   3.887  13.026  0.2083 -0.0389  0.6831
 4886SOL    HW226292   1.330   3.880  12.957  0.6837  0.5365  0.1842
 4887SOL     OW26293   4.625   0.744   8.987 -0.4635  0.4168  0.2278
 4887SOL    HW126294   4.711   0.754   9.029 -1.0567 -1.2813  1.8438
 4887SOL    HW226295   4.634   0.675   8.921 -0.9042  1.1154 -0.5451
 4888SOL     OW26296   1.552   2.970   6.926 -0.1682 -0.3025 -0.3194
 4888SOL    HW126297   1.465   3.010   6.935 -0.9505 -1.7452 -1.3073
 4888SOL    HW226298   1.534   2.884   6.887 -0.6742  1.2918 -3.6142
 4889SOL     OW26299   3.611   1.393   5.899 -0.0851  0.4141  0.5404
 4889SOL    HW126300   3.621   1.325   5.965  0.8357 -0.2145 -0.2460
 4889SOL    HW226301   3.541   1.375   5.836  0.6219  1.9008 -0.6636
 4890SOL     OW26302   1.355   4.548   3.460 -0.0180  0.2847  0.0939
 4890SOL    HW126303   1.370   4.605   3.385 -1.4769 -2.0972 -2.0031
 4890SOL    HW226304   1.401   4.467   3.439 -0.7187  0.0211 -0.4421
 4891SOL     OW26305   4.035   3.143   2.486  0.1921  0.0638  0.5252
 4891SOL    HW126306   4.104   3.209   2.480 -0.0084  0.1090 -1.1805
 4891SOL    HW226307   3.952   3.188   2.506 -1.3399 -1.9909 -1.2008
 4892SOL     OW26308   0.858   0.764   1.872  0.1130 -0.6557 -0.1974
 4892SOL    HW126309   0.945   0.726   1.868  0.6389  0.7232 -2.0763
 4892SOL    HW226310   0.871   0.854   1.902 -0.8144 -0.3750 -0.6332
 4893SOL     OW26311   1.956   4.248   2.757  0.6019 -0.3183  0.1309
 4893SOL    HW126312   2.022   4.191   2.798 -0.1842 -0.0234  1.8213
 4893SOL    HW226313   1.947   4.199   2.675 -0.7077 -1.6678  1.0511
 4894SOL     OW26314   3.995   0.149   1.607  0.2647 -0.0751  0.3773
 4894SOL    HW126315   3.919   0.095   1.586  0.0280  1.2335 -2.2043
 4894SOL    HW226316   4.059   0.079   1.616  1.6847  1.0842 -0.6152
 4895SOL     OW26317   2.514   0.292   5.838  0.5962  0.3103 -0.1418
 4895SOL    HW126318   2.493   0.287   5.745 -3.3669 -0.2107  0.7860
 4895SOL    HW226319   2.451   0.358   5.866  1.9315  1.1679  0.7965
 4896SOL     OW26320   0.302   0.763  14.391 -0.4629 -0.2938  0.1271
 4896SOL    HW126321   0.226   0.705  14.383  0.8508 -2.0552  0.3671
 4896SOL    HW226322   0.362   0.698  14.427 -0.7263 -1.7974 -2.1439
 4897SOL     OW26323   0.221   2.489   2.359 -0.3708  0.6231 -0.1303
 4897SOL    HW126324   0.274   2.563   2.387  1.2131 -1.1760  1.6712
 4897SOL    HW226325   0.143   2.540   2.336 -0.8570  0.9922  2.3523
 4898SOL     OW26326   2.092   3.452  12.816  0.2565  0.3719 -0.1208
 4898SOL    HW126327   2.024   3.410  12.868  0.8643 -1.0259 -0.4618
 4898SOL    HW226328   2.057   3.541  12.808 -2.0030 -0.4116  1.0705
 4899SOL     OW26329   3.076   3.665   3.385  0.2502 -0.3149 -0.0079
 4899SOL    HW126330   3.020   3.718   3.328  0.5061  0.2900  0.2967
 4899SOL    HW226331   3.017   3.590   3.393  0.7062 -0.8373 -1.5015
 4900SOL     OW26332   4.495   0.593   7.119  0.0824  0.4833  0.5848
 4900SOL    HW126333   4.502   0.615   7.026 -0.8622 -0.7293  0.2171
 4900SOL    HW226334   4.519   0.673   7.165  1.0103  0.2011  0.5885
 4901SOL     OW26335   4.442   3.173  15.688 -0.2346 -0.4076  0.0221
 4901SOL    HW126336   4.393   3.151  15.609  3.0318  0.8729 -2.3283
 4901SOL    HW226337   4.529   3.201  15.659 -0.7184  2.6892  1.6446
 4902SOL     OW26338   1.748   2.302   3.737 -0.2838  0.1202 -0.0788
 4902SOL    HW126339   1.683   2.357   3.781 -0.2410 -1.2199  1.6343
 4902SOL    HW226340   1.713   2.305   3.647 -0.4655 -0.1911 -0.0202
 4903SOL     OW26341   2.694   3.125   6.133 -0.4379 -0.2619 -0.1187
 4903SOL    HW126342   2.697   3.030   6.145  1.2481 -0.5191 -2.5779
 4903SOL    HW226343   2.775   3.155   6.174 -0.2031 -1.4741  0.3269
 4904SOL     OW26344   0.573   2.765  14.348  0.0495 -0.1995  0.6429
 4904SOL    HW126345   0.507   2.822  14.388 -0.4531 -0.1624 -0.2485
 4904SOL    HW226346   0.564   2.785  14.255 -2.1123  1.6144  1.2534
 4905SOL     OW26347   2.123   4.466   4.048 -0.4249 -0.4076 -0.1170
 4905SOL    HW126348   2.081   4.401   3.991 -2.0309  0.9532 -0.4767
 4905SOL    HW226349   2.217   4.453   4.033 -0.1249  1.3754  0.2940
 4906SOL     OW26350   3.196   2.323   7.886 -0.1838 -0.1030 -0.3971
 4906SOL    HW126351   3.194   2.355   7.976  0.9563  2.3345 -1.2436
 4906SOL    HW226352   3.290   2.305   7.878 -0.2745  0.6546 -3.4339
 4907SOL     OW26353   4.543   3.314  12.411 -0.0594  0.4265  0.5348
 4907SOL    HW126354   4.519   3.272  12.494  0.3503  2.7086  1.7800
 4907SOL    HW226355   4.456   3.324  12.371 -0.0938  0.0003  0.5024
 4908SOL     OW26356   3.709   3.494   0.673 -0.3766  0.1692 -0.0947
 4908SOL    HW126357   3.705   3.412   0.624  1.2023 -0.6263  1.1068
 4908SOL    HW226358   3.655   3.463   0.746 -1.6553  1.4102 -0.5170
 4909SOL     OW26359   3.541   1.998  17.338 -0.3876  0.0848  0.2257
 4909SOL    HW126360   3.625   1.984  17.294  0.3480  0.9566  1.3627
 4909SOL    HW226361   3.554   1.996  17.433  3.3592 -0.6385 -0.2960
 4910SOL     OW26362   0.835   3.245  13.496  0.3038 -0.5770 -0.3217
 4910SOL    HW126363   0.775   3.178  13.465 -1.4041  1.5505 -1.5653
 4910SOL    HW226364   0.868   3.289  13.417 -2.4234  1.4313 -0.3208
 4911SOL     OW26365   0.095   4.413   1.395  0.1444  0.1021  0.0256
 4911SOL    HW126366   0.176   4.451   1.428 -0.6410  1.8266 -0.0649
 4911SOL    HW226367   0.104   4.317   1.397 -1.9117 -0.0942 -0.1327
 4912SOL     OW26368   4.010   2.506  10.035 -0.6324  0.3484 -0.4915
 4912SOL    HW126369   4.056   2.439   9.984  0.4981  0.6942  0.0733
 4912SOL    HW226370   3.939   2.457  10.077  0.2113  1.0316  1.7408
 4913SOL     OW26371   4.168   1.393   3.063  0.0464 -0.1250 -0.4685
 4913SOL    HW126372   4.091   1.375   3.008  1.6320 -0.8282 -2.4836
 4913SOL    HW226373   4.233   1.328   3.038 -0.2415  1.0741 -4.4466
 4914SOL     OW26374   3.364   1.574   2.051  0.7620 -0.1794 -0.7467
 4914SOL    HW126375   3.357   1.662   2.014  0.9002 -0.2890 -1.0313
 4914SOL    HW226376   3.358   1.508   1.982 -0.6055 -0.2435 -0.5638
 4915SOL     OW26377   0.511   3.404   1.145 -0.2794 -0.2577  0.0906
 4915SOL    HW126378   0.429   3.435   1.108 -1.1303 -1.6373  0.8356
 4915SOL    HW226379   0.474   3.410   1.233 -2.7640  0.0892 -0.9807
 4916SOL     OW26380   3.500   2.039   0.134 -0.0823  0.7113 -0.0835
 4916SOL    HW126381   3.413   2.019   0.169 -0.7741 -0.3839 -2.3824
 4916SOL    HW226382   3.494   2.012   0.042  1.2367  1.4463 -0.3894
 4917SOL     OW26383   3.252   2.413  16.134 -0.2760 -0.0452  0.2325
 4917SOL    HW126384   3.183   2.359  16.173  0.7025 -0.0652  1.9225
 4917SOL    HW226385   3.225   2.490  16.183  1.6947  0.8212 -0.0566
 4918SOL     OW26386   4.357   0.745   0.840  0.1643  0.0108  0.5371
 4918SOL    HW126387   4.283   0.737   0.899 -3.1855 -0.4751 -3.6813
 4918SOL    HW226388   4.422   0.790   0.894 -2.5005  3.3240  0.9417
 4919SOL     OW26389   1.320   0.872   0.854 -0.5212  0.2951  0.2286
 4919SOL    HW126390   1.241   0.913   0.820 -0.8778 -1.0241 -0.5062
 4919SOL    HW226391   1.307   0.889   0.948  0.8623  2.3297  0.0620
 4920SOL     OW26392   4.024   0.991   3.272 -1.0219 -0.2642 -0.4127
 4920SOL    HW126393   3.969   1.068   3.287 -0.9691 -0.1986 -0.5592
 4920SOL    HW226394   4.056   0.981   3.362 -0.0151  3.0049 -0.4011
 4921SOL     OW26395   3.012   2.223  12.688 -0.2078 -0.0455 -0.1608
 4921SOL    HW126396   2.983   2.217  12.779  2.7078 -0.1224  0.7562
 4921SOL    HW226397   2.992   2.136  12.651 -0.9606 -0.8796  2.2203
 4922SOL     OW26398   0.822   2.815   3.572 -0.0175 -0.4019 -0.2775
 4922SOL    HW126399   0.910   2.830   3.536  0.5638 -1.0883  0.8718
 4922SOL    HW226400   0.841   2.737   3.623 -0.4846 -0.6084 -0.4248
 4923SOL     OW26401   1.962   1.708   4.946  0.5480 -0.1213  0.7524
 4923SOL    HW126402   2.020   1.684   4.874  1.6589 -0.5602  1.7935
 4923SOL    HW226403   2.013   1.779   4.986  1.0704  1.1653 -2.2233
 4924SOL     OW26404   0.353   0.597   2.229  0.2040  0.4357 -0.0321
 4924SOL    HW126405   0.426   0.537   2.218 -2.1627 -2.2609 -0.9961
 4924SOL    HW226406   0.392   0.662   2.287 -0.9560  0.1512  1.0703
 4925SOL     OW26407   4.498   1.836   5.136 -0.3660 -0.9100  0.2134
 4925SOL    HW126408   4.518   1.857   5.045 -1.2649  0.8584  0.4186
 4925SOL    HW226409   4.578   1.861   5.182 -1.3679  1.8615  0.4128
 4926SOL     OW26410   3.783   4.496   9.210 -0.2801  0.1799 -0.2479
 4926SOL    HW126411   3.784   4.433   9.282 -1.2079  1.2905  0.7387
 4926SOL    HW226412   3.692   4.525   9.215 -0.7594 -1.3697  0.1223
 4927SOL     OW26413   4.651   1.048  13.930 -0.3538  0.2901 -0.3534
 4927SOL    HW126414   4.624   1.044  14.022  0.1364  0.3942 -0.2061
 4927SOL    HW226415   4.627   1.134  13.898 -1.8347 -0.1757 -0.4928
 4928SOL     OW26416   4.683   3.660   6.371 -0.8211  0.0813 -0.1542
 4928SOL    HW126417   4.664   3.753   6.357 -1.6629  0.1223  1.2409
 4928SOL    HW226418   0.041   3.668   6.377 -0.8696  1.6224 -1.2644
 4929SOL     OW26419   0.439   2.861  13.859 -0.0439  0.1570 -0.3767
 4929SOL    HW126420   0.357   2.814  13.873  0.3525 -0.7645 -1.2229
 4929SOL    HW226421   0.450   2.825  13.771 -1.3345  1.4763 -1.0755
 4930SOL     OW26422   0.629   3.740   6.458  0.6093 -0.2621  0.0657
 4930SOL    HW126423   0.611   3.723   6.550  0.1823  1.6063  0.3393
 4930SOL    HW226424   0.708   3.794   6.460  0.7369 -0.3795 -1.6047
 4931SOL     OW26425   4.364   2.746   4.787 -0.0296 -0.3432 -0.3854
 4931SOL    HW126426   4.444   2.744   4.735 -0.0725  0.0332 -0.4670
 4931SOL    HW226427   4.363   2.836   4.819  1.0995 -1.3397  2.4278
 4932SOL     OW26428   1.151   3.637   8.012 -0.1541 -0.5167  0.0135
 4932SOL    HW126429   1.153   3.660   7.919  1.8251 -0.7621 -0.0086
 4932SOL    HW226430   1.133   3.543   8.011 -3.3336  0.0613  1.4652
 4933SOL     OW26431   2.634   4.497   6.035 -0.0312  0.1251  0.5933
 4933SOL    HW126432   2.585   4.440   6.094  0.9664 -1.1143  0.2188
 4933SOL    HW226433   2.714   4.448   6.017  0.3555  1.1669 -0.5586
 4934SOL     OW26434   1.444   2.275  13.794 -0.5302 -0.4582 -0.4665
 4934SOL    HW126435   1.509   2.320  13.848 -0.9336  0.4237 -0.7124
 4934SOL    HW226436   1.361   2.283  13.840  0.5114 -4.2780  2.1178
 4935SOL     OW26437   4.312   3.516   5.366 -0.3913 -0.9366 -0.0344
 4935SOL    HW126438   4.250   3.536   5.296  0.9263  0.7211 -0.7282
 4935SOL    HW226439   4.311   3.602   5.408  2.0180 -1.6515  1.5380
 4936SOL     OW26440   1.758   2.533   8.923  0.5195  0.0120  0.0644
 4936SOL    HW126441   1.696   2.546   8.852 -0.8756  0.4714  1.3658
 4936SOL    HW226442   1.698   2.506   8.992  0.9452 -1.5017 -0.1558
 4937SOL     OW26443   2.419   1.576  14.717  0.7867  0.4782 -0.7253
 4937SOL    HW126444   2.490   1.567  14.780  0.6228  1.1151 -0.4477
 4937SOL    HW226445   2.457   1.545  14.635  1.6505 -2.5069  0.8111
 4938SOL     OW26446   3.848   2.432  13.751 -0.4785 -0.1318 -0.5065
 4938SOL    HW126447   3.863   2.402  13.841  0.4332  2.6919  0.2749
 4938SOL    HW226448   3.935   2.406  13.719  0.0911 -1.7337  2.3659
 4939SOL     OW26449   4.330   3.393  13.020 -0.5200  0.1775 -0.0435
 4939SOL    HW126450   4.348   3.441  13.101  0.7098  1.5879 -1.1626
 4939SOL    HW226451   4.243   3.428  13.001 -0.2178 -0.2720 -2.2184
 4940SOL     OW26452   2.666   2.664  12.551  0.1644  0.0787  0.0472
 4940SOL    HW126453   2.677   2.672  12.456  1.0730  2.0004  0.3260
 4940SOL    HW226454   2.681   2.570  12.558  2.3780  0.3473 -1.3626
 4941SOL     OW26455   1.948   4.645   2.070  0.3101  0.1591 -0.2284
 4941SOL    HW126456   1.946   4.736   2.041 -1.2240  0.4277  0.6925
 4941SOL    HW226457   1.865   4.607   2.041  1.1662 -1.6335 -0.3492
 4942SOL     OW26458   0.641   1.853   9.419 -0.6331  0.4271  0.4485
 4942SOL    HW126459   0.681   1.854   9.332 -1.8220  0.8038 -0.0874
 4942SOL    HW226460   0.567   1.913   9.405  0.3165  1.4355 -0.2620
 4943SOL     OW26461   0.879   4.030   7.801  0.3438 -0.5970  0.2817
 4943SOL    HW126462   0.802   4.037   7.857  2.0078 -1.5394  2.6707
 4943SOL    HW226463   0.946   3.996   7.861  4.2514  0.1947 -3.5730
 4944SOL     OW26464   3.932   4.247   2.928 -0.3375  0.0259  0.4302
 4944SOL    HW126465   3.870   4.201   2.872  0.5906 -0.2054 -0.4035
 4944SOL    HW226466   3.870   4.288   2.989 -1.5353 -1.3595  0.1440
 4945SOL     OW26467   3.020   0.994   4.721  0.3229 -0.3558 -0.3159
 4945SOL    HW126468   3.109   0.964   4.701  0.5723  0.4250 -0.3640
 4945SOL    HW226469   2.990   0.927   4.782  1.2426 -0.7079 -0.2439
 4946SOL     OW26470   0.963   0.394   1.719  0.5070 -0.2624 -0.4278
 4946SOL    HW126471   0.949   0.466   1.659 -0.7965 -0.3850 -0.2732
 4946SOL    HW226472   0.994   0.435   1.800 -1.9469 -2.4906  1.6356
 4947SOL     OW26473   1.221   0.843   5.026  0.0136 -0.2904 -0.5136
 4947SOL    HW126474   1.178   0.925   5.048  0.8493 -0.7422  2.9331
 4947SOL    HW226475   1.314   0.868   5.032 -0.2519  0.2889  1.1045
 4948SOL     OW26476   2.915   2.291   8.816  0.4189  0.2730  0.3601
 4948SOL    HW126477   2.921   2.235   8.894 -1.8822  1.5673  1.4709
 4948SOL    HW226478   2.838   2.346   8.830 -0.2552 -0.4183 -0.6744
 4949SOL     OW26479   0.070   2.437   4.461  0.4545  1.0129  0.3598
 4949SOL    HW126480   0.043   2.471   4.547  1.5549 -0.1241  1.1516
 4949SOL    HW226481   0.136   2.506   4.450  0.9176  0.1633 -2.0353
 4950SOL     OW26482   2.941   0.268   8.945 -0.2348  0.3284  0.1071
 4950SOL    HW126483   2.972   0.311   9.025  0.3067  1.4436 -0.7067
 4950SOL    HW226484   2.973   0.178   8.942 -1.7008 -0.2043  0.5926
 4951SOL     OW26485   2.246   1.142   0.481 -0.4707  0.3483 -0.1319
 4951SOL    HW126486   2.169   1.086   0.480 -0.8523  0.8602  0.8649
 4951SOL    HW226487   2.274   1.114   0.568  0.6397  0.4298 -0.4687
 4952SOL     OW26488   0.048   1.233   9.067 -0.0510  0.4894  0.5792
 4952SOL    HW126489   0.006   1.152   9.036  2.0167 -0.2670 -0.2627
 4952SOL    HW226490   0.004   1.252   9.149 -1.1855  0.4986 -0.0243
 4953SOL     OW26491   0.062   1.637   3.764  0.6236 -0.6364 -0.0615
 4953SOL    HW126492   0.142   1.688   3.768  0.2632 -0.0796  0.0754
 4953SOL    HW226493   0.059   1.620   3.670  1.3265  2.5313 -0.6417
 4954SOL     OW26494   1.904   1.452   3.146  0.0850  0.0974  0.2008
 4954SOL    HW126495   1.952   1.383   3.193 -1.2832 -0.4542  0.7900
 4954SOL    HW226496   1.942   1.427   3.062  0.6198 -1.0810  0.7894
 4955SOL     OW26497   2.032   4.460   5.807 -0.0654  0.0488 -0.4442
 4955SOL    HW126498   1.995   4.375   5.832  0.0069  0.1674  0.0727
 4955SOL    HW226499   1.966   4.507   5.756 -0.8051 -2.3951 -1.7718
 4956SOL     OW26500   2.358   0.458   5.989  0.5449  0.5386 -0.2156
 4956SOL    HW126501   2.349   0.544   6.029 -0.7611 -0.5734  1.8681
 4956SOL    HW226502   2.382   0.411   6.069  2.0870 -0.7573 -1.4446
 4957SOL     OW26503   1.261   2.551   4.891  0.1403  0.0119 -0.0545
 4957SOL    HW126504   1.187   2.601   4.857 -0.2988 -0.2432  0.5124
 4957SOL    HW226505   1.263   2.576   4.983 -1.3380 -1.1495  0.2996
 4958SOL     OW26506   0.703   4.699   9.931  0.4258 -0.5186 -0.4999
 4958SOL    HW126507   0.721   4.612   9.895 -2.4424 -0.9425 -0.8443
 4958SOL    HW226508   0.633   4.676   9.991  1.4494 -1.4231  0.3262
 4959SOL     OW26509   4.338   4.233   7.868 -0.5004 -0.2860  0.3316
 4959SOL    HW126510   4.349   4.143   7.898 -1.1339 -0.8475 -1.1030
 4959SOL    HW226511   4.407   4.286   7.909  0.7362 -2.0340  0.5507
 4960SOL     OW26512   1.911   2.531  13.420 -0.1071 -0.0389  0.2224
 4960SOL    HW126513   1.841   2.487  13.469 -0.4863  0.3510  0.0302
 4960SOL    HW226514   1.953   2.594  13.479 -1.6524  3.3615 -2.2980
 4961SOL     OW26515   4.687   2.641   5.477  0.1963  0.0035  0.6181
 4961SOL    HW126516   4.675   2.731   5.447  2.0225 -0.0564 -0.3287
 4961SOL    HW226517   4.598   2.618   5.504  0.6218  1.0310  2.8700
 4962SOL     OW26518   2.876   2.923  11.198  0.0744 -0.2858  0.3999
 4962SOL    HW126519   2.856   2.890  11.286  1.9536 -1.1088  0.5177
 4962SOL    HW226520   2.920   2.848  11.159 -1.5529 -1.2906  0.5039
 4963SOL     OW26521   2.609   3.588   6.028  0.4400  0.5187  0.0567
 4963SOL    HW126522   2.523   3.603   6.066 -0.4871 -0.3625 -1.7065
 4963SOL    HW226523   2.593   3.526   5.958  0.2688  2.8109 -1.9191
 4964SOL     OW26524   1.700   3.934  16.896  0.6570  0.4270  0.2918
 4964SOL    HW126525   1.647   3.857  16.875  0.6610  0.6617 -0.5590
 4964SOL    HW226526   1.784   3.895  16.873  0.4810 -0.0112  0.3854
 4965SOL     OW26527   0.081   0.309  14.916 -0.0985 -0.2580 -0.1043
 4965SOL    HW126528   0.078   0.327  14.822 -0.0973 -0.1247 -0.0780
 4965SOL    HW226529   4.729   0.334  14.943  0.0388  0.4587 -0.3317
 4966SOL     OW26530   2.157   3.563  10.304  0.0254  0.1843 -0.4522
 4966SOL    HW126531   2.144   3.601  10.391 -0.5467 -0.3694 -0.2919
 4966SOL    HW226532   2.242   3.520  10.314 -0.7537 -1.3600 -0.4594
 4967SOL     OW26533   0.451   0.830   6.608  0.0032  0.2426 -0.8657
 4967SOL    HW126534   0.542   0.803   6.615  0.0262  0.3789 -0.6337
 4967SOL    HW226535   0.443   0.868   6.696 -0.7881 -1.9737  0.0035
 4968SOL     OW26536   3.371   2.789   6.458  0.1349  0.4403 -0.0996
 4968SOL    HW126537   3.387   2.706   6.503 -2.6804  1.0123  1.9641
 4968SOL    HW226538   3.343   2.757   6.372 -1.0929  0.0463  0.4451
 4969SOL     OW26539   1.892   1.858   3.486  0.0323 -0.2977  0.0305
 4969SOL    HW126540   1.851   1.781   3.446  1.0347 -0.1117 -1.3224
 4969SOL    HW226541   1.835   1.868   3.563  0.3525 -0.2321  0.2575
 4970SOL     OW26542   0.229   3.938   2.974  0.0208  0.1506  0.1876
 4970SOL    HW126543   0.169   4.006   3.005  0.1306  1.3248 -2.1819
 4970SOL    HW226544   0.174   3.887   2.914 -3.1776  0.2672  3.0420
 4971SOL     OW26545   2.647   3.751   6.344 -0.2584  0.2581  0.4861
 4971SOL    HW126546   2.731   3.764   6.389 -1.4662 -0.5177  2.9846
 4971SOL    HW226547   2.587   3.800   6.400 -0.0346  2.0712 -0.8817
 4972SOL     OW26548   4.012   2.080   7.610 -0.2338  0.6539  0.4066
 4972SOL    HW126549   4.087   2.076   7.670  0.8418  1.0851 -0.9192
 4972SOL    HW226550   3.933   2.086   7.663 -0.4984 -0.7657  0.1609
 4973SOL     OW26551   1.692   0.916  13.069  0.0673 -0.4428 -0.1878
 4973SOL    HW126552   1.623   0.917  13.135 -1.4273 -0.9245 -1.7352
 4973SOL    HW226553   1.681   0.828  13.033 -1.8177  0.1560 -1.0551
 4974SOL     OW26554   1.924   4.531   4.225 -0.6594  0.1119 -0.1881
 4974SOL    HW126555   1.920   4.621   4.192 -0.8289  0.4053  0.6272
 4974SOL    HW226556   1.968   4.483   4.155 -0.4557  2.4268 -1.6359
 4975SOL     OW26557   2.708   0.872   5.218  0.4501  0.5432  0.0023
 4975SOL    HW126558   2.775   0.806   5.237 -0.2451 -0.0287  0.4199
 4975SOL    HW226559   2.670   0.843   5.135  0.5288  5.0469 -1.5960
 4976SOL     OW26560   0.567   1.008  17.228  0.3695 -0.2471  0.4512
 4976SOL    HW126561   0.529   1.094  17.244  1.8133  0.5440 -0.4339
 4976SOL    HW226562   0.555   0.971  17.316  0.9382  1.2990  1.1708
 4977SOL     OW26563   2.283   3.705  10.098  0.4094 -0.4608  0.1227
 4977SOL    HW126564   2.228   3.689  10.174  0.2650  0.5819  0.2402
 4977SOL    HW226565   2.370   3.682  10.131 -0.2048  0.1774  2.1440
 4978SOL     OW26566   3.163   2.186  11.174  0.6529  0.5093 -0.7097
 4978SOL    HW126567   3.203   2.100  11.159  1.5389  0.8823 -0.4605
 4978SOL    HW226568   3.073   2.169  11.202  1.2791 -0.4614  0.7295
 4979SOL     OW26569   1.518   0.239   7.824 -0.0186 -0.2814 -0.3158
 4979SOL    HW126570   1.464   0.230   7.746  3.2285  0.1356 -2.6323
 4979SOL    HW226571   1.585   0.296   7.786  0.0167  1.0876  1.7574
 4980SOL     OW26572   0.724   0.039  11.576 -0.4970 -0.8402 -0.1853
 4980SOL    HW126573   0.744   0.016  11.667 -0.8196 -2.0903 -0.4295
 4980SOL    HW226574   0.775   0.120  11.566 -0.8753 -0.6103 -0.2471
 4981SOL     OW26575   3.471   0.942   5.252  0.1929 -0.0714 -0.6528
 4981SOL    HW126576   3.550   0.908   5.295  0.5716  1.1275 -0.3884
 4981SOL    HW226577   3.468   0.895   5.169  1.2335  2.2070 -1.9822
 4982SOL     OW26578   0.750   1.726   2.767  0.3935  0.5211 -0.6094
 4982SOL    HW126579   0.664   1.726   2.724 -0.6470  1.1150  1.4598
 4982SOL    HW226580   0.776   1.634   2.758  1.6499  0.8955 -0.7828
 4983SOL     OW26581   0.777   4.114   8.511  0.6910  0.0947  0.2206
 4983SOL    HW126582   0.718   4.062   8.456  2.9431 -0.8436 -1.2665
 4983SOL    HW226583   0.742   4.199   8.484  0.6545 -0.1140 -0.3835
 4984SOL     OW26584   0.043   1.349   8.801 -0.5605  0.6781 -0.3715
 4984SOL    HW126585   0.127   1.319   8.766 -1.1428 -1.9443  0.4391
 4984SOL    HW226586   0.048   1.324   8.893 -0.0952 -0.7790 -0.7907
 4985SOL     OW26587   0.408   3.798  15.546  0.6553  0.5385 -0.5287
 4985SOL    HW126588   0.398   3.887  15.581  0.3668 -0.2106  1.3061
 4985SOL    HW226589   0.377   3.807  15.456 -2.3251  1.7099  0.6162
 4986SOL     OW26590   4.189   4.075   6.715 -0.1684 -0.4943  0.2886
 4986SOL    HW126591   4.168   4.159   6.674 -1.0471  0.1716  2.1200
 4986SOL    HW226592   4.115   4.055   6.772 -0.7857  1.9886  0.3477
 4987SOL     OW26593   4.167   0.277   8.011  0.4842 -0.1223 -0.0724
 4987SOL    HW126594   4.159   0.194   7.965 -1.1692  1.8473 -3.3492
 4987SOL    HW226595   4.193   0.322   7.930  0.0145  2.2102  1.0529
 4988SOL     OW26596   0.018   1.004   5.728  0.0076 -0.5111 -0.0751
 4988SOL    HW126597   4.687   0.989   5.664  1.8367 -2.5839 -1.5312
 4988SOL    HW226598   0.028   0.924   5.781  0.6094  0.6913  1.6574
 4989SOL     OW26599   0.886   0.225  17.040  0.4440  0.3029  0.3250
 4989SOL    HW126600   0.859   0.228  16.949 -0.5542 -1.2541  0.5723
 4989SOL    HW226601   0.917   0.135  17.032  0.9407  0.6167 -1.1961
 4990SOL     OW26602   0.426   3.858  13.280  0.3451 -0.8112 -0.3662
 4990SOL    HW126603   0.511   3.899  13.298  0.3602 -1.5276  1.2081
 4990SOL    HW226604   0.416   3.808  13.361  2.1172  0.2989  0.5317
 4991SOL     OW26605   4.133   1.587  17.428  0.8470 -0.2652  0.1347
 4991SOL    HW126606   4.093   1.531  17.495 -1.9522  2.3938  0.6705
 4991SOL    HW226607   4.155   1.527  17.356  0.2882 -1.0901  0.6456
 4992SOL     OW26608   3.966   2.714   0.195 -0.0058 -0.3509  0.0515
 4992SOL    HW126609   3.969   2.702   0.290  2.1356 -2.8053 -0.3101
 4992SOL    HW226610   4.057   2.706   0.169 -0.0161 -2.4557  0.6501
 4993SOL     OW26611   1.945   3.788   7.597  0.2100  0.4755  0.6909
 4993SOL    HW126612   1.958   3.860   7.535 -1.1028 -0.0357 -0.1882
 4993SOL    HW226613   1.940   3.714   7.537  1.0970  0.0113  1.1876
 4994SOL     OW26614   1.367   1.372   0.681 -0.0022  0.0151 -0.2762
 4994SOL    HW126615   1.450   1.356   0.724 -0.2316 -0.9282 -0.1869
 4994SOL    HW226616   1.327   1.285   0.683 -1.1265  0.5672  1.2359
 4995SOL     OW26617   4.212   1.045   0.888  0.6600 -0.3008  0.4652
 4995SOL    HW126618   4.294   1.011   0.851  0.0361  0.8482 -1.9570
 4995SOL    HW226619   4.218   1.138   0.867 -0.1266 -0.2974  0.2634
 4996SOL     OW26620   0.477   0.621   9.291  0.2039  0.2203  0.2950
 4996SOL    HW126621   0.413   0.658   9.353 -1.7497  1.0695 -2.2354
 4996SOL    HW226622   0.549   0.624   9.354  0.5098  0.7822 -0.0790
 4997SOL     OW26623   0.835   3.301   1.694  0.1172  0.3888  0.2176
 4997SOL    HW126624   0.918   3.346   1.712 -0.9586  2.3645  0.2352
 4997SOL    HW226625   0.791   3.324   1.776  2.6186  1.1931  1.3262
 4998SOL     OW26626   3.160   3.376   7.970  0.1391 -0.2974 -0.0088
 4998SOL    HW126627   3.107   3.452   7.945 -0.2185 -1.3491 -2.4101
 4998SOL    HW226628   3.213   3.360   7.892  0.1266  1.0465 -0.2916
 4999SOL     OW26629   2.013   3.206   9.484  0.6968 -0.2477 -0.0220
 4999SOL    HW126630   1.930   3.249   9.505  0.3458 -0.9033 -0.0907
 4999SOL    HW226631   2.016   3.204   9.388 -0.7646  1.1273 -0.1100
 5000SOL     OW26632   1.125   2.032   0.379  0.0025  0.1968  0.1281
 5000SOL    HW126633   1.192   2.040   0.446  1.2729  1.5331 -1.3000
 5000SOL    HW226634   1.166   2.077   0.306  1.0890 -0.6697  0.1962
 5001SOL     OW26635   3.301   1.504  13.584  0.0186  0.9174 -0.6874
 5001SOL    HW126636   3.250   1.423  13.590 -0.3289  1.1169 -0.9193
 5001SOL    HW226637   3.232   1.570  13.587 -0.5412  0.1731  2.0154
 5002SOL     OW26638   2.907   2.836   3.285 -0.1253  1.3639 -0.4853
 5002SOL    HW126639   2.989   2.878   3.311  1.3404 -1.9128  0.2344
 5002SOL    HW226640   2.944   2.769   3.228  1.0213  1.1522  0.4958
 5003SOL     OW26641   0.556   1.544  15.067  0.0170 -0.9893  0.0511
 5003SOL    HW126642   0.640   1.501  15.082  1.1441  1.5756  1.1370
 5003SOL    HW226643   0.588   1.629  15.038 -0.5906 -0.2809  1.4647
 5004SOL     OW26644   1.243   2.132  11.079  0.0073  0.2513 -0.3752
 5004SOL    HW126645   1.168   2.190  11.071 -0.4700 -0.3544 -0.3325
 5004SOL    HW226646   1.204   2.053  11.040 -0.4003  0.1161  0.2987
 5005SOL     OW26647   4.197   1.135   5.060 -0.4209 -0.4299  0.1360
 5005SOL    HW126648   4.199   1.191   5.139 -2.1277 -2.3739  1.5508
 5005SOL    HW226649   4.183   1.202   4.993  0.7467  0.4105  0.7354
 5006SOL     OW26650   1.148   4.144   8.710 -0.6188  0.5881  0.4533
 5006SOL    HW126651   1.118   4.085   8.641 -2.9919  1.0669  1.0794
 5006SOL    HW226652   1.183   4.222   8.667 -0.5131  1.2140  1.6660
 5007SOL     OW26653   0.160   2.668  11.467 -0.0603 -0.0578 -1.0165
 5007SOL    HW126654   0.141   2.583  11.427 -1.2347 -1.6868  3.0332
 5007SOL    HW226655   0.252   2.649  11.487 -0.4713 -1.9027 -0.8800
 5008SOL     OW26656   3.750   0.138   2.266  0.3461 -0.3871  0.1495
 5008SOL    HW126657   3.750   0.175   2.354  0.6113 -2.4281  1.0091
 5008SOL    HW226658   3.832   0.174   2.233  0.5377 -0.1211  0.9197
 5009SOL     OW26659   0.740   0.496   5.962  0.0336  0.3876 -0.1948
 5009SOL    HW126660   0.698   0.451   5.889 -0.5203  0.9666 -0.2290
 5009SOL    HW226661   0.743   0.431   6.032 -0.7857  0.3578 -0.1943
 5010SOL     OW26662   0.983   2.610   2.945 -0.1693 -0.2511 -0.0232
 5010SOL    HW126663   0.992   2.698   2.981  1.5938 -0.2026 -0.5843
 5010SOL    HW226664   0.918   2.620   2.876  1.7085  2.5398 -1.3761
 5011SOL     OW26665   2.834   1.179   1.101  0.0301  0.6470  0.1423
 5011SOL    HW126666   2.806   1.104   1.154  0.5067 -0.1735 -0.7534
 5011SOL    HW226667   2.865   1.241   1.167  1.6738 -0.5031  0.4501
 5012SOL     OW26668   1.384   3.463   4.655  0.1066 -0.6072 -0.1969
 5012SOL    HW126669   1.435   3.504   4.725  0.2641 -1.8665  0.4324
 5012SOL    HW226670   1.306   3.476   4.708  0.6680 -1.4397  0.8402
 5013SOL     OW26671   4.393   3.008  16.615  0.8344 -0.8159 -0.1712
 5013SOL    HW126672   4.359   2.930  16.658 -1.7029  1.1060  1.2821
 5013SOL    HW226673   4.352   3.072  16.673  1.0363  0.5541 -1.5105
 5014SOL     OW26674   2.329   4.532   0.769 -0.3222 -0.3429 -0.7395
 5014SOL    HW126675   2.384   4.461   0.800 -1.4827  0.0215  2.1405
 5014SOL    HW226676   2.274   4.486   0.705 -0.2067 -0.9255 -0.4155
 5015SOL     OW26677   3.557   2.972   7.726 -0.0938 -0.8154  0.1879
 5015SOL    HW126678   3.631   2.914   7.747  0.9601  0.1672 -0.8047
 5015SOL    HW226679   3.599   3.055   7.748  0.3722 -0.8902 -0.4217
 5016SOL     OW26680   1.423   3.648   1.502  1.0052  0.4718 -0.5953
 5016SOL    HW126681   1.377   3.693   1.572  0.0894 -1.5264  0.0900
 5016SOL    HW226682   1.502   3.701   1.490  2.1730 -1.2567 -0.6716
 5017SOL     OW26683   3.978   3.722   8.736  0.0163 -0.2519  0.1222
 5017SOL    HW126684   4.054   3.664   8.736  0.5464  0.4493 -0.3033
 5017SOL    HW226685   3.928   3.688   8.662 -2.1331  1.6808  0.6563
 5018SOL     OW26686   4.372   1.269  10.582 -0.6088  0.0520 -0.0812
 5018SOL    HW126687   4.417   1.215  10.517  3.6932  2.1710  1.1514
 5018SOL    HW226688   4.349   1.343  10.526  1.2421  1.6769  1.3366
 5019SOL     OW26689   4.182   3.220   4.624  0.1586  0.1237 -0.0468
 5019SOL    HW126690   4.224   3.160   4.563 -1.2737 -0.4964 -0.4217
 5019SOL    HW226691   4.093   3.187   4.608 -0.4789  0.9281  1.7952
 5020SOL     OW26692   0.229   2.261   2.523  0.3220 -0.3223  0.2214
 5020SOL    HW126693   0.233   2.346   2.479  1.3798 -1.1912 -1.3877
 5020SOL    HW226694   0.225   2.283   2.616 -1.3488 -0.1576  0.1113
 5021SOL     OW26695   2.358   0.957   5.056  0.1659 -0.3493  0.0557
 5021SOL    HW126696   2.407   0.882   5.024 -1.9856 -2.0037  0.6548
 5021SOL    HW226697   2.352   0.952   5.152  0.4399 -0.1327  0.0834
 5022SOL     OW26698   0.613   2.847   2.953 -0.6175  0.2871 -0.6899
 5022SOL    HW126699   0.558   2.769   2.960  1.0303 -0.7138  1.2535
 5022SOL    HW226700   0.625   2.850   2.858  0.4665  0.7852 -0.5332
 5023SOL     OW26701   0.583   2.572  17.161 -0.5744 -0.1776 -0.1677
 5023SOL    HW126702   0.637   2.515  17.216  0.6267  0.2765 -0.8727
 5023SOL    HW226703   0.597   2.533  17.075  1.7912  0.9320 -0.2726
 5024SOL     OW26704   0.160   0.530   6.860 -0.4194  0.3171 -0.2565
 5024SOL    HW126705   0.082   0.584   6.867 -0.2063  0.6119 -0.1176
 5024SOL    HW226706   0.185   0.548   6.769 -3.1555 -1.5735 -1.3603
 5025SOL     OW26707   0.761   2.360   6.112  0.1406  0.0441  0.0247
 5025SOL    HW126708   0.790   2.325   6.196 -0.9007  1.3517  0.9304
 5025SOL    HW226709   0.715   2.438   6.143 -0.8058  0.0952 -1.5249
 5026SOL     OW26710   3.190   4.348   6.570 -0.4830 -0.0412  0.1240
 5026SOL    HW126711   3.227   4.376   6.654  2.2058 -2.2058 -0.3447
 5026SOL    HW226712   3.099   4.355   6.599 -0.3504 -2.3894  1.0974
 5027SOL     OW26713   0.027   1.407   7.472  0.5417 -0.2799  0.0106
 5027SOL    HW126714   0.027   1.358   7.554 -0.7159  1.2010  0.8971
 5027SOL    HW226715   4.689   1.463   7.493  1.5492  2.0589 -2.5708
 5028SOL     OW26716   1.496   1.191   1.681  0.1724  0.4323 -0.2751
 5028SOL    HW126717   1.531   1.197   1.770 -0.9827  1.1457  0.1226
 5028SOL    HW226718   1.509   1.281   1.652 -1.2253  0.1387 -1.8298
 5029SOL     OW26719   4.539   2.783   8.725 -0.4042  0.0522 -0.2507
 5029SOL    HW126720   4.583   2.852   8.776  0.8427 -0.4735 -0.6040
 5029SOL    HW226721   4.592   2.772   8.646 -0.2453  1.9170 -0.4174
 5030SOL     OW26722   3.425   2.501   2.486 -0.3783  0.2087 -0.4047
 5030SOL    HW126723   3.348   2.474   2.535 -0.9377  0.6330 -1.0548
 5030SOL    HW226724   3.397   2.592   2.479 -1.6221 -0.2675 -1.4385
 5031SOL     OW26725   3.594   4.717   6.342 -0.0148 -0.5059  0.0485
 5031SOL    HW126726   3.590   0.008   6.251  0.1976  2.5072  0.9725
 5031SOL    HW226727   3.667   0.031   6.378 -1.4058 -0.1134  2.3631
 5032SOL     OW26728   1.378   0.677   6.478 -0.3458 -0.3295 -0.1875
 5032SOL    HW126729   1.294   0.651   6.516  0.2780 -1.2404  0.5773
 5032SOL    HW226730   1.437   0.651   6.549 -1.7291 -1.2443  0.6076
 5033SOL     OW26731   3.240   3.822   4.605  0.0853 -0.3476 -0.2277
 5033SOL    HW126732   3.147   3.812   4.582  0.5661 -3.4390 -0.8275
 5033SOL    HW226733   3.260   3.736   4.643  0.9672 -0.2290 -0.4408
 5034SOL     OW26734   3.606   1.015   0.864 -0.0086  0.7460 -0.2847
 5034SOL    HW126735   3.650   0.968   0.936  0.0203  1.5290  0.2097
 5034SOL    HW226736   3.537   1.068   0.905  2.3391  1.2588  3.0373
 5035SOL     OW26737   4.438   3.371   9.952  0.0883 -0.2704  0.5220
 5035SOL    HW126738   4.403   3.339   9.869 -2.1082  0.4473  1.1760
 5035SOL    HW226739   4.518   3.319   9.959  1.2400  1.7074  2.2241
 5036SOL     OW26740   0.340   4.399   7.387 -0.0407  0.2576 -0.4208
 5036SOL    HW126741   0.285   4.391   7.464 -2.0082 -0.0636 -1.8485
 5036SOL    HW226742   0.379   4.313   7.377 -2.3445 -0.8825  0.3527
 5037SOL     OW26743   2.754   0.748   8.256  0.1986 -0.3497 -0.1273
 5037SOL    HW126744   2.726   0.691   8.185  1.4115  0.1233 -0.9847
 5037SOL    HW226745   2.820   0.692   8.297  0.7155 -0.5638 -1.2644
 5038SOL     OW26746   1.263   4.623   6.765  0.2663  0.3310  0.0430
 5038SOL    HW126747   1.222   4.671   6.693  0.2876 -0.5564 -0.5596
 5038SOL    HW226748   1.331   4.575   6.717 -1.7067 -3.6716  1.3240
 5039SOL     OW26749   4.461   0.045   5.587 -0.3195  0.2585 -0.0027
 5039SOL    HW126750   4.486   0.127   5.628 -0.9806  0.8791 -0.8440
 5039SOL    HW226751   4.368   0.044   5.611 -1.2892  0.9680 -3.7643
 5040SOL     OW26752   1.687   3.794   7.314  0.1564 -0.4364  0.2122
 5040SOL    HW126753   1.778   3.763   7.315 -0.0832 -1.1383  0.2924
 5040SOL    HW226754   1.700   3.885   7.285 -0.7174 -0.8220 -1.3671
 5041SOL     OW26755   3.092   4.165   4.955 -0.2140 -0.0416 -0.0129
 5041SOL    HW126756   3.111   4.257   4.936  2.0041 -0.6562 -0.8920
 5041SOL    HW226757   3.084   4.135   4.864 -0.6101 -2.8611  0.9526
 5042SOL     OW26758   3.863   1.403   6.868 -0.4171  0.0277 -0.6372
 5042SOL    HW126759   3.847   1.454   6.947  0.4444  0.5150 -0.7820
 5042SOL    HW226760   3.930   1.455   6.823 -0.3817  0.0443 -0.5642
 5043SOL     OW26761   1.113   4.291   1.671 -0.3641 -0.1050 -0.5979
 5043SOL    HW126762   1.020   4.268   1.680  0.0810 -1.2669  0.9776
 5043SOL    HW226763   1.111   4.384   1.647 -0.7050  0.2091  0.6706
 5044SOL     OW26764   1.583   1.371   8.670 -0.3963 -0.3506  0.6606
 5044SOL    HW126765   1.505   1.349   8.619 -1.8041 -3.1378  3.9534
 5044SOL    HW226766   1.543   1.393   8.754  2.9432  1.4642  1.7960
 5045SOL     OW26767   1.624   3.198  10.204  0.5811  0.3538 -0.4060
 5045SOL    HW126768   1.634   3.118  10.152  2.3635  0.2084  0.1898
 5045SOL    HW226769   1.601   3.158  10.288 -0.5712  1.3199 -0.2592
 5046SOL     OW26770   0.904   2.820   7.847 -0.0976 -0.2858  1.0303
 5046SOL    HW126771   0.847   2.895   7.861  1.7688  1.6384 -1.6047
 5046SOL    HW226772   0.844   2.746   7.856 -0.1544 -0.3955 -0.1430
 5047SOL     OW26773   3.681   4.294   4.682  0.4281 -0.2123  0.1174
 5047SOL    HW126774   3.654   4.321   4.594 -1.1961  1.9895  1.2565
 5047SOL    HW226775   3.766   4.337   4.691  0.5443 -0.4476  0.1293
 5048SOL     OW26776   1.210   2.516   0.050  0.0212  0.0187  0.1944
 5048SOL    HW126777   1.177   2.463  17.723  3.1472 -1.4043 -0.1950
 5048SOL    HW226778   1.168   2.598   0.025 -0.1761  0.2922  1.4358
 5049SOL     OW26779   2.072   0.344  11.028  0.2147 -0.6783 -0.1673
 5049SOL    HW126780   2.002   0.394  10.986 -1.4744 -0.7684  2.5337
 5049SOL    HW226781   2.073   0.389  11.113  0.0516  1.4605 -1.3017
 5050SOL     OW26782   4.701   2.515  10.133 -0.0115 -0.2531  0.1671
 5050SOL    HW126783   4.670   2.434  10.092 -0.8995 -0.0518  0.4301
 5050SOL    HW226784   4.701   2.485  10.224 -0.0741 -1.8950 -0.3607
 5051SOL     OW26785   1.720   3.658   3.599  0.2263 -0.1170 -0.1903
 5051SOL    HW126786   1.682   3.689   3.517 -1.0122 -0.5599  0.2129
 5051SOL    HW226787   1.700   3.565   3.589  2.6285 -0.9185  2.4917
 5052SOL     OW26788   2.262   1.511   2.857 -0.1636 -0.0117 -0.6268
 5052SOL    HW126789   2.223   1.522   2.771 -1.7586 -1.3635 -0.0759
 5052SOL    HW226790   2.224   1.581   2.909  0.3422 -0.4961  0.4023
 5053SOL     OW26791   4.081   1.964  10.988  0.3351 -0.0276 -0.2658
 5053SOL    HW126792   4.006   2.023  10.985  1.7564  1.7874 -0.2474
 5053SOL    HW226793   4.068   1.917  11.070 -0.4935  0.9697  0.1736
 5054SOL     OW26794   4.479   4.566   6.260  0.0458 -0.3069 -0.7823
 5054SOL    HW126795   4.418   4.493   6.268 -1.9246  1.4133  0.1994
 5054SOL    HW226796   4.426   4.642   6.286  2.2327  0.2906  1.9183
 5055SOL     OW26797   4.066   4.460   6.851 -0.0789 -0.4422  0.4148
 5055SOL    HW126798   3.973   4.481   6.836  0.7099  2.5052 -0.4498
 5055SOL    HW226799   4.073   4.527   6.919  1.2584  0.9259 -1.0404
 5056SOL     OW26800   1.314   2.903  16.419 -0.2146 -0.3943 -0.1835
 5056SOL    HW126801   1.226   2.883  16.389 -0.1281 -0.7834 -0.1763
 5056SOL    HW226802   1.371   2.830  16.397  2.3785  0.9514  1.9130
 5057SOL     OW26803   0.959   1.917   2.018  0.3070 -0.2561  0.0440
 5057SOL    HW126804   0.956   1.928   1.923 -0.5217  0.1858  0.1146
 5057SOL    HW226805   0.937   1.824   2.030 -1.0151  0.2760  1.8532
 5058SOL     OW26806   0.359   2.474   3.965 -0.0443  0.0270  0.7375
 5058SOL    HW126807   0.421   2.440   3.900  0.8240  2.0440  0.5101
 5058SOL    HW226808   0.288   2.411   3.951 -0.5563  0.4468  1.4565
 5059SOL     OW26809   1.388   1.350   9.487  0.2151 -0.1380 -0.7517
 5059SOL    HW126810   1.303   1.332   9.445 -0.6172  1.6520  0.1760
 5059SOL    HW226811   1.359   1.394   9.567 -0.3204 -1.1150 -0.4055
 5060SOL     OW26812   0.110   1.254   6.073  0.0745  0.2797  0.3286
 5060SOL    HW126813   0.019   1.268   6.047 -0.0835  1.1327  1.3305
 5060SOL    HW226814   0.097   1.160   6.091 -1.9741  0.7754  1.4115
 5061SOL     OW26815   2.385   2.518  12.031 -0.1547  0.0733 -0.0562
 5061SOL    HW126816   2.392   2.489  12.122 -0.4489  3.2838  1.0143
 5061SOL    HW226817   2.453   2.585  12.027  0.4167 -0.4885  0.3455
 5062SOL     OW26818   2.722   2.915   0.944  0.6879 -0.3973 -0.8489
 5062SOL    HW126819   2.773   2.897   1.022  0.4217 -2.1474 -1.0851
 5062SOL    HW226820   2.662   2.841   0.946  2.0864 -1.5103 -0.0205
 5063SOL     OW26821   4.729   0.049   3.608 -0.2756 -0.2091 -0.0700
 5063SOL    HW126822   0.076   0.060   3.654 -1.0463 -0.7901  1.4826
 5063SOL    HW226823   4.703   4.700   3.640  2.5739 -0.6062  1.2384
 5064SOL     OW26824   0.066   0.935   6.701  0.2976 -1.0884  0.2619
 5064SOL    HW126825   0.031   1.002   6.760 -2.3444 -0.0571 -2.5510
 5064SOL    HW226826   0.161   0.950   6.708  0.3278 -0.9939 -0.3558
 5065SOL     OW26827   1.270   4.221   4.442  0.2004  0.5497  0.3039
 5065SOL    HW126828   1.304   4.240   4.354  2.0142  2.1071  1.3355
 5065SOL    HW226829   1.237   4.132   4.432  1.6648  0.2193 -1.8533
 5066SOL     OW26830   2.424   4.356  12.267  0.1607 -0.5328  0.0559
 5066SOL    HW126831   2.339   4.375  12.306  1.4682 -1.0289  3.1249
 5066SOL    HW226832   2.445   4.437  12.221  0.4650  0.1807  1.4603
 5067SOL     OW26833   0.352   1.542   5.528  0.2859 -0.0936 -0.4335
 5067SOL    HW126834   0.331   1.633   5.552  1.1770  0.2926 -1.1290
 5067SOL    HW226835   0.322   1.538   5.438 -1.6780  2.2787  0.1157
 5068SOL     OW26836   2.700   1.721   1.620  0.2991  0.1197 -0.1550
 5068SOL    HW126837   2.762   1.752   1.686 -0.0033 -0.7678  0.5385
 5068SOL    HW226838   2.732   1.767   1.542 -0.8277 -1.7496 -1.6973
 5069SOL     OW26839   3.882   2.282   2.682 -0.3724 -0.2886 -0.2465
 5069SOL    HW126840   3.830   2.356   2.650  0.5215  0.8759  0.9951
 5069SOL    HW226841   3.900   2.237   2.600  0.4584 -1.3865  0.5435
 5070SOL     OW26842   4.228   2.702   7.103 -0.0029 -0.1643  0.6205
 5070SOL    HW126843   4.317   2.708   7.139  0.1424 -1.8728  0.5519
 5070SOL    HW226844   4.213   2.609   7.121 -1.7332 -0.0587 -0.2989
 5071SOL     OW26845   2.837   2.581  14.925 -0.0770  0.2621  0.0296
 5071SOL    HW126846   2.878   2.511  14.874 -0.9611 -0.4779  0.3245
 5071SOL    HW226847   2.763   2.537  14.966  1.6591 -0.9257  1.9396
 5072SOL     OW26848   2.259   1.017   5.446 -0.1767 -0.4769 -0.1420
 5072SOL    HW126849   2.327   1.053   5.502 -0.6567  0.9741 -0.4982
 5072SOL    HW226850   2.326   0.985   5.385  0.1174 -0.7240  0.3157
 5073SOL     OW26851   3.374   2.332   4.192  0.3198  0.1860 -0.3495
 5073SOL    HW126852   3.330   2.385   4.259  1.7803 -0.3919  1.0805
 5073SOL    HW226853   3.352   2.382   4.114  2.8649  0.1770 -1.0786
 5074SOL     OW26854   1.265   1.297  12.122  0.0999 -0.0077 -0.1319
 5074SOL    HW126855   1.251   1.369  12.183 -0.6719 -0.1776 -0.1091
 5074SOL    HW226856   1.354   1.320  12.095 -0.0362  0.5805 -0.0789
 5075SOL     OW26857   0.756   1.274   8.870 -0.2275 -1.0534 -0.2808
 5075SOL    HW126858   0.828   1.334   8.853 -0.2745 -0.3984  1.7796
 5075SOL    HW226859   0.779   1.204   8.809  0.1064 -1.7955  0.6877
 5076SOL     OW26860   3.105   2.488   6.006 -0.1114 -0.1530  0.2444
 5076SOL    HW126861   3.151   2.404   6.000  1.1684  0.6069 -0.6030
 5076SOL    HW226862   3.068   2.492   5.918 -1.4064  0.4008  0.8215
 5077SOL     OW26863   3.824   0.047   9.079  0.5005 -0.6368 -0.4762
 5077SOL    HW126864   3.753   0.044   9.143 -0.2473  1.2809 -1.2225
 5077SOL    HW226865   3.899   0.070   9.134  1.8380 -1.7647 -1.8572
 5078SOL     OW26866   1.188   0.042   8.549  0.0478  0.5048 -0.6584
 5078SOL    HW126867   1.120   4.729   8.505 -0.0119  1.3611 -1.5483
 5078SOL    HW226868   1.134   0.118   8.571  1.5478  1.6748 -0.9450
 5079SOL     OW26869   4.228   0.004   2.710 -0.0595  0.0337  0.0159
 5079SOL    HW126870   4.299   0.054   2.751 -1.3345  0.6702  1.4739
 5079SOL    HW226871   4.172   4.708   2.780 -2.2450  0.6048 -1.4625
 5080SOL     OW26872   4.047   3.699   4.064  0.2931 -0.4800  0.0504
 5080SOL    HW126873   4.120   3.685   4.124  1.8485 -1.0349 -1.9544
 5080SOL    HW226874   3.981   3.706   4.132  1.4766 -0.9846  1.2400
 5081SOL     OW26875   0.805   4.180   6.395 -0.2135 -0.0965 -0.0650
 5081SOL    HW126876   0.793   4.233   6.474 -2.4445 -0.7732  0.0563
 5081SOL    HW226877   0.874   4.235   6.358  0.8216 -0.4136  1.3925
 5082SOL     OW26878   4.390   3.920  13.059  0.8350  0.0413 -0.0284
 5082SOL    HW126879   4.484   3.935  13.074  0.9020  1.3370 -1.7068
 5082SOL    HW226880   4.383   3.937  12.965 -2.0689 -2.8600 -0.3122
 5083SOL     OW26881   2.109   1.701   1.092  0.1835  0.7558  0.0134
 5083SOL    HW126882   2.060   1.742   1.164  0.9381  0.9409  0.4191
 5083SOL    HW226883   2.191   1.747   1.104  1.2953 -1.4167  0.7606
 5084SOL     OW26884   2.017   0.610   7.197  0.0625 -0.1446 -0.3964
 5084SOL    HW126885   2.062   0.592   7.115  0.1807  0.4806 -0.4674
 5084SOL    HW226886   2.090   0.617   7.259  0.6060 -1.5579 -0.8737
 5085SOL     OW26887   4.053   0.617   7.596  0.2288  0.0503  0.7038
 5085SOL    HW126888   3.972   0.613   7.646 -0.2581  1.1546  0.0241
 5085SOL    HW226889   4.076   0.528   7.572  2.0061  0.4135  1.0433
 5086SOL     OW26890   2.544   4.293   2.470 -0.5157 -0.4483 -0.0633
 5086SOL    HW126891   2.613   4.226   2.470 -0.2827 -0.2028  1.2600
 5086SOL    HW226892   2.587   4.367   2.427 -1.2627 -0.4184 -0.7442
 5087SOL     OW26893   3.572   3.466   0.913 -0.5014 -0.0078 -0.4752
 5087SOL    HW126894   3.638   3.457   0.982 -2.0135 -2.3890  0.6704
 5087SOL    HW226895   3.521   3.538   0.951 -0.0987  1.1616 -2.1461
 5088SOL     OW26896   1.135   1.518  14.193 -0.4573 -0.2927  0.3463
 5088SOL    HW126897   1.217   1.481  14.225 -1.2295 -2.4072 -0.1222
 5088SOL    HW226898   1.075   1.469  14.248  0.0315 -1.5602 -0.2323
 5089SOL     OW26899   1.175   3.457   7.046 -0.4363 -0.0045 -0.0548
 5089SOL    HW126900   1.097   3.478   7.098  1.5406  2.6147  1.8732
 5089SOL    HW226901   1.136   3.423   6.966  0.0913 -0.4948 -0.1018
 5090SOL     OW26902   4.049   1.097   2.174 -0.0572 -0.5103  0.2189
 5090SOL    HW126903   4.135   1.054   2.175  1.7153  3.0336 -0.1871
 5090SOL    HW226904   3.990   1.024   2.154  2.2635 -2.6061  0.9653
 5091SOL     OW26905   0.655   1.524  16.510 -0.4704 -0.0136 -0.1132
 5091SOL    HW126906   0.746   1.555  16.506  0.2697 -2.1235  0.1580
 5091SOL    HW226907   0.623   1.578  16.582 -1.2017  0.2846 -0.6601
 5092SOL     OW26908   0.691   3.086  13.236 -0.6256 -0.2334  0.5553
 5092SOL    HW126909   0.668   3.121  13.149 -0.2708  1.4449  1.1287
 5092SOL    HW226910   0.762   3.027  13.210 -1.7757 -1.0939 -0.6557
 5093SOL     OW26911   2.790   0.234   2.250  0.2027 -0.1405 -0.0177
 5093SOL    HW126912   2.794   0.330   2.252 -0.9113 -0.1086  0.8660
 5093SOL    HW226913   2.838   0.212   2.170  0.6592 -0.6057  0.3824
 5094SOL     OW26914   0.826   2.965  14.291  0.4005  0.3615  0.4509
 5094SOL    HW126915   0.870   3.020  14.225  0.7199 -2.8897 -2.0611
 5094SOL    HW226916   0.732   2.982  14.285  0.2937 -1.2935 -3.0204
 5095SOL     OW26917   0.983   2.184  16.485  0.0456  0.1849 -0.1824
 5095SOL    HW126918   0.899   2.228  16.469  0.1698 -0.0243 -1.4724
 5095SOL    HW226919   0.951   2.102  16.523 -0.3564  0.3762 -0.1050
 5096SOL     OW26920   3.956   1.654   2.125  0.0147  0.2428 -0.9414
 5096SOL    HW126921   3.896   1.621   2.058  0.0162 -2.0016  0.1603
 5096SOL    HW226922   3.938   1.588   2.193  4.0391 -1.0816 -1.1483
 5097SOL     OW26923   0.576   0.803   3.466  0.0511  0.0861  0.4622
 5097SOL    HW126924   0.537   0.786   3.380  0.3860  1.4670  0.0372
 5097SOL    HW226925   0.514   0.862   3.508  2.0248  2.5988 -0.1768
 5098SOL     OW26926   4.651   0.125   7.849 -0.4215  0.4496 -0.4695
 5098SOL    HW126927   4.692   0.202   7.891 -1.7313  0.1546  1.3491
 5098SOL    HW226928   4.687   0.128   7.761  0.0381 -3.2000 -0.4037
 5099SOL     OW26929   3.243   3.596   8.965 -0.5902  0.0844 -0.0644
 5099SOL    HW126930   3.172   3.534   8.980 -0.4103  0.0487  0.6497
 5099SOL    HW226931   3.319   3.540   8.951 -0.6796  0.5649 -2.3324
 5100SOL     OW26932   0.428   3.485   3.484 -0.1437 -0.0637  0.0967
 5100SOL    HW126933   0.463   3.574   3.486  0.3062 -0.2600  0.9791
 5100SOL    HW226934   0.423   3.459   3.576 -2.0464  2.4615  0.6942
 5101SOL     OW26935   1.213   0.709  17.602 -0.1523 -0.5098  0.5735
 5101SOL    HW126936   1.244   0.797  17.625 -0.3494 -0.1406 -0.6072
 5101SOL    HW226937   1.152   0.701  17.676 -0.4963 -3.6714 -0.0515
 5102SOL     OW26938   3.435   0.944   2.176 -0.3385  0.0820  0.0648
 5102SOL    HW126939   3.431   0.848   2.175  0.4735  0.0237  2.5704
 5102SOL    HW226940   3.460   0.958   2.267 -2.1745  0.8561  0.4487
 5103SOL     OW26941   3.637   2.778   3.964 -0.1705  0.4683 -0.4949
 5103SOL    HW126942   3.636   2.874   3.961  0.0615  0.4825 -0.1091
 5103SOL    HW226943   3.597   2.748   4.045 -0.4185 -1.3668 -1.2931
 5104SOL     OW26944   1.504   2.202   9.294 -0.2529  0.1194 -0.0270
 5104SOL    HW126945   1.455   2.120   9.288  0.9909 -0.5123 -1.6705
 5104SOL    HW226946   1.435   2.261   9.263  1.4516  1.6862 -0.8596
 5105SOL     OW26947   1.947   0.880   1.529  0.2223 -0.2105 -0.0120
 5105SOL    HW126948   1.878   0.940   1.557 -1.0210  0.1153 -3.8285
 5105SOL    HW226949   1.896   0.813   1.484  0.0231  0.2708 -0.5073
 5106SOL     OW26950   3.976   1.471   0.815 -0.4935 -0.3441  0.6893
 5106SOL    HW126951   3.960   1.523   0.736  2.8000 -0.3467  0.0376
 5106SOL    HW226952   3.888   1.441   0.837 -1.3201  1.1089 -0.6259
 5107SOL     OW26953   3.903   2.696   6.634 -0.0917 -0.0136  0.4928
 5107SOL    HW126954   3.934   2.610   6.661 -0.9371 -0.3475  0.4097
 5107SOL    HW226955   3.933   2.697   6.543  1.3364 -1.0802  0.9530
 5108SOL     OW26956   4.313   0.003  13.353  0.4617 -0.1022 -0.0911
 5108SOL    HW126957   4.277   4.701  13.433 -0.8626  0.3495 -0.4682
 5108SOL    HW226958   4.232   4.736  13.302  1.0739  1.0580 -1.1504
 5109SOL     OW26959   0.879   3.239   5.358  0.3225  0.0934  0.0242
 5109SOL    HW126960   0.964   3.246   5.315  1.5706  0.8180  2.6370
 5109SOL    HW226961   0.909   3.227   5.448  0.2512  1.1320  0.1831
 5110SOL     OW26962   1.871   0.253   1.285  0.6819  0.2003 -0.1728
 5110SOL    HW126963   1.911   0.167   1.279 -1.3924 -0.9069  2.1454
 5110SOL    HW226964   1.947   0.309   1.305  0.2060  0.9231 -0.3789
 5111SOL     OW26965   3.140   0.793   5.375  0.3286  0.0659  0.3104
 5111SOL    HW126966   3.098   0.853   5.437  1.1577 -0.7282  1.6338
 5111SOL    HW226967   3.224   0.784   5.419 -0.2068  0.9749  1.5294
 5112SOL     OW26968   3.376   3.813   2.415 -0.3350  0.3928  0.1817
 5112SOL    HW126969   3.302   3.853   2.370  0.0799  0.8002 -0.1391
 5112SOL    HW226970   3.371   3.839   2.507  1.3868  1.0741  0.0903
 5113SOL     OW26971   2.241   1.484   3.658  0.6015 -0.0855  0.1062
 5113SOL    HW126972   2.219   1.552   3.594 -0.1088  2.2214  2.7922
 5113SOL    HW226973   2.267   1.411   3.602  3.4616  0.1658  1.1288
 5114SOL     OW26974   0.907   2.791   5.896 -0.2389 -0.1082 -0.2542
 5114SOL    HW126975   0.823   2.830   5.922 -0.3902 -0.2152 -0.5973
 5114SOL    HW226976   0.888   2.707   5.856  1.4147 -0.5503 -0.1173
 5115SOL     OW26977   3.974   4.607   3.801  0.1309 -0.2594 -0.4682
 5115SOL    HW126978   3.927   4.573   3.725 -0.0236 -1.5105  0.1813
 5115SOL    HW226979   4.064   4.574   3.791  0.0393 -0.1463 -1.6140
 5116SOL     OW26980   4.185   2.129   9.696  0.3234  0.4170  0.9410
 5116SOL    HW126981   4.211   2.202   9.641  0.4018  1.2059  2.0358
 5116SOL    HW226982   4.264   2.081   9.721  0.5640  0.7138  0.7388
 5117SOL     OW26983   4.681   3.692   7.940 -0.0568  0.0181  0.0004
 5117SOL    HW126984   4.706   3.607   7.976  0.8809  0.7502  1.0669
 5117SOL    HW226985   4.606   3.700   8.000  0.4909  1.4626  0.5031
 5118SOL     OW26986   0.170   0.981   8.853 -0.2139  0.0238  0.1539
 5118SOL    HW126987   0.170   0.895   8.811 -0.1357 -0.0479  0.3018
 5118SOL    HW226988   0.078   1.002   8.869  0.3053  2.5380 -0.2890
 5119SOL     OW26989   2.658   3.152   4.830 -0.0433  0.7553 -0.7153
 5119SOL    HW126990   2.689   3.170   4.919  0.5854 -0.3300 -0.7152
 5119SOL    HW226991   2.579   3.098   4.839  1.0336 -0.8874 -1.0334
 5120SOL     OW26992   2.139   3.252  12.402 -0.9326 -0.4635  0.1135
 5120SOL    HW126993   2.180   3.228  12.318 -0.8233  0.3795 -0.0691
 5120SOL    HW226994   2.113   3.165  12.434 -0.0894 -0.0995  1.7482
 5121SOL     OW26995   1.672   0.201   7.543 -0.1009  0.1405 -0.7507
 5121SOL    HW126996   1.732   0.158   7.483  0.3897  0.3301 -0.3958
 5121SOL    HW226997   1.732   0.211   7.617  1.1365  1.3036 -1.9184
 5122SOL     OW26998   3.808   1.681   8.385 -0.1698 -0.3663  0.3796
 5122SOL    HW126999   3.714   1.698   8.378 -0.0806  0.3859  1.0558
 5122SOL    HW227000   3.820   1.590   8.357  0.4133 -0.7440  1.8756
 5123SOL     OW27001   1.565   3.512  17.709  0.6875 -0.1194 -0.5080
 5123SOL    HW127002   1.601   3.432  17.672  2.6587  0.4612  0.1070
 5123SOL    HW227003   1.558   3.486   0.054  0.3786 -1.5073 -0.9303
 5124SOL     OW27004   0.602   2.785   5.082  0.2050  0.2688 -0.0844
 5124SOL    HW127005   0.525   2.747   5.123 -0.3597  1.4655 -0.0245
 5124SOL    HW227006   0.631   2.843   5.153  0.4884  0.3253 -0.2466
 5125SOL     OW27007   1.719   2.303   5.209  0.1367 -0.0388 -0.0928
 5125SOL    HW127008   1.788   2.298   5.276 -0.1001 -0.7541  0.1008
 5125SOL    HW227009   1.739   2.216   5.174 -1.2477 -0.3950  0.0132
 5126SOL     OW27010   0.795   3.237  12.896 -0.3263 -0.1486  0.2385
 5126SOL    HW127011   0.854   3.182  12.948 -2.2304 -2.6191 -0.2058
 5126SOL    HW227012   0.710   3.225  12.938  0.0718  1.4675  1.4988
 5127SOL     OW27013   1.977   1.895   8.343  0.4270  0.0270 -0.1561
 5127SOL    HW127014   1.968   1.902   8.438 -0.7505 -0.9995 -0.1887
 5127SOL    HW227015   1.968   1.983   8.306 -1.0951 -0.0931 -0.0894
 5128SOL     OW27016   2.498   2.140   6.828 -0.0384 -0.2947  0.5474
 5128SOL    HW127017   2.414   2.093   6.826  0.2135 -0.6385 -1.6711
 5128SOL    HW227018   2.487   2.212   6.890  0.3907 -0.8137  1.2206
 5129SOL     OW27019   4.140   2.004   6.480  0.0877 -0.1287  0.8169
 5129SOL    HW127020   4.223   1.986   6.436  0.2648  0.2872  0.9884
 5129SOL    HW227021   4.126   2.098   6.472 -0.1720 -0.1711  0.7701
 5130SOL     OW27022   0.680   2.498   2.285 -0.2030  0.1556  0.2572
 5130SOL    HW127023   0.757   2.534   2.241 -1.4316  0.8308 -1.3650
 5130SOL    HW227024   0.713   2.410   2.303 -2.8942 -1.1812 -1.2963
 5131SOL     OW27025   0.463   3.756   8.669  0.2325  0.5976 -0.0934
 5131SOL    HW127026   0.375   3.740   8.634  0.9992 -0.2922 -1.6155
 5131SOL    HW227027   0.505   3.671   8.661  1.0717  0.9980  0.0598
 5132SOL     OW27028   1.475   4.641   2.893 -0.3054 -0.0819 -0.1272
 5132SOL    HW127029   1.540   4.696   2.848 -0.6220  1.2931  1.1081
 5132SOL    HW227030   1.410   4.624   2.825 -0.6108  2.5049 -0.4718
 5133SOL     OW27031   3.100   3.790   6.820 -0.0329  1.2269  0.3113
 5133SOL    HW127032   3.009   3.769   6.798  0.6630 -1.9440  0.4922
 5133SOL    HW227033   3.149   3.733   6.761 -0.5720  0.0129  1.0584
 5134SOL     OW27034   3.228   2.337  11.382  0.0556  0.3753 -0.5912
 5134SOL    HW127035   3.204   2.296  11.299  2.5987  0.5635 -1.4451
 5134SOL    HW227036   3.324   2.332  11.386 -0.0683 -2.2049 -1.2157
 5135SOL     OW27037   1.717   4.075   8.824  0.1674  0.3939  0.0247
 5135SOL    HW127038   1.807   4.102   8.807 -0.1999  0.9727 -0.9775
 5135SOL    HW227039   1.696   4.150   8.880  0.8533  1.2427 -0.8731
 5136SOL     OW27040   2.771   1.953   4.787 -0.6312  0.1058 -0.2349
 5136SOL    HW127041   2.757   1.916   4.700  0.4712 -0.1269 -0.3096
 5136SOL    HW227042   2.700   1.921   4.843  2.4234 -1.9642  2.5102
 5137SOL     OW27043   0.622   3.124   3.398  0.0934  0.0649  0.3285
 5137SOL    HW127044   0.650   3.111   3.488 -1.5562  1.9258  1.1158
 5137SOL    HW227045   0.651   3.048   3.347 -0.7075  0.0649 -0.1264
 5138SOL     OW27046   2.040   2.512  10.217  0.2531 -0.2165 -0.0974
 5138SOL    HW127047   2.051   2.512  10.312  1.2884  2.6127 -0.1928
 5138SOL    HW227048   2.049   2.600  10.180  1.6692 -0.1361  0.4534
 5139SOL     OW27049   2.706   3.426   3.252  0.1675 -0.1020 -0.2691
 5139SOL    HW127050   2.644   3.353   3.261 -0.1612  0.2944  0.6015
 5139SOL    HW227051   2.642   3.494   3.232  0.1489  0.3744  1.3842
 5140SOL     OW27052   2.773   1.738   7.403 -0.2365  0.8226 -0.0441
 5140SOL    HW127053   2.836   1.667   7.400 -0.8008  0.2678  0.9783
 5140SOL    HW227054   2.691   1.690   7.387 -0.1424  1.2778 -1.8802
 5141SOL     OW27055   1.070   2.002   8.246  0.6367  0.4041 -0.3449
 5141SOL    HW127056   1.163   1.979   8.243  0.2766 -0.8893 -1.7578
 5141SOL    HW227057   1.067   2.095   8.269 -0.1511 -0.2133  2.0536
 5142SOL     OW27058   3.678   0.991   1.131  0.1152  0.0756 -0.3170
 5142SOL    HW127059   3.599   0.999   1.185  0.1277 -3.2124  0.1802
 5142SOL    HW227060   3.693   0.897   1.139  1.0099  0.3382  1.1638
 5143SOL     OW27061   1.838   3.845  11.665 -0.0691 -0.2504 -0.7887
 5143SOL    HW127062   1.809   3.846  11.574 -0.0066 -0.4432 -0.8117
 5143SOL    HW227063   1.754   3.831  11.709 -0.4510  1.4228 -0.9709
 5144SOL     OW27064   0.470   3.065   2.211  0.0537 -0.4447  0.1637
 5144SOL    HW127065   0.455   3.146   2.260  0.9919  0.1458 -0.5080
 5144SOL    HW227066   0.496   3.092   2.122  1.4216 -0.0421  0.6866
 5145SOL     OW27067   0.498   2.429   3.426 -0.6827  0.2204 -0.3710
 5145SOL    HW127068   0.421   2.457   3.476 -0.9509  0.2859 -0.8237
 5145SOL    HW227069   0.561   2.411   3.496 -0.3358  2.1955 -0.1895
 5146SOL     OW27070   1.712   0.939   2.198  0.2114 -0.3647  0.4398
 5146SOL    HW127071   1.724   0.857   2.151  1.1203  0.7237 -1.2446
 5146SOL    HW227072   1.705   0.906   2.287 -1.3440 -0.1644  0.4071
 5147SOL     OW27073   1.871   3.911  17.271 -0.5462  0.3263  0.0812
 5147SOL    HW127074   1.837   3.989  17.226 -1.3191  0.3974  0.7876
 5147SOL    HW227075   1.931   3.945  17.337 -3.3518  2.7734  1.3842
 5148SOL     OW27076   1.608   4.537   8.480  0.2209  0.2847  0.2954
 5148SOL    HW127077   1.671   4.568   8.415  2.0338 -1.0740  1.4423
 5148SOL    HW227078   1.527   4.540   8.428  1.9130  1.4323 -2.3023
 5149SOL     OW27079   2.895   2.729   5.006  0.0869  0.1702  0.0351
 5149SOL    HW127080   2.825   2.696   4.950  0.6656 -0.1886 -0.4801
 5149SOL    HW227081   2.950   2.652   5.011 -2.1452 -1.5023 -1.2018
 5150SOL     OW27082   2.717   4.210   3.757 -0.1860 -0.3216  0.2479
 5150SOL    HW127083   2.667   4.258   3.823  0.2814  0.7970 -0.2138
 5150SOL    HW227084   2.786   4.175   3.813  0.5722  0.4423 -0.2150
 5151SOL     OW27085   3.291   2.090  12.304 -0.2861  0.3105  0.1687
 5151SOL    HW127086   3.211   2.073  12.353 -0.5827 -0.5618 -0.6067
 5151SOL    HW227087   3.359   2.052  12.360  1.3340  0.8177 -1.4522
 5152SOL     OW27088   4.494   1.110   4.710 -0.2132  0.3923 -0.0993
 5152SOL    HW127089   4.470   1.187   4.658  2.4684  1.5565  0.3605
 5152SOL    HW227090   4.553   1.056   4.658 -0.0783  0.0318  0.4313
 5153SOL     OW27091   2.002   3.382  11.110 -0.2915  0.3799  0.3770
 5153SOL    HW127092   1.945   3.390  11.033  1.0136  0.3939 -0.5894
 5153SOL    HW227093   2.020   3.288  11.105  1.6122  0.8519 -1.5513
 5154SOL     OW27094   1.136   1.124   2.624  0.3470 -0.0516 -0.1361
 5154SOL    HW127095   1.057   1.070   2.622 -0.7535  1.4074  3.5321
 5154SOL    HW227096   1.197   1.062   2.585  0.9019  0.2720  0.2127
 5155SOL     OW27097   1.071   2.763   6.858 -0.1288 -0.4824 -0.2228
 5155SOL    HW127098   1.019   2.684   6.873  1.0861 -1.4416 -1.1032
 5155SOL    HW227099   1.111   2.774   6.944 -1.4774  2.7358  0.0155
 5156SOL     OW27100   3.211   4.105   5.896 -0.5954  0.1969 -0.1488
 5156SOL    HW127101   3.162   4.070   5.970 -1.9833  0.8056 -0.7860
 5156SOL    HW227102   3.244   4.022   5.862 -1.8864  0.3112 -1.6939
 5157SOL     OW27103   3.242   0.968   0.827  0.1710  0.1857 -0.7022
 5157SOL    HW127104   3.163   0.963   0.774 -0.5168 -0.8466  0.4266
 5157SOL    HW227105   3.248   1.063   0.826  1.4561  0.0868 -2.9115
 5158SOL     OW27106   4.719   1.144   4.085 -0.5475  0.2405 -0.1378
 5158SOL    HW127107   0.034   1.223   4.098  1.9899 -1.4123 -0.3652
 5158SOL    HW227108   4.641   1.165   4.136 -1.2330 -1.3402 -0.5313
 5159SOL     OW27109   2.762   1.324   3.332 -0.4067  0.1089 -0.2751
 5159SOL    HW127110   2.780   1.349   3.241  0.2040  1.6155  0.2599
 5159SOL    HW227111   2.667   1.313   3.335 -0.2347 -1.6141 -0.8215
 5160SOL     OW27112   3.041   3.343   6.593 -0.3284  0.3798 -0.4463
 5160SOL    HW127113   3.089   3.260   6.587  0.1157  0.5357  0.9596
 5160SOL    HW227114   3.038   3.355   6.688 -2.1496 -0.0933 -0.4428
 5161SOL     OW27115   0.814   1.656   5.041 -0.9576 -0.0129  0.7936
 5161SOL    HW127116   0.814   1.687   5.132  0.9946 -1.5262  1.3046
 5161SOL    HW227117   0.865   1.575   5.044 -0.5507  0.1855 -1.0770
 5162SOL     OW27118   4.006   3.148   9.100 -0.1688  0.0409  0.3815
 5162SOL    HW127119   3.945   3.107   9.162 -2.5136  1.6097 -0.8869
 5162SOL    HW227120   3.946   3.145   9.025  0.1980 -0.3041  0.1029
 5163SOL     OW27121   2.451   0.969   1.443  0.1686 -0.7316  0.2456
 5163SOL    HW127122   2.370   1.012   1.415  0.0395 -1.2034 -0.1234
 5163SOL    HW227123   2.447   0.979   1.538  0.7874 -0.2807  0.2186
 5164SOL     OW27124   4.451   0.828   6.980  0.1855  0.1676 -0.2577
 5164SOL    HW127125   4.423   0.873   7.059  0.7935  1.7746 -0.9418
 5164SOL    HW227126   4.370   0.790   6.946 -1.0035  0.7399  1.9696
 5165SOL     OW27127   1.863   2.870   9.990 -0.1948 -0.0974 -0.2494
 5165SOL    HW127128   1.905   2.798   9.943 -1.0445  0.1764 -1.4314
 5165SOL    HW227129   1.880   2.951   9.943  0.4511 -0.1388 -0.0910
 5166SOL     OW27130   4.426   0.237  13.463 -0.9283  0.2016 -0.1436
 5166SOL    HW127131   4.356   0.291  13.428  0.9377  1.6025 -1.6856
 5166SOL    HW227132   4.405   0.159  13.410  1.8652 -0.1852 -0.6783
 5167SOL     OW27133   3.338   1.181  14.122 -0.1457 -0.3274 -0.4041
 5167SOL    HW127134   3.289   1.258  14.094  1.8362  1.3108  0.5788
 5167SOL    HW227135   3.279   1.142  14.187  0.9524  0.4431  1.0568
 5168SOL     OW27136   1.176   4.539  17.040  0.4649 -0.0479  0.0491
 5168SOL    HW127137   1.083   4.555  17.053  0.5042 -0.0150  0.2787
 5168SOL    HW227138   1.209   4.592  17.113 -1.0505  0.5187  0.3084
 5169SOL     OW27139   2.032   0.334   6.724  0.3333  0.5487  0.8986
 5169SOL    HW127140   2.076   0.412   6.691 -1.0055  1.2267  0.6910
 5169SOL    HW227141   1.978   0.314   6.648  2.1617 -0.3474 -0.1652
 5170SOL     OW27142   3.889   3.890  16.513 -0.3447  0.1822 -0.0154
 5170SOL    HW127143   3.911   3.981  16.531 -3.6141  1.3905 -2.0206
 5170SOL    HW227144   3.932   3.886  16.428 -0.8241  1.2169 -0.3017
 5171SOL     OW27145   1.225   1.912  10.169 -0.0139 -0.1996 -0.1636
 5171SOL    HW127146   1.303   1.951  10.131  0.2807 -1.7388 -1.1527
 5171SOL    HW227147   1.162   1.928  10.099  0.7818  1.2980 -0.5278
 5172SOL     OW27148   0.966   4.677   5.109 -0.2587  0.0601 -0.3604
 5172SOL    HW127149   0.960   4.711   5.020 -2.4686 -0.7648 -0.5328
 5172SOL    HW227150   0.901   4.606   5.112  0.6482 -0.7227  0.4354
 5173SOL     OW27151   0.294   1.759   3.231 -0.0104 -0.2539 -0.1486
 5173SOL    HW127152   0.236   1.835   3.227  0.7120  0.3452  0.9177
 5173SOL    HW227153   0.245   1.677   3.243 -0.0280  0.1521  2.4511
 5174SOL     OW27154   1.434   4.620  17.727  0.0613  0.1809  0.1110
 5174SOL    HW127155   1.446   4.542   0.034  0.2383  0.7093  0.8387
 5174SOL    HW227156   1.523   4.653  17.720  0.7367 -1.7747 -0.5663
 5175SOL     OW27157   0.366   1.073  14.397  0.6003 -0.2628  0.2305
 5175SOL    HW127158   0.325   0.986  14.403  1.8413 -0.7877  1.1833
 5175SOL    HW227159   0.317   1.104  14.321  0.1091  0.3380  0.7876
 5176SOL     OW27160   1.510   2.472  14.143  0.3260 -0.9251  0.0491
 5176SOL    HW127161   1.514   2.444  14.234  0.4680 -1.1798 -0.0347
 5176SOL    HW227162   1.441   2.413  14.113 -0.3718  0.1942 -0.5572
 5177SOL     OW27163   1.309   1.314   0.034 -0.1203  0.2123 -0.4179
 5177SOL    HW127164   1.297   1.237   0.089 -1.2467 -1.1932 -2.6341
 5177SOL    HW227165   1.398   1.317  17.744  0.3611  3.0692  1.0029
 5178SOL     OW27166   3.311   1.122  16.378  0.5506  0.3160 -0.0809
 5178SOL    HW127167   3.280   1.212  16.370 -0.0893  0.1892  0.9883
 5178SOL    HW227168   3.393   1.138  16.424  0.4469  0.7859 -0.0595
 5179SOL     OW27169   2.625   3.449   8.957 -0.0607 -0.3234  0.0805
 5179SOL    HW127170   2.565   3.457   9.030 -0.4451 -0.8581 -0.1810
 5179SOL    HW227171   2.706   3.470   9.005 -0.4723 -1.1893  1.1331
 5180SOL     OW27172   2.477   3.860   3.821 -0.6414 -0.3028  0.5245
 5180SOL    HW127173   2.417   3.922   3.780 -0.2286 -0.0041  0.3624
 5180SOL    HW227174   2.421   3.783   3.828  0.4383 -0.9830  1.7135
 5181SOL     OW27175   3.395   1.568   4.649 -0.2668  0.0896  0.5606
 5181SOL    HW127176   3.468   1.574   4.710  0.8497  3.5724 -1.1338
 5181SOL    HW227177   3.444   1.556   4.567 -0.4984 -0.3726  0.4897
 5182SOL     OW27178   1.179   1.097   9.473 -0.3903 -0.4096 -0.0055
 5182SOL    HW127179   1.274   1.103   9.458 -0.2840  0.8618  1.1988
 5182SOL    HW227180   1.156   1.008   9.447 -0.7812 -0.1231 -0.6486
 5183SOL     OW27181   1.322   4.199  12.473  0.6413  0.1472  0.0546
 5183SOL    HW127182   1.262   4.242  12.534 -0.7551 -1.3080 -0.2933
 5183SOL    HW227183   1.408   4.202  12.514  0.0559 -2.0472  1.4370
 5184SOL     OW27184   2.243   1.459   7.944  0.4317  0.0045 -0.1219
 5184SOL    HW127185   2.310   1.523   7.924 -0.5032  1.1251  0.3503
 5184SOL    HW227186   2.214   1.420   7.862  1.1981  2.0780 -1.3501
 5185SOL     OW27187   1.772   4.556   5.639  0.2017 -0.2005 -0.2895
 5185SOL    HW127188   1.834   4.521   5.575 -2.0444 -0.7613 -2.1674
 5185SOL    HW227189   1.795   4.648   5.623 -0.0434  0.0747  0.9483
 5186SOL     OW27190   2.657   3.078   7.980  0.4968  0.5637  0.1623
 5186SOL    HW127191   2.681   2.998   7.934 -0.9885  1.3514 -2.0090
 5186SOL    HW227192   2.562   3.077   7.993  0.3109  1.5585 -1.0612
 5187SOL     OW27193   3.840   3.507   5.200  0.4783 -0.1843  0.2369
 5187SOL    HW127194   3.765   3.459   5.164  0.4223 -0.3692  0.5979
 5187SOL    HW227195   3.816   3.507   5.293 -0.6070  3.4969 -0.0409
 5188SOL     OW27196   2.777   2.421  12.552 -0.2132  0.0521  0.1465
 5188SOL    HW127197   2.861   2.455  12.582  1.8291 -2.0555 -3.2216
 5188SOL    HW227198   2.790   2.397  12.460 -1.3701 -0.2365  0.0500
 5189SOL     OW27199   2.225   2.447   1.858  0.4213 -0.0183 -0.2093
 5189SOL    HW127200   2.135   2.425   1.885 -0.0500  0.2364 -1.6021
 5189SOL    HW227201   2.243   2.368   1.807  0.7742 -0.4213  0.5439
 5190SOL     OW27202   0.579   0.850   1.747  0.4372  0.3050  0.3661
 5190SOL    HW127203   0.674   0.835   1.744  0.3282 -0.0568 -0.9918
 5190SOL    HW227204   0.557   0.792   1.820  2.6834 -1.3946 -0.3261
 5191SOL     OW27205   2.166   0.869   5.791 -0.1799  0.9140  0.1930
 5191SOL    HW127206   2.139   0.822   5.870 -2.7266 -0.2481 -1.3829
 5191SOL    HW227207   2.131   0.811   5.724  1.9128  0.5906 -0.6291
 5192SOL     OW27208   3.376   2.447   3.948  0.3611 -0.6359 -0.1900
 5192SOL    HW127209   3.295   2.451   3.897  1.4507 -0.7314 -1.9584
 5192SOL    HW227210   3.376   2.537   3.981 -0.3465 -0.5722 -0.3776
 5193SOL     OW27211   1.985   4.541   6.422 -0.5572 -0.4455 -0.0877
 5193SOL    HW127212   2.050   4.483   6.381 -0.7303 -0.8238  0.1737
 5193SOL    HW227213   1.931   4.471   6.459 -0.6837 -0.6870 -0.7287
 5194SOL     OW27214   1.830   1.237   1.709  0.8119 -0.2920 -0.5495
 5194SOL    HW127215   1.766   1.202   1.771  0.5494  1.0120 -0.0840
 5194SOL    HW227216   1.891   1.293   1.756  0.1735  0.6040 -0.7799
 5195SOL     OW27217   3.452   0.701  17.685 -0.2755 -0.4473 -0.1060
 5195SOL    HW127218   3.372   0.674  17.639 -1.2562  3.1030 -0.5414
 5195SOL    HW227219   3.483   0.776  17.634 -0.1854 -0.3021  0.1644
 5196SOL     OW27220   3.914   1.580   1.624  0.5031 -0.2006 -0.0406
 5196SOL    HW127221   4.000   1.538   1.627  0.1065 -1.0458 -0.5554
 5196SOL    HW227222   3.944   1.652   1.680  0.1804  0.2956 -0.5050
 5197SOL     OW27223   0.131   1.977   4.914  0.3637 -0.4716  0.1844
 5197SOL    HW127224   0.201   1.923   4.952  1.6542  0.7972 -0.3529
 5197SOL    HW227225   0.120   1.928   4.832 -2.5310 -0.0095  0.2954
 5198SOL     OW27226   3.474   2.010   4.804 -0.3846 -0.5518 -0.5205
 5198SOL    HW127227   3.455   1.917   4.792 -1.5221 -0.2000 -1.3610
 5198SOL    HW227228   3.400   2.053   4.762 -0.3146 -0.8232 -0.9179
 5199SOL     OW27229   4.384   3.600   2.834 -0.7942 -0.2934  0.4537
 5199SOL    HW127230   4.418   3.623   2.747 -1.2520 -0.1793  0.3051
 5199SOL    HW227231   4.408   3.508   2.842  0.0412  0.0041  1.2904
 5200SOL     OW27232   0.847   1.930   4.113 -0.4644 -0.6508 -0.1107
 5200SOL    HW127233   0.858   1.895   4.201 -1.7118 -2.4888 -0.6813
 5200SOL    HW227234   0.897   1.871   4.057  1.3944  0.8020  0.0084
 5201SOL     OW27235   1.867   2.253  15.202  0.0388 -0.2724 -0.0090
 5201SOL    HW127236   1.946   2.242  15.255 -0.0155  0.5018  0.2307
 5201SOL    HW227237   1.815   2.186  15.246 -1.2431 -0.3688 -1.6724
 5202SOL     OW27238   0.967   4.232   4.030  0.2574 -0.1495 -0.3456
 5202SOL    HW127239   1.023   4.240   3.953  1.8541 -0.0713  0.8487
 5202SOL    HW227240   1.015   4.180   4.094 -0.1276  1.2874  1.1008
 5203SOL     OW27241   1.113   4.318  13.201  0.5152 -0.5525  0.2045
 5203SOL    HW127242   1.151   4.244  13.247  1.3615 -0.7679 -0.8323
 5203SOL    HW227243   1.019   4.312  13.216  0.3357 -1.6175 -1.3024
 5204SOL     OW27244   4.637   2.922   7.756 -0.0486 -0.3304  0.1869
 5204SOL    HW127245   4.656   2.992   7.817 -0.3942 -0.9551  1.0151
 5204SOL    HW227246   4.723   2.881   7.744  0.9202  1.6941  0.2585
 5205SOL     OW27247   3.126   3.329   3.845 -0.1342 -0.6421 -0.0471
 5205SOL    HW127248   3.149   3.422   3.847 -4.1794  0.3092  3.5360
 5205SOL    HW227249   3.065   3.338   3.773  0.6355 -1.6862 -0.8276
 5206SOL     OW27250   2.133   0.437   2.053 -0.5376  0.3613  0.4443
 5206SOL    HW127251   2.050   0.390   2.057 -0.1562 -0.2479  1.1128
 5206SOL    HW227252   2.136   0.476   2.141 -1.5706  1.8759 -0.1844
 5207SOL     OW27253   0.953   1.481  17.253 -0.1997  0.8798  0.0886
 5207SOL    HW127254   1.046   1.465  17.262 -0.5042 -2.0950 -2.1728
 5207SOL    HW227255   0.916   1.401  17.216  0.1333  0.1372  1.3814
 5208SOL     OW27256   4.325   3.028   8.375 -0.3101 -0.2674  0.1750
 5208SOL    HW127257   4.409   3.000   8.412 -0.1157  1.5169  1.0600
 5208SOL    HW227258   4.273   2.951   8.399 -1.5811  0.1672 -1.1553
 5209SOL     OW27259   1.246   0.651   4.599 -0.4828 -0.6102 -0.7176
 5209SOL    HW127260   1.332   0.625   4.631 -0.4244 -1.3425 -1.4630
 5209SOL    HW227261   1.206   0.677   4.682  2.6435  0.4143  0.4357
 5210SOL     OW27262   3.893   3.494   7.335  0.3691  0.0435 -0.1202
 5210SOL    HW127263   3.904   3.525   7.245  0.1868 -1.0222 -0.5106
 5210SOL    HW227264   3.836   3.567   7.358  0.2129 -0.7079  1.8405
 5211SOL     OW27265   3.867   2.123  10.338  0.4350  0.0381 -0.1673
 5211SOL    HW127266   3.890   2.115  10.431  1.4673  1.9054 -0.2700
 5211SOL    HW227267   3.802   2.192  10.353 -0.4910 -0.5654 -1.4430
 5212SOL     OW27268   3.058   1.264   5.947 -0.1088 -0.8525 -0.8364
 5212SOL    HW127269   2.974   1.219   5.937 -1.4807  1.5800 -0.5608
 5212SOL    HW227270   3.055   1.318   6.027 -1.0494 -0.5847 -1.0442
 5213SOL     OW27271   3.639   0.944  16.406 -0.6819 -0.9120 -0.1428
 5213SOL    HW127272   3.645   1.000  16.329  0.4304 -0.8476 -0.0106
 5213SOL    HW227273   3.669   1.003  16.475  0.0756 -2.1164  0.5653
 5214SOL     OW27274   1.981   0.210  10.150  0.1167  0.2330 -0.0951
 5214SOL    HW127275   2.071   0.194  10.177  0.6931 -0.9739 -2.6529
 5214SOL    HW227276   2.000   0.263  10.072 -0.2126 -0.1806 -0.4620
 5215SOL     OW27277   4.415   2.858   6.396 -0.2944 -0.3622 -0.0410
 5215SOL    HW127278   4.430   2.895   6.309  0.1551  1.3249  0.7392
 5215SOL    HW227279   4.320   2.849   6.395 -0.2792 -0.0863 -2.7799
 5216SOL     OW27280   4.298   0.954   2.137  0.7751 -0.3492 -0.3394
 5216SOL    HW127281   4.290   0.960   2.042 -1.4911 -4.0361 -0.3888
 5216SOL    HW227282   4.380   0.905   2.130  0.1590 -1.6781  1.8768
 5217SOL     OW27283   3.071   0.649   8.746  0.2005  0.2240  0.1493
 5217SOL    HW127284   3.090   0.714   8.813  3.0878  0.7099 -1.1718
 5217SOL    HW227285   3.163   0.630   8.728 -0.0243 -1.1469  0.4904
 5218SOL     OW27286   4.645   3.957  15.351 -0.0710  0.1617  0.4622
 5218SOL    HW127287   4.596   3.976  15.431 -0.1642  1.1986  0.1559
 5218SOL    HW227288   4.736   3.983  15.368  0.3542  0.5554 -2.5518
 5219SOL     OW27289   0.373   1.444   8.276 -0.6411 -0.5428 -0.1934
 5219SOL    HW127290   0.385   1.356   8.312 -2.0219 -1.2198 -1.4261
 5219SOL    HW227291   0.356   1.491   8.358 -2.3577  1.5984 -1.7730
 5220SOL     OW27292   4.492   2.714   7.485 -0.2970  0.1348  0.0795
 5220SOL    HW127293   4.525   2.726   7.574  0.9218 -0.9233 -0.2356
 5220SOL    HW227294   4.420   2.777   7.483 -0.0288  0.3837 -1.3025
 5221SOL     OW27295   4.180   3.018  12.151  0.3431 -0.3258 -0.5484
 5221SOL    HW127296   4.254   3.078  12.144  0.6288 -0.8486 -1.9041
 5221SOL    HW227297   4.220   2.938  12.118 -4.3381 -2.2161 -1.6581
 5222SOL     OW27298   4.270   2.588   4.121  0.4400 -0.5213 -0.5194
 5222SOL    HW127299   4.255   2.511   4.177 -1.3913  0.4959  0.3700
 5222SOL    HW227300   4.206   2.650   4.154  1.4876 -0.7324  1.9254
 5223SOL     OW27301   0.250   0.987  12.217  0.3279 -0.0643 -0.5331
 5223SOL    HW127302   0.326   0.935  12.193  0.4113 -0.1717 -0.0510
 5223SOL    HW227303   0.283   1.059  12.164 -0.9662 -1.4496 -3.2533
 5224SOL     OW27304   1.069   1.430   7.191  0.1373 -0.8046  0.1061
 5224SOL    HW127305   1.086   1.501   7.129 -1.9155  0.1877  0.7023
 5224SOL    HW227306   1.154   1.397   7.220  0.2245 -0.1448  0.6331
 5225SOL     OW27307   1.507   2.530   5.815 -0.4024 -0.1917  0.2091
 5225SOL    HW127308   1.424   2.530   5.768  0.8556 -2.5345 -2.0167
 5225SOL    HW227309   1.551   2.585   5.751  0.2412 -0.8496  0.0839
 5226SOL     OW27310   1.667   4.422   8.701  0.1710  0.2231  0.0407
 5226SOL    HW127311   1.637   4.454   8.616 -1.1362  1.0041  0.8015
 5226SOL    HW227312   1.762   4.416   8.685  0.0988 -2.9796  0.6986
 5227SOL     OW27313   4.271   1.079  15.855 -0.7166  0.3286 -0.8529
 5227SOL    HW127314   4.236   1.165  15.834  1.8418  1.2003 -1.5001
 5227SOL    HW227315   4.352   1.104  15.899 -1.1078  0.2742 -0.1072
 5228SOL     OW27316   3.990   3.001   3.311  0.4531  0.2383 -0.6609
 5228SOL    HW127317   4.024   2.925   3.357 -2.0410  0.7298  1.9968
 5228SOL    HW227318   3.973   2.961   3.226  1.8968  2.3674 -1.9694
 5229SOL     OW27319   1.590   0.072   2.470 -0.2484  0.5286 -0.0173
 5229SOL    HW127320   1.622   0.086   2.382  0.7002 -1.6095 -0.0130
 5229SOL    HW227321   1.508   0.032   2.440  0.3656 -1.7971  1.4384
 5230SOL     OW27322   3.517   0.665  10.570 -0.2647 -0.1100 -0.4494
 5230SOL    HW127323   3.552   0.581  10.598 -2.7462  0.0217  3.0326
 5230SOL    HW227324   3.596   0.718  10.583 -0.1176 -0.3249 -0.4729
 5231SOL     OW27325   0.476   0.343   2.604  0.0879 -0.2307 -0.3446
 5231SOL    HW127326   0.484   0.326   2.698 -1.7717 -0.6686 -0.2712
 5231SOL    HW227327   0.387   0.372   2.584  0.0812 -0.5889 -0.8261
 5232SOL     OW27328   0.021   2.767   6.117 -0.1156 -0.4330  0.6807
 5232SOL    HW127329   0.112   2.794   6.113 -0.7233  1.5735  0.5419
 5232SOL    HW227330   4.722   2.844   6.160 -0.7279  0.1560 -0.8970
 5233SOL     OW27331   4.668   0.725  11.111  0.1717  0.7123 -0.1504
 5233SOL    HW127332   4.597   0.665  11.135  1.2308 -0.0840  0.9416
 5233SOL    HW227333   4.656   0.711  11.017 -0.4356 -0.6774  0.1364
 5234SOL     OW27334   1.801   0.555   2.279  0.0362 -0.1611 -0.0017
 5234SOL    HW127335   1.826   0.470   2.242  0.6633  0.7642 -1.6966
 5234SOL    HW227336   1.755   0.599   2.208  0.2266  1.7651  1.0682
 5235SOL     OW27337   0.421   2.070  13.750  0.4023 -0.0351  0.1911
 5235SOL    HW127338   0.353   2.128  13.786  0.1405 -0.9489  1.1846
 5235SOL    HW227339   0.419   2.082  13.655 -2.3926 -1.3602  0.0636
 5236SOL     OW27340   1.069   2.706  16.263 -0.9264 -0.3532  0.7738
 5236SOL    HW127341   1.025   2.753  16.334 -0.2058  0.9360  0.3701
 5236SOL    HW227342   0.996   2.657  16.225 -2.3523  2.3668  0.0347
 5237SOL     OW27343   4.192   4.686  14.248  0.6790 -0.1830  0.1254
 5237SOL    HW127344   4.268   4.733  14.283 -0.0137 -0.8973  2.5898
 5237SOL    HW227345   4.239   4.608  14.217  0.6361 -0.0631 -0.2449
 5238SOL     OW27346   3.049   0.506   1.253  0.2223  0.3747  0.1914
 5238SOL    HW127347   3.085   0.443   1.316 -0.6036 -1.5689 -1.2926
 5238SOL    HW227348   2.978   0.456   1.213 -0.4352 -0.6370  2.6020
 5239SOL     OW27349   1.948   0.575   8.950 -0.0544 -0.4804 -0.1689
 5239SOL    HW127350   1.971   0.653   8.900  0.3605 -1.2530 -1.1991
 5239SOL    HW227351   1.853   0.584   8.944 -0.1694 -2.3995 -1.3760
 5240SOL     OW27352   3.853   0.401   5.669  0.2999 -0.2522 -0.1401
 5240SOL    HW127353   3.896   0.335   5.723  1.4169  1.2441  0.8230
 5240SOL    HW227354   3.881   0.480   5.716 -0.1692  0.5408 -1.2140
 5241SOL     OW27355   4.321   1.148   7.317  0.1651  0.0398  0.0231
 5241SOL    HW127356   4.243   1.172   7.367  1.5476  0.9073  1.7755
 5241SOL    HW227357   4.394   1.130   7.377 -1.1085 -1.5987  1.0680
 5242SOL     OW27358   3.047   3.893  13.524 -0.1167  0.4870 -0.3106
 5242SOL    HW127359   3.058   3.958  13.594 -0.8226 -0.1683  0.4154
 5242SOL    HW227360   3.101   3.935  13.458 -0.0733 -0.1758 -0.6946
 5243SOL     OW27361   0.485   0.397   7.695 -0.0579  0.4284  0.0625
 5243SOL    HW127362   0.431   0.318   7.693  1.2163 -0.5043  2.4390
 5243SOL    HW227363   0.563   0.375   7.644 -0.3240  0.4538 -0.3482
 5244SOL     OW27364   4.106   1.761   4.081  0.3580  0.0844 -0.1056
 5244SOL    HW127365   4.140   1.809   4.005 -0.8426  0.8323 -0.1695
 5244SOL    HW227366   4.014   1.787   4.082  0.9009  1.9573  1.6182
 5245SOL     OW27367   1.150   2.613  17.307  0.5301  0.4126 -0.1287
 5245SOL    HW127368   1.141   2.709  17.310  3.0028  0.6511 -0.5941
 5245SOL    HW227369   1.068   2.591  17.263  1.8180 -1.7789 -1.4005
 5246SOL     OW27370   3.716   3.401   8.282 -0.3539  0.4077  0.1347
 5246SOL    HW127371   3.744   3.386   8.192  2.4805  1.7661  0.7986
 5246SOL    HW227372   3.748   3.323   8.326 -0.3399  1.2791  1.7049
 5247SOL     OW27373   0.758   0.577   9.380 -0.1379  0.3813 -0.9070
 5247SOL    HW127374   0.834   0.618   9.338  0.1394 -0.2518 -1.0214
 5247SOL    HW227375   0.778   0.484   9.366 -1.0338  0.3466 -1.9803
 5248SOL     OW27376   1.196   3.389   8.343  0.4943 -0.1219 -0.3403
 5248SOL    HW127377   1.229   3.341   8.420 -0.3238  0.3788  0.3161
 5248SOL    HW227378   1.282   3.419   8.314 -1.2881  0.8377 -4.6998
 5249SOL     OW27379   4.053   3.038   4.907  0.2873  0.3155 -0.4199
 5249SOL    HW127380   3.961   3.028   4.883  0.6476  0.8741 -2.0531
 5249SOL    HW227381   4.047   3.128   4.939  0.1032  0.6205 -1.3021
 5250SOL     OW27382   4.438   1.654   8.811  0.0454 -0.0754 -0.4616
 5250SOL    HW127383   4.433   1.658   8.906  2.0455  0.1826 -0.3765
 5250SOL    HW227384   4.347   1.628   8.793  0.5013 -0.7492 -1.8182
 5251SOL     OW27385   0.236   3.631   2.227 -0.0860 -0.7285  0.0758
 5251SOL    HW127386   0.226   3.712   2.277 -2.2409 -0.7110 -0.3693
 5251SOL    HW227387   0.165   3.575   2.258 -1.3194 -0.1178 -1.6731
 5252SOL     OW27388   0.852   3.704   8.440  0.2488 -0.0761 -0.1759
 5252SOL    HW127389   0.835   3.679   8.349 -0.5891  0.5204 -0.1749
 5252SOL    HW227390   0.767   3.745   8.453 -0.5148 -1.2299 -1.4686
 5253SOL     OW27391   3.700   2.577   7.952  0.2625 -0.2127  0.7361
 5253SOL    HW127392   3.706   2.612   8.041 -0.7404  0.5432  0.4976
 5253SOL    HW227393   3.714   2.485   7.974 -0.3016 -0.5909 -0.5392
 5254SOL     OW27394   3.733   2.539   4.258 -0.1422 -0.4868  0.1423
 5254SOL    HW127395   3.733   2.528   4.353  0.0989  1.1607  0.3245
 5254SOL    HW227396   3.643   2.561   4.234  0.4682  0.5064 -1.2305
 5255SOL     OW27397   0.998   4.366   0.302  0.4314  0.3079  0.1278
 5255SOL    HW127398   1.002   4.430   0.231 -0.0478 -0.4720 -0.5934
 5255SOL    HW227399   0.918   4.388   0.348  1.2570  0.0499  1.6820
 5256SOL     OW27400   4.246   2.581   1.126 -0.3568  0.0700 -0.1295
 5256SOL    HW127401   4.336   2.552   1.144 -0.7716 -0.3669  1.2020
 5256SOL    HW227402   4.210   2.578   1.214  0.9885 -0.0867  0.4138
 5257SOL     OW27403   1.445   1.479  14.811  0.2681 -0.1947  0.1822
 5257SOL    HW127404   1.447   1.470  14.716  1.6494 -1.1782  0.2999
 5257SOL    HW227405   1.529   1.520  14.829  2.6478 -4.3078 -1.7167
 5258SOL     OW27406   0.084   4.155   7.418  0.1215 -0.4272 -0.0384
 5258SOL    HW127407   0.030   4.112   7.485 -0.9344  0.2286 -0.4832
 5258SOL    HW227408   0.024   4.206   7.364 -0.7657 -0.1581  1.1906
 5259SOL     OW27409   3.223   1.516  17.382 -0.1305  0.1159  0.1477
 5259SOL    HW127410   3.152   1.576  17.403  1.0513  0.7815  2.2665
 5259SOL    HW227411   3.184   1.461  17.314  1.0790 -0.8742  0.2671
 5260SOL     OW27412   1.567   0.104   2.745 -0.3921  0.1643  0.0562
 5260SOL    HW127413   1.653   0.137   2.769 -0.4340 -1.2876  2.1880
 5260SOL    HW227414   1.579   0.097   2.650  1.7743 -1.9501  0.4922
 5261SOL     OW27415   3.990   1.870   4.587 -0.4634  0.3554 -0.8039
 5261SOL    HW127416   3.909   1.882   4.636 -0.4113  0.2020 -0.6808
 5261SOL    HW227417   4.042   1.950   4.593 -2.2210  1.3358  1.2162
 5262SOL     OW27418   4.423   1.368  15.519  0.4578 -0.3532  0.1881
 5262SOL    HW127419   4.476   1.322  15.453  0.1964  1.2285 -1.1151
 5262SOL    HW227420   4.343   1.370  15.466  0.1808 -0.5774  0.5975
 5263SOL     OW27421   3.305   1.836   8.228 -0.1985 -0.6592  0.0038
 5263SOL    HW127422   3.238   1.789   8.278 -0.2647  0.3094  0.8400
 5263SOL    HW227423   3.269   1.808   8.144 -0.3468  0.2163 -0.2200
 5264SOL     OW27424   2.024   3.487   9.311  0.3108  0.3927  0.0594
 5264SOL    HW127425   2.082   3.454   9.242  1.4193 -0.1656  1.2618
 5264SOL    HW227426   2.080   3.477   9.388 -0.1725  1.9157  0.6103
 5265SOL     OW27427   1.886   0.226  13.501 -0.3736  0.0917 -0.7989
 5265SOL    HW127428   1.958   0.169  13.531 -0.3645  0.2997 -0.4191
 5265SOL    HW227429   1.925   0.313  13.515  1.0087 -0.5685 -0.5278
 5266SOL     OW27430   4.535   2.595   6.126  0.2565  0.0648 -0.0731
 5266SOL    HW127431   4.621   2.636   6.120  0.3566 -0.0946  0.3085
 5266SOL    HW227432   4.546   2.550   6.210  0.3043  0.3193  0.0553
 5267SOL     OW27433   0.345   4.445   3.865 -0.3712 -0.4762  0.4296
 5267SOL    HW127434   0.400   4.416   3.937  1.4219 -0.8784 -1.0962
 5267SOL    HW227435   0.268   4.388   3.869 -0.9463  0.2012 -0.8683
 5268SOL     OW27436   2.817   4.647   2.493 -0.4302  0.3491 -0.2833
 5268SOL    HW127437   2.745   4.685   2.444 -0.2866  1.5881  0.4671
 5268SOL    HW227438   2.851   4.586   2.427  1.2393  1.8786 -0.8402
 5269SOL     OW27439   4.100   0.120  13.999  0.6285  0.3215  0.5966
 5269SOL    HW127440   4.085   0.080  14.085  0.5179 -1.3678 -0.2091
 5269SOL    HW227441   4.193   0.141  13.999  0.8666 -0.7212  0.0059
 5270SOL     OW27442   2.615   0.991  16.303  0.4602 -0.2663  0.7323
 5270SOL    HW127443   2.621   1.086  16.299 -2.8368 -0.0287  1.4789
 5270SOL    HW227444   2.552   0.988  16.375 -1.2098  0.0534 -0.7115
 5271SOL     OW27445   0.580   4.463   3.215 -1.0845 -0.3530 -0.0041
 5271SOL    HW127446   0.654   4.482   3.272 -0.7000  0.5746 -0.7994
 5271SOL    HW227447   0.562   4.370   3.229  0.1766 -0.4394  1.0206
 5272SOL     OW27448   4.486   2.981   3.427  0.1068 -0.2242  0.4177
 5272SOL    HW127449   4.515   2.916   3.363  0.2891  1.4786 -1.2315
 5272SOL    HW227450   4.417   3.034   3.389  2.2594  2.5837  0.4225
 5273SOL     OW27451   4.520   3.583  17.203  0.5211  0.2433  0.5345
 5273SOL    HW127452   4.503   3.489  17.211  1.9249 -0.0575  0.0624
 5273SOL    HW227453   4.446   3.612  17.257 -0.2106  0.0861 -0.3885
 5274SOL     OW27454   2.129   4.167   9.777 -0.9280 -0.2643  0.4901
 5274SOL    HW127455   2.080   4.125   9.848 -2.7506  0.6336 -0.2540
 5274SOL    HW227456   2.171   4.089   9.741  1.2905  1.1435  0.0450
 5275SOL     OW27457   0.964   1.325   6.798  0.2537 -0.7592 -0.1700
 5275SOL    HW127458   1.026   1.369   6.740 -0.5219  0.1937 -0.2785
 5275SOL    HW227459   0.895   1.311   6.733  0.6470  1.5792 -1.0902
 5276SOL     OW27460   1.820   3.091   5.301  0.6115 -0.2808 -0.0603
 5276SOL    HW127461   1.818   2.997   5.283 -0.2603 -0.5230  1.2400
 5276SOL    HW227462   1.900   3.120   5.257 -1.1232 -0.0417 -3.0099
 5277SOL     OW27463   3.113   0.155   9.290  0.4589 -0.3251 -0.1741
 5277SOL    HW127464   3.131   0.085   9.228  2.3848 -1.1134  1.2838
 5277SOL    HW227465   3.199   0.180   9.325 -0.3659  0.0963  1.6023
 5278SOL     OW27466   4.536   0.790   1.062  0.2773 -0.3521 -0.0118
 5278SOL    HW127467   4.518   0.820   1.151  0.7877 -2.3921  0.7678
 5278SOL    HW227468   4.631   0.789   1.069  0.1783 -2.2037  1.0809
 5279SOL     OW27469   2.473   3.052  16.441 -0.3363 -0.5835 -0.3620
 5279SOL    HW127470   2.505   3.069  16.530  0.5221 -1.1968 -0.5493
 5279SOL    HW227471   2.513   2.969  16.415  2.5006  0.3288  1.0027
 5280SOL     OW27472   2.373   3.132   8.625  0.5536  0.1156 -0.2834
 5280SOL    HW127473   2.291   3.114   8.578  0.1583  0.3141  0.3274
 5280SOL    HW227474   2.375   3.227   8.630  0.3693  0.0450  1.1443
 5281SOL     OW27475   0.772   3.844   4.505  0.3274 -0.4190  0.2513
 5281SOL    HW127476   0.849   3.802   4.543 -0.3450 -0.5876  1.4125
 5281SOL    HW227477   0.694   3.803   4.542 -1.1020  0.1283 -2.1384
 5282SOL     OW27478   1.784   3.041   7.142  0.0764 -0.3047 -0.2858
 5282SOL    HW127479   1.792   2.978   7.070  0.2638 -2.1801  1.3823
 5282SOL    HW227480   1.875   3.051   7.170 -0.7843  1.8618  1.6745
 5283SOL     OW27481   0.170   3.362  15.729 -0.1676  0.1214  0.0144
 5283SOL    HW127482   0.180   3.413  15.809 -0.0164 -0.6942  0.5088
 5283SOL    HW227483   0.216   3.425  15.673  0.0038 -0.1626 -0.1661
 5284SOL     OW27484   0.158   2.657   3.049 -0.1054 -0.6978 -0.3151
 5284SOL    HW127485   0.131   2.579   3.097 -0.5995  0.1678  0.8081
 5284SOL    HW227486   0.107   2.726   3.092 -0.0141  0.3188 -1.8238
 5285SOL     OW27487   1.850   0.988   5.828  0.1056 -0.5956 -0.0781
 5285SOL    HW127488   1.788   0.925   5.789  2.5555 -2.3493 -1.1521
 5285SOL    HW227489   1.898   1.036   5.761 -1.6318  1.7202  0.3572
 5286SOL     OW27490   0.069   3.308   6.736  0.2266  0.8919  0.1545
 5286SOL    HW127491   0.009   3.347   6.672 -2.0647 -0.8399  1.2552
 5286SOL    HW227492   0.016   3.312   6.816  2.9866  0.3222  2.0215
 5287SOL     OW27493   3.263   4.270   0.681  0.2511 -0.0423  0.1163
 5287SOL    HW127494   3.289   4.320   0.603  3.3586 -0.1675  1.0449
 5287SOL    HW227495   3.175   4.307   0.683 -0.3007 -1.2485 -1.7082
 5288SOL     OW27496   0.025   2.668   7.927 -0.2840 -0.2961 -0.2006
 5288SOL    HW127497   4.699   2.596   7.930 -0.5378  0.0143  1.8713
 5288SOL    HW227498   0.067   2.664   8.013  0.9149 -3.1490 -0.9184
 5289SOL     OW27499   2.807   2.053   5.138  0.1560 -0.0521  0.4937
 5289SOL    HW127500   2.824   2.044   5.232  0.7391  2.0059  0.5865
 5289SOL    HW227501   2.816   1.961   5.113 -2.3917 -0.2465  0.2826
 5290SOL     OW27502   2.660   2.668  12.272 -0.0490  0.1130  0.2544
 5290SOL    HW127503   2.649   2.577  12.246 -1.4991 -0.0427  1.4150
 5290SOL    HW227504   2.745   2.690  12.235  0.2508 -1.9188 -0.2223
 5291SOL     OW27505   4.207   4.243   3.737 -0.3657  0.2276  0.2220
 5291SOL    HW127506   4.245   4.209   3.656  1.4148 -0.7411  1.4813
 5291SOL    HW227507   4.144   4.174   3.760  0.2100 -0.2430  0.3863
 5292SOL     OW27508   0.344   0.384  14.967 -0.1480  0.5475  0.3465
 5292SOL    HW127509   0.348   0.443  14.892 -0.4014  0.8386  0.5598
 5292SOL    HW227510   0.250   0.365  14.972 -0.1559 -0.0001 -1.6572
 5293SOL     OW27511   4.322   1.631   4.733 -0.1451  0.5420  0.2475
 5293SOL    HW127512   4.346   1.608   4.823  0.8178 -1.5875 -0.5396
 5293SOL    HW227513   4.309   1.549   4.684 -1.0463  1.0265 -0.3219
 5294SOL     OW27514   0.689   1.786   6.938 -0.2564 -0.7390  0.2513
 5294SOL    HW127515   0.626   1.852   6.909  1.5827 -0.5328 -3.1865
 5294SOL    HW227516   0.637   1.749   7.010 -0.6708  2.2204  1.4565
 5295SOL     OW27517   0.092   3.749   1.979  0.3627  0.3025 -0.2938
 5295SOL    HW127518   0.013   3.803   1.983 -0.2865 -0.8310  1.8060
 5295SOL    HW227519   0.071   3.681   2.043  1.2207  0.7425  0.4467
 5296SOL     OW27520   3.444   3.257   5.730 -0.1284 -0.4012 -0.0757
 5296SOL    HW127521   3.471   3.333   5.679 -1.3114 -0.5134 -0.8789
 5296SOL    HW227522   3.460   3.182   5.672  0.4264  0.0615 -0.5074
 5297SOL     OW27523   0.035   3.266   7.690 -0.6152 -1.0025 -0.2284
 5297SOL    HW127524   4.710   3.338   7.703  0.1784 -0.3264 -0.1690
 5297SOL    HW227525   0.022   3.224   7.775  0.5248 -1.9154 -0.5201
 5298SOL     OW27526   4.368   3.478  13.292  0.4306 -0.0484 -0.2906
 5298SOL    HW127527   4.463   3.477  13.277  0.8219  0.2279  2.1307
 5298SOL    HW227528   4.351   3.387  13.317  1.7511 -0.0780  0.5182
 5299SOL     OW27529   3.899   2.230  16.325  0.3438  0.9656 -0.1794
 5299SOL    HW127530   3.958   2.213  16.251  1.3816 -2.9387  1.5422
 5299SOL    HW227531   3.890   2.325  16.335 -1.8949  0.4242  2.8387
 5300SOL     OW27532   2.809   1.099   8.613 -0.5274  0.1100 -0.4154
 5300SOL    HW127533   2.818   1.008   8.641 -1.0767  0.9004  2.2697
 5300SOL    HW227534   2.725   1.082   8.571  0.8424 -0.2415 -3.0682
 5301SOL     OW27535   2.061   4.370   1.665  0.1494 -0.2327 -0.0706
 5301SOL    HW127536   1.998   4.343   1.732 -0.3501  1.2328  0.0501
 5301SOL    HW227537   2.005   4.382   1.588 -0.3161  1.3923  0.5299
 5302SOL     OW27538   0.439   4.507  16.105  0.0022 -0.2649 -1.0347
 5302SOL    HW127539   0.430   4.578  16.042 -2.4023  2.1605  2.0334
 5302SOL    HW227540   0.346   4.485  16.114  0.1328 -0.3329  0.1703
 5303SOL     OW27541   4.091   0.557   8.400  0.0202 -0.1239  0.4877
 5303SOL    HW127542   4.083   0.504   8.479  2.8103  1.3012  1.7084
 5303SOL    HW227543   4.184   0.560   8.378  0.0108 -0.2867  0.4240
 5304SOL     OW27544   4.273   3.505   6.422 -0.2023 -0.2998 -0.4058
 5304SOL    HW127545   4.326   3.444   6.372 -0.5232 -1.4885  0.7067
 5304SOL    HW227546   4.309   3.504   6.510  0.0949 -2.8240 -0.5767
 5305SOL     OW27547   1.670   2.043   7.709 -0.1396  0.4570  0.4588
 5305SOL    HW127548   1.678   2.096   7.789 -3.0051  0.9436  0.4189
 5305SOL    HW227549   1.744   1.984   7.719  0.0733  0.2875 -2.3210
 5306SOL     OW27550   2.191   3.600   3.216 -0.0055 -0.1482 -0.1234
 5306SOL    HW127551   2.113   3.591   3.162  0.8035 -0.0934 -1.3066
 5306SOL    HW227552   2.176   3.561   3.302 -1.0349 -1.7154 -0.9941
 5307SOL     OW27553   3.173   2.724   4.472 -0.3398 -0.1274 -0.1603
 5307SOL    HW127554   3.161   2.629   4.477 -1.7797  0.1475  1.4557
 5307SOL    HW227555   3.151   2.758   4.559 -1.2843 -0.5969 -0.2097
 5308SOL     OW27556   1.758   1.966   4.066 -0.8900 -0.3887 -0.5230
 5308SOL    HW127557   1.747   1.874   4.039  1.9664  0.0419 -3.1902
 5308SOL    HW227558   1.765   1.959   4.161 -1.5951 -1.1783 -0.5234
 5309SOL     OW27559   1.940   1.427  15.234  0.0147  0.1216 -0.2263
 5309SOL    HW127560   1.926   1.483  15.310 -1.7815 -1.9547  0.9702
 5309SOL    HW227561   2.021   1.465  15.200  1.3662 -2.0475  0.6243
 5310SOL     OW27562   0.541   0.273   6.007 -0.0949 -0.7057  0.5892
 5310SOL    HW127563   0.572   0.317   5.927  1.6747  0.0985  1.7128
 5310SOL    HW227564   0.626   0.265   6.051 -0.4416  1.1222  1.6089
 5311SOL     OW27565   2.077   1.732   9.441 -0.1645 -0.1091 -0.0231
 5311SOL    HW127566   2.114   1.779   9.516  1.0333  0.7366 -1.1336
 5311SOL    HW227567   1.986   1.713   9.464  0.1652 -2.1389 -0.4592
 5312SOL     OW27568   2.387   0.773   3.779  0.4021  0.0789 -0.0163
 5312SOL    HW127569   2.405   0.862   3.748  1.3619 -0.0878  0.0626
 5312SOL    HW227570   2.459   0.767   3.842  0.4027 -3.3918 -0.3403
 5313SOL     OW27571   4.457   2.140   2.980 -0.4301 -0.7955 -0.0416
 5313SOL    HW127572   4.422   2.152   3.068 -1.3114  0.8358 -0.6152
 5313SOL    HW227573   4.504   2.058   2.990  2.6189  1.1166  1.5023
 5314SOL     OW27574   0.088   0.067   7.597  0.1212  0.8163  0.0879
 5314SOL    HW127575   0.051   4.715   7.607  1.3316  0.4981  1.7204
 5314SOL    HW227576   0.029   0.104   7.531 -2.2143  0.1417  1.7610
 5315SOL     OW27577   2.661   0.020   6.139 -0.5040 -0.3046  0.1685
 5315SOL    HW127578   2.653   4.674   6.092  1.3440  0.3436 -1.3265
 5315SOL    HW227579   2.691   0.072   6.064  1.1146  0.8908  1.6516
 5316SOL     OW27580   4.566   3.329  11.872 -0.6913 -0.1849 -0.1648
 5316SOL    HW127581   4.608   3.271  11.935  0.7967  0.9487 -0.0969
 5316SOL    HW227582   4.473   3.312  11.889 -0.6632 -0.5594 -0.4010
 5317SOL     OW27583   4.070   2.751   9.958 -0.0057 -0.3266  0.1273
 5317SOL    HW127584   4.016   2.678   9.989 -1.1766  0.2835 -0.4507
 5317SOL    HW227585   4.138   2.710   9.905 -0.9211 -2.1200  0.3304
 5318SOL     OW27586   1.019   2.381   6.029  0.3093 -0.3883  0.7984
 5318SOL    HW127587   0.937   2.382   6.079 -0.0260  0.7156  0.2377
 5318SOL    HW227588   0.994   2.389   5.937 -0.0917  3.4472  1.2617
 5319SOL     OW27589   4.254   3.281  11.924  0.5579  0.3374 -0.0678
 5319SOL    HW127590   4.168   3.296  11.964  0.3529  1.5797 -0.9609
 5319SOL    HW227591   4.310   3.246  11.993 -2.5381  0.7199  2.6395
 5320SOL     OW27592   1.577   1.946   2.942 -0.5574 -0.0269 -0.1851
 5320SOL    HW127593   1.522   1.874   2.972  1.5527 -0.9385  1.4180
 5320SOL    HW227594   1.657   1.935   2.992 -0.4244  1.7979  0.0030
 5321SOL     OW27595   3.698   3.983   2.172  0.2419 -0.1462 -0.2323
 5321SOL    HW127596   3.717   4.000   2.080  0.4341  0.8774  0.0011
 5321SOL    HW227597   3.777   3.932   2.190  0.0701 -1.0240 -1.9921
 5322SOL     OW27598   4.076   2.631   2.774 -0.2027 -0.3950 -0.0270
 5322SOL    HW127599   3.997   2.584   2.801 -0.2594 -0.6668 -0.6605
 5322SOL    HW227600   4.121   2.556   2.735  1.4097 -0.4293  1.8729
 5323SOL     OW27601   4.604   2.190   4.477 -0.1822  0.3077  0.0442
 5323SOL    HW127602   4.648   2.261   4.430 -1.4793  0.7572 -0.4637
 5323SOL    HW227603   4.614   2.216   4.568  1.3758 -4.2405  1.1711
 5324SOL     OW27604   3.133   4.014  14.526 -0.4626 -0.3096 -0.1165
 5324SOL    HW127605   3.100   3.926  14.512  0.0766 -0.8409  2.0290
 5324SOL    HW227606   3.045   4.051  14.519  0.3182  1.4471 -0.8014
 5325SOL     OW27607   2.579   4.674   7.144 -0.2614 -0.2333 -0.1816
 5325SOL    HW127608   2.528   4.727   7.205 -0.4584  2.8670 -3.0357
 5325SOL    HW227609   2.630   4.620   7.204 -0.3216  1.2844  1.2375
 5326SOL     OW27610   0.028   1.493   5.503 -0.2373  0.1296 -0.4008
 5326SOL    HW127611   0.103   1.474   5.446  0.8637 -1.0540  1.4404
 5326SOL    HW227612   4.691   1.506   5.443 -0.0602 -2.1126 -1.0787
 5327SOL     OW27613   3.570   3.407  11.786  0.2308  0.4054 -0.6353
 5327SOL    HW127614   3.590   3.316  11.764  0.9491  0.6498 -0.9836
 5327SOL    HW227615   3.490   3.413  11.733  0.2564 -2.6900 -1.0168
 5328SOL     OW27616   2.020   4.430   3.097 -0.9993 -0.5427  0.1554
 5328SOL    HW127617   2.081   4.356   3.101 -0.6192 -0.2917 -1.0967
 5328SOL    HW227618   1.939   4.384   3.077 -0.1477 -2.1967  0.5545
 5329SOL     OW27619   3.960   1.444   4.466 -0.1242 -0.0188  0.6554
 5329SOL    HW127620   3.965   1.533   4.431 -1.3873 -0.8747 -1.7217
 5329SOL    HW227621   3.949   1.467   4.558  0.0209 -0.3885  0.7635
 5330SOL     OW27622   3.626   2.283   8.230  0.9461  0.0963  0.8010
 5330SOL    HW127623   3.692   2.307   8.165 -2.3773  0.1197 -2.5903
 5330SOL    HW227624   3.564   2.355   8.213  0.9253 -0.3530 -1.0142
 5331SOL     OW27625   0.969   0.793   6.800  0.1724  0.3471 -0.1383
 5331SOL    HW127626   0.948   0.858   6.867  0.0869  0.1988 -0.0223
 5331SOL    HW227627   1.045   0.839   6.763  0.8570 -0.6891 -0.0020
 5332SOL     OW27628   3.354   3.157   4.925 -0.0911  0.2196 -0.0463
 5332SOL    HW127629   3.342   3.067   4.897  0.4648  0.1423 -0.0223
 5332SOL    HW227630   3.352   3.147   5.021 -1.0786  0.9960  0.0202
 5333SOL     OW27631   3.231   3.482   0.026  0.4435 -0.3235 -0.1619
 5333SOL    HW127632   3.171   3.524   0.088  2.1804  2.2366 -0.2133
 5333SOL    HW227633   3.315   3.526   0.036  0.4593 -0.6364  1.0747
 5334SOL     OW27634   1.262   1.556   3.910 -0.4264  0.2548  0.2801
 5334SOL    HW127635   1.262   1.647   3.940  0.7178 -0.0949  1.3351
 5334SOL    HW227636   1.350   1.520   3.918 -0.3886  0.2947  0.0307
 5335SOL     OW27637   2.170   2.885   4.460  0.2299 -0.3613  0.6670
 5335SOL    HW127638   2.075   2.890   4.450 -0.0709 -2.2370  2.5200
 5335SOL    HW227639   2.212   2.949   4.402 -0.5787 -0.4119  0.0204
 5336SOL     OW27640   3.230   0.430  10.064 -0.0081  0.2047 -0.0241
 5336SOL    HW127641   3.234   0.500  10.129  0.2361  2.2248 -2.2084
 5336SOL    HW227642   3.232   0.357  10.126 -0.4292  0.1959 -0.0199
 5337SOL     OW27643   2.080   3.247   7.767 -0.5046  0.3480 -0.5178
 5337SOL    HW127644   2.006   3.265   7.825 -0.1091 -1.2195  0.4556
 5337SOL    HW227645   2.156   3.241   7.825 -1.6253  0.0527  0.9026
 5338SOL     OW27646   4.612   3.601   2.052 -0.2478  0.6527 -0.7893
 5338SOL    HW127647   4.639   3.530   1.993 -2.7130 -0.1518 -0.9599
 5338SOL    HW227648   4.529   3.629   2.015 -0.5613  0.7117 -0.0389
 5339SOL     OW27649   0.079   1.709  13.172 -0.4582  0.8433 -0.1797
 5339SOL    HW127650   4.727   1.744  13.179 -0.8722  0.5168 -3.8785
 5339SOL    HW227651   0.123   1.763  13.106  1.1189 -1.2127 -0.7942
 5340SOL     OW27652   1.158   0.668   3.035  0.4769  0.1372 -0.0581
 5340SOL    HW127653   1.250   0.672   3.009  0.7885  1.5625  1.2550
 5340SOL    HW227654   1.137   0.578   3.008  0.9427  0.3474 -1.1184
 5341SOL     OW27655   1.034   2.493   7.208  0.4460  0.5908 -0.1005
 5341SOL    HW127656   0.994   2.517   7.292 -1.9311  3.6168 -2.1120
 5341SOL    HW227657   0.971   2.428   7.177 -0.0551  0.9737  0.1158
 5342SOL     OW27658   4.223   2.685  15.718  0.2961  0.4257 -0.2091
 5342SOL    HW127659   4.170   2.736  15.779  0.8356  0.9802 -0.2076
 5342SOL    HW227660   4.161   2.683  15.645  0.0789  0.0272 -0.0180
 5343SOL     OW27661   1.278   2.867   8.898 -0.3617 -0.3164 -0.0049
 5343SOL    HW127662   1.312   2.833   8.980 -0.7176  1.3473  0.8324
 5343SOL    HW227663   1.234   2.943   8.937  1.1949  0.6845 -0.2023
 5344SOL     OW27664   2.150   1.548  13.167  0.4071 -0.8168  0.0371
 5344SOL    HW127665   2.100   1.580  13.092 -2.4085 -1.7026  1.5572
 5344SOL    HW227666   2.083   1.488  13.199 -0.9944  1.4192  1.2927
 5345SOL     OW27667   3.733   1.128   3.862  0.6973 -0.2114  0.0394
 5345SOL    HW127668   3.733   1.144   3.768 -1.4064  0.1776  0.1066
 5345SOL    HW227669   3.745   1.213   3.905 -1.8560  0.0837  0.2121
 5346SOL     OW27670   3.677   4.585  11.441 -0.3469 -0.1445 -0.3435
 5346SOL    HW127671   3.636   4.645  11.379 -1.2903 -0.5825 -0.1455
 5346SOL    HW227672   3.676   4.634  11.524  1.4155 -1.2814  0.3521
 5347SOL     OW27673   1.281   3.971   5.370  0.2502  0.0224  0.0248
 5347SOL    HW127674   1.325   3.907   5.426  0.6961  0.6664  0.4076
 5347SOL    HW227675   1.351   4.000   5.312  0.8301  1.7764  1.5619
 5348SOL     OW27676   2.221   1.487   6.259  0.4141  0.1654  0.1732
 5348SOL    HW127677   2.297   1.438   6.291 -1.0083 -1.5053  0.9561
 5348SOL    HW227678   2.147   1.427   6.260  1.4070 -1.0727 -0.5573
 5349SOL     OW27679   1.286   1.164   9.092 -0.0474 -0.1844 -0.6157
 5349SOL    HW127680   1.381   1.166   9.103  0.3186 -1.1470 -3.4175
 5349SOL    HW227681   1.270   1.076   9.127 -2.7929 -0.1069 -1.6976
 5350SOL     OW27682   4.656   0.987   2.060  0.1392 -0.6109 -0.0640
 5350SOL    HW127683   4.700   0.991   1.975  0.1165  0.5394 -0.0275
 5350SOL    HW227684   4.599   1.065   2.059 -0.5767 -1.1606 -1.9993
 5351SOL     OW27685   1.128   3.402  17.032 -0.5343 -0.2606  0.2076
 5351SOL    HW127686   1.150   3.379  17.123 -0.9022 -0.0920  0.3391
 5351SOL    HW227687   1.137   3.314  16.996 -1.4523 -1.0425  1.8988
 5352SOL     OW27688   2.654   2.021   8.976  0.7216 -0.4079 -0.0096
 5352SOL    HW127689   2.667   2.114   8.995 -0.8384 -0.3028  0.5119
 5352SOL    HW227690   2.736   1.987   9.011  0.2151 -0.4703  1.1138
 5353SOL     OW27691   4.321   3.904  10.675 -0.3441 -0.4726 -1.2320
 5353SOL    HW127692   4.242   3.939  10.716  0.4404 -1.3876  1.0661
 5353SOL    HW227693   4.380   3.911  10.750 -0.3768  2.9753 -1.5670
 5354SOL     OW27694   2.251   2.072   4.794  0.3413  0.0365  0.8774
 5354SOL    HW127695   2.248   2.166   4.776  0.3349 -0.7347 -3.2129
 5354SOL    HW227696   2.338   2.057   4.832 -0.6743 -0.5826  2.9299
 5355SOL     OW27697   2.431   3.556   6.252  0.3707 -0.1426  0.5064
 5355SOL    HW127698   2.366   3.557   6.322 -1.6176 -1.1956 -1.3012
 5355SOL    HW227699   2.502   3.593   6.303  0.9797 -0.5224 -0.0631
 5356SOL     OW27700   4.259   1.694   5.219  0.4242  0.2483  0.4576
 5356SOL    HW127701   4.350   1.714   5.197  0.8582  0.9459  2.9417
 5356SOL    HW227702   4.213   1.757   5.162 -0.2197 -2.1489 -1.6792
 5357SOL     OW27703   3.101   0.733   2.324  0.6350  0.3083 -0.4856
 5357SOL    HW127704   3.143   0.797   2.381 -0.5791 -0.5924  1.4338
 5357SOL    HW227705   3.159   0.716   2.251  0.1908  0.6320 -0.9180
 5358SOL     OW27706   0.315   2.850   5.936 -0.0841  0.6437 -0.2360
 5358SOL    HW127707   0.244   2.820   5.880  1.1255 -0.3482 -1.2216
 5358SOL    HW227708   0.280   2.929   5.979 -0.3141  1.0412 -1.1641
 5359SOL     OW27709   2.066   3.253   8.850  0.8731  0.3622 -0.7469
 5359SOL    HW127710   1.976   3.222   8.857  0.9096  0.9070  2.1935
 5359SOL    HW227711   2.056   3.349   8.848  1.6495  0.4209 -2.5764
 5360SOL     OW27712   1.763   1.892   6.755  0.0650  0.0136 -0.1128
 5360SOL    HW127713   1.761   1.809   6.802 -2.9564 -0.6852 -1.4575
 5360SOL    HW227714   1.774   1.874   6.661 -1.5040  0.7382 -0.4467
 5361SOL     OW27715   0.144   2.531   6.793 -0.0412  0.7296 -0.3117
 5361SOL    HW127716   0.113   2.509   6.881  1.2275 -1.0396 -0.3252
 5361SOL    HW227717   0.197   2.454   6.776  0.0578  0.3361  1.7382
 5362SOL     OW27718   4.728   3.994   2.167 -0.1656 -0.5672  0.2540
 5362SOL    HW127719   0.043   3.923   2.205  1.5350  0.6824  0.2670
 5362SOL    HW227720   4.657   3.957   2.115  1.1009  0.9114 -2.5001
 5363SOL     OW27721   2.887   0.532   8.360 -0.1848 -0.0816 -0.6977
 5363SOL    HW127722   2.907   0.590   8.434  2.4181 -2.5182  0.5255
 5363SOL    HW227723   2.976   0.520   8.326  0.3150 -1.0228  0.8988
 5364SOL     OW27724   1.765   2.159  15.438 -0.4206  0.1309 -0.1344
 5364SOL    HW127725   1.691   2.130  15.492  0.1759  3.0147  2.2032
 5364SOL    HW227726   1.818   2.189  15.512 -1.2382  3.1054 -0.7571
 5365SOL     OW27727   2.784   2.833  16.074  0.5536 -0.2393 -0.4969
 5365SOL    HW127728   2.826   2.913  16.105 -0.3544 -0.2031  0.6310
 5365SOL    HW227729   2.693   2.859  16.088  0.6068 -0.4445  0.2159
 5366SOL     OW27730   0.321   1.884   6.368  0.4041  0.8467  0.4965
 5366SOL    HW127731   0.260   1.927   6.309 -2.4973  0.2164  3.0534
 5366SOL    HW227732   0.314   1.794   6.336 -1.3257  1.2099 -0.1133
 5367SOL     OW27733   0.947   4.500  16.686 -0.5174 -0.5645 -0.6408
 5367SOL    HW127734   0.858   4.535  16.685 -1.4012 -2.8250 -0.6627
 5367SOL    HW227735   0.936   4.444  16.763 -0.3363 -0.3309 -0.4443
 5368SOL     OW27736   1.697   0.403   1.422 -0.3785  0.1084  0.3760
 5368SOL    HW127737   1.621   0.352   1.448  0.5376 -2.3454 -1.7397
 5368SOL    HW227738   1.747   0.338   1.373  0.3735  1.4208 -0.6204
 5369SOL     OW27739   1.437   0.782  12.041 -0.6208  0.4267 -0.2093
 5369SOL    HW127740   1.417   0.711  12.101 -0.4859  1.2549  0.8111
 5369SOL    HW227741   1.389   0.759  11.962 -0.0808  0.2369 -0.4858
 5370SOL     OW27742   1.422   1.913  16.864  0.2699  0.1160  0.5720
 5370SOL    HW127743   1.474   1.865  16.799 -0.6650  0.8572 -0.7150
 5370SOL    HW227744   1.344   1.935  16.813  0.5834  0.1647  0.1085
 5371SOL     OW27745   3.360   2.056   2.846  0.0493  0.8887  0.0933
 5371SOL    HW127746   3.420   2.126   2.872 -0.8910  0.7916  2.5782
 5371SOL    HW227747   3.413   1.978   2.859 -1.0237  0.5937  2.7107
 5372SOL     OW27748   1.832   0.356   9.584  0.2852  0.2805  0.4580
 5372SOL    HW127749   1.746   0.321   9.560 -0.3446  0.3654  2.5831
 5372SOL    HW227750   1.843   0.436   9.534 -2.7408  0.3300 -0.1133
 5373SOL     OW27751   1.407   3.568  12.896  0.3436 -0.0947  0.1633
 5373SOL    HW127752   1.311   3.562  12.892  0.3755 -0.4131 -0.1358
 5373SOL    HW227753   1.407   3.663  12.911 -0.9940 -0.0311 -0.1681
 5374SOL     OW27754   3.455   0.490   5.719 -0.0560 -0.0303  0.1533
 5374SOL    HW127755   3.522   0.558   5.722  0.5650 -0.6756  0.8086
 5374SOL    HW227756   3.409   0.513   5.638 -0.5318 -0.7070  0.2342
 5375SOL     OW27757   1.988   2.482   8.494 -0.1615  0.2815 -0.0492
 5375SOL    HW127758   1.906   2.531   8.494 -1.1012 -1.2761 -4.2101
 5375SOL    HW227759   1.978   2.447   8.582 -2.9873  3.5866  0.9586
 5376SOL     OW27760   2.537   0.369   4.282  0.1159  0.1555  0.4985
 5376SOL    HW127761   2.545   0.379   4.188 -0.9749  2.1368  0.6158
 5376SOL    HW227762   2.487   0.449   4.300  0.8949  0.8172 -0.3130
 5377SOL     OW27763   1.832   3.823   3.147  0.4505  0.1576 -0.2584
 5377SOL    HW127764   1.846   3.917   3.155  1.6250 -0.2720  2.6066
 5377SOL    HW227765   1.756   3.805   3.202  0.5762  2.3110  0.6288
 5378SOL     OW27766   0.388   1.461   2.064 -0.0712  0.2835  0.4807
 5378SOL    HW127767   0.328   1.427   1.997  0.3380  2.5745 -1.0517
 5378SOL    HW227768   0.426   1.540   2.026 -1.2332 -0.1661 -1.6263
 5379SOL     OW27769   1.534   2.803   0.944  0.0043 -0.2694 -0.6705
 5379SOL    HW127770   1.503   2.732   0.888 -0.6758 -1.6239  1.3922
 5379SOL    HW227771   1.456   2.846   0.980  0.4379 -0.3880  0.4230
 5380SOL     OW27772   3.953   4.208   1.183 -0.4396 -0.6464  0.3841
 5380SOL    HW127773   3.867   4.248   1.168  0.2675  0.9699  0.5847
 5380SOL    HW227774   3.974   4.177   1.095  0.6964 -1.5325  0.9545
 5381SOL     OW27775   4.323   0.093   5.099  0.5487  0.0255 -0.0199
 5381SOL    HW127776   4.283   0.013   5.132 -0.3929  0.2992 -0.4941
 5381SOL    HW227777   4.336   0.141   5.180 -0.4523 -2.3035  1.5002
 5382SOL     OW27778   0.550   0.395   2.222  0.1637  0.3009 -0.1832
 5382SOL    HW127779   0.502   0.325   2.179  1.4363 -0.7239  0.0408
 5382SOL    HW227780   0.622   0.425   2.167 -0.1715 -2.0372 -1.8981
 5383SOL     OW27781   4.496   0.155   4.249 -0.0514  0.5252 -0.1064
 5383SOL    HW127782   4.421   0.203   4.285 -0.7178 -2.1708  2.0456
 5383SOL    HW227783   4.551   0.141   4.326  0.2738 -0.8031 -0.5829
 5384SOL     OW27784   3.476   1.413   7.549 -0.5302 -0.1378 -0.8296
 5384SOL    HW127785   3.399   1.370   7.513  0.0701 -1.4994 -0.5061
 5384SOL    HW227786   3.462   1.429   7.642  0.8259 -2.4136 -0.2226
 5385SOL     OW27787   3.817   2.918  11.172 -0.1387  0.1902 -0.4081
 5385SOL    HW127788   3.743   2.901  11.112  0.0939 -0.3653 -0.5407
 5385SOL    HW227789   3.769   2.974  11.232 -0.5002 -0.5395 -0.0172
 5386SOL     OW27790   0.860   0.017   1.696  0.5242 -1.1116  0.2144
 5386SOL    HW127791   0.841   0.093   1.640  0.3579  0.5458  2.5260
 5386SOL    HW227792   0.851   0.046   1.786 -1.9755  0.8260 -0.6752
 5387SOL     OW27793   3.245   0.770   8.958 -0.4542 -0.2158 -0.6052
 5387SOL    HW127794   3.203   0.787   9.042  0.3020 -0.1866 -0.2294
 5387SOL    HW227795   3.302   0.697   8.981  0.6797  1.1166  0.8397
 5388SOL     OW27796   0.114   1.811   5.736  0.1021  0.2352 -1.1313
 5388SOL    HW127797   0.116   1.900   5.770 -0.1144 -0.5402  0.8760
 5388SOL    HW227798   0.169   1.820   5.658  0.6009 -1.7505 -1.0142
 5389SOL     OW27799   3.079   1.391   8.352  0.1117 -0.1811 -0.0422
 5389SOL    HW127800   3.123   1.370   8.269 -0.5338  0.7110 -0.6212
 5389SOL    HW227801   2.996   1.354   8.322 -0.3309  1.5419 -0.9682
 5390SOL     OW27802   3.056   0.992  14.281 -0.2050  0.1227 -0.1923
 5390SOL    HW127803   3.146   0.959  14.275  0.2432  1.9144 -3.3018
 5390SOL    HW227804   3.000   0.914  14.284 -1.0990  0.6476 -2.8576
 5391SOL     OW27805   2.396   4.182   4.752 -0.7354  0.3010  0.2182
 5391SOL    HW127806   2.380   4.258   4.807  1.6000  1.4264 -0.6606
 5391SOL    HW227807   2.473   4.206   4.701 -0.2504 -0.1331  0.7480
 5392SOL     OW27808   0.686   0.221   1.616 -0.1012 -0.1180  0.0041
 5392SOL    HW127809   0.597   0.192   1.635 -1.0460  2.3777 -0.6709
 5392SOL    HW227810   0.670   0.315   1.623  0.0657 -0.1082  0.2562
 5393SOL     OW27811   4.171   1.837   2.905  0.4435  0.2364  0.4740
 5393SOL    HW127812   4.085   1.811   2.873  0.5648  0.3824  0.0366
 5393SOL    HW227813   4.149   1.834   2.999 -0.9528 -1.2221  0.1146
 5394SOL     OW27814   3.689   0.693   0.728 -0.2509 -0.4381 -0.0164
 5394SOL    HW127815   3.737   0.774   0.747  1.2600 -0.9574 -1.6986
 5394SOL    HW227816   3.600   0.727   0.730  0.2983  0.8908  2.5035
 5395SOL     OW27817   2.142   2.062   6.216 -0.0055  0.0787  0.2747
 5395SOL    HW127818   2.153   1.981   6.165 -0.4391 -1.2866  2.3576
 5395SOL    HW227819   2.165   2.037   6.305  2.0294  0.2398 -0.2054
 5396SOL     OW27820   4.445   3.719  10.981 -0.3679 -0.7556 -0.1561
 5396SOL    HW127821   4.473   3.807  10.957  0.9856 -0.7552  1.4522
 5396SOL    HW227822   4.504   3.699  11.054 -1.5230 -2.3950  0.3339
 5397SOL     OW27823   3.891   3.324   4.288 -0.2734  0.0339  0.1894
 5397SOL    HW127824   3.984   3.345   4.278  0.2460 -1.8638  1.0847
 5397SOL    HW227825   3.853   3.410   4.307 -1.0993 -0.4561  0.7406
 5398SOL     OW27826   1.640   4.286   0.903 -0.0144  0.4770 -0.8047
 5398SOL    HW127827   1.603   4.312   0.819 -1.2552 -1.4578 -0.8659
 5398SOL    HW227828   1.573   4.307   0.968  0.2320 -0.8981 -0.0929
 5399SOL     OW27829   4.356   1.848   5.923  0.2658 -0.0905 -0.3529
 5399SOL    HW127830   4.339   1.851   5.828 -0.6348  0.0684 -0.1856
 5399SOL    HW227831   4.377   1.756   5.942  0.7281 -0.1332 -1.0385
 5400SOL     OW27832   1.876   0.308   2.165  0.0185 -0.3958 -0.2399
 5400SOL    HW127833   1.902   0.257   2.088  0.1458  1.3800 -1.3756
 5400SOL    HW227834   1.955   0.290   2.216  0.1637  0.7050 -0.0864
 5401SOL     OW27835   0.484   0.634  12.463  0.1522 -0.2855  0.3917
 5401SOL    HW127836   0.410   0.635  12.524 -1.1380 -0.7116 -1.1652
 5401SOL    HW227837   0.433   0.636  12.381  3.3691 -1.9965 -1.6422
 5402SOL     OW27838   0.093   0.043  11.358 -0.0650 -0.1184 -0.6023
 5402SOL    HW127839   0.088   4.715  11.287 -2.3332 -1.4519  0.7713
 5402SOL    HW227840   0.163   0.000  11.407  1.6989  1.5699 -1.6751
 5403SOL     OW27841   3.745   1.008  10.833 -0.0569  0.2130 -0.0901
 5403SOL    HW127842   3.757   1.023  10.739  0.1968  0.3970 -0.0263
 5403SOL    HW227843   3.739   0.913  10.832  1.7939  0.0917  1.8573
 5404SOL     OW27844   0.908   1.402   8.541 -0.0854 -0.2329  0.4054
 5404SOL    HW127845   0.947   1.416   8.627 -0.9495  0.3992  0.7001
 5404SOL    HW227846   0.908   1.307   8.530  1.4096 -0.5419  3.0971
 5405SOL     OW27847   2.368   3.051   7.872 -0.1383 -0.0750  0.2348
 5405SOL    HW127848   2.370   3.070   7.778 -0.2281  1.5184  0.5511
 5405SOL    HW227849   2.341   3.132   7.914 -0.4015  0.5312 -1.1037
 5406SOL     OW27850   3.407   3.689   8.574  0.3084 -0.4410  0.0987
 5406SOL    HW127851   3.372   3.772   8.603  1.4820  0.4845 -1.1076
 5406SOL    HW227852   3.324   3.649   8.546  0.8370 -0.3264 -1.6471
 5407SOL     OW27853   3.570   0.219  15.641 -0.2079  0.1604  0.0673
 5407SOL    HW127854   3.582   0.276  15.718 -0.6336 -0.9531  0.9612
 5407SOL    HW227855   3.657   0.191  15.611 -0.6815 -1.5714  0.3624
 5408SOL     OW27856   1.868   2.252  12.397  0.0794 -0.3839  0.4377
 5408SOL    HW127857   1.800   2.312  12.430  0.9559  0.4751  0.6912
 5408SOL    HW227858   1.852   2.171  12.445  1.6194 -2.8096 -3.1135
 5409SOL     OW27859   0.492   1.631  11.398 -0.6869  0.2388  0.1149
 5409SOL    HW127860   0.467   1.546  11.434 -2.1448  0.1920 -1.0112
 5409SOL    HW227861   0.569   1.601  11.349 -2.0664 -0.5986 -1.5489
 5410SOL     OW27862   0.600   0.827   6.353  0.0985 -0.0853  0.1003
 5410SOL    HW127863   0.588   0.884   6.277 -1.1120 -0.3835  0.0704
 5410SOL    HW227864   0.529   0.857   6.410  0.2442  0.7529 -0.1650
 5411SOL     OW27865   2.782   4.327  11.303  0.2463  0.7590  0.4167
 5411SOL    HW127866   2.761   4.370  11.221 -0.4945 -2.3468 -1.0369
 5411SOL    HW227867   2.709   4.266  11.309  1.8355 -0.9981  1.9209
 5412SOL     OW27868   0.347   2.471  15.323 -0.0965  0.1793  0.5464
 5412SOL    HW127869   0.417   2.468  15.258  1.3411  2.0761  1.9889
 5412SOL    HW227870   0.288   2.407  15.283 -0.5091  1.6265 -1.1296
 5413SOL     OW27871   2.565   1.008   4.404  0.0666 -0.9411 -0.0384
 5413SOL    HW127872   2.485   1.060   4.395 -0.1170 -1.3345 -0.6925
 5413SOL    HW227873   2.629   1.079   4.416 -0.9774  0.0003 -0.0356
 5414SOL     OW27874   0.035   2.251  11.057  0.8390 -0.8389 -0.3151
 5414SOL    HW127875   0.022   2.265  10.964  2.2222 -0.0685 -0.3883
 5414SOL    HW227876   4.680   2.261  11.083  1.2310 -1.3659  1.2838
 5415SOL     OW27877   3.307   0.988   6.694  0.0988  0.0084 -0.3971
 5415SOL    HW127878   3.400   0.990   6.714 -0.1358  0.2316  0.6663
 5415SOL    HW227879   3.291   0.898   6.667  2.2392 -0.6568  0.5840
 5416SOL     OW27880   3.548   4.664  17.024 -0.0045  0.7382  0.0067
 5416SOL    HW127881   3.545   0.021  17.004 -1.5954  0.5316 -0.7843
 5416SOL    HW227882   3.491   4.661  17.101  1.8931  1.7992  1.4462
 5417SOL     OW27883   0.212   3.649   1.569  0.0163  0.4342 -0.6788
 5417SOL    HW127884   0.249   3.688   1.490 -0.6671  0.7534 -0.8498
 5417SOL    HW227885   0.207   3.559   1.538  0.6994 -1.1213  3.6267
 5418SOL     OW27886   2.151   3.910  14.934  0.1881  0.2814 -0.3641
 5418SOL    HW127887   2.231   3.935  14.980  0.5645 -1.9484  0.1903
 5418SOL    HW227888   2.093   3.984  14.951  0.5932  0.7031 -0.8156
 5419SOL     OW27889   2.978   3.566   7.896 -0.2975 -0.4081 -0.6580
 5419SOL    HW127890   2.951   3.624   7.825 -1.0363  0.0352 -0.0166
 5419SOL    HW227891   2.959   3.627   7.967 -0.7632 -1.5348  0.1795
 5420SOL     OW27892   3.467   2.061   7.051  0.3009  0.2601 -0.0375
 5420SOL    HW127893   3.476   1.975   7.090  0.6942  0.3611  0.0872
 5420SOL    HW227894   3.375   2.078   7.071  0.3904 -1.0659  1.5058
 5421SOL     OW27895   4.267   1.831  13.568 -0.0041 -0.1264 -0.3810
 5421SOL    HW127896   4.189   1.798  13.613  1.6974 -2.5216  0.8038
 5421SOL    HW227897   4.256   1.812  13.475 -0.1882 -1.8990  0.0088
 5422SOL     OW27898   0.629   0.427   4.999  0.3444  0.2233 -0.0983
 5422SOL    HW127899   0.665   0.385   4.920  1.3578  0.8391  0.0322
 5422SOL    HW227900   0.547   0.380   5.014  0.8851 -0.5346  0.4950
 5423SOL     OW27901   3.031   1.762   5.999  0.2127 -0.1377  0.4845
 5423SOL    HW127902   2.951   1.757   6.051  1.0516 -2.6288  1.5327
 5423SOL    HW227903   3.067   1.851   6.004 -2.0210  0.8223 -0.7073
 5424SOL     OW27904   2.164   3.920  15.685  0.2541  0.5307  0.4190
 5424SOL    HW127905   2.158   3.826  15.705 -3.0277 -0.3217 -4.5368
 5424SOL    HW227906   2.118   3.928  15.602  2.4858  1.5034 -0.7249
 5425SOL     OW27907   0.709   1.910   0.238 -0.3757  0.4695  0.8040
 5425SOL    HW127908   0.636   1.862   0.277 -0.4882  1.7250  2.1383
 5425SOL    HW227909   0.784   1.882   0.291  0.7233  1.2440 -0.3182
 5426SOL     OW27910   1.725   3.226   8.054 -0.0411  0.0658 -0.1603
 5426SOL    HW127911   1.745   3.188   7.969 -0.6927 -1.1920  0.2506
 5426SOL    HW227912   1.759   3.315   8.047  1.6993 -0.7386 -1.8759
 5427SOL     OW27913   0.305   3.049   7.488 -0.1546 -0.1850 -0.0549
 5427SOL    HW127914   0.216   3.074   7.461 -0.2933  0.8044  1.3275
 5427SOL    HW227915   0.303   3.069   7.582 -1.2050  0.8186 -0.2858
 5428SOL     OW27916   0.552   4.189   2.343 -0.0070 -0.6832 -0.3936
 5428SOL    HW127917   0.543   4.101   2.306 -0.7515 -0.8871  0.2738
 5428SOL    HW227918   0.513   4.247   2.278  1.9892 -0.4485 -1.3858
 5429SOL     OW27919   2.141   2.366   9.432  0.4741  0.1664  0.5880
 5429SOL    HW127920   2.108   2.443   9.480 -2.5965 -1.7538  1.5746
 5429SOL    HW227921   2.189   2.396   9.355 -0.2052  0.9625  0.4704
 5430SOL     OW27922   3.090   1.805  15.567  0.2492  0.0285 -0.2135
 5430SOL    HW127923   3.021   1.738  15.574 -0.5901  0.9446  0.2707
 5430SOL    HW227924   3.044   1.857  15.501 -1.4365  0.7779  1.5362
 5431SOL     OW27925   1.088   3.475   2.406  0.4209 -0.4085  0.4632
 5431SOL    HW127926   1.117   3.548   2.461  0.6993  0.5881 -1.0291
 5431SOL    HW227927   1.158   3.480   2.342  0.4865  0.3001  0.5830
 5432SOL     OW27928   4.186   1.246   5.299 -0.0492 -0.0794 -0.0623
 5432SOL    HW127929   4.113   1.211   5.350  1.0349  2.7102  3.3306
 5432SOL    HW227930   4.252   1.261   5.366 -0.8271 -0.5855  0.8157
 5433SOL     OW27931   1.857   3.141   5.744 -0.1466  0.0901 -0.3902
 5433SOL    HW127932   1.801   3.087   5.801 -0.2205  0.6529  0.0719
 5433SOL    HW227933   1.941   3.140   5.791  0.1268 -0.6055 -0.8974
 5434SOL     OW27934   4.249   1.495  10.901  0.3911  0.0756 -0.5836
 5434SOL    HW127935   4.256   1.560  10.830  3.8450 -0.5732 -0.8448
 5434SOL    HW227936   4.340   1.492  10.929  0.0610  1.5077  0.6584
 5435SOL     OW27937   3.090   3.985   9.184 -0.5307 -0.3318  0.0316
 5435SOL    HW127938   3.049   3.904   9.214  0.0326 -1.0916 -1.2104
 5435SOL    HW227939   3.135   3.949   9.107  1.7205 -0.3544  1.3521
 5436SOL     OW27940   3.678   4.386  11.624 -0.1775  0.2290 -0.1216
 5436SOL    HW127941   3.585   4.409  11.616  0.1380  0.6540 -2.5233
 5436SOL    HW227942   3.719   4.422  11.546  0.1348  1.0056  0.4066
 5437SOL     OW27943   0.236   1.831  12.992 -0.1299 -0.2417 -0.1277
 5437SOL    HW127944   0.223   1.861  12.902 -1.0472 -1.0164 -0.2422
 5437SOL    HW227945   0.284   1.748  12.990  0.4696  0.0901  0.2067
 5438SOL     OW27946   1.562   1.168   9.023 -0.0670  0.6617 -0.3309
 5438SOL    HW127947   1.546   1.254   8.985  1.2459  1.2301  0.4076
 5438SOL    HW227948   1.618   1.194   9.096 -0.1263 -0.0486 -0.0325
 5439SOL     OW27949   2.971   0.466   9.971  0.1106  0.2861 -0.3816
 5439SOL    HW127950   3.066   0.466   9.978  0.2806  0.7769 -2.5157
 5439SOL    HW227951   2.952   0.449  10.063 -0.4357  1.8275 -0.2111
 5440SOL     OW27952   1.632   4.520   3.149  0.6795  0.1073  0.4697
 5440SOL    HW127953   1.617   4.449   3.211 -0.3803  0.1370  0.2448
 5440SOL    HW227954   1.630   4.484   3.060  1.4550  1.1799  0.0215
 5441SOL     OW27955   2.033   4.533  13.237  0.2009 -0.3073 -0.0983
 5441SOL    HW127956   2.109   4.536  13.295  1.1233  0.3359 -1.3255
 5441SOL    HW227957   2.063   4.578  13.158 -1.9061 -1.2943 -1.4785
 5442SOL     OW27958   2.743   4.703   3.088 -0.7484  0.2595  0.9174
 5442SOL    HW127959   2.716   4.684   2.998 -1.0561 -0.0170  1.0702
 5442SOL    HW227960   2.827   4.660   3.104 -0.6321 -0.0990 -0.6141
 5443SOL     OW27961   4.115   3.818   8.966 -0.0406 -0.1347  0.4108
 5443SOL    HW127962   4.093   3.777   8.882  0.1976  2.9512 -1.1346
 5443SOL    HW227963   4.044   3.802   9.027 -0.1395  0.7315  0.5108
 5444SOL     OW27964   2.580   0.817   9.398  0.5499  0.6117  0.5152
 5444SOL    HW127965   2.554   0.734   9.438 -1.0648  1.4437  1.1994
 5444SOL    HW227966   2.497   0.857   9.373 -0.0653  1.0906  3.3215
 5445SOL     OW27967   2.185   3.297  14.153 -0.5413  0.4601  0.6934
 5445SOL    HW127968   2.190   3.201  14.157 -2.8419  0.2725 -0.8217
 5445SOL    HW227969   2.099   3.304  14.193  0.2143  1.2940  2.1666
 5446SOL     OW27970   1.388   2.539  11.542 -0.1515 -0.0535  0.3518
 5446SOL    HW127971   1.426   2.605  11.600  0.7058  0.5685 -0.8952
 5446SOL    HW227972   1.314   2.581  11.499 -0.6503 -0.5672  0.7166
 5447SOL     OW27973   1.058   0.519   9.830 -0.2470  0.3477 -0.1319
 5447SOL    HW127974   1.018   0.472   9.757  0.5931  0.4803 -0.6866
 5447SOL    HW227975   0.987   0.529   9.892 -1.5811  0.4374 -1.6699
 5448SOL     OW27976   0.480   3.870   4.684 -0.8641  0.7451 -0.1138
 5448SOL    HW127977   0.444   3.950   4.721 -1.5766  0.6999 -0.7135
 5448SOL    HW227978   0.551   3.901   4.628 -0.7828 -1.6298 -1.3268
 5449SOL     OW27979   1.666   2.648   8.095 -0.3974  0.7797 -0.2270
 5449SOL    HW127980   1.743   2.679   8.144  1.3054  0.6047 -2.8007
 5449SOL    HW227981   1.600   2.709   8.129 -0.5155  1.2406 -1.2913
 5450SOL     OW27982   0.482   4.110   3.659 -0.5319  0.3802 -0.0667
 5450SOL    HW127983   0.541   4.156   3.718 -1.7541  0.6963  0.8834
 5450SOL    HW227984   0.549   4.058   3.614 -0.8632 -0.9867  1.0254
 5451SOL     OW27985   1.136   3.039   9.319  0.0990  0.0445 -0.0091
 5451SOL    HW127986   1.086   3.000   9.391 -1.2012 -2.5087 -2.2974
 5451SOL    HW227987   1.228   3.032   9.345  0.2845 -1.6757 -1.1526
 5452SOL     OW27988   4.223   0.243  12.962  0.4011 -0.1155  0.3887
 5452SOL    HW127989   4.235   0.257  12.868 -1.3064 -2.3356 -0.1509
 5452SOL    HW227990   4.314   0.231  12.989  0.4544 -2.1581 -0.6582
 5453SOL     OW27991   1.445   1.393   2.146 -0.0040  0.0399  0.4788
 5453SOL    HW127992   1.538   1.372   2.145  0.4943  2.3805 -1.2543
 5453SOL    HW227993   1.452   1.488   2.138 -1.4735 -0.1438 -3.0688
 5454SOL     OW27994   2.677   3.912   6.029 -1.0090  0.1791  0.0255
 5454SOL    HW127995   2.695   3.967   5.953 -0.7946 -1.7264 -1.2981
 5454SOL    HW227996   2.694   3.823   5.998  1.4720  1.0828 -1.2198
 5455SOL     OW27997   3.270   4.191   8.985 -0.1926 -0.2981  0.1314
 5455SOL    HW127998   3.305   4.221   8.901 -2.5726  1.3680 -0.2744
 5455SOL    HW227999   3.284   4.268   9.042  1.9721 -1.2665  0.9276
 5456SOL     OW28000   4.076   0.746   3.660  0.6280 -0.3322 -0.2080
 5456SOL    HW128001   4.037   0.734   3.747 -1.3096 -0.0440 -1.0481
 5456SOL    HW228002   4.126   0.664   3.652 -1.2517 -1.4381 -0.8133
 5457SOL     OW28003   2.859   1.946   4.463 -0.4190  0.2093  0.3081
 5457SOL    HW128004   2.800   1.997   4.408  1.4954 -0.2846 -2.2138
 5457SOL    HW228005   2.946   1.983   4.450  0.0296 -0.6110  0.9571
 5458SOL     OW28006   2.039   3.989  15.462 -0.3233 -0.1346 -0.0054
 5458SOL    HW128007   2.069   4.080  15.464 -1.4381  0.2254  0.0705
 5458SOL    HW228008   2.016   3.985  15.369  1.3084  2.8191 -0.5258
 5459SOL     OW28009   4.371   0.643  17.665 -0.1247 -0.2877  0.5097
 5459SOL    HW128010   4.370   0.618   0.012 -2.0028  0.2271  0.6439
 5459SOL    HW228011   4.400   0.734  17.664  0.7307 -0.5788 -0.4418
 5460SOL     OW28012   2.606   3.111  14.168  0.5495  0.2923  0.3989
 5460SOL    HW128013   2.541   3.121  14.238 -0.3030  2.8216 -0.7526
 5460SOL    HW228014   2.600   3.017  14.149  0.8108  0.5524 -1.0094
 5461SOL     OW28015   1.855   0.275   8.373 -0.4011 -0.2304 -0.0157
 5461SOL    HW128016   1.848   0.185   8.342 -1.2127  0.0395 -0.6157
 5461SOL    HW228017   1.836   0.258   8.465 -0.0004 -0.6988 -0.0181
 5462SOL     OW28018   3.682   0.705   1.167  0.6253 -0.4281  0.7339
 5462SOL    HW128019   3.675   0.643   1.095  0.5141 -1.0531  1.2844
 5462SOL    HW228020   3.643   0.656   1.240 -3.4722  0.4314 -0.8551
 5463SOL     OW28021   3.126   0.476   0.620 -0.5717  0.0401 -0.0532
 5463SOL    HW128022   3.046   0.425   0.614 -1.8400  2.3383 -2.5723
 5463SOL    HW228023   3.145   0.460   0.712  1.2704 -0.9795 -0.6073
 5464SOL     OW28024   0.462   4.650   2.083 -0.2216  0.0760 -0.2193
 5464SOL    HW128025   0.440   4.629   1.992 -2.1324 -0.7495  0.4294
 5464SOL    HW228026   0.374   4.667   2.116 -0.2272  1.3061 -0.8725
 5465SOL     OW28027   3.823   0.389  15.414  0.0679 -0.0135 -0.1812
 5465SOL    HW128028   3.827   0.325  15.485  0.7790  0.5909  0.3228
 5465SOL    HW228029   3.742   0.372  15.367 -0.3005  0.0702  0.4180
 5466SOL     OW28030   3.508   2.241   1.645 -0.0118 -0.0827 -0.5551
 5466SOL    HW128031   3.495   2.315   1.705 -0.3245 -0.9538  0.4545
 5466SOL    HW228032   3.487   2.289   1.565 -1.1129  2.1802  1.0853
 5467SOL     OW28033   4.696   2.115   4.150 -0.2835 -0.4112 -0.5691
 5467SOL    HW128034   4.664   2.038   4.196  1.2232 -0.5925  0.1732
 5467SOL    HW228035   4.614   2.155   4.118 -0.5159 -1.5920 -1.4714
 5468SOL     OW28036   4.009   0.335   8.549  0.3430 -0.5124  0.3504
 5468SOL    HW128037   3.951   0.286   8.490  0.4979 -0.3314  0.0461
 5468SOL    HW228038   4.093   0.293   8.533 -1.5897 -3.3909 -2.2874
 5469SOL     OW28039   1.002   3.283   7.536 -0.3716 -0.0629  0.3666
 5469SOL    HW128040   1.048   3.300   7.454 -0.0809 -1.8177  0.1672
 5469SOL    HW228041   0.969   3.368   7.565  1.4306 -0.0390  2.3478
 5470SOL     OW28042   3.031   3.440   5.956  0.2324 -0.5068  0.2950
 5470SOL    HW128043   3.063   3.399   5.877  0.1491  1.1681 -0.6081
 5470SOL    HW228044   3.036   3.363   6.012 -2.2731 -1.1396 -0.3294
 5471SOL     OW28045   0.711   4.383   6.773 -0.3616 -0.0011  0.4620
 5471SOL    HW128046   0.668   4.398   6.689 -0.1012  1.9544  0.6669
 5471SOL    HW228047   0.702   4.470   6.813 -0.0469  1.0203 -1.6843
 5472SOL     OW28048   3.665   4.390  12.617  0.0790 -0.5376 -0.5299
 5472SOL    HW128049   3.707   4.397  12.531 -0.8295 -0.1095 -0.9462
 5472SOL    HW228050   3.732   4.432  12.670 -0.4147  0.2409 -0.5190
 5473SOL     OW28051   0.826   3.684   2.919 -0.2511  0.2046 -0.1145
 5473SOL    HW128052   0.750   3.637   2.884  0.6808 -0.4548 -1.3016
 5473SOL    HW228053   0.888   3.681   2.846  0.0293 -0.2135  0.1426
 5474SOL     OW28054   1.126   3.995   1.673  0.4050  0.0905  0.4090
 5474SOL    HW128055   1.128   4.088   1.653 -0.5244 -0.4066 -1.9802
 5474SOL    HW228056   1.044   3.972   1.630  0.8989  0.2972 -0.6279
 5475SOL     OW28057   0.289   0.161   1.943 -0.4440 -0.2458  0.4193
 5475SOL    HW128058   0.298   0.220   2.017 -0.3740  1.5376 -1.0041
 5475SOL    HW228059   0.194   0.150   1.947 -0.4396  0.1748  1.6550
 5476SOL     OW28060   3.342   1.961  11.095  0.1870  0.1681  0.1712
 5476SOL    HW128061   3.343   1.926  11.184  1.5121 -2.3971 -0.8238
 5476SOL    HW228062   3.373   1.883  11.048 -2.3554  0.7419 -2.4898
 5477SOL     OW28063   1.748   2.286   6.951 -0.1249 -0.2270  0.1596
 5477SOL    HW128064   1.706   2.207   6.917 -1.2852  1.2351 -1.8189
 5477SOL    HW228065   1.673   2.344   6.963 -0.3563 -0.9186  2.0822
 5478SOL     OW28066   0.739   2.495  17.414  0.4508 -0.1307  0.0502
 5478SOL    HW128067   0.802   2.466  17.479  1.3678  3.0398  0.6070
 5478SOL    HW228068   0.662   2.514  17.468  0.6950 -2.8325  1.3212
 5479SOL     OW28069   1.804   0.553  12.435 -0.4941  0.0007 -0.8541
 5479SOL    HW128070   1.884   0.604  12.442 -0.6339 -0.0161  0.9623
 5479SOL    HW228071   1.766   0.597  12.359 -1.0794 -2.2512 -1.8889
 5480SOL     OW28072   4.616   2.483  16.106 -0.2680  0.4817  0.3400
 5480SOL    HW128073   4.540   2.533  16.136 -0.3146  1.0376 -0.6816
 5480SOL    HW228074   4.678   2.511  16.173 -0.3796 -2.8997  1.8673
 5481SOL     OW28075   0.778   0.288   6.150  0.0278  0.6251  0.4780
 5481SOL    HW128076   0.742   0.206   6.185 -0.1586 -0.0277 -1.2678
 5481SOL    HW228077   0.855   0.300   6.205 -0.7609 -3.8301  2.5674
 5482SOL     OW28078   3.156   4.533   2.439 -0.2126 -0.0919  0.3319
 5482SOL    HW128079   3.082   4.530   2.378  0.6907  1.9212 -0.8608
 5482SOL    HW228080   3.106   4.546   2.519 -2.6224 -1.1289 -0.9977
 5483SOL     OW28081   2.337   0.400   2.769 -0.2843 -0.8234 -0.6562
 5483SOL    HW128082   2.330   0.319   2.820 -1.8810  0.1792  0.7452
 5483SOL    HW228083   2.413   0.422   2.822 -0.3943  0.6060 -1.0853
 5484SOL     OW28084   1.032   1.056   5.133 -0.1370  0.2483 -0.2281
 5484SOL    HW128085   0.976   1.017   5.200 -0.6616  0.6528 -0.4345
 5484SOL    HW228086   1.093   1.109   5.184 -0.5257  0.1119  0.3647
 5485SOL     OW28087   0.255   2.303   2.792 -0.4323 -0.0547 -0.6263
 5485SOL    HW128088   0.219   2.391   2.785  0.0579  0.4239  3.0575
 5485SOL    HW228089   0.223   2.280   2.879  1.9440 -2.7212 -0.4636
 5486SOL     OW28090   3.187   2.050  10.886  0.0630  0.0463  0.1889
 5486SOL    HW128091   3.247   2.083  10.819 -0.7775  2.3068  0.5688
 5486SOL    HW228092   3.237   2.038  10.966  0.2587 -0.0452  0.0530
 5487SOL     OW28093   0.467   1.803  13.673  0.3140 -0.3420  0.1301
 5487SOL    HW128094   0.449   1.888  13.714 -0.6152 -0.2839 -0.3974
 5487SOL    HW228095   0.510   1.756  13.744 -0.6956  0.1648  1.0904
 5488SOL     OW28096   1.010   3.110   3.092 -0.3127 -0.6523 -0.3873
 5488SOL    HW128097   0.970   3.177   3.038  1.1886  0.5955  0.0631
 5488SOL    HW228098   0.972   3.125   3.178 -0.2487  0.5110 -0.5734
 5489SOL     OW28099   2.360   1.065  14.589 -0.1386 -0.0130 -0.7226
 5489SOL    HW128100   2.332   1.145  14.633 -0.3707  1.0336 -2.7896
 5489SOL    HW228101   2.440   1.103  14.552  1.1623 -1.3974  0.6990
 5490SOL     OW28102   3.432   4.561   3.870 -0.1794  0.5928 -0.6294
 5490SOL    HW128103   3.370   4.612   3.817 -0.3952 -1.0831 -2.0060
 5490SOL    HW228104   3.387   4.482   3.902  0.1973 -0.8263 -3.6218
 5491SOL     OW28105   1.345   0.463   1.844  0.0742 -0.0680  0.3318
 5491SOL    HW128106   1.371   0.384   1.891  0.0617 -0.5748 -0.5140
 5491SOL    HW228107   1.323   0.424   1.759 -2.1107 -0.5022  1.0885
 5492SOL     OW28108   0.888   2.425   2.516 -0.5956  0.1759  0.0300
 5492SOL    HW128109   0.883   2.383   2.602 -0.5894 -0.8797 -0.4810
 5492SOL    HW228110   0.828   2.362   2.476  1.8495 -0.6088 -2.3968
 5493SOL     OW28111   4.654   0.787   5.174  0.1789 -0.0995 -0.7928
 5493SOL    HW128112   4.714   0.861   5.182  1.6813 -1.4173  0.4230
 5493SOL    HW228113   4.577   0.836   5.201  0.0597 -0.2142 -0.9219
 5494SOL     OW28114   2.604   1.167   2.682  0.0678 -0.0364 -0.1290
 5494SOL    HW128115   2.597   1.180   2.587  0.0819  1.8106  0.1249
 5494SOL    HW228116   2.650   1.083   2.683 -0.3785 -0.2640  1.8835
 5495SOL     OW28117   2.583   1.209   2.143  0.1723  0.0977 -0.6875
 5495SOL    HW128118   2.593   1.249   2.229  2.2067 -0.4075 -0.6850
 5495SOL    HW228119   2.553   1.283   2.091  2.7650  1.9248  0.4244
 5496SOL     OW28120   1.628   1.847  16.112  0.2736 -0.2705 -0.5842
 5496SOL    HW128121   1.565   1.777  16.094  0.5116 -0.6153 -0.0654
 5496SOL    HW228122   1.693   1.811  16.172 -0.2946 -1.4795 -0.7115
 5497SOL     OW28123   0.181   1.883   5.977  0.2473 -0.0583 -0.1066
 5497SOL    HW128124   0.263   1.839   5.953  0.5293  0.5699 -0.2856
 5497SOL    HW228125   0.123   1.808   5.969 -0.6687  0.6710 -0.1921
 5498SOL     OW28126   1.031   0.844   8.199  0.0079 -0.0278  0.1427
 5498SOL    HW128127   1.025   0.815   8.290  2.3449  1.2892  0.6975
 5498SOL    HW228128   1.029   0.939   8.208 -0.5956 -0.0819  0.6033
 5499SOL     OW28129   2.995   0.963   0.678  0.0661  0.5797 -0.0629
 5499SOL    HW128130   2.954   0.915   0.749 -0.0196 -1.2461 -1.3426
 5499SOL    HW228131   3.020   0.886   0.627 -0.3651  0.1057  0.4430
 5500SOL     OW28132   1.191   3.679   9.976 -0.4378  0.4939  0.1663
 5500SOL    HW128133   1.216   3.638  10.059 -1.7458  1.6214  1.1026
 5500SOL    HW228134   1.168   3.765  10.011  2.3689  0.8224  1.2403
 5501SOL     OW28135   3.963   3.276   7.472 -0.3107 -0.2393  0.0575
 5501SOL    HW128136   3.942   3.366   7.445 -2.2371 -0.2895  1.3916
 5501SOL    HW228137   4.025   3.239   7.409  0.3583  0.9009  0.0465
 5502SOL     OW28138   3.387   4.037   4.563  0.3702  0.4302  0.0108
 5502SOL    HW128139   3.365   4.060   4.473  1.6439 -4.1347 -1.4617
 5502SOL    HW228140   3.338   3.957   4.584  0.4403  1.1026  2.6633
 5503SOL     OW28141   3.059   2.476  12.650 -0.0782  0.2762  0.1703
 5503SOL    HW128142   3.070   2.470  12.555  0.6158  0.3415  0.2506
 5503SOL    HW228143   3.035   2.386  12.674 -0.2414 -0.0055 -1.0335
 5504SOL     OW28144   1.925   4.541   6.775 -0.6333 -0.4078 -0.3204
 5504SOL    HW128145   1.981   4.554   6.852  0.1146  1.9118 -1.2503
 5504SOL    HW228146   1.924   4.630   6.741  0.1513 -0.0354  0.6144
 5505SOL     OW28147   0.069   3.636  17.264  0.1928  0.3243  0.6022
 5505SOL    HW128148   4.732   3.695  17.244  0.4021  0.5065  0.3643
 5505SOL    HW228149   0.059   3.574  17.192 -0.8603  0.1881  0.8692
 5506SOL     OW28150   3.331   0.499   6.713  0.7189  0.8448 -0.2683
 5506SOL    HW128151   3.310   0.416   6.670 -0.1256  0.6197  0.5719
 5506SOL    HW228152   3.368   0.550   6.641  1.6985  0.1117 -0.2753
 5507SOL     OW28153   3.530   0.798  14.057 -0.3450 -0.1801  0.5782
 5507SOL    HW128154   3.598   0.737  14.085 -2.2439 -2.1697  0.9233
 5507SOL    HW228155   3.568   0.878  14.093 -1.2197  0.4433  0.1314
 5508SOL     OW28156   0.282   4.699   5.651 -0.0727  0.1887 -0.8573
 5508SOL    HW128157   0.301   0.020   5.725  0.8106 -2.2168  0.8047
 5508SOL    HW228158   0.297   0.018   5.575 -1.4249  2.0630  0.2612
 5509SOL     OW28159   3.341   0.061   5.879 -0.0776 -0.1024  0.2672
 5509SOL    HW128160   3.408   0.121   5.912  1.0260 -1.1473 -0.0958
 5509SOL    HW228161   3.292   0.128   5.831 -0.2743 -0.3737  0.0929
 5510SOL     OW28162   2.653   1.939   3.732  0.2185 -0.1687 -0.7705
 5510SOL    HW128163   2.657   1.908   3.641 -0.6059  0.1190 -0.9080
 5510SOL    HW228164   2.724   1.894   3.778 -0.5981 -0.6414  0.0273
 5511SOL     OW28165   0.712   3.020   7.944  0.1062 -0.0708  0.0756
 5511SOL    HW128166   0.631   3.062   7.916 -0.2933 -0.8661  0.0431
 5511SOL    HW228167   0.685   2.948   8.000 -1.6794 -0.1287 -0.8690
 5512SOL     OW28168   3.097   2.552   6.294  0.1965 -0.7408 -0.0170
 5512SOL    HW128169   3.075   2.516   6.208 -1.7575  0.1213  0.1230
 5512SOL    HW228170   3.192   2.547   6.281  0.5820  1.1240  2.1375
 5513SOL     OW28171   2.699   1.751  16.722  0.2439  0.0219 -0.1901
 5513SOL    HW128172   2.621   1.767  16.669 -1.4286 -0.5185  2.1179
 5513SOL    HW228173   2.658   1.703  16.794  2.8559 -0.8875  0.6785
 5514SOL     OW28174   4.375   3.455   6.774 -0.3162  0.0688  0.6543
 5514SOL    HW128175   4.406   3.382   6.827  4.0538  0.6285 -1.1283
 5514SOL    HW228176   4.460   3.474   6.735 -1.2183 -2.0496 -2.3583
 5515SOL     OW28177   3.145   1.099  13.411 -0.0531 -0.3437 -0.3111
 5515SOL    HW128178   3.151   1.178  13.464  1.2637  1.9384 -3.8196
 5515SOL    HW228179   3.059   1.117  13.374 -0.7298 -1.3375  0.8089
 5516SOL     OW28180   3.573   4.330   5.696  0.1403  0.0054  0.0108
 5516SOL    HW128181   3.535   4.375   5.772 -1.1974 -0.0059 -0.6543
 5516SOL    HW228182   3.663   4.327   5.730 -0.3221  0.1177  1.2377
 5517SOL     OW28183   1.321   3.353  17.436 -0.0661 -0.1412 -0.0375
 5517SOL    HW128184   1.317   3.297  17.359 -0.0523 -1.5267  0.9578
 5517SOL    HW228185   1.413   3.340  17.462 -0.1579  0.9659  0.8810
 5518SOL     OW28186   4.693   4.531   4.666  0.0626 -0.1414  0.0001
 5518SOL    HW128187   4.659   4.565   4.749  0.0044 -0.1035 -0.0391
 5518SOL    HW228188   4.650   4.446   4.658  2.7354 -1.0991 -4.1452
 5519SOL     OW28189   3.640   3.652   3.230 -0.3485  0.3778 -0.2258
 5519SOL    HW128190   3.595   3.730   3.263  0.0193  0.7834 -0.6934
 5519SOL    HW228191   3.728   3.687   3.235 -0.5512  0.8362  0.2201
 5520SOL     OW28192   1.290   3.642   3.273  0.2721 -0.2916  0.2608
 5520SOL    HW128193   1.243   3.564   3.304 -1.0488  0.2049 -0.5037
 5520SOL    HW228194   1.297   3.621   3.180  4.1158  0.3995  0.3943
 5521SOL     OW28195   1.433   0.455   1.154 -0.2465  0.2688  0.1285
 5521SOL    HW128196   1.516   0.485   1.117 -0.3898 -0.1082 -0.4933
 5521SOL    HW228197   1.456   0.363   1.170 -1.5566  0.6954  4.5669
 5522SOL     OW28198   0.536   4.141   7.284 -0.3875  0.3887 -0.0753
 5522SOL    HW128199   0.468   4.092   7.329 -0.2071  0.1239 -0.0940
 5522SOL    HW228200   0.581   4.178   7.359  1.2615  0.6499 -1.1952
 5523SOL     OW28201   0.232   0.771   9.657 -0.3803 -0.3269  0.2846
 5523SOL    HW128202   0.137   0.775   9.668 -0.1685  2.0184  1.1818
 5523SOL    HW228203   0.254   0.820   9.736  0.7493 -0.6812  0.1881
 5524SOL     OW28204   1.114   4.301   2.255  0.0443  0.2439 -0.4200
 5524SOL    HW128205   1.100   4.388   2.219 -0.2413  1.4666  2.6482
 5524SOL    HW228206   1.026   4.291   2.291  0.7785 -0.0017  1.2990
 5525SOL     OW28207   1.268   0.635   0.739 -0.0841  0.3696 -0.1434
 5525SOL    HW128208   1.350   0.593   0.717  0.8904  2.2807 -0.1438
 5525SOL    HW228209   1.294   0.720   0.773 -3.2940  1.1956  0.3114
 5526SOL     OW28210   1.567   3.062   8.693  0.1533 -0.3924  0.1873
 5526SOL    HW128211   1.511   3.040   8.619 -0.1906  1.6863 -0.1733
 5526SOL    HW228212   1.603   3.148   8.672  0.6414 -0.9458 -1.2144
 5527SOL     OW28213   3.043   0.012   4.249 -0.5293 -0.4047 -0.6388
 5527SOL    HW128214   3.065   0.089   4.302  0.7029 -0.9325 -0.3807
 5527SOL    HW228215   2.986   0.047   4.182  0.5446 -2.3872 -2.5880
 5528SOL     OW28216   1.705   2.590  11.435 -0.6673 -0.8280 -0.4103
 5528SOL    HW128217   1.728   2.553  11.349 -1.0432 -1.7379 -0.1252
 5528SOL    HW228218   1.618   2.625  11.420 -0.1668 -0.7869 -3.1879
 5529SOL     OW28219   3.971   2.769   1.240  0.2061  0.1702  0.1081
 5529SOL    HW128220   4.006   2.841   1.187 -1.2283  0.2542 -0.7075
 5529SOL    HW228221   4.024   2.784   1.318  1.0267 -1.6315 -0.1013
 5530SOL     OW28222   1.513   4.190  13.332 -0.0512 -0.7678 -0.1335
 5530SOL    HW128223   1.468   4.223  13.410 -0.6126 -0.7067 -0.4849
 5530SOL    HW228224   1.572   4.126  13.370  2.0480  0.3810 -1.4649
 5531SOL     OW28225   2.520   2.450  12.871  0.0249  1.0245 -0.3908
 5531SOL    HW128226   2.469   2.517  12.916 -0.6235 -0.5620  1.2318
 5531SOL    HW228227   2.566   2.390  12.930 -0.8923 -1.5732 -2.3272
 5532SOL     OW28228   1.306   2.518  17.112  0.3184  0.1336  0.4591
 5532SOL    HW128229   1.390   2.494  17.151  2.0112  0.2341 -3.0779
 5532SOL    HW228230   1.258   2.559  17.184  1.5227  0.8230  0.8602
 5533SOL     OW28231   4.038   1.557  12.235  0.5386  0.2990 -0.0302
 5533SOL    HW128232   3.975   1.498  12.194  0.0277  1.0952 -0.3927
 5533SOL    HW228233   3.983   1.626  12.274 -1.8188 -2.4092  1.4501
 5534SOL     OW28234   2.991   0.558   7.021 -0.3055  0.0796 -0.2847
 5534SOL    HW128235   2.929   0.585   6.953 -0.9278 -1.3801 -0.3067
 5534SOL    HW228236   2.941   0.578   7.101  0.3270 -0.5473  0.2663
 5535SOL     OW28237   0.521   3.432   7.943  0.0112  0.6157  0.6739
 5535SOL    HW128238   0.571   3.393   8.014 -0.8367  2.0706  2.0499
 5535SOL    HW228239   0.522   3.357   7.883 -0.5510  0.3068  1.0507
 5536SOL     OW28240   3.951   3.991   8.125 -0.0852  0.0537  0.0016
 5536SOL    HW128241   4.021   3.968   8.186 -1.1961 -2.3971  0.3801
 5536SOL    HW228242   3.877   4.004   8.185  0.9736  0.5062  1.2130
 5537SOL     OW28243   1.899   3.619   7.381 -0.0600  0.1833 -0.3424
 5537SOL    HW128244   1.953   3.561   7.436  0.2685  0.3578 -0.4764
 5537SOL    HW228245   1.940   3.618   7.294 -0.1824 -1.3190 -0.3922
 5538SOL     OW28246   1.450   3.487   0.818 -0.0281  0.5146 -0.3336
 5538SOL    HW128247   1.407   3.448   0.742 -1.1694  1.4547 -0.1685
 5538SOL    HW228248   1.393   3.451   0.886  2.0923 -0.1322  1.1028
 5539SOL     OW28249   2.115   0.007   3.774 -0.2851  0.4116 -0.5840
 5539SOL    HW128250   2.129   0.029   3.682  1.3203  1.4704 -0.0977
 5539SOL    HW228251   2.205   4.717   3.794 -0.8356 -2.0405 -1.4236
 5540SOL     OW28252   1.148   2.463   5.505  0.2412  0.2811 -0.7587
 5540SOL    HW128253   1.126   2.469   5.412 -0.8786 -0.3773 -0.5401
 5540SOL    HW228254   1.155   2.369   5.525 -1.3609 -0.2519 -2.6795
 5541SOL     OW28255   4.257   3.066  16.832  0.2047  0.2361 -0.1388
 5541SOL    HW128256   4.238   3.149  16.875 -2.7260  0.2158 -1.3914
 5541SOL    HW228257   4.231   2.993  16.889  2.3978  0.2401  0.8821
 5542SOL     OW28258   3.231   4.414   4.935 -0.4501  0.0416  0.1874
 5542SOL    HW128259   3.282   4.389   4.858 -0.5153  1.0469 -0.1893
 5542SOL    HW228260   3.297   4.395   5.001 -1.0727 -0.4008  0.6890
 5543SOL     OW28261   3.768   2.838   9.134 -0.0725 -0.1193  0.2270
 5543SOL    HW128262   3.727   2.762   9.176 -2.2836  1.0942  0.2861
 5543SOL    HW228263   3.700   2.905   9.140  1.5415  1.6699 -1.4699
 5544SOL     OW28264   2.171   1.056   6.333 -0.2948 -0.1004  0.4233
 5544SOL    HW128265   2.144   1.006   6.410 -3.2842  1.1478  0.1746
 5544SOL    HW228266   2.267   1.048   6.340 -0.3897 -1.0971  0.4705
 5545SOL     OW28267   2.481   1.336   3.384  0.4556  0.3134 -0.2043
 5545SOL    HW128268   2.513   1.402   3.445 -0.5005  0.5017  0.1050
 5545SOL    HW228269   2.392   1.323   3.418  0.1890  3.2389  0.2052
 5546SOL     OW28270   4.360   1.975  13.775  0.2324 -0.2166  0.2967
 5546SOL    HW128271   4.312   1.926  13.707 -0.1950  0.8056 -0.1397
 5546SOL    HW228272   4.290   1.964  13.840 -0.5762 -0.8942 -0.6891
 5547SOL     OW28273   3.574   3.690   5.065 -0.1149 -0.4454 -0.2489
 5547SOL    HW128274   3.576   3.598   5.091  0.7359 -0.4706 -0.4034
 5547SOL    HW228275   3.666   3.705   5.042 -0.6929 -0.5069 -2.6299
 5548SOL     OW28276   0.744   2.846   1.582 -0.2695 -0.0225 -0.5006
 5548SOL    HW128277   0.764   2.758   1.550  0.1154 -0.9302  2.2017
 5548SOL    HW228278   0.689   2.892   1.519 -0.3177 -1.2852 -1.3920
 5549SOL     OW28279   2.158   1.277   8.148 -0.0723 -0.0825  0.2635
 5549SOL    HW128280   2.218   1.207   8.123  0.5358  0.7515 -0.6748
 5549SOL    HW228281   2.182   1.339   8.078  1.1041 -0.5677  0.2374
 5550SOL     OW28282   0.573   2.021   7.284  0.0611 -0.6629  0.3978
 5550SOL    HW128283   0.652   1.970   7.301  0.7177 -0.1019 -1.0322
 5550SOL    HW228284   0.585   2.093   7.346  0.9040  1.1989 -1.9359
 5551SOL     OW28285   1.566   1.637   2.348 -0.1694 -0.1309 -1.0675
 5551SOL    HW128286   1.562   1.710   2.410  1.9129 -2.2299  1.5292
 5551SOL    HW228287   1.535   1.576   2.414  2.6221 -0.3847  0.0161
 5552SOL     OW28288   1.318   0.935   1.718  0.2279 -0.2315 -0.3057
 5552SOL    HW128289   1.362   1.008   1.763 -0.9605  0.3561 -0.0991
 5552SOL    HW228290   1.378   0.929   1.644 -2.0666  0.0011 -2.1899
 5553SOL     OW28291   0.069   0.194   2.892 -0.6304 -0.1492  0.0543
 5553SOL    HW128292   0.047   0.177   2.800  0.6384  1.3844 -0.5374
 5553SOL    HW228293   0.065   0.289   2.900  1.4383  0.0745 -1.5543
 5554SOL     OW28294   4.347   0.383   9.307 -0.4431 -0.3464  0.4060
 5554SOL    HW128295   4.374   0.449   9.243 -1.3870 -2.8219 -2.5569
 5554SOL    HW228296   4.252   0.390   9.295 -0.3815 -0.6328 -0.2715
 5555SOL     OW28297   0.750   0.644   5.110  0.3446  0.6359  0.8691
 5555SOL    HW128298   0.701   0.563   5.093  1.8585 -0.0471 -0.2572
 5555SOL    HW228299   0.712   0.675   5.192  3.0851 -1.9449  3.1475
 5556SOL     OW28300   3.926   0.607   6.942 -0.0063  0.1321 -0.2341
 5556SOL    HW128301   3.962   0.519   6.943 -0.8347 -0.2127 -0.1216
 5556SOL    HW228302   3.831   0.596   6.946 -0.0996  1.4452  1.0027
 5557SOL     OW28303   1.310   1.197   1.957 -0.3940  0.3570  0.1096
 5557SOL    HW128304   1.379   1.141   1.992 -0.2992  0.6068  0.3199
 5557SOL    HW228305   1.331   1.287   1.984  1.2532  0.8154 -2.6041
 5558SOL     OW28306   2.945   1.825   5.024  0.9347 -0.3259  0.1745
 5558SOL    HW128307   2.984   1.738   5.039  0.9984 -0.3437 -0.1044
 5558SOL    HW228308   2.966   1.833   4.931 -1.0075  0.3078 -0.1972
 5559SOL     OW28309   2.936   2.765   7.254 -0.1821  0.1693  0.5460
 5559SOL    HW128310   2.994   2.841   7.263  0.1776  0.0878 -1.1597
 5559SOL    HW228311   2.851   2.799   7.284 -0.0142  1.1333 -0.0743
 5560SOL     OW28312   4.192   0.101   6.893 -0.6509  0.0626 -0.1086
 5560SOL    HW128313   4.109   0.062   6.921 -0.7808 -0.8411 -1.7909
 5560SOL    HW228314   4.204   0.059   6.808  1.8039 -0.2248  0.3870
 5561SOL     OW28315   4.125   3.455   7.944 -0.4807 -0.3857  0.0372
 5561SOL    HW128316   4.044   3.447   7.995 -1.0775  1.3248 -0.6517
 5561SOL    HW228317   4.184   3.468   8.018  1.4810 -1.5390 -1.3280
 5562SOL     OW28318   3.705   3.864  11.713  0.0156 -0.4727 -0.5995
 5562SOL    HW128319   3.758   3.792  11.677  1.5877  1.2124 -1.6395
 5562SOL    HW228320   3.657   3.895  11.637 -3.1931 -2.5751  0.5469
 5563SOL     OW28321   2.271   2.396  11.019  0.2520  0.2653 -0.0054
 5563SOL    HW128322   2.195   2.339  11.030  1.1724 -1.0597 -0.5134
 5563SOL    HW228323   2.271   2.453  11.096 -0.6951  0.8456 -0.4291
 5564SOL     OW28324   3.204   2.225   6.042  0.6452  0.5443 -0.4396
 5564SOL    HW128325   3.205   2.186   6.130 -1.6938  0.4811 -0.4390
 5564SOL    HW228326   3.264   2.166   5.996 -2.4127 -1.0956 -2.2812
 5565SOL     OW28327   2.428   3.175  14.397  0.0289  0.3895  0.1029
 5565SOL    HW128328   2.408   3.101  14.455  3.5533 -0.7422 -0.0767
 5565SOL    HW228329   2.350   3.230  14.399  0.0805  0.4908 -1.1455
 5566SOL     OW28330   0.342   0.112   7.712 -0.2082  0.4411 -0.4819
 5566SOL    HW128331   0.247   0.105   7.698  0.0594  2.8265 -3.4311
 5566SOL    HW228332   0.363   0.032   7.761 -0.6684  0.1028 -0.8350
 5567SOL     OW28333   0.770   0.333   8.103 -0.2886  0.2496 -0.3937
 5567SOL    HW128334   0.706   0.375   8.046 -1.8175 -0.9741  0.4245
 5567SOL    HW228335   0.851   0.383   8.092  0.1794 -0.4692 -0.2161
 5568SOL     OW28336   1.092   4.013   5.150 -1.0275  0.0457 -0.5113
 5568SOL    HW128337   1.161   3.976   5.204  0.3547  0.3196 -2.0817
 5568SOL    HW228338   1.138   4.012   5.066  1.0644  0.3370  0.6324
 5569SOL     OW28339   3.800   4.532   6.839  0.3874  0.4799  0.0160
 5569SOL    HW128340   3.807   4.596   6.910 -1.5297  1.1856 -0.4489
 5569SOL    HW228341   3.732   4.564   6.780 -0.0249 -2.4498 -1.0887
 5570SOL     OW28342   4.277   3.346   5.024  0.7122 -0.2286 -0.0077
 5570SOL    HW128343   4.198   3.327   5.074  0.6575 -0.9461 -0.3608
 5570SOL    HW228344   4.346   3.294   5.066 -0.3375 -0.9447  0.8132
 5571SOL     OW28345   4.214   0.670   1.090 -0.2417  0.2818 -0.0840
 5571SOL    HW128346   4.187   0.739   1.150 -0.7860 -0.1118  0.1247
 5571SOL    HW228347   4.243   0.600   1.150 -1.1013  0.0705  0.0874
 5572SOL     OW28348   4.010   0.124   6.585 -0.2440 -1.0717  0.1186
 5572SOL    HW128349   4.068   0.052   6.608 -0.2008 -0.9647  0.3359
 5572SOL    HW228350   4.054   0.138   6.501  2.6443 -2.0180  1.4801
 5573SOL     OW28351   0.995   0.025   7.009 -0.2255  0.0525  0.4921
 5573SOL    HW128352   0.904   0.049   7.026 -0.7224 -2.0255  0.7675
 5573SOL    HW228353   0.985   0.054   6.919 -0.4207 -0.1010  0.4643
 5574SOL     OW28354   2.052   4.562  16.734 -0.3254 -0.0164  0.1306
 5574SOL    HW128355   1.983   4.617  16.696 -0.9434 -0.5331  0.5137
 5574SOL    HW228356   2.097   4.632  16.780  0.8277 -0.8519  0.2641
 5575SOL     OW28357   2.744   0.144   1.970  0.5771 -0.5536 -0.0193
 5575SOL    HW128358   2.661   0.099   1.953 -0.1553 -0.0860  2.3285
 5575SOL    HW228359   2.715   0.235   1.976  1.0338 -0.3191 -1.4065
 5576SOL     OW28360   3.329   0.385   9.806 -0.0023  0.7390 -0.7120
 5576SOL    HW128361   3.275   0.310   9.781  0.4597  0.3253 -0.4839
 5576SOL    HW228362   3.317   0.384   9.901 -2.7738  2.0435 -1.0493
 5577SOL     OW28363   1.080   2.161   7.336 -0.5782  0.1770 -0.2984
 5577SOL    HW128364   1.121   2.199   7.413 -0.5833 -1.5130  0.5150
 5577SOL    HW228365   1.153   2.176   7.276 -0.3752 -0.6860 -0.2531
 5578SOL     OW28366   3.584   4.061   8.879 -0.6155 -0.5330  0.5562
 5578SOL    HW128367   3.652   4.125   8.858 -2.0420  1.6402  2.4854
 5578SOL    HW228368   3.625   3.974   8.873  1.5927  0.4655  1.0203
 5579SOL     OW28369   0.679   4.438   2.659 -0.6480 -0.0685 -0.4078
 5579SOL    HW128370   0.586   4.442   2.682 -0.5795 -1.5172  0.0847
 5579SOL    HW228371   0.717   4.428   2.746 -0.1574 -1.6133 -0.7948
 5580SOL     OW28372   2.403   2.669  13.012 -0.0587  0.0688 -0.1824
 5580SOL    HW128373   2.421   2.762  12.998 -1.8822  1.1023  4.2277
 5580SOL    HW228374   2.432   2.662  13.103  0.1451 -2.4801 -0.4678
 5581SOL     OW28375   2.112   0.283   4.768  0.7971  0.3805  0.4799
 5581SOL    HW128376   2.089   0.225   4.695  2.1039  1.1639 -0.5564
 5581SOL    HW228377   2.030   0.327   4.788  0.1146 -1.5493  1.9833
 5582SOL     OW28378   1.083   2.473   3.880 -0.0136  0.6366 -0.2914
 5582SOL    HW128379   1.032   2.407   3.928  2.3980 -1.9773 -1.3142
 5582SOL    HW228380   1.024   2.495   3.808  0.3913 -0.2043 -0.8777
 5583SOL     OW28381   4.454   0.666   3.405 -0.1588 -0.1514 -0.9768
 5583SOL    HW128382   4.437   0.759   3.422  0.8788  0.1816 -1.7367
 5583SOL    HW228383   4.517   0.641   3.473 -2.2558  0.0621  1.0399
 5584SOL     OW28384   4.331   2.907   7.376 -0.3227 -0.9650  0.0790
 5584SOL    HW128385   4.376   2.978   7.423 -1.5394  1.4514 -2.4258
 5584SOL    HW228386   4.369   2.899   7.289 -1.6679  1.3475 -0.7300
 5585SOL     OW28387   3.414   0.570   7.372 -0.0847 -0.2572 -0.2098
 5585SOL    HW128388   3.417   0.477   7.396 -0.4999  0.6775  3.4411
 5585SOL    HW228389   3.338   0.575   7.314  0.7080 -0.6966 -1.2722
 5586SOL     OW28390   3.933   0.742   1.322 -0.0453 -0.4522 -0.3358
 5586SOL    HW128391   3.909   0.749   1.414 -0.7536  1.9686 -0.6912
 5586SOL    HW228392   3.853   0.712   1.279  0.0084 -0.5885 -0.3421
 5587SOL     OW28393   2.484   2.035   2.710 -0.2665 -0.6437 -0.1856
 5587SOL    HW128394   2.502   2.083   2.629  0.5193  0.7015  0.7911
 5587SOL    HW228395   2.565   1.984   2.714 -0.2453 -0.7194 -1.4987
 5588SOL     OW28396   2.634   2.755  10.348  0.6627  0.4624 -0.1742
 5588SOL    HW128397   2.539   2.754  10.335  0.5778  0.0819  0.4602
 5588SOL    HW228398   2.640   2.701  10.427  0.3821 -0.3846 -0.7262
 5589SOL     OW28399   3.350   0.518   7.977 -0.0615 -0.8047  0.3854
 5589SOL    HW128400   3.412   0.456   7.940  0.3992  0.5851 -1.1942
 5589SOL    HW228401   3.376   0.525   8.069  0.8690  0.8299  0.0020
 5590SOL     OW28402   2.046   1.363   2.928 -0.0980  0.0628  0.4531
 5590SOL    HW128403   2.122   1.416   2.905 -0.7930  0.3076 -1.2949
 5590SOL    HW228404   2.081   1.276   2.943  1.5866  0.5841 -0.4807
 5591SOL     OW28405   2.392   0.906  14.873 -0.3109  0.0079  0.1799
 5591SOL    HW128406   2.449   0.894  14.949  0.9604 -1.5947 -1.0413
 5591SOL    HW228407   2.302   0.898  14.907 -0.6470  1.9849 -0.2412
 5592SOL     OW28408   0.440   4.081  15.456  0.5872  0.0824 -0.0449
 5592SOL    HW128409   0.479   4.065  15.370  3.8199  0.9938  1.2629
 5592SOL    HW228410   0.500   4.151  15.480 -1.0028  1.4453 -0.0201
 5593SOL     OW28411   0.966   2.460  13.059  0.1333  0.2227  0.0776
 5593SOL    HW128412   0.893   2.408  13.025 -0.7575 -0.3568  2.8759
 5593SOL    HW228413   1.017   2.384  13.085  1.2952  0.6687 -0.8926
 5594SOL     OW28414   0.736   2.195   6.337  0.1818  0.0225  0.0911
 5594SOL    HW128415   0.664   2.225   6.392  0.8998 -0.7007  1.4076
 5594SOL    HW228416   0.722   2.101   6.320 -1.7326  0.9162 -3.3265
 5595SOL     OW28417   2.356   4.393   5.401  0.2185  0.1504  0.1135
 5595SOL    HW128418   2.389   4.380   5.313  2.1222  0.4745  0.7825
 5595SOL    HW228419   2.417   4.333   5.445 -1.0561 -1.2089  0.0393
 5596SOL     OW28420   0.640   0.376   4.311  0.2241 -0.2696 -0.0891
 5596SOL    HW128421   0.672   0.286   4.322 -1.1227 -0.8772 -1.1414
 5596SOL    HW228422   0.705   0.421   4.364 -4.0761  2.0100  3.3240
 5597SOL     OW28423   3.777   3.484   9.495  0.2277 -0.0414  0.3051
 5597SOL    HW128424   3.817   3.403   9.465 -0.8257 -1.1971  2.0775
 5597SOL    HW228425   3.800   3.485   9.588 -0.2329  2.3132  0.3937
 5598SOL     OW28426   3.502   1.418   2.676  0.2996  0.0762  0.5708
 5598SOL    HW128427   3.580   1.381   2.633  1.3852  0.1898  2.4613
 5598SOL    HW228428   3.521   1.434   2.768  2.7433 -0.3606  0.1574
 5599SOL     OW28429   3.825   0.176   0.901  0.4013  0.1756  0.3308
 5599SOL    HW128430   3.894   0.140   0.845  1.9870  0.2459  2.2573
 5599SOL    HW228431   3.869   0.155   0.983 -1.5079  1.8593  1.7756
 5600SOL     OW28432   0.669   0.485   8.649  0.0632  0.8455  0.1686
 5600SOL    HW128433   0.615   0.414   8.684  0.2358  0.1318 -1.0023
 5600SOL    HW228434   0.746   0.438   8.615  0.9947  0.9443  2.1778
 5601SOL     OW28435   0.641   3.191   1.254 -0.0693 -0.0250 -0.1015
 5601SOL    HW128436   0.575   3.240   1.205  1.4551  0.6952 -1.4632
 5601SOL    HW228437   0.644   3.245   1.333 -0.5173 -2.1804  1.3937
 5602SOL     OW28438   0.739   2.216   2.357  0.2410  0.2130 -0.3170
 5602SOL    HW128439   0.661   2.175   2.318  0.8578  0.6131 -1.9620
 5602SOL    HW228440   0.801   2.148   2.330 -0.0958 -1.3136  2.6864
 5603SOL     OW28441   3.528   1.788   7.027 -0.2161  0.2026 -0.2799
 5603SOL    HW128442   3.566   1.803   6.941 -1.8912 -0.8276 -1.1925
 5603SOL    HW228443   3.441   1.754   7.007 -0.3649  0.1906  0.3731
 5604SOL     OW28444   4.066   3.407   5.776  0.6635  0.2261  0.1258
 5604SOL    HW128445   4.014   3.486   5.791  2.1273  1.2053  0.0642
 5604SOL    HW228446   4.068   3.395   5.681  1.2452 -3.4421  0.5672
 5605SOL     OW28447   0.442   0.965  11.663  0.5328  0.5204  0.1235
 5605SOL    HW128448   0.463   0.955  11.756 -0.5199 -0.6963  0.2284
 5605SOL    HW228449   0.367   0.906  11.668  0.3537  0.7988  0.7114
 5606SOL     OW28450   3.617   0.434   9.750  0.4591  0.5837  0.1000
 5606SOL    HW128451   3.643   0.512   9.701  2.2799 -0.0185  0.1292
 5606SOL    HW228452   3.536   0.467   9.789 -0.2729 -1.8939  0.6753
 5607SOL     OW28453   4.272   1.293   6.589 -0.0976  0.4260 -0.0605
 5607SOL    HW128454   4.264   1.266   6.680  0.6149  1.9363  0.4480
 5607SOL    HW228455   4.235   1.381   6.586 -0.2487  0.3370 -1.1383
 5608SOL     OW28456   3.114   2.615   5.506  0.2079 -0.3502  0.4031
 5608SOL    HW128457   3.206   2.610   5.481 -0.1163 -1.4273 -0.5896
 5608SOL    HW228458   3.072   2.584   5.425 -1.1012  0.3465  0.8014
 5609SOL     OW28459   3.496   3.205   8.130  0.3413 -0.4593 -0.0408
 5609SOL    HW128460   3.498   3.297   8.104  0.0391 -0.3936  0.1725
 5609SOL    HW228461   3.438   3.203   8.205  0.0482  0.1296 -0.2491
 5610SOL     OW28462   1.917   0.259   8.852 -0.5973 -0.6491 -0.2822
 5610SOL    HW128463   2.009   0.284   8.868 -0.9045  1.0260 -1.1138
 5610SOL    HW228464   1.873   0.259   8.937  1.3342 -3.6870  0.7428
 5611SOL     OW28465   0.907   3.360  11.121  0.4814  0.2086  0.2666
 5611SOL    HW128466   0.919   3.304  11.197 -2.6226 -1.8556 -0.7794
 5611SOL    HW228467   0.811   3.359  11.123  0.4599  1.2698  0.1621
 5612SOL     OW28468   1.182   2.956   3.998  0.3349  0.0192 -0.5382
 5612SOL    HW128469   1.218   3.001   4.074 -0.6029  2.7694 -1.7395
 5612SOL    HW228470   1.181   2.865   4.030  1.1319 -0.4099 -1.7350
 5613SOL     OW28471   4.553   3.779   8.500 -0.6867  0.3901  0.1799
 5613SOL    HW128472   4.584   3.787   8.590 -0.5750 -1.2313  0.2763
 5613SOL    HW228473   4.459   3.776   8.518 -0.6107 -2.0213  0.1613
 5614SOL     OW28474   2.232   4.466  15.516  0.3380  0.7489  0.5737
 5614SOL    HW128475   2.174   4.496  15.445  4.9887  1.7030 -2.8380
 5614SOL    HW228476   2.172   4.396  15.539  0.7374 -0.0011 -0.6485
 5615SOL     OW28477   3.384   3.358  15.633 -0.1437 -0.0827 -0.0682
 5615SOL    HW128478   3.413   3.407  15.710 -1.6851  2.5864 -1.1722
 5615SOL    HW228479   3.291   3.348  15.652 -0.3136  0.3377 -0.6734
 5616SOL     OW28480   1.691   0.334   6.858 -0.1148 -0.5425  0.6837
 5616SOL    HW128481   1.662   0.316   6.769 -1.2620  0.3609  0.8773
 5616SOL    HW228482   1.612   0.334   6.911 -0.6939  1.9520 -0.1913
 5617SOL     OW28483   3.464   1.514   8.180 -0.0453 -0.0200  0.2347
 5617SOL    HW128484   3.556   1.496   8.199  0.2083 -0.1866 -1.1123
 5617SOL    HW228485   3.416   1.488   8.258 -0.6284  1.4917  0.3930
 5618SOL     OW28486   0.919   3.359   6.577  0.3663  0.6741  0.3667
 5618SOL    HW128487   0.890   3.400   6.495 -2.2759 -0.1577  0.8735
 5618SOL    HW228488   0.989   3.301   6.548 -0.9404 -0.6671 -0.1239
 5619SOL     OW28489   2.101   0.283  16.721 -0.1219  0.1021  0.3588
 5619SOL    HW128490   2.115   0.275  16.816 -0.4384  1.9110  0.5494
 5619SOL    HW228491   2.018   0.330  16.713 -1.4245 -2.4617 -1.2654
 5620SOL     OW28492   3.222   2.023  16.968 -0.6247 -0.2677  0.0292
 5620SOL    HW128493   3.299   1.966  16.975 -1.3599 -1.2966 -0.2021
 5620SOL    HW228494   3.217   2.028  16.872  0.7376  2.6409  0.1113
 5621SOL     OW28495   3.686   4.032   3.687  0.2739  0.2846  0.5361
 5621SOL    HW128496   3.675   4.017   3.780 -1.9060 -0.0780  0.2070
 5621SOL    HW228497   3.753   3.966   3.669 -1.3173 -1.4947  1.1143
 5622SOL     OW28498   3.467   2.012   1.787  1.1793  0.7825 -0.6379
 5622SOL    HW128499   3.457   2.081   1.721 -2.5418  0.3643 -0.5062
 5622SOL    HW228500   3.554   2.025   1.825  1.6847 -1.1153 -1.1386
 5623SOL     OW28501   2.394   3.917   7.767  0.4142 -0.4657 -0.1659
 5623SOL    HW128502   2.453   3.851   7.803  1.9008  0.6624 -0.5355
 5623SOL    HW228503   2.318   3.866   7.739  0.9044 -0.5583 -1.3103
 5624SOL     OW28504   1.249   3.560   8.863  0.1701 -0.4458 -0.1924
 5624SOL    HW128505   1.231   3.490   8.926  1.2050  0.4915  1.1591
 5624SOL    HW228506   1.343   3.550   8.848  0.0995  0.0192 -0.8995
 5625SOL     OW28507   3.968   0.194   5.859  0.2813 -0.1758  0.0478
 5625SOL    HW128508   4.061   0.211   5.870  0.6138 -2.3723  0.5260
 5625SOL    HW228509   3.933   0.181   5.947  3.6638  0.9567  1.5433
 5626SOL     OW28510   4.159   2.782   7.604 -0.0636  0.2544 -0.0981
 5626SOL    HW128511   4.146   2.687   7.598  0.1395  0.2421 -0.3601
 5626SOL    HW228512   4.164   2.805   7.511 -1.5413  0.0075 -0.2379
 5627SOL     OW28513   2.018   0.780   7.718  0.3019 -0.1198 -0.3890
 5627SOL    HW128514   2.018   0.851   7.782 -0.4920 -2.4221  2.1996
 5627SOL    HW228515   2.042   0.700   7.766 -2.5045 -0.3400  0.6285
 5628SOL     OW28516   0.405   3.342  15.421 -0.1801  0.3441 -0.5896
 5628SOL    HW128517   0.498   3.359  15.405 -0.4741  0.9220 -1.7007
 5628SOL    HW228518   0.399   3.260  15.373  1.1766 -0.3363  0.4040
 5629SOL     OW28519   2.928   4.382   7.390  0.3859  0.0132 -0.7128
 5629SOL    HW128520   2.932   4.312   7.325 -1.3613 -2.6251  2.0889
 5629SOL    HW228521   3.022   4.390   7.409  0.3478 -2.7558  0.5718
 5630SOL     OW28522   3.638   2.118   8.464  0.1614  0.2007 -0.1599
 5630SOL    HW128523   3.708   2.053   8.462  0.8212  0.9233 -0.7243
 5630SOL    HW228524   3.622   2.135   8.371  0.8521  0.5954 -0.2067
 5631SOL     OW28525   2.953   1.345  14.722 -0.1651  0.1199  0.5142
 5631SOL    HW128526   2.915   1.282  14.784  0.2573 -0.5016  0.1418
 5631SOL    HW228527   2.924   1.422  14.770  0.7499  0.7578  0.0391
 5632SOL     OW28528   2.586   3.004  16.169 -0.6395  0.1412  0.1151
 5632SOL    HW128529   2.539   3.044  16.243 -0.4555  0.8944 -0.1698
 5632SOL    HW228530   2.562   3.062  16.097 -0.9169  0.2657  0.3079
 5633SOL     OW28531   0.661   1.699   6.313 -0.6481 -0.4908  0.1347
 5633SOL    HW128532   0.749   1.722   6.283 -1.1050 -0.8629 -1.4769
 5633SOL    HW228533   0.663   1.705   6.408 -0.1848  2.7561 -0.1014
 5634SOL     OW28534   4.063   1.728  10.813  0.4487 -0.0939  0.3561
 5634SOL    HW128535   4.041   1.821  10.808 -0.9986 -0.4202  0.7724
 5634SOL    HW228536   4.062   1.706  10.906 -1.1525  2.4603  0.9663
 5635SOL     OW28537   2.526   1.102   5.546 -0.1974  0.0538 -0.0922
 5635SOL    HW128538   2.609   1.072   5.510  0.2714 -0.7620  1.6962
 5635SOL    HW228539   2.523   1.055   5.629  0.1922 -0.2994 -0.2763
 5636SOL     OW28540   3.900   3.819   2.188 -0.5261  0.0398  0.0869
 5636SOL    HW128541   3.852   3.772   2.120 -1.8689  0.4570  0.7533
 5636SOL    HW228542   3.962   3.751   2.212  0.8103  0.5037 -1.9902
 5637SOL     OW28543   0.242   1.542   4.831 -0.6628  0.0050 -0.0662
 5637SOL    HW128544   0.281   1.622   4.867 -1.2083 -0.3437  1.2906
 5637SOL    HW228545   0.187   1.579   4.762 -0.7207 -0.6465 -0.3702
 5638SOL     OW28546   1.429   2.194  15.708 -0.1428  0.1195 -0.2417
 5638SOL    HW128547   1.498   2.260  15.713  0.7013 -0.9133  1.6839
 5638SOL    HW228548   1.456   2.155  15.625  1.2491  0.0646  0.2418
 5639SOL     OW28549   2.921   1.293   2.107 -0.3848  0.3076 -0.3184
 5639SOL    HW128550   3.002   1.338   2.132 -0.1122  0.1887 -0.9791
 5639SOL    HW228551   2.880   1.284   2.193 -0.0975  0.3083 -0.1830
 5640SOL     OW28552   1.959   2.000   6.959  0.0497  0.1731 -0.0881
 5640SOL    HW128553   1.886   1.994   6.897 -0.5990 -0.8258  0.7742
 5640SOL    HW228554   1.922   1.986   7.046 -0.9106 -1.7797 -0.7930
 5641SOL     OW28555   2.187   0.801  16.429  0.0218  0.0624 -0.2815
 5641SOL    HW128556   2.179   0.772  16.520 -0.0904 -0.7551 -0.5502
 5641SOL    HW228557   2.137   0.736  16.379  1.7497 -0.3397 -1.5069
 5642SOL     OW28558   1.494   0.237  14.825  0.0063 -0.0847  0.1869
 5642SOL    HW128559   1.466   0.277  14.907  0.2794 -1.1844  0.8174
 5642SOL    HW228560   1.475   0.310  14.766 -1.7005 -0.8441 -0.2082
 5643SOL     OW28561   1.949   3.889  10.291 -0.1398  0.1366  0.2314
 5643SOL    HW128562   1.963   3.933  10.208  2.9395  0.6928  1.0547
 5643SOL    HW228563   2.029   3.919  10.334  1.7699 -1.5368 -2.1792
 5644SOL     OW28564   3.478   0.203  10.850 -0.2836 -0.1378  0.2311
 5644SOL    HW128565   3.458   0.134  10.786  0.2074 -0.1147  0.0464
 5644SOL    HW228566   3.564   0.176  10.884  0.6696  1.3433 -0.9793
 5645SOL     OW28567   0.025   3.912   1.343 -0.2053  0.0875 -0.2025
 5645SOL    HW128568   4.723   3.876   1.264 -0.1808  2.5861 -1.3461
 5645SOL    HW228569   0.112   3.872   1.333 -0.3189 -0.2114 -0.0119
 5646SOL     OW28570   0.390   3.167   8.298 -0.4403  0.0660 -0.8308
 5646SOL    HW128571   0.372   3.240   8.357 -1.3538 -0.9725  0.1831
 5646SOL    HW228572   0.433   3.103   8.355  2.9697  1.6620 -1.6212
 5647SOL     OW28573   0.314   2.141   5.949 -0.0137  0.6849  0.1154
 5647SOL    HW128574   0.289   2.051   5.970 -0.1122  0.6318 -0.2313
 5647SOL    HW228575   0.381   2.162   6.015  0.2349 -0.7202  0.3007
 5648SOL     OW28576   1.696   4.418   7.214  0.4214  0.6265  0.2937
 5648SOL    HW128577   1.647   4.390   7.137  2.1577  0.7377 -0.8477
 5648SOL    HW228578   1.711   4.505   7.178  1.4343 -0.2741 -1.4547
 5649SOL     OW28579   2.976   4.530  10.921  0.5888 -0.1850 -0.4077
 5649SOL    HW128580   3.014   4.618  10.922  1.4849 -0.5739  0.4975
 5649SOL    HW228581   2.937   4.528  10.834  0.4757  0.1244 -0.3648
 5650SOL     OW28582   2.439   1.040   6.360  0.5992  0.4481 -0.5449
 5650SOL    HW128583   2.474   1.036   6.449 -0.7935  0.7016  0.0115
 5650SOL    HW228584   2.458   0.953   6.325  0.4958  0.9012 -1.7245
 5651SOL     OW28585   0.409   0.271   9.461  0.5182 -0.0065  0.3103
 5651SOL    HW128586   0.341   0.325   9.502 -0.9345 -2.2721  0.8521
 5651SOL    HW228587   0.349   0.215   9.412 -0.2997  0.9609  0.2067
 5652SOL     OW28588   1.707   2.912   2.661 -0.0663 -0.4305 -0.0483
 5652SOL    HW128589   1.675   2.995   2.696 -0.2270  0.2805 -1.8873
 5652SOL    HW228590   1.637   2.900   2.598  2.0104 -2.2920 -2.0184
 5653SOL     OW28591   2.717   3.388   7.762 -0.1243 -0.0118  0.2766
 5653SOL    HW128592   2.731   3.481   7.742 -1.5610  0.4705  1.5422
 5653SOL    HW228593   2.757   3.339   7.690  1.0709  1.3711 -0.0105
 5654SOL     OW28594   0.057   4.425  11.582  0.5346  0.1312 -0.0244
 5654SOL    HW128595   0.135   4.480  11.580  1.5123 -1.2049  1.6921
 5654SOL    HW228596   0.077   4.367  11.509  0.3968  1.5669 -1.1994
 5655SOL     OW28597   1.268   1.912   2.654  0.1843 -0.1902  0.2870
 5655SOL    HW128598   1.264   1.855   2.730  1.3746 -1.5525 -0.6615
 5655SOL    HW228599   1.205   1.976   2.685  0.6123 -0.2002  1.1718
 5656SOL     OW28600   1.149   4.089   7.483  0.2188 -0.3518 -0.4186
 5656SOL    HW128601   1.167   4.043   7.401 -1.5279 -0.1197 -0.9455
 5656SOL    HW228602   1.112   4.174   7.459 -2.4176 -1.5843 -0.7691
 5657SOL     OW28603   2.865   0.804   1.240  0.3051 -0.3038 -0.7272
 5657SOL    HW128604   2.914   0.836   1.317 -0.3342  0.9973 -0.8662
 5657SOL    HW228605   2.925   0.746   1.194  2.0415  0.7353  0.2302
 5658SOL     OW28606   2.186   4.725  17.021  0.0077  0.1456  0.4475
 5658SOL    HW128607   2.106   0.041  17.026 -0.6705 -0.8454  0.0041
 5658SOL    HW228608   2.228   0.008  16.938  0.1433 -0.0329  0.4732
 5659SOL     OW28609   1.441   0.678   8.005  0.4700  0.1181 -0.1463
 5659SOL    HW128610   1.413   0.689   7.914  0.0499  2.0053  0.2071
 5659SOL    HW228611   1.435   0.768   8.037  0.4311  0.0153  0.1390
 5660SOL     OW28612   1.252   0.516   3.601  0.6255 -0.0591 -0.2569
 5660SOL    HW128613   1.165   0.552   3.585  0.1824 -0.3416  1.4790
 5660SOL    HW228614   1.267   0.440   3.545  0.1221 -0.2920 -0.0686
 5661SOL     OW28615   0.987   0.463   5.207  0.0282 -0.2844  0.0434
 5661SOL    HW128616   0.950   0.423   5.128 -1.1702  1.1523 -0.1331
 5661SOL    HW228617   0.979   0.557   5.187 -0.9277 -0.4247 -0.2550
 5662SOL     OW28618   3.396   2.165   3.192  0.4551  0.0157 -0.0965
 5662SOL    HW128619   3.447   2.210   3.125 -1.9938  1.0201 -1.3137
 5662SOL    HW228620   3.425   2.221   3.264  0.5844  0.6745 -0.6578
 5663SOL     OW28621   0.073   1.292   1.500  0.5593  0.1176 -0.0204
 5663SOL    HW128622   4.735   1.351   1.508  2.4846  2.3637  1.2811
 5663SOL    HW228623   0.149   1.343   1.528  0.6700 -0.0618  0.0119
 5664SOL     OW28624   2.711   2.565   8.115 -0.5297 -0.3749 -0.3762
 5664SOL    HW128625   2.652   2.639   8.133 -2.0265 -2.2241  2.2073
 5664SOL    HW228626   2.795   2.609   8.129 -2.4712  2.3888  2.6006
 5665SOL     OW28627   1.977   3.990   0.970  0.2233  0.1268  0.2246
 5665SOL    HW128628   1.959   3.961   0.881 -1.8270 -1.9423  1.3397
 5665SOL    HW228629   1.937   4.077   0.971  1.2167  0.5862  0.1392
 5666SOL     OW28630   1.191   2.564   6.406  0.2447 -0.2164  0.0828
 5666SOL    HW128631   1.099   2.538   6.404 -0.0317  0.6573  1.3753
 5666SOL    HW228632   1.214   2.519   6.325 -0.0002 -1.1026  0.5016
 5667SOL     OW28633   1.406   0.396  15.002  0.1884 -0.3166  0.2268
 5667SOL    HW128634   1.318   0.369  14.976  0.0978 -0.2448  0.4617
 5667SOL    HW228635   1.408   0.491  14.997  0.0552 -0.3726 -0.8962
 5668SOL     OW28636   3.137   2.740  16.768  0.5481 -0.2036  0.4231
 5668SOL    HW128637   3.225   2.708  16.788 -0.1594 -2.1826  0.3581
 5668SOL    HW228638   3.097   2.742  16.855  0.9358 -1.1341  0.6125
 5669SOL     OW28639   4.373   2.837   2.737 -0.3836 -0.1518  0.4954
 5669SOL    HW128640   4.318   2.912   2.713 -2.6208 -1.4848  1.4039
 5669SOL    HW228641   4.311   2.766   2.719 -0.7785  0.4759 -0.6307
 5670SOL     OW28642   4.011   0.648   8.791 -0.9008 -0.2313  0.5691
 5670SOL    HW128643   4.067   0.594   8.846 -0.3066 -0.4285 -0.2285
 5670SOL    HW228644   3.932   0.670   8.840  0.7764  1.1635  2.6389
 5671SOL     OW28645   3.949   1.287  10.475  0.4306  0.0754 -0.1773
 5671SOL    HW128646   3.952   1.353  10.406 -1.0272  0.5066  0.1882
 5671SOL    HW228647   4.012   1.227  10.434 -0.1024 -1.7614  1.6866
 5672SOL     OW28648   3.650   2.929   7.170 -0.2030 -0.0945  0.2231
 5672SOL    HW128649   3.682   3.015   7.144  0.9444  0.4310  3.3454
 5672SOL    HW228650   3.702   2.876   7.110 -0.9359  1.7325 -1.9931
 5673SOL     OW28651   2.937   4.453   2.960 -0.7468 -0.3571  0.5460
 5673SOL    HW128652   2.957   4.545   2.976  1.1164 -0.5561 -0.6825
 5673SOL    HW228653   2.993   4.411   3.025  0.8414 -0.9159 -1.1915
 5674SOL     OW28654   1.310   2.228   2.801 -0.5110 -0.0302 -0.0928
 5674SOL    HW128655   1.239   2.191   2.748 -0.6918  1.6706 -1.0277
 5674SOL    HW228656   1.256   2.256   2.875 -0.0368  0.4295  0.0768
 5675SOL     OW28657   1.035   1.833   6.840  0.3642 -0.2300 -0.2698
 5675SOL    HW128658   1.013   1.907   6.784 -0.9379  0.0525  0.6058
 5675SOL    HW228659   0.968   1.852   6.906  0.1797 -0.5188 -0.3702
 5676SOL     OW28660   0.316   4.340   5.116  0.4919 -0.1304 -0.3287
 5676SOL    HW128661   0.406   4.338   5.148  1.1846  1.2736 -2.1827
 5676SOL    HW228662   0.326   4.373   5.027 -0.5949  1.3206  0.0867
 5677SOL     OW28663   0.000   1.164  10.661 -0.5635 -0.1046 -0.4382
 5677SOL    HW128664   0.074   1.204  10.707  1.2121 -2.1298 -1.5243
 5677SOL    HW228665   4.683   1.240  10.642  2.9218  1.9678 -2.1556
 5678SOL     OW28666   1.895   3.055  10.245  0.3769 -0.1659 -0.3446
 5678SOL    HW128667   1.904   3.149  10.259 -0.7399 -0.1392  0.2300
 5678SOL    HW228668   1.912   3.055  10.150  1.0705 -0.6185 -0.2161
 5679SOL     OW28669   1.581   1.124   2.765  0.2196  0.8765  0.3032
 5679SOL    HW128670   1.515   1.148   2.829  0.4981 -2.0086  1.6704
 5679SOL    HW228671   1.659   1.167   2.801 -0.0731  0.3953  1.5223
 5680SOL     OW28672   4.635   0.089  11.946  0.6013  0.1250 -0.0346
 5680SOL    HW128673   4.667   0.168  11.989  1.6583 -0.5556  0.4700
 5680SOL    HW228674   4.583   0.043  12.011  0.3817  2.0780  1.1599
 5681SOL     OW28675   1.954   2.799  11.434  0.1671 -0.2253  0.0965
 5681SOL    HW128676   1.882   2.749  11.474 -0.2811  1.1816  1.0547
 5681SOL    HW228677   1.928   2.891  11.436 -1.2354 -0.6173 -0.0835
 5682SOL     OW28678   0.003   4.065   4.357  0.1033 -0.1637  0.4277
 5682SOL    HW128679   4.728   4.089   4.265  1.5636 -0.4301  0.1663
 5682SOL    HW228680   4.665   4.112   4.395  1.5577  1.3079  1.4934
 5683SOL     OW28681   3.702   2.236  12.559 -0.1002 -0.1071  0.3852
 5683SOL    HW128682   3.776   2.257  12.614  1.7330 -0.5481 -1.9188
 5683SOL    HW228683   3.638   2.304  12.582 -0.1487  0.3848 -1.1937
 5684SOL     OW28684   4.671   0.209  11.236 -0.2527  0.3099  0.0870
 5684SOL    HW128685   4.714   0.140  11.286 -0.1675  0.5039  0.2836
 5684SOL    HW228686   4.696   0.186  11.147  0.9148  0.2688  0.4290
 5685SOL     OW28687   4.024   1.996   5.457 -0.2810  0.1188  0.4068
 5685SOL    HW128688   3.941   2.041   5.446  0.1976  0.3492 -2.1891
 5685SOL    HW228689   3.995   1.906   5.442 -0.3657  0.3034 -0.5336
 5686SOL     OW28690   1.203   1.083  11.057  0.2301 -0.4397 -0.0815
 5686SOL    HW128691   1.218   0.991  11.077 -0.7981 -0.5274  0.3026
 5686SOL    HW228692   1.150   1.076  10.977  0.0125  0.8903 -0.0540
 5687SOL     OW28693   2.547   2.996  11.686  0.4288 -0.0201 -0.1763
 5687SOL    HW128694   2.560   3.048  11.765  0.9454  0.8400 -0.8325
 5687SOL    HW228695   2.598   3.047  11.623 -1.9975  0.9367 -1.3661
 5688SOL     OW28696   2.042   4.157   5.107 -0.0359  0.2048  0.6053
 5688SOL    HW128697   2.052   4.099   5.031  1.5822  0.4183  0.6443
 5688SOL    HW228698   2.134   4.175   5.126  0.1586 -2.0304  1.6953
 5689SOL     OW28699   4.476   3.104  17.110 -1.1431 -0.5745  0.2916
 5689SOL    HW128700   4.421   3.136  17.181 -0.6527  0.3059  0.2833
 5689SOL    HW228701   4.497   3.191  17.075 -0.9812  0.1462  2.1748
 5690SOL     OW28702   1.791   4.376   3.905  0.3309  0.2595 -0.2726
 5690SOL    HW128703   1.817   4.468   3.916 -0.6710  0.4495  0.5769
 5690SOL    HW228704   1.698   4.391   3.890 -0.0215 -1.8029 -0.0662
 5691SOL     OW28705   4.327   1.736   3.378 -0.1929  0.5463  0.3605
 5691SOL    HW128706   4.270   1.737   3.301 -0.8176 -0.3262  0.8058
 5691SOL    HW228707   4.358   1.645   3.373  0.9460  1.0110 -1.0682
 5692SOL     OW28708   2.262   1.547   3.260  0.6400 -0.3660  0.2958
 5692SOL    HW128709   2.322   1.496   3.206 -0.4483 -1.0078 -0.3242
 5692SOL    HW228710   2.308   1.588   3.332  1.5932  1.3955 -1.3084
 5693SOL     OW28711   2.462   1.571   7.150 -0.2837 -0.0401 -0.4972
 5693SOL    HW128712   2.481   1.590   7.241  2.1332 -0.2514 -0.9697
 5693SOL    HW228713   2.374   1.534   7.162  0.2393 -0.3228  2.2169
 5694SOL     OW28714   2.022   1.676   5.902 -0.4157 -0.1143 -0.1299
 5694SOL    HW128715   1.967   1.665   5.980 -1.3544  1.9170 -0.4892
 5694SOL    HW228716   2.097   1.625   5.930  0.8614  0.1360 -3.0391
 5695SOL     OW28717   4.150   2.863  10.364  0.0217 -0.0134  0.2229
 5695SOL    HW128718   4.087   2.865  10.436 -0.6747  1.8484 -0.4478
 5695SOL    HW228719   4.216   2.802  10.397  0.8276  0.9040  0.2853
 5696SOL     OW28720   0.904   2.058   6.720  0.0606  0.0003  0.3405
 5696SOL    HW128721   0.811   2.035   6.710 -0.1788  0.8530  0.5663
 5696SOL    HW228722   0.900   2.154   6.720  0.6847  0.0196 -0.5631
 5697SOL     OW28723   3.509   3.650  11.460  0.0386  0.6227  0.0896
 5697SOL    HW128724   3.533   3.743  11.454  0.2073  0.6451  1.2502
 5697SOL    HW228725   3.577   3.614  11.402 -1.4276 -0.1103 -1.1880
 5698SOL     OW28726   1.166   1.964   5.124  0.3672 -0.3521  0.2817
 5698SOL    HW128727   1.131   1.983   5.037 -0.7170 -1.9894  0.3571
 5698SOL    HW228728   1.189   1.871   5.123 -1.6144 -0.8671  1.9703
 5699SOL     OW28729   0.996   2.257   8.796  1.0023 -0.7050 -0.1909
 5699SOL    HW128730   0.905   2.259   8.825  1.6877  2.0598  1.7624
 5699SOL    HW228731   1.042   2.253   8.880 -0.8739  0.3520  0.8649
 5700SOL     OW28732   2.385   2.214   8.920 -0.0425  0.1729 -0.1281
 5700SOL    HW128733   2.475   2.245   8.922 -0.0112  0.0586  0.1868
 5700SOL    HW228734   2.369   2.196   9.012 -0.0429  0.3429 -0.0943
 5701SOL     OW28735   2.816   2.685  14.236 -0.1992  0.0081 -0.6414
 5701SOL    HW128736   2.776   2.604  14.268  0.2440 -0.0029 -0.1342
 5701SOL    HW228737   2.802   2.676  14.141  4.4191  1.3431 -1.4197
 5702SOL     OW28738   0.517   0.686   9.858 -0.8909 -0.0202 -0.2603
 5702SOL    HW128739   0.497   0.594   9.875  0.0590  0.0481  1.2747
 5702SOL    HW228740   0.535   0.686   9.764  0.5478 -0.2209  0.0112
 5703SOL     OW28741   0.927   1.889   2.642 -0.2656 -0.2799  1.1085
 5703SOL    HW128742   0.901   1.821   2.580  0.3636  0.3477  0.1628
 5703SOL    HW228743   0.887   1.850   2.720 -0.1758  1.4397  2.0257
 5704SOL     OW28744   0.633   3.613  16.827  0.4652 -0.1502 -0.1501
 5704SOL    HW128745   0.594   3.528  16.805 -2.3665  0.9210  0.6863
 5704SOL    HW228746   0.724   3.607  16.856  1.1320 -0.7506 -2.3839
 5705SOL     OW28747   2.500   2.084   4.111 -0.1577 -0.0803 -0.4064
 5705SOL    HW128748   2.475   2.006   4.061 -0.3301 -1.4546  1.8562
 5705SOL    HW228749   2.457   2.153   4.061 -3.4233 -3.2945 -1.9873
 5706SOL     OW28750   0.998   1.593   4.242  0.6288 -0.5324  0.3087
 5706SOL    HW128751   0.985   1.684   4.268  2.0474  0.3489 -2.1302
 5706SOL    HW228752   0.981   1.554   4.328  2.3605 -0.2695  0.7763
 5707SOL     OW28753   0.709   1.193   7.689  0.7400  0.0089  0.0996
 5707SOL    HW128754   0.708   1.097   7.681  1.7752  0.2438 -2.7749
 5707SOL    HW228755   0.676   1.210   7.601 -0.5772 -1.3711  0.3306
 5708SOL     OW28756   1.426   2.632  13.585  0.2755 -0.1541  0.1383
 5708SOL    HW128757   1.352   2.649  13.527  0.5872 -1.8594 -0.7682
 5708SOL    HW228758   1.373   2.622  13.664 -1.0533  2.2813 -0.4596
 5709SOL     OW28759   2.747   2.256   7.599 -0.1641 -0.1519 -0.0603
 5709SOL    HW128760   2.827   2.284   7.644  0.0525  1.5215 -1.4956
 5709SOL    HW228761   2.761   2.278   7.507  0.1473  0.6079  0.1697
 5710SOL     OW28762   1.464   4.568  16.421  0.3886  0.1533 -0.1297
 5710SOL    HW128763   1.511   4.651  16.406  1.7172 -0.8064 -1.3310
 5710SOL    HW228764   1.540   4.518  16.452  0.3781  0.9929  1.2673
 5711SOL     OW28765   2.155   3.891   6.140 -0.8659 -0.3886 -0.9579
 5711SOL    HW128766   2.249   3.882   6.154 -0.7573  1.6582 -0.4712
 5711SOL    HW228767   2.131   3.938   6.220 -0.1737  2.4521 -2.4216
 5712SOL     OW28768   2.808   4.622  10.397  0.2695  0.0784  1.2175
 5712SOL    HW128769   2.748   4.569  10.344 -0.0536 -0.5308  2.1876
 5712SOL    HW228770   2.893   4.584  10.376  0.3982  0.8199  0.4074
 5713SOL     OW28771   3.557   0.047   2.119 -0.2366  0.5233  0.3319
 5713SOL    HW128772   3.536   0.140   2.110  2.2514  1.1248  0.6094
 5713SOL    HW228773   3.642   0.051   2.162  0.4706  0.1080 -1.0144
 5714SOL     OW28774   1.989   1.106   7.319  0.1336 -0.6227 -0.0392
 5714SOL    HW128775   1.976   1.044   7.391 -1.8324 -1.2305 -0.8933
 5714SOL    HW228776   2.077   1.139   7.336 -0.0073  0.1470 -0.8257
 5715SOL     OW28777   2.978   1.282   6.774  0.4221  0.1763  0.3172
 5715SOL    HW128778   2.989   1.363   6.726 -2.2499  0.6469  0.4977
 5715SOL    HW228779   2.984   1.216   6.705  2.0836  0.5444  0.1044
 5716SOL     OW28780   3.854   0.404   8.924 -0.5843  0.3907 -0.6820
 5716SOL    HW128781   3.816   0.375   8.842  0.5029  0.4345 -1.2037
 5716SOL    HW228782   3.939   0.360   8.931 -0.1179  1.6782  1.8903
 5717SOL     OW28783   2.269   2.456   2.432  0.0448 -0.0429  0.3786
 5717SOL    HW128784   2.269   2.361   2.418  0.2603  0.0548 -0.2944
 5717SOL    HW228785   2.215   2.493   2.362  0.3783  1.7051  1.0469
 5718SOL     OW28786   0.770   3.902   5.767 -0.0250  0.0483 -0.6959
 5718SOL    HW128787   0.840   3.966   5.761  0.3021 -0.2787 -0.3828
 5718SOL    HW228788   0.761   3.864   5.679  0.6067 -2.4545  0.3136
 5719SOL     OW28789   0.222   3.639   9.508 -0.6057  0.0135  0.1991
 5719SOL    HW128790   0.289   3.685   9.459 -1.4288  1.5636  0.5239
 5719SOL    HW228791   0.266   3.555   9.522 -1.0240  0.0866  1.9662
 5720SOL     OW28792   4.002   3.442   0.652  0.5808 -0.4689  0.0230
 5720SOL    HW128793   4.044   3.436   0.738  0.7956  1.9041  0.0732
 5720SOL    HW228794   3.911   3.421   0.672  0.1993  1.2316  0.0449
 5721SOL     OW28795   4.348   3.444   3.579  0.7147  0.2862 -0.1817
 5721SOL    HW128796   4.440   3.431   3.559  1.7127  2.2186  3.1207
 5721SOL    HW228797   4.339   3.406   3.666  0.2585  0.2328 -0.2493
 5722SOL     OW28798   2.461   1.612   7.921 -0.1281  0.1986  0.1321
 5722SOL    HW128799   2.477   1.668   7.844  1.2869 -1.0059 -0.4477
 5722SOL    HW228800   2.495   1.666   7.992 -1.7079  0.2277  0.8826
 5723SOL     OW28801   1.190   2.226   8.601  0.0588  0.0111  0.0781
 5723SOL    HW128802   1.110   2.221   8.654 -1.0140  0.0573 -1.5550
 5723SOL    HW228803   1.150   2.270   8.526 -0.4298 -1.1013 -0.3095
 5724SOL     OW28804   0.467   0.807   3.208 -0.0652  0.0809  0.6284
 5724SOL    HW128805   0.376   0.837   3.197 -0.3728 -1.1124 -0.0738
 5724SOL    HW228806   0.505   0.880   3.161 -0.0978  0.1399  0.6940
 5725SOL     OW28807   4.464   0.674   4.476 -0.3872 -0.9215 -0.0326
 5725SOL    HW128808   4.488   0.705   4.564 -1.4943  2.4007 -0.8815
 5725SOL    HW228809   4.417   0.754   4.451  1.4718  0.0640 -0.3183
 5726SOL     OW28810   1.759   1.922   6.448  0.6537  0.3091 -0.9348
 5726SOL    HW128811   1.803   2.006   6.465  3.6352 -1.1554 -1.5058
 5726SOL    HW228812   1.671   1.952   6.425  1.1900  1.5322 -1.4202
 5727SOL     OW28813   4.302   1.122  15.134  0.0878 -0.2630 -0.7845
 5727SOL    HW128814   4.352   1.077  15.066  0.7892 -1.9874  0.8698
 5727SOL    HW228815   4.248   1.177  15.077 -0.3372  1.3168  1.1548
 5728SOL     OW28816   0.259   1.031   4.828  0.0149 -0.2171  0.2785
 5728SOL    HW128817   0.264   1.022   4.923 -2.3096  0.0063  0.4304
 5728SOL    HW228818   0.185   0.970   4.822  0.2811 -0.7389  2.5221
 5729SOL     OW28819   0.497   4.509  12.163 -0.2833 -0.2502  0.5059
 5729SOL    HW128820   0.454   4.565  12.099  0.3565  1.4244  1.5626
 5729SOL    HW228821   0.535   4.580  12.214  2.0080 -0.5117 -0.8636
 5730SOL     OW28822   3.542   0.269   5.872 -0.2186  0.5504 -0.3643
 5730SOL    HW128823   3.547   0.222   5.789  0.9223  2.2465 -1.2672
 5730SOL    HW228824   3.540   0.358   5.835 -0.7113  0.1500 -1.3095
 5731SOL     OW28825   3.252   0.426   1.819  0.6184  0.0452 -0.0101
 5731SOL    HW128826   3.165   0.464   1.828  0.9844  1.7741 -3.7868
 5731SOL    HW228827   3.303   0.506   1.811  1.4565 -0.3302  1.5688
 5732SOL     OW28828   0.526   1.359  10.684 -0.1181 -0.4522 -0.0830
 5732SOL    HW128829   0.576   1.285  10.719 -1.4757 -1.0746  0.5330
 5732SOL    HW228830   0.592   1.401  10.629  0.1618  2.1531  2.2801
 5733SOL     OW28831   1.503   0.189   3.354  0.6635  0.6923  0.0316
 5733SOL    HW128832   1.589   0.195   3.312  1.4969 -1.5075  1.4110
 5733SOL    HW228833   1.521   0.193   3.448  1.2451  0.0840 -0.0499
 5734SOL     OW28834   0.821   3.595   8.193 -0.1000  0.0423 -0.6545
 5734SOL    HW128835   0.802   3.663   8.128  2.0309  1.8524  0.5865
 5734SOL    HW228836   0.795   3.515   8.148 -0.6108  0.8073 -1.7188
 5735SOL     OW28837   1.930   0.848   2.540  0.2182  0.2681  0.0274
 5735SOL    HW128838   1.962   0.892   2.619 -1.0131 -0.4340  0.9126
 5735SOL    HW228839   1.952   0.901   2.463  0.6033  1.0751  0.6818
 5736SOL     OW28840   0.990   3.021   6.767  0.8666  0.1138  0.2060
 5736SOL    HW128841   1.050   3.019   6.693 -0.2169  0.8441 -0.6980
 5736SOL    HW228842   1.004   2.935   6.806  1.7294 -0.3876 -1.2236
 5737SOL     OW28843   2.487   0.476   5.109 -0.5648  0.0660 -0.2702
 5737SOL    HW128844   2.568   0.471   5.059 -2.0154  0.1177 -2.6279
 5737SOL    HW228845   2.438   0.400   5.077  1.5680 -1.2218 -0.4299
 5738SOL     OW28846   0.166   1.544   5.841  0.0480  0.0807 -0.2573
 5738SOL    HW128847   0.153   1.622   5.787 -0.3016 -1.0406 -1.7934
 5738SOL    HW228848   0.115   1.484   5.787 -0.6550 -0.7354  1.3200
 5739SOL     OW28849   2.164   3.389   4.906  0.2225  0.1302  0.3147
 5739SOL    HW128850   2.229   3.347   4.850 -1.2747  1.1032 -2.1204
 5739SOL    HW228851   2.204   3.474   4.926  3.1111 -1.4707  1.3658
 5740SOL     OW28852   0.923   0.642   7.077 -0.1892  0.3188  0.0441
 5740SOL    HW128853   0.833   0.674   7.084 -0.7085 -1.3046  0.8578
 5740SOL    HW228854   0.960   0.681   6.998  1.7224 -0.7538  0.4017
 5741SOL     OW28855   1.313   3.794   1.706  0.5993  0.2695  0.0944
 5741SOL    HW128856   1.272   3.875   1.737  2.1807  1.8433 -1.9373
 5741SOL    HW228857   1.341   3.758   1.790 -0.8599 -1.6254 -0.2467
 5742SOL     OW28858   1.476   1.080   2.138  0.3149 -0.2552  0.0647
 5742SOL    HW128859   1.463   1.128   2.220 -2.4976 -0.4789 -0.2438
 5742SOL    HW228860   1.557   1.032   2.153 -0.9026 -2.8531 -1.8099
 5743SOL     OW28861   3.553   3.858   9.616 -0.3435 -0.0739  0.5773
 5743SOL    HW128862   3.559   3.807   9.697 -3.5823 -0.8964  0.3063
 5743SOL    HW228863   3.639   3.845   9.577  0.7774  1.3594  2.5726
 5744SOL     OW28864   0.201   1.395   5.301  0.2349  0.5595 -0.0207
 5744SOL    HW128865   0.238   1.376   5.215  0.6077 -0.2366  0.3109
 5744SOL    HW228866   0.225   1.312   5.344  0.1001 -0.0490 -1.1295
 5745SOL     OW28867   0.530   2.529  12.963  0.3456 -0.6293 -0.1483
 5745SOL    HW128868   0.502   2.526  12.872 -3.6090  3.7202  0.9456
 5745SOL    HW228869   0.625   2.516  12.962  0.3367 -0.8013  0.9486
 5746SOL     OW28870   2.789   1.313   8.350 -0.0515 -0.2190 -0.4622
 5746SOL    HW128871   2.744   1.272   8.276 -0.4298 -0.2599 -0.2106
 5746SOL    HW228872   2.721   1.333   8.414  0.9487  1.4933  0.0731
 5747SOL     OW28873   1.281   2.760   3.338 -0.2910  0.0834  0.7096
 5747SOL    HW128874   1.345   2.704   3.381  0.2973 -1.2041 -1.8468
 5747SOL    HW228875   1.329   2.842   3.350  0.8870 -0.5424  0.1767
 5748SOL     OW28876   1.269   1.469   4.586  0.6419 -0.0094 -0.2667
 5748SOL    HW128877   1.236   1.416   4.513 -0.6279 -1.0268  1.0522
 5748SOL    HW228878   1.196   1.528   4.605  0.9866  0.7769 -1.4121
 5749SOL     OW28879   1.362   0.580   2.493  0.3834  0.1525 -0.1059
 5749SOL    HW128880   1.451   0.547   2.503 -0.2283 -0.7067  2.6423
 5749SOL    HW228881   1.340   0.553   2.404  2.4896  2.1692 -1.2360
 5750SOL     OW28882   0.370   0.802   5.371  0.2066 -0.1177 -0.5775
 5750SOL    HW128883   0.289   0.822   5.417  0.8061  2.2709 -0.5714
 5750SOL    HW228884   0.337   0.751   5.297 -0.6701  0.9619 -0.9327
 5751SOL     OW28885   0.953   2.911  13.685  0.0956  0.3648  0.2235
 5751SOL    HW128886   0.926   2.934  13.597  0.0125  2.8072  0.8920
 5751SOL    HW228887   0.898   2.834  13.700 -2.7587  2.2723 -0.5656
 5752SOL     OW28888   4.677   4.729  14.560  0.4747 -0.1029  0.3409
 5752SOL    HW128889   0.005   4.690  14.618  0.9086  0.4952  0.2645
 5752SOL    HW228890   4.629   0.042  14.626  0.8359  1.7548 -0.8037
 5753SOL     OW28891   3.698   1.892   0.377 -0.1892 -0.1455 -0.2657
 5753SOL    HW128892   3.688   1.982   0.345 -0.9255 -0.7616 -1.7565
 5753SOL    HW228893   3.616   1.880   0.425 -1.3075 -0.7599 -2.3054
 5754SOL     OW28894   4.588   0.471  11.266  0.8921  0.4131  0.0702
 5754SOL    HW128895   4.633   0.392  11.237 -0.5229 -0.5400  0.4896
 5754SOL    HW228896   4.582   0.458  11.361  1.1082 -0.5198 -0.0485
 5755SOL     OW28897   4.614   2.951  17.324  0.6844  0.4498 -0.0882
 5755SOL    HW128898   4.653   3.031  17.358  0.3175  0.9119 -0.7526
 5755SOL    HW228899   4.584   2.973  17.235 -2.9672  1.5317  1.4096
 5756SOL     OW28900   3.711   4.666  10.897  0.0288  0.2463  0.1895
 5756SOL    HW128901   3.778   4.644  10.961 -0.0171 -1.2177 -0.2656
 5756SOL    HW228902   3.719   0.024  10.900  2.4443  0.0343  1.1058
 5757SOL     OW28903   0.873   0.948  11.168 -0.3525 -0.2988  0.4099
 5757SOL    HW128904   0.885   1.039  11.193  1.7812 -0.1512 -1.0777
 5757SOL    HW228905   0.834   0.950  11.080 -1.1415 -2.9404  0.7079
 5758SOL     OW28906   0.074   0.566  16.290 -0.1014  0.0998  0.1958
 5758SOL    HW128907   0.107   0.654  16.308  0.6301  0.3956 -2.5073
 5758SOL    HW228908   0.145   0.520  16.335  2.1095  0.7998 -2.5697
 5759SOL     OW28909   0.749   1.326   9.228 -0.0540 -0.3296  0.4325
 5759SOL    HW128910   0.715   1.380   9.157  1.5929 -0.0594 -0.1661
 5759SOL    HW228911   0.837   1.302   9.199  0.4616  1.4188  0.5479
 5760SOL     OW28912   1.219   0.895   6.762  0.1961 -0.1757 -0.1879
 5760SOL    HW128913   1.311   0.873   6.753 -0.2038 -1.8157 -0.3468
 5760SOL    HW228914   1.221   0.961   6.831 -2.1889  1.9269 -2.1291
 5761SOL     OW28915   2.714   1.392   8.682  0.2333  0.7356 -0.2723
 5761SOL    HW128916   2.620   1.401   8.666  0.5015  3.0944 -0.4360
 5761SOL    HW228917   2.708   1.325   8.751 -0.2591  0.2078 -0.8297
 5762SOL     OW28918   3.493   2.071   6.274  0.2205 -0.3675 -0.6148
 5762SOL    HW128919   3.528   2.037   6.356  0.7072  0.3844 -0.5157
 5762SOL    HW228920   3.398   2.060   6.278  0.1429  0.1940 -0.9290
 5763SOL     OW28921   3.192   3.794  16.843  0.2996 -0.0618 -0.1588
 5763SOL    HW128922   3.193   3.888  16.859 -0.2582 -0.3792  1.6846
 5763SOL    HW228923   3.283   3.788  16.813  0.4535 -2.7709  0.8076
 5764SOL     OW28924   1.536   2.685  13.949  0.0428 -0.7712  0.0158
 5764SOL    HW128925   1.511   2.615  14.010 -0.2454  1.3043  2.2944
 5764SOL    HW228926   1.458   2.671  13.895  0.3920  2.9630 -1.4128
 5765SOL     OW28927   3.328   2.782  13.390  0.3134 -0.4402  0.2588
 5765SOL    HW128928   3.272   2.806  13.317 -1.2003 -0.8967  1.2712
 5765SOL    HW228929   3.388   2.856  13.400  0.5189 -0.6398  0.5149
 5766SOL     OW28930   0.451   4.650   2.457 -0.2131 -0.3987  0.3351
 5766SOL    HW128931   0.393   4.634   2.382  1.0013  1.7608 -1.0664
 5766SOL    HW228932   0.407   4.591   2.518 -0.6380 -0.4047  0.0188
 5767SOL     OW28933   1.131   0.174   3.925  0.0838  0.2296  0.3357
 5767SOL    HW128934   1.108   0.260   3.889 -0.2132 -0.2635 -0.6559
 5767SOL    HW228935   1.061   0.149   3.985  0.2566  0.4261  0.6179
 5768SOL     OW28936   0.110   1.407   2.673  0.3192  0.4346  0.0978
 5768SOL    HW128937   0.103   1.313   2.688 -3.0149  0.6821  0.1069
 5768SOL    HW228938   0.166   1.405   2.596  1.0022 -1.0413  0.6477
 5769SOL     OW28939   0.959   2.921  17.212 -0.3211  0.4683 -0.0609
 5769SOL    HW128940   0.998   2.944  17.297  0.4924 -1.9882  0.2232
 5769SOL    HW228941   0.880   2.973  17.225  0.2484  1.2287  0.3916
 5770SOL     OW28942   3.340   1.959   5.945 -0.0551  0.1292 -0.0754
 5770SOL    HW128943   3.404   1.907   5.994 -0.0725 -0.3815 -0.5941
 5770SOL    HW228944   3.294   1.886   5.903 -0.0341  0.5303 -0.7977
 5771SOL     OW28945   3.395   4.319  13.720 -0.1660 -0.2771  0.4309
 5771SOL    HW128946   3.370   4.380  13.789  1.1803  1.6034 -0.7563
 5771SOL    HW228947   3.489   4.305  13.728 -0.5612 -3.2364 -0.0800
 5772SOL     OW28948   2.363   2.842   5.153  0.7208 -0.2455  0.2379
 5772SOL    HW128949   2.313   2.785   5.095 -1.9867  0.8815  1.4687
 5772SOL    HW228950   2.450   2.802   5.155  1.2911  0.9737 -0.2126
 5773SOL     OW28951   0.337   4.259   5.498  0.0304 -0.3870  0.1328
 5773SOL    HW128952   0.379   4.174   5.511  1.4968  0.0858 -1.5366
 5773SOL    HW228953   0.406   4.304   5.450  0.4499 -2.0413 -0.8211
 5774SOL     OW28954   4.535   4.400   8.735  0.1703  0.2070  0.1824
 5774SOL    HW128955   4.518   4.494   8.733 -2.7996 -0.3480 -1.1798
 5774SOL    HW228956   4.546   4.384   8.829  0.2828 -0.1215  0.1124
 5775SOL     OW28957   1.710   1.047  11.845 -0.1360 -0.1531  0.0470
 5775SOL    HW128958   1.649   1.028  11.916 -1.5690  0.2277 -1.0574
 5775SOL    HW228959   1.651   1.040  11.769 -1.0084 -0.2963  0.7428
 5776SOL     OW28960   1.157   2.193   3.503  0.0265  0.6756  0.0758
 5776SOL    HW128961   1.152   2.289   3.497 -0.6182  0.6696  0.5875
 5776SOL    HW228962   1.212   2.177   3.580 -1.1072  0.4159  0.8213
 5777SOL     OW28963   3.653   2.254   4.918 -0.0419 -0.0127 -0.7851
 5777SOL    HW128964   3.607   2.186   4.966 -0.6087  1.7731  1.2060
 5777SOL    HW228965   3.606   2.259   4.834 -1.7312 -1.9090  0.0510
 5778SOL     OW28966   0.126   0.016  14.831 -0.3432 -0.3096  0.2697
 5778SOL    HW128967   0.157   0.098  14.869 -0.2690 -0.1131 -0.2133
 5778SOL    HW228968   0.033   0.022  14.851 -0.6298  0.4127 -1.2477
 5779SOL     OW28969   4.531   3.908   2.658 -0.3802 -0.2737  0.1173
 5779SOL    HW128970   4.550   3.817   2.633 -0.6946 -0.5278  0.7934
 5779SOL    HW228971   4.483   3.954   2.589 -0.6379  0.0083  0.4859
 5780SOL     OW28972   4.229   3.085   2.731  0.0629 -0.2499 -0.4079
 5780SOL    HW128973   4.207   3.106   2.640  0.8287 -0.2529 -0.5957
 5780SOL    HW228974   4.266   3.168   2.761 -0.3612 -0.1020 -0.2827
 5781SOL     OW28975   3.351   0.696  12.087 -0.0137 -0.1284  0.0393
 5781SOL    HW128976   3.297   0.756  12.139  0.2617 -1.0376  1.3507
 5781SOL    HW228977   3.363   0.619  12.142 -1.5026  0.2236  0.8323
 5782SOL     OW28978   2.365   4.347  16.527 -0.1921 -0.0817 -0.3108
 5782SOL    HW128979   2.433   4.307  16.583 -0.6541  0.3476  0.5434
 5782SOL    HW228980   2.287   4.342  16.582 -0.0861  2.5257  0.0383
 5783SOL     OW28981   4.144   3.589   3.822 -0.2367 -0.1719  0.8509
 5783SOL    HW128982   4.091   3.509   3.818 -1.4927  0.7188 -0.6771
 5783SOL    HW228983   4.115   3.626   3.905  0.3828  0.7108  0.6771
 5784SOL     OW28984   3.302   3.838   5.259  0.4478  0.3688  0.1794
 5784SOL    HW128985   3.290   3.920   5.212 -0.2179 -0.3390 -0.8980
 5784SOL    HW228986   3.259   3.774   5.202  0.5935  1.6881 -1.3910
 5785SOL     OW28987   2.352   4.651   9.662 -0.3550  0.1553  0.1449
 5785SOL    HW128988   2.263   4.628   9.687 -0.3647 -1.4822 -1.4002
 5785SOL    HW228989   2.388   4.563   9.651 -2.7369 -0.8535  0.5675
 5786SOL     OW28990   2.907   0.065  17.612  0.2519 -0.1516  0.3446
 5786SOL    HW128991   2.886   0.151  17.576 -2.6018 -0.8696  0.3266
 5786SOL    HW228992   2.897   0.018  17.530  0.3917 -0.8201  0.7118
 5787SOL     OW28993   1.915   2.415   8.741 -0.3133 -0.2003  0.1766
 5787SOL    HW128994   1.872   2.474   8.803  3.1241  1.4558  0.9512
 5787SOL    HW228995   1.993   2.391   8.792  0.2875  1.3499 -0.0229
 5788SOL     OW28996   1.635   2.502   4.832  0.0503  0.1071  0.4638
 5788SOL    HW128997   1.728   2.507   4.809  0.3350  2.4850  2.0474
 5788SOL    HW228998   1.647   2.516   4.926  0.5841 -0.2304  0.4436
 5789SOL     OW28999   3.257   3.512   7.727  0.0397 -0.3165 -0.7560
 5789SOL    HW129000   3.253   3.607   7.739 -4.2445 -0.3679 -2.0325
 5789SOL    HW229001   3.351   3.498   7.715  0.4931  1.5440  0.5839
 5790SOL     OW29002   1.554   1.837   8.251  0.0120  0.1082 -0.6331
 5790SOL    HW129003   1.542   1.889   8.330 -1.7495 -2.0075  0.4934
 5790SOL    HW229004   1.475   1.783   8.252  0.9718 -1.2818  0.9423
 5791SOL     OW29005   0.194   3.615   5.515  0.5123  0.1518  0.3783
 5791SOL    HW129006   0.259   3.599   5.446 -0.0265  0.3116 -0.1659
 5791SOL    HW229007   0.247   3.676   5.567 -2.0222  1.8905  0.9597
 5792SOL     OW29008   3.780   0.736  12.838  0.1786  0.5538 -0.7832
 5792SOL    HW129009   3.725   0.658  12.841  1.8597 -0.5595  1.2629
 5792SOL    HW229010   3.802   0.752  12.930  2.5422 -0.1615 -1.2272
 5793SOL     OW29011   2.152   0.063  12.796 -0.1830  0.0651 -0.2601
 5793SOL    HW129012   2.148   0.064  12.701 -0.8275  1.1364 -0.2283
 5793SOL    HW229013   2.217   0.131  12.811  0.9723 -1.1943  0.4013
 5794SOL     OW29014   4.728   3.484  15.361 -0.1656  0.4277  0.0107
 5794SOL    HW129015   4.672   3.558  15.337 -0.8237 -0.0421  0.1336
 5794SOL    HW229016   0.078   3.513  15.331 -0.3778 -0.9456 -1.8911
 5795SOL     OW29017   0.396   3.227   6.142 -0.4544  0.6997  0.2506
 5795SOL    HW129018   0.482   3.184   6.137 -0.7451  0.1075  0.2844
 5795SOL    HW229019   0.394   3.250   6.235  0.0872 -3.3101  1.2771
 5796SOL     OW29020   1.112   2.446   4.204  0.0231 -0.2562 -0.4822
 5796SOL    HW129021   1.055   2.523   4.212 -0.3644 -0.4122 -1.7439
 5796SOL    HW229022   1.062   2.390   4.146  0.4420 -3.0914  1.8787
 5797SOL     OW29023   0.149   1.531  15.837  0.0022  0.4545  0.5218
 5797SOL    HW129024   0.183   1.605  15.787 -0.0014 -1.3813 -2.2392
 5797SOL    HW229025   0.082   1.495  15.779  1.0541  1.6695 -1.4511
 5798SOL     OW29026   2.404   0.392   1.534 -0.0779  0.4555 -0.2082
 5798SOL    HW129027   2.411   0.484   1.557 -0.8834  0.7067 -0.9477
 5798SOL    HW229028   2.426   0.367   1.624  1.3144  0.8899 -0.4359
 5799SOL     OW29029   1.173   0.864   3.462 -0.1037 -0.4004  0.4683
 5799SOL    HW129030   1.159   0.776   3.427  1.0577 -0.9132  1.3158
 5799SOL    HW229031   1.243   0.898   3.406 -1.6077  1.8347 -0.0776
 5800SOL     OW29032   3.243   2.769   7.236  0.0259 -0.1466 -0.0654
 5800SOL    HW129033   3.332   2.733   7.236 -0.2681 -0.9245 -2.1507
 5800SOL    HW229034   3.239   2.804   7.146 -0.3289  2.2907  0.8966
 5801SOL     OW29035   0.411   3.113   7.074  0.0339  0.1743  0.3384
 5801SOL    HW129036   0.420   3.102   6.979 -0.5533  2.5507  0.0021
 5801SOL    HW229037   0.495   3.090   7.113 -0.1959  2.3861  2.0798
 5802SOL     OW29038   1.124   4.568   3.586  0.1148 -0.2068 -0.2510
 5802SOL    HW129039   1.117   4.661   3.608  1.2536  0.1381 -1.3790
 5802SOL    HW229040   1.198   4.571   3.526  1.4466 -2.6664  1.3055
 5803SOL     OW29041   4.166   2.601   8.012 -0.2618  0.1516 -0.4520
 5803SOL    HW129042   4.186   2.691   7.986 -3.0070  1.0007  0.3278
 5803SOL    HW229043   4.100   2.623   8.079  1.8219  1.1210  1.2956
 5804SOL     OW29044   3.079   2.191   5.378 -0.1759  0.2609 -0.1468
 5804SOL    HW129045   3.048   2.101   5.375  2.6321 -0.7569  2.0641
 5804SOL    HW229046   3.013   2.244   5.332  0.0248 -0.3479 -1.1307
 5805SOL     OW29047   1.203   2.596   9.708  0.4750 -0.5704  0.1840
 5805SOL    HW129048   1.138   2.537   9.746 -2.2250  1.8316 -0.6618
 5805SOL    HW229049   1.226   2.539   9.634  0.6176 -0.8795  0.4669
 5806SOL     OW29050   2.193   3.146  10.214  0.4714 -0.0212 -0.5179
 5806SOL    HW129051   2.207   3.171  10.305  1.7234  0.4069 -0.8296
 5806SOL    HW229052   2.276   3.162  10.167 -0.1895 -2.6891 -2.6053
 5807SOL     OW29053   0.732   4.167  12.053 -0.5436 -0.1621  0.2143
 5807SOL    HW129054   0.648   4.198  12.086  0.9026  3.7209  0.2518
 5807SOL    HW229055   0.725   4.082  12.096 -1.1280  0.4983  1.4359
 5808SOL     OW29056   1.943   0.208  16.399 -0.4454  0.1435  0.0072
 5808SOL    HW129057   2.008   0.198  16.329  0.2564  1.0538  0.5248
 5808SOL    HW229058   1.861   0.211  16.350 -0.2431  0.6686 -0.3014
 5809SOL     OW29059   1.231   4.434   1.071  0.8072  0.0469 -0.2106
 5809SOL    HW129060   1.255   4.356   1.121 -1.0243 -0.6218 -0.3482
 5809SOL    HW229061   1.137   4.416   1.063  0.6477  1.7060 -1.8854
 5810SOL     OW29062   0.074   0.592  14.386 -0.3446 -0.1330 -0.7913
 5810SOL    HW129063   4.733   0.597  14.331 -0.1737  1.9324 -0.8240
 5810SOL    HW229064   0.098   0.499  14.386  1.4045  0.3186  0.3298
 5811SOL     OW29065   4.676   0.079   7.004 -0.0335  0.8130 -0.0943
 5811SOL    HW129066   4.604   0.140   6.985  0.4168  1.6129  0.7936
 5811SOL    HW229067   4.635   0.026   7.072 -0.9740 -0.9584 -2.0595
 5812SOL     OW29068   1.930   2.881   9.221  0.1849 -0.1041  0.1945
 5812SOL    HW129069   1.846   2.837   9.218 -0.4651  1.1699 -0.3583
 5812SOL    HW229070   1.966   2.851   9.305  0.6027 -0.5649 -0.1442
 5813SOL     OW29071   4.707   2.985   6.257  0.0376 -0.0263 -0.3648
 5813SOL    HW129072   4.670   3.067   6.223 -0.4362  0.2258  0.7608
 5813SOL    HW229073   0.014   3.016   6.336 -2.0885  2.5130 -0.1517
 5814SOL     OW29074   0.719   0.735  15.766 -0.3645  0.1733 -0.0306
 5814SOL    HW129075   0.749   0.824  15.785 -1.2163  0.2980  0.7508
 5814SOL    HW229076   0.737   0.691  15.849 -0.2095 -0.5396 -0.4415
 5815SOL     OW29077   3.808   1.357   4.018  0.2924  0.1162 -0.1836
 5815SOL    HW129078   3.844   1.337   4.105 -2.1783  0.9530  1.0372
 5815SOL    HW229079   3.856   1.437   3.998 -2.3016  1.3204 -1.5943
 5816SOL     OW29080   2.694   2.983  10.219  0.8081  0.2491 -0.3577
 5816SOL    HW129081   2.702   2.933  10.138 -1.1652 -0.7276  0.0407
 5816SOL    HW229082   2.670   2.912  10.279  0.0595  0.8034  0.0047
 5817SOL     OW29083   1.895   0.031   6.317  0.3469 -0.1748 -0.0387
 5817SOL    HW129084   1.799   0.025   6.319  0.2670  2.0621  2.8474
 5817SOL    HW229085   1.925   4.678   6.330  0.0360 -0.1385  0.9148
 5818SOL     OW29086   0.015   3.903   8.202  0.0586  0.4090  0.5916
 5818SOL    HW129087   4.676   3.890   8.145 -0.7088 -0.3692  1.8074
 5818SOL    HW229088   4.711   3.942   8.279 -0.2663 -0.0250  0.6348
 5819SOL     OW29089   3.178   2.108   7.123  0.2544  0.8240 -0.5346
 5819SOL    HW129090   3.131   2.186   7.092  0.0459  0.2796 -1.5754
 5819SOL    HW229091   3.103   2.055   7.147 -0.0346  1.6732  0.4284
 5820SOL     OW29092   4.655   1.505   6.378 -0.4442 -0.1127  0.4030
 5820SOL    HW129093   4.729   1.466   6.425  0.3789  0.5628 -0.3322
 5820SOL    HW229094   4.706   1.541   6.305  1.5952 -2.2544  0.7594
 5821SOL     OW29095   0.365   0.174   9.949  0.1173  0.1403 -0.0930
 5821SOL    HW129096   0.378   0.081   9.967 -0.2283  0.2148  0.5332
 5821SOL    HW229097   0.332   0.208  10.032  1.3894 -2.1926  1.3785
 5822SOL     OW29098   0.285   4.450   1.141  0.6190 -0.4767 -0.0458
 5822SOL    HW129099   0.224   4.517   1.113  0.2367 -0.1101  1.6552
 5822SOL    HW229100   0.315   4.494   1.221  1.8649 -0.3428 -0.5859
 5823SOL     OW29101   2.418   2.949   6.713 -0.2133  0.0297 -0.6830
 5823SOL    HW129102   2.498   2.960   6.765 -0.6363  0.8073 -0.1942
 5823SOL    HW229103   2.391   2.862   6.742 -0.3670 -0.7011 -3.0557
 5824SOL     OW29104   4.699   0.977   4.574  0.7502 -0.3190 -0.0609
 5824SOL    HW129105   0.031   0.989   4.640  2.2638 -0.9796 -1.5301
 5824SOL    HW229106   0.011   0.924   4.512 -0.3919 -2.0318  0.5019
 5825SOL     OW29107   2.159   4.061   6.357 -0.7665 -0.4260 -0.2996
 5825SOL    HW129108   2.116   4.125   6.414  4.1280  1.6058  1.1639
 5825SOL    HW229109   2.236   4.042   6.411 -2.0132 -3.4348  0.4121
 5826SOL     OW29110   1.392   3.202   6.987  0.4481 -0.3756  0.0928
 5826SOL    HW129111   1.364   3.204   7.078  2.6255  1.0522  0.7210
 5826SOL    HW229112   1.378   3.292   6.958 -0.5160 -0.3052  0.8051
 5827SOL     OW29113   2.154   2.570   3.403 -0.1200  0.6440 -0.0885
 5827SOL    HW129114   2.059   2.573   3.416 -0.0385 -0.0412  0.6430
 5827SOL    HW229115   2.180   2.619   3.481 -1.0003  0.6565  0.2027
 5828SOL     OW29116   1.773   2.393   2.149  0.2816  0.1708  0.2128
 5828SOL    HW129117   1.858   2.372   2.111  0.6329 -2.0670  2.2455
 5828SOL    HW229118   1.724   2.310   2.144 -1.4676  0.9166  4.6020
 5829SOL     OW29119   1.632   4.611   8.217  0.3262  0.5499  0.1982
 5829SOL    HW129120   1.675   4.555   8.152 -0.8379 -1.1357  0.8941
 5829SOL    HW229121   1.547   4.615   8.173  1.0061  0.6391 -1.1000
 5830SOL     OW29122   1.516   1.701  13.671 -0.0119 -0.2238  0.1961
 5830SOL    HW129123   1.433   1.655  13.661 -0.9625  1.1413  1.7660
 5830SOL    HW229124   1.528   1.688  13.765  0.0707  1.8314  0.4691
 5831SOL     OW29125   3.868   1.976   8.335  0.2306 -0.2768  0.5027
 5831SOL    HW129126   3.962   1.967   8.319 -0.1656 -1.8358 -0.9860
 5831SOL    HW229127   3.850   1.883   8.319  1.6519 -0.0997 -2.0260
 5832SOL     OW29128   0.914   0.181   7.710 -0.6142 -0.3814 -0.4952
 5832SOL    HW129129   0.928   0.258   7.654  0.0546  1.3203  2.0503
 5832SOL    HW229130   0.981   0.192   7.777 -0.4708  0.0735 -0.7108
 5833SOL     OW29131   3.540   2.988   6.573  0.1357 -0.3311  0.2126
 5833SOL    HW129132   3.593   2.924   6.620  0.2880 -0.6157 -0.3488
 5833SOL    HW229133   3.462   2.938   6.552 -1.5143  2.3105  0.0689
 5834SOL     OW29134   3.486   1.961  16.645  0.3825 -0.0866 -0.2710
 5834SOL    HW129135   3.539   1.898  16.694  0.8094  0.2746 -0.2777
 5834SOL    HW229136   3.395   1.951  16.674  0.7859  0.6327  1.2613
 5835SOL     OW29137   2.514   0.711   2.836 -0.3832  0.4172  0.3936
 5835SOL    HW129138   2.521   0.641   2.901  0.2939 -1.6838 -1.9828
 5835SOL    HW229139   2.434   0.691   2.789  0.4923 -2.2017  0.0215
 5836SOL     OW29140   4.405   4.598   2.516  0.2288  0.6078 -1.0447
 5836SOL    HW129141   4.349   4.641   2.580  1.6236  0.7109  0.0998
 5836SOL    HW229142   4.440   4.524   2.565 -2.8577  0.6535  1.2619
 5837SOL     OW29143   1.857   1.353   6.619 -0.0007  0.0212  0.3349
 5837SOL    HW129144   1.830   1.298   6.546 -0.5156 -0.4360  0.8748
 5837SOL    HW229145   1.881   1.435   6.575  0.5049 -0.7113 -0.7568
 5838SOL     OW29146   1.580   1.140   2.492  0.0283  0.5323 -0.1449
 5838SOL    HW129147   1.605   1.232   2.505  0.4681  0.6941 -2.1560
 5838SOL    HW229148   1.569   1.122   2.585 -1.4095 -1.3889 -0.6985
 5839SOL     OW29149   2.898   4.239  10.931  0.1821  0.0330 -0.4577
 5839SOL    HW129150   2.956   4.315  10.927  0.2088  0.0690  0.7570
 5839SOL    HW229151   2.814   4.273  10.900 -0.4905 -0.3703  0.9213
 5840SOL     OW29152   1.992   2.322   2.003  0.4567  0.3914 -0.5121
 5840SOL    HW129153   2.066   2.279   2.047 -0.7763  0.8991  2.0577
 5840SOL    HW229154   1.940   2.249   1.970 -0.2537 -0.1918  1.8855
 5841SOL     OW29155   2.487   1.926   6.278 -0.2897 -0.2079 -0.2889
 5841SOL    HW129156   2.446   1.895   6.359  1.1263 -0.6493  0.2568
 5841SOL    HW229157   2.522   1.839   6.260  0.8891  0.1361  0.3588
 5842SOL     OW29158   3.947   2.236   3.150  0.1597  0.3994 -0.4184
 5842SOL    HW129159   4.037   2.267   3.160  0.0213  0.2187  1.3434
 5842SOL    HW229160   3.907   2.320   3.168  0.8568  0.8087 -0.7563
 5843SOL     OW29161   4.153   4.347   5.132  0.0134  0.5168 -0.1157
 5843SOL    HW129162   4.109   4.322   5.051  0.3047  1.8548 -0.6834
 5843SOL    HW229163   4.112   4.283   5.191 -0.2090  0.0561 -0.7706
 5844SOL     OW29164   3.799   1.630  16.940 -0.2409  0.3568  0.2182
 5844SOL    HW129165   3.887   1.651  16.970 -1.2463 -0.0983  3.3946
 5844SOL    HW229166   3.817   1.554  16.884  0.5086  1.2460 -0.7507
 5845SOL     OW29167   3.393   1.519   8.464  0.9416  0.3207  0.4173
 5845SOL    HW129168   3.455   1.585   8.434 -0.3500  2.0213  1.4433
 5845SOL    HW229169   3.443   1.461   8.521  1.0502 -0.7064 -0.7337
 5846SOL     OW29170   0.880   0.016   8.648  0.1106 -0.0211 -0.1938
 5846SOL    HW129171   0.938   0.024   8.724  1.5243  2.0157 -1.4590
 5846SOL    HW229172   0.811   0.078   8.671 -0.5460 -1.2138  1.0346
 5847SOL     OW29173   4.597   3.692   6.734  0.1735 -0.1021  0.4921
 5847SOL    HW129174   4.640   3.757   6.790  1.2525  1.4727 -2.1876
 5847SOL    HW229175   4.507   3.719   6.753  0.6584  2.0761 -0.2843
 5848SOL     OW29176   1.612   3.946   1.180  0.4196 -0.0937 -0.2921
 5848SOL    HW129177   1.667   3.970   1.255 -2.0444  0.1595  1.4230
 5848SOL    HW229178   1.523   3.940   1.213 -0.5549 -0.6354 -3.0612
 5849SOL     OW29179   2.521   0.249  17.647 -0.2940 -0.2151 -0.7133
 5849SOL    HW129180   2.604   0.231  17.603 -1.3223  2.0620 -3.5294
 5849SOL    HW229181   2.539   0.208  17.732  2.1648  2.3268 -0.0042
 5850SOL     OW29182   4.724   3.252  12.074 -0.3290 -0.3073  0.0007
 5850SOL    HW129183   0.014   3.296  12.155 -2.3947  0.4903  0.2530
 5850SOL    HW229184   0.057   3.186  12.073 -0.5355 -0.5010 -1.0451
 5851SOL     OW29185   2.186   0.773   1.401 -0.1855  0.3013 -0.0156
 5851SOL    HW129186   2.184   0.862   1.365 -0.9987  0.1041 -0.4688
 5851SOL    HW229187   2.109   0.780   1.458 -0.1107  1.6297 -0.0778
 5852SOL     OW29188   0.459   1.707   0.039 -0.1645  0.3783  0.5103
 5852SOL    HW129189   0.542   1.677   0.002 -0.0558  0.8235  0.3876
 5852SOL    HW229190   0.484   1.744   0.124  1.4900  2.2216 -0.7501
 5853SOL     OW29191   2.388   3.497   5.610 -0.2609  0.0968  0.0594
 5853SOL    HW129192   2.332   3.445   5.668  2.0943 -1.9816  0.4678
 5853SOL    HW229193   2.362   3.583   5.641  0.8084  0.6012 -0.4438
 5854SOL     OW29194   3.771   4.725   1.678  0.1702 -0.0075 -0.1600
 5854SOL    HW129195   3.727   4.697   1.758  0.1564 -0.3958 -0.3039
 5854SOL    HW229196   3.706   4.718   1.608  0.2186  2.7569 -0.4720
 5855SOL     OW29197   1.019   4.589   3.233  0.2529  0.1455  0.1619
 5855SOL    HW129198   1.046   4.508   3.275 -0.9673  0.2195  1.1000
 5855SOL    HW229199   0.986   4.574   3.144  2.6543 -0.9770 -0.5497
 5856SOL     OW29200   3.974   1.447  16.770 -0.2015 -0.4894 -0.8734
 5856SOL    HW129201   3.995   1.380  16.834  1.6116 -0.6189 -1.5938
 5856SOL    HW229202   3.889   1.426  16.732  0.2837 -0.0626 -2.2260
 5857SOL     OW29203   1.481   0.161   5.186  0.7206  0.0099  0.3114
 5857SOL    HW129204   1.543   0.091   5.166 -0.3300 -0.0523 -2.6302
 5857SOL    HW229205   1.399   0.126   5.151  1.1554 -0.8248  0.1162
 5858SOL     OW29206   3.625   0.323  10.074  0.3293 -0.2343  0.7290
 5858SOL    HW129207   3.676   0.352   9.998 -0.8956  2.3595  0.9018
 5858SOL    HW229208   3.551   0.272  10.044  0.0307 -0.3391  1.6414
 5859SOL     OW29209   3.966   1.881  10.258 -0.9113 -0.3146  0.5354
 5859SOL    HW129210   3.893   1.820  10.258 -2.7808  1.9288 -1.2230
 5859SOL    HW229211   3.920   1.955  10.297 -1.1313  0.1741 -0.6545
 5860SOL     OW29212   4.696   1.563   5.229 -0.5745  0.5487 -0.1168
 5860SOL    HW129213   4.693   1.597   5.139  0.2524 -0.6741 -0.6148
 5860SOL    HW229214   0.044   1.519   5.241 -1.1932  0.0930  2.4734
 5861SOL     OW29215   0.798   4.653   7.664  0.5642 -0.3222 -0.0745
 5861SOL    HW129216   0.838   4.736   7.688 -2.3364  2.0915 -3.5687
 5861SOL    HW229217   0.712   4.676   7.630  0.5525 -1.6712 -0.9595
 5862SOL     OW29218   3.697   2.236   7.738  0.9834  0.7488 -0.1642
 5862SOL    HW129219   3.754   2.160   7.754  0.3970  0.4292  0.3916
 5862SOL    HW229220   3.703   2.255   7.644  0.7870  1.1973 -0.0809
 5863SOL     OW29221   3.479   0.938  10.211 -0.4804 -0.1037 -0.3940
 5863SOL    HW129222   3.517   1.008  10.263 -2.6545  2.4664 -2.2634
 5863SOL    HW229223   3.434   0.899  10.286 -0.4388  2.1867  0.8171
 5864SOL     OW29224   2.284   4.552   5.120  0.0718 -0.5114  0.4400
 5864SOL    HW129225   2.298   4.644   5.142  0.1263 -0.6010  0.7911
 5864SOL    HW229226   2.370   4.513   5.134 -0.3629 -2.4101 -2.1634
 5865SOL     OW29227   4.297   2.743   5.208  0.1497 -0.1529 -0.3776
 5865SOL    HW129228   4.225   2.765   5.149  1.6802  1.1834 -1.7217
 5865SOL    HW229229   4.244   2.739   5.288 -1.8162  3.1760 -1.5239
 5866SOL     OW29230   4.545   2.020   6.196  0.0379  0.1819 -0.4511
 5866SOL    HW129231   4.577   2.064   6.117 -0.2719  0.9422 -0.1506
 5866SOL    HW229232   4.457   1.998   6.165 -0.6345  0.8341  1.0313
 5867SOL     OW29233   1.901   2.504   2.382 -0.2918  0.4166  0.3942
 5867SOL    HW129234   1.928   2.412   2.388 -1.3957  0.0214 -0.6366
 5867SOL    HW229235   1.823   2.494   2.327  0.7111  1.5268 -1.2521
 5868SOL     OW29236   0.428   0.664   0.262  0.5236  0.2529 -0.6784
 5868SOL    HW129237   0.524   0.663   0.252  0.4429 -1.3404 -1.2833
 5868SOL    HW229238   0.408   0.737   0.203  0.7415  2.8037  2.4451
 5869SOL     OW29239   1.663   3.639   8.126 -0.1384 -0.2176  0.1555
 5869SOL    HW129240   1.602   3.606   8.061 -1.7367  0.1161  1.4820
 5869SOL    HW229241   1.682   3.725   8.089  1.1791 -0.2781  0.6924
 5870SOL     OW29242   2.698   0.440   1.671  0.0794 -0.8288  0.1917
 5870SOL    HW129243   2.708   0.476   1.759 -2.0240 -0.6731  0.3701
 5870SOL    HW229244   2.654   0.357   1.689 -0.6311 -0.1381  1.6451
 5871SOL     OW29245   4.188   0.824   5.133 -0.5611 -0.7181  0.0332
 5871SOL    HW129246   4.193   0.910   5.090 -1.4606 -0.5530  0.2694
 5871SOL    HW229247   4.106   0.790   5.099 -1.1162  0.5981  0.0314
 5872SOL     OW29248   3.102   4.455   9.498  0.1709 -0.3452 -0.0136
 5872SOL    HW129249   3.092   4.387   9.431  0.1041 -1.3195  0.9728
 5872SOL    HW229250   3.042   4.524   9.471  0.3544  0.0847  0.6708
 5873SOL     OW29251   0.623   2.046   8.982 -0.6874 -0.5837  0.1033
 5873SOL    HW129252   0.653   2.093   9.059  1.3394 -0.7692 -0.5837
 5873SOL    HW229253   0.658   1.957   8.988  1.7737  0.6061  3.1085
 5874SOL     OW29254   2.881   3.042   8.777  0.2130  0.2296 -0.1094
 5874SOL    HW129255   2.971   3.043   8.810  0.1474  2.6708  0.0176
 5874SOL    HW229256   2.828   3.031   8.856  2.3095 -0.3458  1.2151
 5875SOL     OW29257   3.474   1.195  16.586  0.1996  0.2311 -0.1311
 5875SOL    HW129258   3.565   1.173  16.603  1.0818  3.6115 -0.4535
 5875SOL    HW229259   3.432   1.157  16.663  1.8432 -1.4236 -0.0566
 5876SOL     OW29260   4.715   0.352   4.900 -0.1178 -0.0735  0.2514
 5876SOL    HW129261   0.043   0.284   4.920 -0.0483  0.3377  1.4216
 5876SOL    HW229262   4.640   0.300   4.871  1.4832 -1.0100 -2.1966
 5877SOL     OW29263   3.981   1.010   0.758  0.1287  0.1613  0.0185
 5877SOL    HW129264   3.956   0.945   0.824  0.9825 -1.1453 -0.9695
 5877SOL    HW229265   4.072   1.030   0.780 -0.1240 -0.7814  1.9724
 5878SOL     OW29266   3.042   2.748   3.028  0.6375  0.9990  0.5981
 5878SOL    HW129267   3.019   2.814   2.963  0.9923 -1.4488 -2.0561
 5878SOL    HW229268   3.120   2.700   3.000 -1.8618 -1.1084 -2.8539
 5879SOL     OW29269   2.683   2.352   5.934 -0.0536 -0.0144  0.6950
 5879SOL    HW129270   2.690   2.355   6.030  1.1735 -1.4692  0.6469
 5879SOL    HW229271   2.596   2.316   5.915  0.1989 -1.1611  1.7465
 5880SOL     OW29272   0.171   0.578  13.027 -0.0380  0.3842  0.0429
 5880SOL    HW129273   0.083   0.601  12.996  0.2958 -0.2414 -1.3828
 5880SOL    HW229274   0.186   0.626  13.108 -2.3812 -0.7812  1.1874
 5881SOL     OW29275   4.192   2.702   5.717 -0.0055  0.3802  0.2593
 5881SOL    HW129276   4.235   2.622   5.748 -0.7591 -0.7651 -1.6678
 5881SOL    HW229277   4.105   2.680   5.752 -0.5848  0.9115 -0.8467
 5882SOL     OW29278   2.493   2.483   6.731  0.5502  0.3301 -0.0061
 5882SOL    HW129279   2.470   2.490   6.639 -1.2105  1.5275  0.5226
 5882SOL    HW229280   2.588   2.470   6.737  0.6509  0.9846 -0.1717
 5883SOL     OW29281   2.162   1.984   4.171 -0.2454  1.0246 -0.1597
 5883SOL    HW129282   2.183   2.005   4.080 -0.4389 -0.1028 -0.4556
 5883SOL    HW229283   2.148   1.890   4.173  1.8846  0.6883 -1.5448
 5884SOL     OW29284   0.841   1.428  13.774 -0.1021 -0.2193  0.6452
 5884SOL    HW129285   0.833   1.494  13.705  2.0504  0.8111  1.3801
 5884SOL    HW229286   0.804   1.364  13.714  1.1281  1.3933 -1.8237
 5885SOL     OW29287   0.270   4.168   9.122 -0.6607 -0.3833  0.1582
 5885SOL    HW129288   0.184   4.129   9.140 -0.6025 -0.3778  0.4463
 5885SOL    HW229289   0.309   4.158   9.209  0.0915  0.5253 -0.0812
 5886SOL     OW29290   2.567   1.323  11.988 -0.2342 -0.0979  0.0475
 5886SOL    HW129291   2.646   1.315  12.042  0.7320 -1.1514 -1.5053
 5886SOL    HW229292   2.514   1.372  12.051  1.0056 -0.5596  1.4647
 5887SOL     OW29293   0.458   4.298   7.066 -0.3809 -0.1487  0.2106
 5887SOL    HW129294   0.489   4.261   7.149 -2.4198 -2.3177  0.0052
 5887SOL    HW229295   0.370   4.262   7.070 -1.0512  1.5160  0.7023
 5888SOL     OW29296   0.337   3.330   2.622 -0.3195  0.1650 -0.0615
 5888SOL    HW129297   0.391   3.261   2.661  1.1835  0.9001 -0.8170
 5888SOL    HW229298   0.411   3.380   2.589 -0.7586  0.0460 -1.2394
 5889SOL     OW29299   0.542   2.727   6.076 -0.8445 -0.1626  0.4762
 5889SOL    HW129300   0.549   2.681   5.992  0.0362  1.3284 -0.2784
 5889SOL    HW229301   0.462   2.775   6.053  0.6339  0.6723 -2.9545
 5890SOL     OW29302   1.062   3.314   6.845  0.2136 -0.0198 -0.4269
 5890SOL    HW129303   1.036   3.222   6.851  1.2668 -0.5366 -3.6839
 5890SOL    HW229304   1.032   3.339   6.758 -1.0983 -0.3291 -0.0662
 5891SOL     OW29305   1.466   4.686   9.015  0.2647 -0.0312  0.7178
 5891SOL    HW129306   1.424   4.728   8.941  0.2399  1.7977  1.7694
 5891SOL    HW229307   1.533   4.626   8.982  0.9645 -0.3392  2.6414
 5892SOL     OW29308   4.369   2.090   4.345  0.0162 -0.2409 -0.5788
 5892SOL    HW129309   4.451   2.137   4.359  1.0951 -2.6580  1.2092
 5892SOL    HW229310   4.317   2.166   4.318  0.8828  0.0696 -1.3638
 5893SOL     OW29311   3.132   0.750   3.806  0.4696  0.4981  0.1620
 5893SOL    HW129312   3.227   0.760   3.797  0.4350  1.5016  0.8752
 5893SOL    HW229313   3.092   0.812   3.746  2.2695  1.2809 -0.2467
 5894SOL     OW29314   0.949   3.160   7.933  0.0095  0.1114 -0.2331
 5894SOL    HW129315   0.856   3.146   7.918  0.6117 -2.0181 -1.9674
 5894SOL    HW229316   0.953   3.178   8.027  0.3025 -2.2770  0.2199
 5895SOL     OW29317   0.828   2.848  13.276  0.5774  0.3092  0.0807
 5895SOL    HW129318   0.780   2.894  13.345 -0.2736  0.1188 -0.3795
 5895SOL    HW229319   0.917   2.876  13.296  1.1441 -0.4207 -1.4590
 5896SOL     OW29320   0.695   0.384   1.377  0.1921  0.2046 -0.4073
 5896SOL    HW129321   0.726   0.300   1.411  0.2784  1.0981  1.7410
 5896SOL    HW229322   0.729   0.373   1.288 -0.7536 -0.1742 -0.7222
 5897SOL     OW29323   4.204   1.288   0.796  0.1181 -0.3292  0.0171
 5897SOL    HW129324   4.139   1.357   0.806  0.6674  0.2762 -0.6508
 5897SOL    HW229325   4.251   1.304   0.715 -3.3939  0.3207 -1.8933
 5898SOL     OW29326   0.595   4.265  10.299 -0.0810 -0.3155 -0.2884
 5898SOL    HW129327   0.611   4.282  10.206 -0.8722  0.4461 -0.2856
 5898SOL    HW229328   0.589   4.170  10.301  1.0027 -0.3651  0.5937
 5899SOL     OW29329   3.789   1.742   6.195  0.3574 -0.4045 -0.3945
 5899SOL    HW129330   3.790   1.808   6.126 -1.7808 -0.6108 -0.6287
 5899SOL    HW229331   3.865   1.764   6.250  0.5730 -0.0327 -0.8452
 5900SOL     OW29332   2.908   0.373   2.990 -0.0095 -0.4919 -0.2776
 5900SOL    HW129333   2.861   0.316   3.051  0.3180  1.0605  1.4218
 5900SOL    HW229334   2.972   0.412   3.050  0.9529 -1.1165 -0.9000
 5901SOL     OW29335   3.330   2.858   5.133  0.1411 -0.3294 -0.1883
 5901SOL    HW129336   3.358   2.947   5.152 -2.2550  0.0316  1.6242
 5901SOL    HW229337   3.399   2.834   5.070 -2.3238  0.6202 -3.2725
 5902SOL     OW29338   2.805   3.908   4.236 -0.1072 -0.1896  0.0018
 5902SOL    HW129339   2.709   3.915   4.235  0.0023  1.3154  0.0139
 5902SOL    HW229340   2.811   3.934   4.328  0.7678 -0.2987 -0.0274
 5903SOL     OW29341   1.687   4.510   8.962 -0.0210  0.2610  0.2494
 5903SOL    HW129342   1.700   4.416   8.960 -0.1599  0.2909 -3.1026
 5903SOL    HW229343   1.673   4.519   8.867  0.6333  4.4629  0.5501
 5904SOL     OW29344   4.538   1.159   5.941  0.4791  0.0614  0.1377
 5904SOL    HW129345   4.552   1.076   5.895  2.0904  2.2833 -3.4628
 5904SOL    HW229346   4.512   1.117   6.022  0.3426  2.5774  1.4130
 5905SOL     OW29347   0.319   4.255   8.462  0.4888 -0.7769  0.3250
 5905SOL    HW129348   0.380   4.330   8.463  2.9538 -2.7656 -0.6796
 5905SOL    HW229349   0.238   4.295   8.431  0.0575  0.2295  2.7714
 5906SOL     OW29350   2.922   4.053   6.500  0.3594  0.1175 -0.6231
 5906SOL    HW129351   2.867   4.051   6.422 -0.2542 -0.1306 -0.1897
 5906SOL    HW229352   2.988   3.995   6.462  1.4571  0.8654  0.1316
 5907SOL     OW29353   2.591   3.298   5.939  0.1496 -0.1983 -0.1993
 5907SOL    HW129354   2.628   3.256   6.017 -1.2731 -0.9978  0.0565
 5907SOL    HW229355   2.603   3.223   5.880  0.2492  0.6239 -1.2170
 5908SOL     OW29356   2.235   3.197  16.006 -0.1488 -0.3916  0.6766
 5908SOL    HW129357   2.182   3.267  16.042  0.2251 -0.6588  1.7565
 5908SOL    HW229358   2.208   3.124  16.062 -0.3350  1.6938  3.2780
 5909SOL     OW29359   2.211   3.799   7.584 -0.2608  0.1472 -0.0661
 5909SOL    HW129360   2.116   3.801   7.601 -0.3244  3.4815 -0.7272
 5909SOL    HW229361   2.223   3.752   7.502 -0.8319  0.0561 -0.0995
 5910SOL     OW29362   2.744   3.694   5.415  0.2516 -0.1104  0.0789
 5910SOL    HW129363   2.716   3.698   5.324  1.0439  1.1523 -0.1077
 5910SOL    HW229364   2.716   3.605   5.438  1.3623 -0.6355 -0.5817
 5911SOL     OW29365   4.184   4.499   7.813 -0.7353  0.0731 -0.7047
 5911SOL    HW129366   4.239   4.422   7.829 -3.1055 -1.7851 -1.4990
 5911SOL    HW229367   4.098   4.461   7.832 -1.2250  2.2407  1.5149
 5912SOL     OW29368   2.320   0.376   3.779  0.3756 -0.3619  0.4113
 5912SOL    HW129369   2.381   0.324   3.727  0.3049 -1.1075  1.0695
 5912SOL    HW229370   2.300   0.319   3.854 -1.0938 -0.6658 -0.2049
 5913SOL     OW29371   1.929   0.468   6.168  0.2658  0.0470  0.7319
 5913SOL    HW129372   1.920   0.380   6.130  0.1438  0.5892 -0.5172
 5913SOL    HW229373   2.024   0.469   6.179  0.2298 -1.7613  1.2597
 5914SOL     OW29374   4.427   3.963   3.762  0.0573 -0.0079 -0.6412
 5914SOL    HW129375   4.442   3.989   3.671  3.3535 -1.5017 -0.5168
 5914SOL    HW229376   4.431   3.867   3.763  0.1975  0.0190  0.8200
 5915SOL     OW29377   2.668   3.626   2.203  0.1124  0.2281 -0.5004
 5915SOL    HW129378   2.751   3.581   2.185  1.1125  1.6703  0.5206
 5915SOL    HW229379   2.668   3.680   2.124 -0.3929  2.1349  0.8102
 5916SOL     OW29380   3.179   1.493   3.652 -0.6567 -0.1234 -0.3019
 5916SOL    HW129381   3.116   1.565   3.649 -0.3114  0.1531 -1.1334
 5916SOL    HW229382   3.186   1.462   3.742  1.7207  1.0479 -0.0890
 5917SOL     OW29383   1.212   4.534  11.263 -0.2462  0.4718 -1.0542
 5917SOL    HW129384   1.182   4.446  11.283  0.9281  0.6161  1.3820
 5917SOL    HW229385   1.295   4.533  11.312 -1.5172  2.9757  1.1800
 5918SOL     OW29386   4.710   4.178   5.377  0.4494 -0.4081  0.3001
 5918SOL    HW129387   4.641   4.180   5.443 -1.8018 -1.3181 -1.9916
 5918SOL    HW229388   0.044   4.141   5.428 -1.3723 -1.2138  2.2469
 5919SOL     OW29389   2.977   2.116   5.912  0.4980  0.5558  0.5196
 5919SOL    HW129390   3.025   2.199   5.921  0.4548  0.6411 -0.0722
 5919SOL    HW229391   2.949   2.106   6.003 -0.7893  0.7259  0.1479
 5920SOL     OW29392   2.527   2.018   5.564 -0.4545 -0.3945  0.6915
 5920SOL    HW129393   2.551   2.048   5.476  0.1190  0.2329  1.0634
 5920SOL    HW229394   2.443   2.063   5.572 -0.0623  0.3809  0.4780
 5921SOL     OW29395   2.931   1.520   5.712  0.3372  0.8089 -0.0246
 5921SOL    HW129396   2.882   1.584   5.764 -2.0303  1.1944 -2.7205
 5921SOL    HW229397   2.883   1.532   5.630  0.2522  0.3706 -0.0402
 5922SOL     OW29398   3.256   0.758   7.497  0.1802 -0.0298  0.2369
 5922SOL    HW129399   3.300   0.828   7.450 -0.1759  0.9539  1.3736
 5922SOL    HW229400   3.300   0.679   7.465  2.2051  0.9943  0.5216
 5923SOL     OW29401   0.413   4.122   2.903  0.4000  0.4316 -0.5648
 5923SOL    HW129402   0.344   4.064   2.936  0.4104 -0.3236 -1.8786
 5923SOL    HW229403   0.476   4.065   2.859 -0.1707 -0.2574 -0.4953
 5924SOL     OW29404   4.537   0.450   5.305  0.2752  0.0685  0.0916
 5924SOL    HW129405   4.591   0.375   5.331  0.4668  0.5924  1.2031
 5924SOL    HW229406   4.467   0.404   5.260 -1.2684 -1.0748  3.6856
 5925SOL     OW29407   2.762   1.149  13.929  0.2259 -0.2074 -0.1423
 5925SOL    HW129408   2.756   1.122  14.021  1.0717  3.1999  0.9233
 5925SOL    HW229409   2.680   1.114  13.896 -0.8025  2.0138  0.0560
 5926SOL     OW29410   2.413   2.110   8.674  0.2961  0.2064 -0.0524
 5926SOL    HW129411   2.389   2.126   8.765 -2.0475  1.5105 -0.8991
 5926SOL    HW229412   2.507   2.123   8.685  0.4114 -0.0148 -0.7589
 5927SOL     OW29413   3.157   3.309  15.771  0.3141  0.6439  0.4677
 5927SOL    HW129414   3.202   3.321  15.855  0.9023  0.4761  0.1723
 5927SOL    HW229415   3.107   3.389  15.783  0.0104  0.6915 -1.1036
 5928SOL     OW29416   4.614   4.385   8.469 -0.6742  0.4721 -0.1706
 5928SOL    HW129417   4.689   4.328   8.488 -1.7568 -1.0914 -0.5764
 5928SOL    HW229418   4.576   4.390   8.557  2.1160  0.0973  1.0501
 5929SOL     OW29419   0.924   3.467   2.106  0.4932  0.2208 -0.0441
 5929SOL    HW129420   0.943   3.380   2.140 -1.7013 -0.3449 -0.2183
 5929SOL    HW229421   0.847   3.448   2.052 -0.7280  1.8992  1.1181
 5930SOL     OW29422   3.191   2.296   5.101  0.3693 -0.2275  0.0070
 5930SOL    HW129423   3.177   2.244   5.180  1.3670 -0.9422 -0.2988
 5930SOL    HW229424   3.268   2.262   5.057 -1.2909 -0.1607 -2.9551
 5931SOL     OW29425   0.356   3.608   4.529  0.1306  0.4294  0.0434
 5931SOL    HW129426   0.419   3.680   4.536  0.8204 -0.1269 -0.4421
 5931SOL    HW229427   0.296   3.633   4.599 -1.1105 -1.4585 -0.3368
 5932SOL     OW29428   4.077   1.172  16.901  0.1135 -0.2333 -0.4931
 5932SOL    HW129429   4.046   1.091  16.860  0.6137 -0.2600 -0.8117
 5932SOL    HW229430   4.169   1.172  16.874  0.4486  0.2710  0.6631
 5933SOL     OW29431   1.073   2.845   9.642  0.7530 -0.4657 -0.3736
 5933SOL    HW129432   1.104   2.755   9.651  0.5114 -0.7903 -2.7514
 5933SOL    HW229433   0.979   2.842   9.657  0.5035 -1.1145 -2.0896
 5934SOL     OW29434   2.437   0.001   6.290  0.1973 -0.2006 -0.3577
 5934SOL    HW129435   2.372   0.060   6.252 -1.8281 -3.1218 -1.4273
 5934SOL    HW229436   2.505   0.005   6.222  1.5146  0.2474  0.9895
 5935SOL     OW29437   2.191   4.084   7.270  0.6484 -0.0659 -0.8348
 5935SOL    HW129438   2.254   4.125   7.330 -0.2880  0.3604 -0.1412
 5935SOL    HW229439   2.190   4.153   7.203 -1.9554  0.7049 -0.0102
 5936SOL     OW29440   3.286   3.300  16.354  0.0114  0.1323  0.5845
 5936SOL    HW129441   3.292   3.324  16.447  0.8334  0.1738  0.5230
 5936SOL    HW229442   3.325   3.213  16.365  1.4567  0.7966  0.7991
 5937SOL     OW29443   1.927   1.975   6.054 -0.0684 -0.4790  0.2621
 5937SOL    HW129444   1.985   1.994   5.981 -2.3799  1.7325 -0.9729
 5937SOL    HW229445   1.947   2.046   6.115 -0.1759 -1.0791  1.0129
 5938SOL     OW29446   0.178   1.728  15.623 -0.2278  0.1552 -0.2047
 5938SOL    HW129447   0.085   1.750  15.632 -0.1551  0.6377 -0.5968
 5938SOL    HW229448   0.219   1.815  15.618 -0.3243  0.1601 -0.9198
 5939SOL     OW29449   1.185   1.550   6.262 -0.0141 -0.4400  0.1613
 5939SOL    HW129450   1.254   1.603   6.221 -2.1693  2.6400  0.5257
 5939SOL    HW229451   1.232   1.541   6.345  0.5091 -0.5035 -0.1384
 5940SOL     OW29452   0.356   0.927   2.757 -0.0651 -0.0525 -0.3936
 5940SOL    HW129453   0.386   1.005   2.710 -3.1774  0.3289 -1.7413
 5940SOL    HW229454   0.353   0.870   2.680  0.4668  0.4221 -0.7700
 5941SOL     OW29455   3.550   3.714   8.989  0.1025  0.5067  0.1288
 5941SOL    HW129456   3.642   3.737   8.982  0.5234 -1.1022  0.2355
 5941SOL    HW229457   3.499   3.792   8.970 -0.5833 -0.4700 -2.0351
 5942SOL     OW29458   0.864   2.629   8.277 -0.4498 -0.3263  0.6226
 5942SOL    HW129459   0.892   2.565   8.212  1.1551  1.9000 -0.9191
 5942SOL    HW229460   0.839   2.695   8.212 -1.8598 -2.0204 -0.5170
 5943SOL     OW29461   0.518   2.896   3.761  0.1796 -0.2872 -0.0437
 5943SOL    HW129462   0.488   2.983   3.737  0.2551 -0.7697 -1.9047
 5943SOL    HW229463   0.473   2.871   3.842 -0.8564 -1.0676 -0.8549
 5944SOL     OW29464   0.457   3.264   6.414 -0.2127  0.2384 -0.5797
 5944SOL    HW129465   0.492   3.346   6.378 -2.5918  1.1764 -0.7570
 5944SOL    HW229466   0.521   3.238   6.480 -0.9961 -1.4685 -0.4960
 5945SOL     OW29467   3.627   2.209   7.308  0.3347 -0.4143 -0.2975
 5945SOL    HW129468   3.538   2.198   7.341  0.1066  3.5611  0.4158
 5945SOL    HW229469   3.624   2.295   7.265  1.2977  0.4811  1.4159
 5946SOL     OW29470   2.907   0.220   2.512  0.6809  0.4642 -0.8651
 5946SOL    HW129471   2.826   0.249   2.554  0.6457  0.9686 -1.2843
 5946SOL    HW229472   2.875   0.186   2.428 -2.1913  2.4507 -0.6004
 5947SOL     OW29473   1.230   2.551   0.311  0.0202 -0.0207 -0.0057
 5947SOL    HW129474   1.277   2.633   0.325  0.3920 -0.0728 -0.9276
 5947SOL    HW229475   1.231   2.543   0.216  0.1933 -0.2655  0.0173
 5948SOL     OW29476   2.958   3.161   3.090  0.1398 -0.4086  0.5266
 5948SOL    HW129477   2.981   3.220   3.019 -0.7787 -1.8691 -1.0119
 5948SOL    HW229478   3.046   3.142   3.121  0.6828  1.6452  0.2255
 5949SOL     OW29479   4.707   4.651   9.459  0.1037 -0.1822  0.2466
 5949SOL    HW129480   4.655   4.595   9.518 -1.9197  1.5418  0.1024
 5949SOL    HW229481   4.686   4.737   9.496 -1.4971 -0.4461 -0.0302
 5950SOL     OW29482   3.331   0.479   9.560 -0.1509  0.0453 -0.0651
 5950SOL    HW129483   3.335   0.451   9.652  0.4206 -1.4183 -0.5399
 5950SOL    HW229484   3.352   0.570   9.583 -1.4901  0.6875 -1.4284
 5951SOL     OW29485   4.533   2.201  13.801  0.6429 -0.3818 -0.0949
 5951SOL    HW129486   4.466   2.133  13.801  1.2251 -0.9561 -1.1142
 5951SOL    HW229487   4.613   2.149  13.805  0.3409 -0.8887 -0.6729
 5952SOL     OW29488   4.336   0.714   2.709 -0.1559 -0.1155 -0.7030
 5952SOL    HW129489   4.297   0.769   2.642 -1.6146  0.3504  0.5225
 5952SOL    HW229490   4.342   0.780   2.779 -0.5182  1.3489 -2.0594
 5953SOL     OW29491   0.060   0.581   5.048  0.7861  0.6482 -0.3315
 5953SOL    HW129492   0.006   0.519   4.999  1.0883 -1.0260  1.4484
 5953SOL    HW229493   4.730   0.637   5.088 -1.5876 -2.7913  0.5776
 5954SOL     OW29494   0.646   3.641   7.767 -0.9379  0.2352 -0.2356
 5954SOL    HW129495   0.581   3.707   7.743 -0.7326  0.5702  0.1127
 5954SOL    HW229496   0.599   3.584   7.828 -1.1600 -1.1315 -1.6799
 5955SOL     OW29497   2.234   3.043   0.926 -0.1793 -0.3027 -0.0425
 5955SOL    HW129498   2.296   3.093   0.873 -1.5201  0.5842 -0.7679
 5955SOL    HW229499   2.150   3.062   0.884  0.1393  0.0991 -0.4957
 5956SOL     OW29500   2.400   4.708  12.985  0.4124 -0.4147 -0.5932
 5956SOL    HW129501   2.370   0.045  12.933 -1.8393 -1.3582 -0.6487
 5956SOL    HW229502   2.490   4.710  12.950  0.2302 -1.1611 -1.1116
 5957SOL     OW29503   1.682   2.373   0.960 -0.6122  0.0562  0.0404
 5957SOL    HW129504   1.773   2.402   0.955 -0.1986 -1.3823 -0.5449
 5957SOL    HW229505   1.684   2.291   0.911 -1.2712  1.5523 -2.4511
 5958SOL     OW29506   1.439   0.585   7.721  0.5948  0.3751 -0.3951
 5958SOL    HW129507   1.418   0.498   7.687  0.7600  0.7427 -1.4281
 5958SOL    HW229508   1.519   0.593   7.669  2.1055  1.3636  2.0741
 5959SOL     OW29509   2.340   2.179  14.620 -0.0520 -0.0039 -0.2862
 5959SOL    HW129510   2.356   2.091  14.655  0.2736  0.0760 -0.2318
 5959SOL    HW229511   2.279   2.210  14.687 -0.6760  0.5336 -1.1076
 5960SOL     OW29512   2.727   4.671   1.034 -0.4702 -0.0907  0.5064
 5960SOL    HW129513   2.662   4.673   1.105 -1.6074  1.2523 -0.5601
 5960SOL    HW229514   2.714   0.007   0.973 -3.5099 -0.1469  1.0725
 5961SOL     OW29515   0.386   2.572  14.249 -0.7436 -0.1179 -0.3657
 5961SOL    HW129516   0.328   2.642  14.278 -0.0600  0.2220  0.1909
 5961SOL    HW229517   0.326   2.499  14.237 -1.5988  0.8451 -1.8946
 5962SOL     OW29518   3.258   2.017   0.570  0.3579  0.0749 -0.9194
 5962SOL    HW129519   3.221   2.096   0.529  0.9875  0.8962  0.0929
 5962SOL    HW229520   3.184   1.961   0.592  1.3905 -1.1127 -0.5445
 5963SOL     OW29521   1.018   3.455  11.555  0.7654  0.3044  0.1226
 5963SOL    HW129522   0.947   3.506  11.515  0.7766  0.3253  0.1292
 5963SOL    HW229523   1.083   3.440  11.486 -0.3899  0.6116 -1.0416
 5964SOL     OW29524   1.924   1.243  15.523  0.3906 -0.3953  0.1361
 5964SOL    HW129525   1.885   1.280  15.603 -0.0131 -0.2713 -0.1171
 5964SOL    HW229526   1.852   1.225  15.463  0.4215 -1.9679  0.5822
 5965SOL     OW29527   4.192   4.522   4.773  0.0792 -0.0371  0.3637
 5965SOL    HW129528   4.256   4.481   4.714 -0.3948  0.0756 -0.2307
 5965SOL    HW229529   4.243   4.545   4.850 -0.5824 -1.2138  1.1507
 5966SOL     OW29530   0.575   1.371   5.568 -0.9136  0.1139  0.1725
 5966SOL    HW129531   0.499   1.426   5.549 -0.7667 -0.0205 -0.8400
 5966SOL    HW229532   0.536   1.284   5.566  0.2507 -0.3150 -3.9550
 5967SOL     OW29533   1.020   4.736   8.894 -0.6039 -0.4974 -0.3060
 5967SOL    HW129534   0.960   4.707   8.963 -0.0645 -1.8185 -0.3966
 5967SOL    HW229535   1.061   4.654   8.867 -0.4831 -0.7673  0.7232
 5968SOL     OW29536   1.178   3.592   5.424 -0.1689  0.4715  0.1392
 5968SOL    HW129537   1.228   3.670   5.447 -1.5389  1.8377 -1.4974
 5968SOL    HW229538   1.175   3.614   5.331 -0.4573 -0.9637 -0.1951
 5969SOL     OW29539   3.785   2.563   1.109  0.1985  0.0625  0.0380
 5969SOL    HW129540   3.808   2.495   1.172 -0.4311 -0.7675 -0.6164
 5969SOL    HW229541   3.849   2.632   1.128 -0.1014 -0.3680  2.6104
 5970SOL     OW29542   1.537   4.066  10.549  0.0270 -0.0264  0.0070
 5970SOL    HW129543   1.533   4.045  10.642  0.4549  0.8428  0.2197
 5970SOL    HW229544   1.513   4.159  10.555 -0.9118 -0.0939 -2.6140
 5971SOL     OW29545   3.678   1.366   3.225 -0.1033  0.4284 -0.5266
 5971SOL    HW129546   3.621   1.443   3.233  1.9161  1.7719  0.8116
 5971SOL    HW229547   3.662   1.337   3.135 -1.5479  1.6653 -0.6724
 5972SOL     OW29548   1.863   1.179   5.502  0.1608 -0.2067 -0.4225
 5972SOL    HW129549   1.946   1.154   5.543 -0.8968 -0.7769  1.3391
 5972SOL    HW229550   1.881   1.269   5.473  1.0395 -0.3641 -0.3667
 5973SOL     OW29551   2.240   3.647   8.257  1.0341 -0.5852 -0.2541
 5973SOL    HW129552   2.204   3.673   8.172 -1.5298  0.7221  1.2251
 5973SOL    HW229553   2.231   3.553   8.240 -1.6219 -0.7627  2.2830
 5974SOL     OW29554   4.129   1.751  17.682 -0.0428 -0.4530  0.2385
 5974SOL    HW129555   4.129   1.673  17.627 -2.7886 -0.1309 -0.2590
 5974SOL    HW229556   4.206   1.747  17.738 -0.6993 -0.1017  1.1785
 5975SOL     OW29557   2.097   1.649  15.488 -0.2710 -0.5092  0.1027
 5975SOL    HW129558   2.005   1.627  15.476  0.2228 -2.2795 -0.4587
 5975SOL    HW229559   2.139   1.563  15.494 -1.1125 -1.0007 -0.9728
 5976SOL     OW29560   2.206   3.858  16.058  0.0443  0.1503  0.5077
 5976SOL    HW129561   2.249   3.772  16.060 -0.0512  0.0434 -2.1313
 5976SOL    HW229562   2.281   3.913  16.034  1.1322 -0.1577  3.2822
 5977SOL     OW29563   2.866   1.767   9.405 -0.2940  0.3578  0.2037
 5977SOL    HW129564   2.894   1.841   9.459 -1.8926  1.8536 -1.0251
 5977SOL    HW229565   2.924   1.766   9.329  1.0992  0.4620  1.2737
 5978SOL     OW29566   2.870   2.957   5.857 -0.6265 -0.0544  0.3600
 5978SOL    HW129567   2.872   2.871   5.898  0.4866 -0.0638  0.2754
 5978SOL    HW229568   2.921   2.941   5.777 -0.8380 -1.9020  0.5946
 5979SOL     OW29569   2.896   0.717  11.584 -0.4452  0.5070 -0.3461
 5979SOL    HW129570   2.929   0.647  11.640  0.0857  0.2850 -0.9353
 5979SOL    HW229571   2.964   0.781  11.601  0.1036 -0.2850  0.4509
 5980SOL     OW29572   4.298   4.049   4.577  0.0953  0.0479 -0.1912
 5980SOL    HW129573   4.306   3.980   4.643 -0.4755 -0.5541 -0.7527
 5980SOL    HW229574   4.235   4.006   4.519 -0.6017  0.9192 -0.0805
 5981SOL     OW29575   0.897   1.967  10.653 -0.9800  0.0740  0.2895
 5981SOL    HW129576   0.948   2.032  10.604 -1.3478  1.5014  1.7985
 5981SOL    HW229577   0.937   1.961  10.739 -0.7981 -0.6747  0.1544
 5982SOL     OW29578   0.445   0.172  14.743 -0.3040 -0.3332  0.1417
 5982SOL    HW129579   0.380   0.181  14.673  0.4673 -1.0546 -0.6619
 5982SOL    HW229580   0.525   0.194  14.696 -0.1025  3.6883  2.3826
 5983SOL     OW29581   3.316   4.158   9.274 -0.2582  0.8621  0.5090
 5983SOL    HW129582   3.318   4.129   9.366  1.0739 -0.6101  0.0175
 5983SOL    HW229583   3.250   4.096   9.243 -0.3462  1.6923 -0.9536
 5984SOL     OW29584   3.126   4.714   1.769 -0.0350 -0.1930  0.6448
 5984SOL    HW129585   3.069   0.053   1.765  0.4770  0.0220 -2.7644
 5984SOL    HW229586   3.204   0.020   1.805  0.3455  0.9694 -1.5391
 5985SOL     OW29587   1.326   1.472   9.709 -0.3282  0.2268 -0.1838
 5985SOL    HW129588   1.245   1.493   9.756  1.0974  0.5486  2.1627
 5985SOL    HW229589   1.381   1.437   9.779  1.9080  5.6444  0.8064
 5986SOL     OW29590   4.478   3.149   3.102 -0.1750  0.6575 -0.0582
 5986SOL    HW129591   4.399   3.155   3.157 -2.4258 -1.3115 -3.0344
 5986SOL    HW229592   4.473   3.058   3.073 -0.3658  0.6650 -0.0545
 5987SOL     OW29593   0.481   3.410   1.796  0.0181 -0.6069  0.5789
 5987SOL    HW129594   0.509   3.452   1.715  2.3765 -0.3107  1.5227
 5987SOL    HW229595   0.409   3.466   1.824  2.1082  0.7707  3.2081
 5988SOL     OW29596   2.317   3.414   1.299 -0.2503 -0.0899  0.2447
 5988SOL    HW129597   2.251   3.378   1.240  1.5054 -2.3651 -0.2885
 5988SOL    HW229598   2.272   3.492   1.332  1.9185  0.6637  1.4063
 5989SOL     OW29599   3.451   0.570   4.224 -0.3058  0.0810  0.3971
 5989SOL    HW129600   3.538   0.541   4.251  0.1408 -0.6991 -1.9236
 5989SOL    HW229601   3.440   0.656   4.266  0.9359  0.6321 -0.4251
 5990SOL     OW29602   1.748   4.228   9.371 -0.2169  0.3354 -0.0595
 5990SOL    HW129603   1.813   4.289   9.336 -1.1130  1.0637 -0.4793
 5990SOL    HW229604   1.764   4.238   9.465  0.4783  0.5791 -0.2054
 5991SOL     OW29605   4.293   2.438   0.120  1.1226  0.7361 -0.0723
 5991SOL    HW129606   4.338   2.394   0.047  0.1332  1.1069 -0.9159
 5991SOL    HW229607   4.360   2.505   0.131  1.8358  0.3016 -1.7937
 5992SOL     OW29608   1.335   2.011   8.473 -0.2466  0.3342 -0.0726
 5992SOL    HW129609   1.421   2.028   8.512  0.0600  0.7446 -0.9406
 5992SOL    HW229610   1.291   2.093   8.495 -2.8405  0.0503 -4.3465
 5993SOL     OW29611   1.276   2.269   0.238 -0.3149 -0.0193 -0.2249
 5993SOL    HW129612   1.308   2.314   0.316 -0.8034 -0.6716  0.3549
 5993SOL    HW229613   1.211   2.333   0.208  0.3703  1.1130  0.7097
 5994SOL     OW29614   2.401   2.737   1.662  0.2408  0.4682 -0.0729
 5994SOL    HW129615   2.362   2.654   1.688 -1.9680  1.3487 -0.5920
 5994SOL    HW229616   2.446   2.712   1.581  3.7163  0.8681  1.7371
 5995SOL     OW29617   3.343   1.299   6.802  0.2826  0.2590  0.4004
 5995SOL    HW129618   3.287   1.278   6.726 -1.5011  0.4053  1.6642
 5995SOL    HW229619   3.433   1.306   6.771  0.5990 -1.4681  0.9049
 5996SOL     OW29620   4.631   0.203   5.411  0.7141 -0.5818 -0.1278
 5996SOL    HW129621   4.579   0.141   5.462  0.8453 -0.2536  0.4004
 5996SOL    HW229622   4.666   0.135   5.353  1.3804  1.0194 -1.5825
 5997SOL     OW29623   1.428   3.486  15.895  0.0724 -0.6817 -0.3844
 5997SOL    HW129624   1.432   3.580  15.914 -1.0398 -0.4755 -1.1800
 5997SOL    HW229625   1.441   3.495  15.800 -2.8802  0.8817 -0.6191
 5998SOL     OW29626   1.338   1.885   9.815  0.0843 -0.5416 -0.5035
 5998SOL    HW129627   1.402   1.899   9.745  1.0827 -0.0216  0.5059
 5998SOL    HW229628   1.374   1.918   9.897 -2.0409 -1.7221  0.8761
 5999SOL     OW29629   1.680   1.902  14.607  0.3263 -0.1391 -0.1818
 5999SOL    HW129630   1.628   1.822  14.613 -1.9015  1.5083  2.1952
 5999SOL    HW229631   1.772   1.874  14.613 -0.1771 -1.7432  0.0414
 6000SOL     OW29632   1.256   1.137  11.322  0.4519  0.3470 -0.2798
 6000SOL    HW129633   1.180   1.188  11.350 -0.3790 -0.0134 -1.8634
 6000SOL    HW229634   1.238   1.140  11.228  1.5932 -0.8974 -0.5329
 6001SOL     OW29635   4.648   1.071   3.513 -0.0149  0.4214 -0.8181
 6001SOL    HW129636   4.699   1.028   3.582 -2.0066  0.0936  0.4858
 6001SOL    HW229637   4.714   1.128   3.474  0.2091  0.9368  0.3089
 6002SOL     OW29638   1.320   3.267  13.410 -0.3463 -0.2323  0.0809
 6002SOL    HW129639   1.376   3.332  13.452  2.2694 -2.8836  0.7047
 6002SOL    HW229640   1.328   3.203  13.482  0.0791 -2.1858 -1.6982
 6003SOL     OW29641   3.050   2.917   5.352 -0.2096 -0.2290 -0.1992
 6003SOL    HW129642   3.058   2.826   5.324  2.3578  0.5676 -2.0427
 6003SOL    HW229643   3.050   2.961   5.267  0.0379 -1.6590 -0.9325
 6004SOL     OW29644   3.710   4.112   5.973  0.0592 -0.1150  0.5827
 6004SOL    HW129645   3.783   4.164   5.939  0.5094 -0.6511  0.7447
 6004SOL    HW229646   3.690   4.142   6.062 -0.3402  0.4494  0.3030
 6005SOL     OW29647   2.484   4.001   5.667 -0.1754 -0.4522  0.5477
 6005SOL    HW129648   2.488   3.909   5.695 -0.0260 -0.3792  0.7603
 6005SOL    HW229649   2.516   4.040   5.748 -1.6614  0.9316  0.4619
 6006SOL     OW29650   2.404   3.719   9.859 -0.1319 -0.3144 -0.2606
 6006SOL    HW129651   2.486   3.764   9.879  0.4845 -1.1721 -0.8771
 6006SOL    HW229652   2.376   3.700   9.948  1.3658  2.6670  0.8559
 6007SOL     OW29653   3.653   1.966   2.304 -0.2789  0.5526  0.2833
 6007SOL    HW129654   3.660   1.892   2.244  1.2858  1.0259 -0.1117
 6007SOL    HW229655   3.570   1.995   2.266 -0.6512 -0.5163  0.2921
 6008SOL     OW29656   4.179   2.375   6.086  0.3409  0.1793  0.5017
 6008SOL    HW129657   4.250   2.432   6.115 -0.7604  1.6941  0.1995
 6008SOL    HW229658   4.202   2.347   5.997 -0.5306  0.9721  0.0271
 6009SOL     OW29659   0.779   2.212   7.633 -0.1825 -0.3182  0.1465
 6009SOL    HW129660   0.744   2.128   7.660 -2.9170  1.0000  0.7203
 6009SOL    HW229661   0.873   2.195   7.641 -0.3698 -1.4824 -0.2060
 6010SOL     OW29662   1.847   0.060   5.537  0.0688 -0.4492  0.3333
 6010SOL    HW129663   1.791   0.114   5.482  0.5357 -0.3444 -0.0321
 6010SOL    HW229664   1.931   0.046   5.495 -0.0613 -1.6950  0.4749
 6011SOL     OW29665   2.966   2.562   4.597  0.0969 -0.0451 -0.1560
 6011SOL    HW129666   2.883   2.517   4.580 -0.0151 -0.3002  1.0887
 6011SOL    HW229667   2.932   2.649   4.618  0.6648 -0.4216  2.2823
 6012SOL     OW29668   2.889   3.321  14.904 -0.6161  0.0113  0.3844
 6012SOL    HW129669   2.847   3.352  14.823  4.0710  2.5851 -1.0957
 6012SOL    HW229670   2.917   3.395  14.958 -0.3799  1.5063 -1.7420
 6013SOL     OW29671   3.383   3.877   5.514  0.1039  0.0377 -0.4409
 6013SOL    HW129672   3.351   3.853   5.427  0.9978 -0.2609 -0.6863
 6013SOL    HW229673   3.391   3.973   5.508 -0.9712  0.3174  2.5856
 6014SOL     OW29674   2.582   2.801  11.027 -0.3847 -0.7912  0.0048
 6014SOL    HW129675   2.578   2.717  10.981  0.5489 -0.9762  0.2568
 6014SOL    HW229676   2.636   2.846  10.962 -0.7082 -0.8523 -0.3038
 6015SOL     OW29677   4.070   3.742   2.819 -0.1864 -0.1781  0.0144
 6015SOL    HW129678   3.989   3.702   2.852 -0.2646 -1.8228 -2.2397
 6015SOL    HW229679   4.127   3.734   2.896 -0.5734  0.9982  0.4332
 6016SOL     OW29680   0.177   4.494  16.125  0.5006  0.7317  0.3575
 6016SOL    HW129681   0.150   4.419  16.178  0.4540  0.5102  0.0132
 6016SOL    HW229682   0.096   4.520  16.082  0.9914  0.7387 -0.5479
 6017SOL     OW29683   1.873   1.257  12.998  0.1200 -0.2252  0.2622
 6017SOL    HW129684   1.931   1.198  13.046  1.3353 -0.7169 -1.7909
 6017SOL    HW229685   1.786   1.219  13.011  0.3616  0.5618  4.0658
 6018SOL     OW29686   1.934   1.468   1.786 -0.1371 -0.4835  0.6083
 6018SOL    HW129687   1.912   1.528   1.858  0.8346  1.5371 -0.7878
 6018SOL    HW229688   1.908   1.520   1.710 -1.9906 -2.3801 -0.0667
 6019SOL     OW29689   4.359   1.568   9.427 -0.6545  0.1655  0.0590
 6019SOL    HW129690   4.311   1.491   9.458  2.4474 -1.6946  0.2839
 6019SOL    HW229691   4.337   1.630   9.497 -1.8366 -1.0898  0.8263
 6020SOL     OW29692   2.617   1.756   2.990  0.6583 -0.3534 -0.3326
 6020SOL    HW129693   2.535   1.751   2.940 -0.5267 -0.2415  1.5901
 6020SOL    HW229694   2.639   1.847   2.970  3.7288 -1.2675 -1.1355
 6021SOL     OW29695   1.838   3.889   4.162  0.2438 -0.3790  0.3568
 6021SOL    HW129696   1.756   3.926   4.194  1.4274  0.7319  2.1187
 6021SOL    HW229697   1.836   3.885   4.067 -1.0086  0.4978  0.3602
 6022SOL     OW29698   2.950   0.484   6.626  0.1071 -0.8144  0.1964
 6022SOL    HW129699   2.985   0.471   6.538 -2.7967 -1.3858 -0.8755
 6022SOL    HW229700   2.984   0.415   6.682  1.7520  0.0870  0.2900
 6023SOL     OW29701   0.313   0.983   1.531 -0.3311 -0.1513 -0.2018
 6023SOL    HW129702   0.314   1.049   1.462  0.7067  0.8087  0.7375
 6023SOL    HW229703   0.328   1.040   1.606  2.3212 -0.2485 -0.6735
 6024SOL     OW29704   1.049   1.381  10.990 -0.1829 -0.1648  0.3900
 6024SOL    HW129705   0.984   1.344  10.930  1.3200 -0.5723 -0.9843
 6024SOL    HW229706   1.023   1.333  11.068 -1.8659  0.8186  0.4528
 6025SOL     OW29707   0.810   2.597   1.509  0.4022  0.7280  0.4683
 6025SOL    HW129708   0.876   2.530   1.493  0.9148  1.1769  0.7336
 6025SOL    HW229709   0.781   2.577   1.598 -2.4215  1.9146 -0.1486
 6026SOL     OW29710   3.869   2.365   4.002 -0.2531 -0.0676 -0.0996
 6026SOL    HW129711   3.860   2.461   4.004  1.9655  0.1671 -1.0116
 6026SOL    HW229712   3.787   2.343   3.959  1.0470 -2.4672 -1.3599
 6027SOL     OW29713   2.539   0.723   8.513  0.3176 -0.5222 -0.3846
 6027SOL    HW129714   2.572   0.698   8.427  1.2856 -0.7291  0.0502
 6027SOL    HW229715   2.453   0.762   8.497  0.9654  0.8935 -0.4881
 6028SOL     OW29716   1.227   2.551   7.707 -0.3435 -0.4544  0.1632
 6028SOL    HW129717   1.194   2.598   7.784 -0.7153 -0.5247  0.0462
 6028SOL    HW229718   1.321   2.567   7.709 -0.1143 -1.5885 -1.4376
 6029SOL     OW29719   0.958   1.969   2.961 -0.1454  0.0030  0.1358
 6029SOL    HW129720   1.008   2.051   2.962 -1.3251  0.7100  1.3769
 6029SOL    HW229721   0.867   1.992   2.980 -0.6370  0.7563 -3.0929
 6030SOL     OW29722   3.052   4.167   2.406 -0.3341  0.3117  0.1577
 6030SOL    HW129723   3.110   4.209   2.343  1.1568 -0.9907  0.6455
 6030SOL    HW229724   2.973   4.168   2.353 -0.0254 -0.9422 -0.3310
 6031SOL     OW29725   3.804   0.612   7.691  0.5952  0.0937 -0.3578
 6031SOL    HW129726   3.755   0.641   7.614  0.4875  1.2095  0.1257
 6031SOL    HW229727   3.737   0.555   7.728  0.4113 -0.6092 -1.7673
 6032SOL     OW29728   3.901   0.414   7.913 -0.7765 -0.1096 -0.0883
 6032SOL    HW129729   3.901   0.482   7.847  0.4747 -0.7880 -0.7820
 6032SOL    HW229730   3.970   0.449   7.969 -1.4101  0.1188  0.5525
 6033SOL     OW29731   0.836   4.659   4.214  0.4922  0.1435  0.7602
 6033SOL    HW129732   0.843   4.565   4.199 -1.1319  0.0717  0.5339
 6033SOL    HW229733   0.749   4.675   4.180  0.7873  1.3017  0.5572
 6034SOL     OW29734   3.586   3.622  14.081  0.1466  0.2709 -0.0411
 6034SOL    HW129735   3.548   3.590  14.162  1.4348 -0.7270  0.1750
 6034SOL    HW229736   3.663   3.668  14.113  0.4301 -1.9422  2.4468
 6035SOL     OW29737   3.588   0.822   4.009 -0.2290  0.2134  0.3912
 6035SOL    HW129738   3.635   0.739   4.014 -0.3102 -0.1275 -4.1793
 6035SOL    HW229739   3.667   0.874   4.023 -0.7246  0.7106  1.3446
 6036SOL     OW29740   0.339   3.098   8.724 -0.6677  0.2384  0.6120
 6036SOL    HW129741   0.345   3.185   8.685 -1.0200 -0.7993 -1.7102
 6036SOL    HW229742   0.430   3.090   8.753 -0.7428  0.1353  0.8239
 6037SOL     OW29743   3.567   3.635   8.335  0.0305  0.0600  0.3329
 6037SOL    HW129744   3.634   3.568   8.321 -4.2963 -4.3972  1.5562
 6037SOL    HW229745   3.486   3.586   8.347 -0.0332  0.0077 -0.2934
 6038SOL     OW29746   1.746   0.139   4.882 -0.5338  0.0544 -0.2557
 6038SOL    HW129747   1.736   0.044   4.872  2.8714 -0.3715  0.2214
 6038SOL    HW229748   1.773   0.129   4.973  1.8550  0.4768 -0.9068
 6039SOL     OW29749   1.095   4.611   7.393  0.3638 -0.8282  0.1066
 6039SOL    HW129750   1.022   4.550   7.384 -1.6019  1.8569 -2.3846
 6039SOL    HW229751   1.158   4.566   7.450 -1.0171 -2.0414  0.6842
 6040SOL     OW29752   3.433   2.770   2.561  0.0990 -0.3551 -0.1623
 6040SOL    HW129753   3.360   2.827   2.537 -1.7432 -1.9784  1.6131
 6040SOL    HW229754   3.513   2.811   2.528  1.1757 -1.5463  0.9707
 6041SOL     OW29755   3.703   2.235   6.455 -0.0848  0.1021 -0.5815
 6041SOL    HW129756   3.761   2.160   6.441 -1.6395 -1.5652  1.8828
 6041SOL    HW229757   3.756   2.298   6.503  0.2346 -0.2650 -0.4538
 6042SOL     OW29758   3.857   3.821  11.955  0.7477 -0.0030  0.1389
 6042SOL    HW129759   3.941   3.842  11.914  1.6600 -0.0348  1.9898
 6042SOL    HW229760   3.793   3.812  11.884 -0.9398 -2.2494  1.9771
 6043SOL     OW29761   3.568   3.145  11.664  0.1695  0.4457 -0.1195
 6043SOL    HW129762   3.474   3.129  11.659  0.9185 -3.3505 -1.7770
 6043SOL    HW229763   3.605   3.059  11.687 -2.0801 -1.3810 -3.4670
 6044SOL     OW29764   0.247   1.021   2.124  0.0956 -0.4433  0.0544
 6044SOL    HW129765   0.334   0.994   2.096  0.1603 -0.8461  0.6365
 6044SOL    HW229766   0.206   0.938   2.151 -1.3912  0.6199  1.0446
 6045SOL     OW29767   1.769   4.057   0.764  0.0355  0.1891 -0.2603
 6045SOL    HW129768   1.709   4.124   0.730 -0.4089  0.2737  0.6805
 6045SOL    HW229769   1.708   3.983   0.757  1.5593 -1.0610 -0.2810
 6046SOL     OW29770   3.335   3.290  17.065 -0.0882 -0.3252 -0.0185
 6046SOL    HW129771   3.268   3.225  17.084 -0.8631  0.5519  0.2501
 6046SOL    HW229772   3.405   3.268  17.127  0.6206  0.2466 -0.6098
 6047SOL     OW29773   1.274   2.350  14.030  0.0808 -0.0400 -0.2402
 6047SOL    HW129774   1.236   2.303  14.105  0.6046  0.8175  0.5671
 6047SOL    HW229775   1.206   2.408  13.997  1.8818  1.3987 -1.4161
 6048SOL     OW29776   0.358   4.313  12.808  0.5412 -0.5071  0.5380
 6048SOL    HW129777   0.306   4.345  12.734  2.3391 -1.8052 -1.2651
 6048SOL    HW229778   0.446   4.322  12.773  0.6889  0.4351  1.1460
 6049SOL     OW29779   2.248   1.219   7.380 -0.0048 -0.5880 -0.2597
 6049SOL    HW129780   2.343   1.211   7.365 -0.3811 -2.9645 -1.4001
 6049SOL    HW229781   2.241   1.242   7.472 -0.1129  0.0720 -0.4277
 6050SOL     OW29782   0.548   0.666   6.096 -0.1098 -0.1220  0.3331
 6050SOL    HW129783   0.612   0.611   6.051  0.0256 -0.1151  0.5211
 6050SOL    HW229784   0.588   0.672   6.182  1.4724 -0.0935 -0.4096
 6051SOL     OW29785   3.776   4.046   1.360  0.6717  0.2643 -0.6566
 6051SOL    HW129786   3.725   3.967   1.343 -1.0324  1.1361  0.3165
 6051SOL    HW229787   3.743   4.103   1.291  1.4104  2.6656  0.9637
 6052SOL     OW29788   1.240   1.777   2.147  0.4099 -0.1597  0.2070
 6052SOL    HW129789   1.223   1.808   2.236 -1.2052  0.3833 -0.2773
 6052SOL    HW229790   1.203   1.850   2.097  2.4271  0.4747 -0.3559
 6053SOL     OW29791   1.929   3.003   5.525 -0.0095  0.3410 -0.4542
 6053SOL    HW129792   1.895   3.049   5.602  3.6857 -0.1476  1.4975
 6053SOL    HW229793   1.890   3.055   5.455 -0.8667  1.5129  0.8820
 6054SOL     OW29794   3.694   1.818   1.834  0.6928  0.2569  0.3841
 6054SOL    HW129795   3.705   1.730   1.869 -1.9478 -0.6083 -0.9331
 6054SOL    HW229796   3.752   1.860   1.898  2.9507  0.2074 -1.6403
 6055SOL     OW29797   3.327   0.709   6.460 -0.5971  0.5396 -0.2669
 6055SOL    HW129798   3.320   0.657   6.381  1.5472  1.2628 -0.9279
 6055SOL    HW229799   3.359   0.788   6.417 -0.5106  1.1639  0.9272
 6056SOL     OW29800   0.163   1.291   8.503 -0.3446  0.0378  0.1821
 6056SOL    HW129801   0.157   1.387   8.502 -0.4155  0.0166 -2.8859
 6056SOL    HW229802   0.218   1.265   8.576  1.0346 -0.3411 -0.9951
 6057SOL     OW29803   3.426   0.136   9.612  0.1733  0.1899 -0.1273
 6057SOL    HW129804   3.505   0.150   9.664  0.4273 -0.2036 -0.4059
 6057SOL    HW229805   3.351   0.145   9.670  0.1672  0.9103 -0.2432
 6058SOL     OW29806   0.295   1.344   2.447  0.6181  0.4162 -0.0770
 6058SOL    HW129807   0.304   1.431   2.409  2.1272  1.4323  2.6119
 6058SOL    HW229808   0.355   1.302   2.385 -0.3917 -2.5964  0.9848
 6059SOL     OW29809   0.586   2.404   2.629  0.5684  0.1624 -0.2308
 6059SOL    HW129810   0.575   2.391   2.535  2.7130  0.5421 -0.5381
 6059SOL    HW229811   0.537   2.333   2.670  1.7563 -1.0729 -0.9797
 6060SOL     OW29812   3.821   3.534   3.506  0.1670 -0.3633  0.2368
 6060SOL    HW129813   3.773   3.468   3.457 -1.1255 -1.4512  2.9993
 6060SOL    HW229814   3.865   3.476   3.567  1.1074  0.7995  0.6528
 6061SOL     OW29815   1.530   1.868   5.758  0.3492 -0.2512 -0.0399
 6061SOL    HW129816   1.612   1.915   5.770  1.4868 -1.9061 -1.2869
 6061SOL    HW229817   1.545   1.802   5.825  3.2967 -0.0119 -0.4945
 6062SOL     OW29818   1.983   4.245   7.444  0.0582 -0.0862  0.6681
 6062SOL    HW129819   2.018   4.165   7.481 -0.0736 -1.0001 -1.1720
 6062SOL    HW229820   2.064   4.295   7.434 -0.7615  1.1322  0.1367
 6063SOL     OW29821   3.672   0.970   6.519 -0.1494 -0.1510 -0.4266
 6063SOL    HW129822   3.750   0.986   6.573 -0.0356  1.2184 -0.9959
 6063SOL    HW229823   3.615   0.973   6.597  0.7327  1.2832  0.1768
 6064SOL     OW29824   2.844   1.654   2.495 -0.4873 -0.0855  0.0912
 6064SOL    HW129825   2.937   1.634   2.509 -0.1251  1.0937 -0.5902
 6064SOL    HW229826   2.859   1.718   2.426  2.5448  0.7462  1.4777
 6065SOL     OW29827   2.247   1.706   2.162  0.0820 -1.1399 -0.0154
 6065SOL    HW129828   2.172   1.713   2.102  0.8700 -0.1107 -0.8716
 6065SOL    HW229829   2.315   1.674   2.103  0.3999 -1.5102  0.5480
 6066SOL     OW29830   0.728   4.515   5.112  0.0701 -0.3823  0.3417
 6066SOL    HW129831   0.702   4.489   5.023 -1.4824  2.7607 -0.1114
 6066SOL    HW229832   0.662   4.583   5.129 -1.6167 -2.1005  0.7101
 6067SOL     OW29833   0.639   4.096   1.214 -0.5080 -0.1410 -0.7295
 6067SOL    HW129834   0.732   4.089   1.192 -0.3668 -0.8201  0.0619
 6067SOL    HW229835   0.609   4.005   1.214 -0.1873 -0.2456  0.0200
 6068SOL     OW29836   0.323   3.444   6.700 -0.6484  0.0832 -0.3192
 6068SOL    HW129837   0.260   3.377   6.727 -1.8660  2.0724  1.7940
 6068SOL    HW229838   0.390   3.384   6.669  0.7007  0.9112  0.9722
 6069SOL     OW29839   2.812   1.253   5.181 -1.0205 -0.4405 -0.2047
 6069SOL    HW129840   2.775   1.215   5.260 -3.8911  1.7638 -0.4924
 6069SOL    HW229841   2.743   1.220   5.124 -0.7348  1.5526 -1.7368
 6070SOL     OW29842   0.776   1.118   0.147 -0.0440 -0.2313  0.6668
 6070SOL    HW129843   0.749   1.161   0.228 -0.7470 -0.5501  0.5944
 6070SOL    HW229844   0.718   1.043   0.132 -1.5236  1.1664 -0.6545
 6071SOL     OW29845   3.450   0.754  10.011  0.2869 -0.3583 -0.1305
 6071SOL    HW129846   3.465   0.826  10.073 -0.2284 -0.0348 -0.3851
 6071SOL    HW229847   3.420   0.683  10.066 -0.2143  0.1665  0.2745
 6072SOL     OW29848   2.293   0.341   3.388 -0.7293  0.1881  0.3960
 6072SOL    HW129849   2.327   0.282   3.455  1.6393  0.5492 -0.4640
 6072SOL    HW229850   2.377   0.372   3.353  1.1800 -1.8164  3.1641
 6073SOL     OW29851   2.212   0.309   7.907  0.2777  0.2018  0.4685
 6073SOL    HW129852   2.248   0.307   7.995 -0.5426 -1.9008  0.7547
 6073SOL    HW229853   2.232   0.221   7.876  1.5153  0.4449  0.5907
 6074SOL     OW29854   2.681   4.423   9.237  0.2624 -0.2704  0.8825
 6074SOL    HW129855   2.591   4.399   9.254  0.3865 -1.9494 -0.8546
 6074SOL    HW229856   2.731   4.344   9.259  1.3614  1.2204  3.6564
 6075SOL     OW29857   1.639   0.659  12.966 -0.4320 -0.2739  0.4793
 6075SOL    HW129858   1.602   0.572  12.980  1.4523 -1.2585 -0.5812
 6075SOL    HW229859   1.705   0.648  12.898  0.2453 -1.5651  1.3424
 6076SOL     OW29860   4.469   1.278  13.844  0.3816 -0.4135  0.3230
 6076SOL    HW129861   4.406   1.268  13.915 -1.2601 -0.8865 -1.1883
 6076SOL    HW229862   4.506   1.364  13.864  1.5886 -0.1914 -2.7577
 6077SOL     OW29863   1.041   3.283   4.570 -0.2876 -0.3548  0.0006
 6077SOL    HW129864   1.029   3.244   4.483  3.2601 -1.9602  0.2377
 6077SOL    HW229865   1.008   3.371   4.553  1.2461  0.6427  2.2634
 6078SOL     OW29866   4.132   1.588   8.771  0.3354  0.0216  0.6884
 6078SOL    HW129867   4.065   1.655   8.768  0.1462 -0.1940  0.0289
 6078SOL    HW229868   4.094   1.516   8.821  1.1729 -1.0306 -0.1768
 6079SOL     OW29869   0.851   0.362   8.482  0.3015  0.2888  0.0010
 6079SOL    HW129870   0.918   0.370   8.415  0.8846  0.3804  0.5898
 6079SOL    HW229871   0.789   0.315   8.427 -1.5936  2.0111  0.6825
 6080SOL     OW29872   1.883   0.122   9.443 -0.0371 -0.6114  0.1175
 6080SOL    HW129873   1.874   0.156   9.353  3.1508 -1.3061 -0.4473
 6080SOL    HW229874   1.882   0.203   9.493  0.7693 -0.5120 -0.0386
 6081SOL     OW29875   2.210   0.060   7.839  0.1045 -0.8254  0.1200
 6081SOL    HW129876   2.144   0.016   7.893 -0.4116 -0.7068 -0.4228
 6081SOL    HW229877   2.288   0.010   7.865 -0.6935 -1.9344  0.3763
 6082SOL     OW29878   3.041   3.436   6.342 -0.3159 -0.0218  0.4442
 6082SOL    HW129879   3.025   3.392   6.426  1.1284  0.1835  0.8252
 6082SOL    HW229880   2.962   3.432   6.287 -0.0049 -2.6028  0.1966
 6083SOL     OW29881   4.355   2.336   3.512 -0.6861 -0.2136 -0.6257
 6083SOL    HW129882   4.357   2.431   3.523  0.8131 -0.2332 -0.6250
 6083SOL    HW229883   4.444   2.321   3.546 -0.2911 -0.8028 -1.9249
 6084SOL     OW29884   3.280   4.175   7.447  0.3698 -0.1626 -0.1940
 6084SOL    HW129885   3.370   4.181   7.415  0.2846 -1.9988 -0.7798
 6084SOL    HW229886   3.234   4.244   7.400  4.4993  3.4769  1.1422
 6085SOL     OW29887   1.653   1.161   9.284  0.2013  0.4789 -0.2487
 6085SOL    HW129888   1.603   1.108   9.345  0.2833  1.7957  0.9609
 6085SOL    HW229889   1.657   1.246   9.329 -1.2878 -0.4995  1.7172
 6086SOL     OW29890   1.151   3.207   6.516  0.0665  0.2576  0.0218
 6086SOL    HW129891   1.197   3.143   6.571  1.9090  2.3389  0.8880
 6086SOL    HW229892   1.225   3.238   6.464  0.2740 -0.5470 -0.1626
 6087SOL     OW29893   4.658   3.193  12.744 -0.4516 -0.0706  0.1647
 6087SOL    HW129894   4.577   3.232  12.711  0.2090  2.2326  1.2479
 6087SOL    HW229895   4.636   3.105  12.776 -1.1263 -0.2568 -0.8081
 6088SOL     OW29896   2.254   2.621  16.888  0.0870 -0.0381 -0.1661
 6088SOL    HW129897   2.250   2.646  16.796 -1.0695  0.4374  0.0209
 6088SOL    HW229898   2.331   2.673  16.910  0.9501 -0.3469 -2.3979
 6089SOL     OW29899   0.548   4.200   3.212  0.1246  0.1714 -0.0093
 6089SOL    HW129900   0.546   4.170   3.122  1.0448  3.5951 -1.1727
 6089SOL    HW229901   0.627   4.159   3.249 -0.9446 -0.7880  1.1889
 6090SOL     OW29902   1.806   3.470   9.916 -0.1870 -0.5087  0.4191
 6090SOL    HW129903   1.873   3.475   9.985 -0.5582 -0.6439  0.7869
 6090SOL    HW229904   1.726   3.459   9.968  0.8578 -0.0946  2.1393
 6091SOL     OW29905   3.999   0.975   2.924  0.4034  0.0846 -0.2606
 6091SOL    HW129906   4.065   0.985   2.993  0.0176 -2.1712  0.4300
 6091SOL    HW229907   4.051   1.003   2.849 -0.9605  3.5495  0.0986
 6092SOL     OW29908   4.478   3.262   6.182 -0.9782 -0.2515 -0.6886
 6092SOL    HW129909   4.439   3.181   6.148  1.4901 -0.8976 -1.9756
 6092SOL    HW229910   4.445   3.265   6.272 -1.6941 -1.8707 -0.9053
 6093SOL     OW29911   2.282   4.261  10.542 -0.2674 -0.3018 -0.1466
 6093SOL    HW129912   2.310   4.241  10.632  0.5990  0.9750 -0.1364
 6093SOL    HW229913   2.362   4.302  10.510 -1.0301  1.9433  0.8425
 6094SOL     OW29914   1.844   3.169  14.584  0.1869 -0.1061  0.1937
 6094SOL    HW129915   1.928   3.179  14.539  0.6164  0.6991  1.1694
 6094SOL    HW229916   1.794   3.154  14.504 -0.7953  1.2858  0.5420
 6095SOL     OW29917   1.793   3.090   4.695 -0.3150  0.5642  0.0820
 6095SOL    HW129918   1.712   3.136   4.719 -0.8411  0.3131 -1.2234
 6095SOL    HW229919   1.837   3.160   4.646 -1.0082  1.3324  0.5511
 6096SOL     OW29920   0.842   0.111  10.279 -0.0077  0.2116 -0.4093
 6096SOL    HW129921   0.786   0.082  10.208 -0.1143 -0.8596  0.1133
 6096SOL    HW229922   0.792   0.186  10.312  1.2719  0.0941  1.8339
 6097SOL     OW29923   3.869   2.046   6.286 -0.1946 -0.2779  0.1145
 6097SOL    HW129924   3.947   1.991   6.286  0.4633  0.6462  1.9406
 6097SOL    HW229925   3.900   2.119   6.232  0.1142 -0.9240 -0.5778
 6098SOL     OW29926   4.619   4.547  16.834 -0.0887  0.0761 -0.0994
 6098SOL    HW129927   4.680   4.620  16.822 -1.3834  1.2897  0.5916
 6098SOL    HW229928   4.633   4.518  16.924  0.6731 -0.2790 -0.3382
 6099SOL     OW29929   1.761   3.059  11.051 -0.0208  0.1194 -0.0351
 6099SOL    HW129930   1.759   2.967  11.078 -1.3750 -0.7928 -3.2323
 6099SOL    HW229931   1.834   3.102  11.094 -0.0528  2.1218 -1.9569
 6100SOL     OW29932   3.137   1.092   2.760  0.3346 -0.1561  0.1363
 6100SOL    HW129933   3.167   1.028   2.825  0.2054  1.2992  1.6154
 6100SOL    HW229934   3.133   1.173   2.811  0.4359 -0.2752  0.3345
 6101SOL     OW29935   4.131   0.754   5.711  0.4517 -0.5213  0.6539
 6101SOL    HW129936   4.066   0.824   5.712  0.4528 -0.5125  0.1033
 6101SOL    HW229937   4.142   0.740   5.617  0.7560  3.3022  0.1275
 6102SOL     OW29938   2.687   0.731  11.387  0.5041  0.1655 -0.3126
 6102SOL    HW129939   2.758   0.729  11.451 -0.5112  0.2350  0.7980
 6102SOL    HW229940   2.684   0.825  11.370 -0.6355 -0.0464 -1.3462
 6103SOL     OW29941   2.238   0.060  16.755  0.2181 -0.5183  0.2472
 6103SOL    HW129942   2.186   0.130  16.716  2.7626  2.4606  2.2836
 6103SOL    HW229943   2.321   0.060  16.708 -0.1042  0.3212 -0.3192
 6104SOL     OW29944   1.994   2.971   7.493 -0.0696 -0.3112  0.8036
 6104SOL    HW129945   1.965   3.055   7.528 -0.3034  0.7831 -2.0219
 6104SOL    HW229946   1.914   2.918   7.486 -1.2209  1.5972 -0.5008
 6105SOL     OW29947   1.765   1.040   6.967  0.2697  0.0747 -0.2345
 6105SOL    HW129948   1.741   1.064   6.878 -1.5780 -1.0550 -0.0346
 6105SOL    HW229949   1.689   1.080   7.009 -0.5976  0.0304 -1.7586
 6106SOL     OW29950   0.773   2.981   8.621  0.0291  0.2278  0.7565
 6106SOL    HW129951   0.858   2.994   8.664  0.8923  0.0258 -0.8672
 6106SOL    HW229952   0.761   2.886   8.630  3.0613 -0.0781  1.4961
 6107SOL     OW29953   4.365   1.783  12.073  0.0302  0.5234  0.2161
 6107SOL    HW129954   4.389   1.767  12.165  4.1248  0.5782 -0.8277
 6107SOL    HW229955   4.390   1.700  12.032 -0.5518  0.4647 -0.0210
 6108SOL     OW29956   2.077   0.449   5.915 -0.4289  0.6730  0.3831
 6108SOL    HW129957   2.056   0.391   5.841  1.4817 -1.0763  1.2040
 6108SOL    HW229958   2.171   0.433   5.926 -0.8964 -1.1322  1.7653
 6109SOL     OW29959   0.512   1.724   0.301  0.0025 -0.1822 -0.3029
 6109SOL    HW129960   0.569   1.648   0.311  0.6870  0.2310 -1.0937
 6109SOL    HW229961   0.448   1.696   0.368 -2.0632  0.5333 -1.9721
 6110SOL     OW29962   2.856   0.291   6.230  0.6740 -0.4535  0.3226
 6110SOL    HW129963   2.914   0.341   6.287  1.0803 -1.1119  0.4830
 6110SOL    HW229964   2.829   0.230   6.299  0.2594 -0.5960  0.0350
 6111SOL     OW29965   0.399   0.958   6.831  0.2111 -0.1632 -0.4021
 6111SOL    HW129966   0.469   1.006   6.875  2.6610 -0.8500 -3.5412
 6111SOL    HW229967   0.325   0.957   6.891 -0.0138 -1.1511 -0.6969
 6112SOL     OW29968   3.859   4.307   6.495  0.3092  0.6439  0.6702
 6112SOL    HW129969   3.784   4.292   6.437  2.0871  1.0974 -1.7721
 6112SOL    HW229970   3.899   4.378   6.445  0.4049 -0.1785 -0.4430
 6113SOL     OW29971   3.232   4.018   6.790  0.0373  0.3151 -0.1164
 6113SOL    HW129972   3.177   4.092   6.814 -0.4132 -0.2354  0.5771
 6113SOL    HW229973   3.185   3.938   6.815  1.0020 -0.2023  0.0598
 6114SOL     OW29974   3.771   2.333   5.428  0.3358 -0.1391 -0.0253
 6114SOL    HW129975   3.690   2.370   5.461 -0.0602 -1.0500  0.0155
 6114SOL    HW229976   3.755   2.244   5.458 -1.3675  0.2345  0.1654
 6115SOL     OW29977   2.776   2.145   4.045 -0.1422 -0.3628 -0.0031
 6115SOL    HW129978   2.681   2.148   4.062  0.0375 -0.4488  1.0338
 6115SOL    HW229979   2.800   2.153   4.137 -3.3305  1.6576  0.6490
 6116SOL     OW29980   1.383   2.193  17.547 -0.5324  0.3970  0.3474
 6116SOL    HW129981   1.334   2.112  17.530  0.0369 -0.1357  1.2584
 6116SOL    HW229982   1.387   2.191  17.643 -2.5119 -1.5892  0.3896
 6117SOL     OW29983   1.703   2.257  15.877  0.0484  0.1230  0.0780
 6117SOL    HW129984   1.756   2.203  15.818 -0.4395  1.0452 -1.2187
 6117SOL    HW229985   1.705   2.339  15.827  0.4417  0.3457  0.4583
 6118SOL     OW29986   2.565   1.286   4.252 -0.3296 -0.4592 -0.2212
 6118SOL    HW129987   2.630   1.282   4.182  1.0276  1.1753  0.9593
 6118SOL    HW229988   2.618   1.312   4.328 -0.4085 -0.3060 -0.2179
 6119SOL     OW29989   4.387   1.326   8.453  0.0054 -0.4920  0.0363
 6119SOL    HW129990   4.399   1.411   8.494  2.2326 -0.4263 -0.7003
 6119SOL    HW229991   4.473   1.325   8.410  0.0751 -0.5639  0.1758
 6120SOL     OW29992   2.601   2.382   7.925 -0.4527  0.7301 -0.1567
 6120SOL    HW129993   2.648   2.436   7.989  1.5521 -0.9112 -0.2588
 6120SOL    HW229994   2.539   2.354   7.992 -2.2794  3.7546 -0.5520
 6121SOL     OW29995   0.631   4.626   1.350  0.2477 -0.0325  0.0610
 6121SOL    HW129996   0.568   4.582   1.293 -0.6400  2.5295 -0.9453
 6121SOL    HW229997   0.580   4.703   1.376  0.8228  0.2888  0.2264
 6122SOL     OW29998   2.043   2.949   6.613 -0.0478  0.0076 -0.2670
 6122SOL    HW129999   2.086   2.945   6.527  1.7979 -1.7302  0.7475
 6122SOL    HW230000   2.031   2.857   6.637 -1.0298 -0.3405 -2.1290
 6123SOL     OW30001   0.299   4.381   6.286  0.0849  0.1247  0.2237
 6123SOL    HW130002   0.262   4.301   6.325  0.5747 -0.0177  0.3948
 6123SOL    HW230003   0.388   4.381   6.322  0.0838  1.3451  0.2085
 6124SOL     OW30004   2.427   1.938   7.382 -0.2895 -0.2813 -0.3442
 6124SOL    HW130005   2.428   2.005   7.314 -1.2574 -0.1738 -0.2496
 6124SOL    HW230006   2.390   1.985   7.456 -0.8814 -0.8571 -0.2716
 6125SOL     OW30007   1.016   2.508   3.398  0.2364 -0.0454 -0.1970
 6125SOL    HW130008   0.976   2.447   3.336 -0.0243 -1.0003  0.9185
 6125SOL    HW230009   1.050   2.564   3.328  0.4024  0.5091  0.3297
 6126SOL     OW30010   0.187   3.646   4.768 -0.4268  0.1132  0.4449
 6126SOL    HW130011   0.131   3.632   4.692 -1.5627  0.4174  1.2086
 6126SOL    HW230012   0.129   3.712   4.806  0.2283  0.7406  0.3381
 6127SOL     OW30013   1.001   4.664   1.044 -0.2610 -0.2285  0.0106
 6127SOL    HW130014   1.093   4.645   1.062 -0.5825 -0.1527  1.7756
 6127SOL    HW230015   0.966   4.655   1.133  2.0754  1.8251  1.1616
 6128SOL     OW30016   3.768   1.857   1.566 -0.3173  0.4831 -0.1135
 6128SOL    HW130017   3.801   1.944   1.590 -0.2178  1.0490 -2.2942
 6128SOL    HW230018   3.726   1.843   1.651 -2.9637  0.6433 -1.3813
 6129SOL     OW30019   0.225   0.841   3.074 -0.6614  0.2461  0.5767
 6129SOL    HW130020   0.276   0.797   3.006  1.4267  1.7442  1.1682
 6129SOL    HW230021   0.141   0.796   3.083 -0.6908  0.0830 -0.5280
 6130SOL     OW30022   0.850   4.149   5.175  0.1747  0.1423  0.1076
 6130SOL    HW130023   0.771   4.097   5.190  0.5252 -0.0536  1.2657
 6130SOL    HW230024   0.922   4.086   5.175  0.1405  0.1184  1.4905
 6131SOL     OW30025   0.107   4.679   5.107 -0.6575 -0.3899 -0.2126
 6131SOL    HW130026   0.044   4.705   5.174 -0.0743 -1.8144  0.8809
 6131SOL    HW230027   0.112   4.586   5.130 -0.6212 -0.4716 -0.5413
 6132SOL     OW30028   0.457   0.518   4.607 -0.4239 -0.3310 -0.1950
 6132SOL    HW130029   0.444   0.537   4.700  0.6381  1.1236 -0.3315
 6132SOL    HW230030   0.469   0.608   4.575 -0.0584 -0.4690 -0.4389
 6133SOL     OW30031   3.992   0.995   7.088 -0.4415  0.1898  0.7417
 6133SOL    HW130032   3.910   0.952   7.065  0.1263  0.1981 -1.2885
 6133SOL    HW230033   3.963   1.084   7.107  0.0634  0.4676  0.2232
 6134SOL     OW30034   3.765   0.622   8.152  0.7965  0.0711 -0.0225
 6134SOL    HW130035   3.787   0.620   8.245  2.2344  1.4936 -0.3187
 6134SOL    HW230036   3.840   0.576   8.112  1.2021  1.1456 -0.5121
 6135SOL     OW30037   1.174   3.957   2.580  0.2246  0.4063 -0.0535
 6135SOL    HW130038   1.222   4.013   2.641  2.0326 -1.0836 -0.1012
 6135SOL    HW230039   1.217   3.993   2.502  0.3635  0.3583  0.0013
 6136SOL     OW30040   2.222   4.320   7.113  0.1130 -0.1878 -0.2290
 6136SOL    HW130041   2.128   4.305   7.099 -0.0685 -1.3300  2.2175
 6136SOL    HW230042   2.224   4.388   7.181  0.0814 -0.5799  0.1604
 6137SOL     OW30043   1.726   4.105   6.037  0.2286  0.0778  0.0177
 6137SOL    HW130044   1.769   4.185   6.005  0.4399 -0.1906 -0.3716
 6137SOL    HW230045   1.776   4.077   6.113 -0.2560 -0.6335  0.0770
 6138SOL     OW30046   2.613   0.352   4.633 -0.3966  0.1250 -0.2806
 6138SOL    HW130047   2.591   0.259   4.632 -1.5275  0.3981 -0.8540
 6138SOL    HW230048   2.571   0.377   4.551 -0.4986 -0.5406 -0.4251
 6139SOL     OW30049   2.865   2.185  12.913 -0.4478  0.0282  0.2648
 6139SOL    HW130050   2.770   2.194  12.915 -0.2536  2.1650  0.3086
 6139SOL    HW230051   2.869   2.090  12.920 -1.3810  0.1848  3.2903
 6140SOL     OW30052   1.575   3.740   0.825  0.1433  0.1641  0.2549
 6140SOL    HW130053   1.556   3.649   0.804 -2.5522  1.5216 -3.2982
 6140SOL    HW230054   1.542   3.777   0.743  1.0941  1.8935  0.6433
 6141SOL     OW30055   4.334   1.385   0.504  0.8264 -0.1740  0.5179
 6141SOL    HW130056   4.297   1.312   0.456 -2.3049 -0.0091  2.6623
 6141SOL    HW230057   4.329   1.454   0.438 -1.5556  0.0116  0.8913
 6142SOL     OW30058   3.727   1.850   6.832 -0.6191  0.1028 -0.6374
 6142SOL    HW130059   3.715   1.858   6.737 -1.2354  3.0073 -0.3248
 6142SOL    HW230060   3.769   1.765   6.844  0.3070  0.6113 -0.2446
 6143SOL     OW30061   0.338   2.493   0.624  0.0832  0.3564  0.0394
 6143SOL    HW130062   0.254   2.515   0.666 -0.9314 -0.7368 -1.4120
 6143SOL    HW230063   0.403   2.530   0.683  2.6927 -0.7327 -2.1817
 6144SOL     OW30064   2.714   2.211   3.682  0.0679 -0.5592  0.4565
 6144SOL    HW130065   2.714   2.124   3.723  0.0498  0.0115  1.6672
 6144SOL    HW230066   2.810   2.216   3.678  0.0985  0.5183  2.5707
 6145SOL     OW30067   3.229   4.422   6.843 -0.0462  0.0549 -0.5461
 6145SOL    HW130068   3.150   4.376   6.870 -0.4765 -0.2488 -2.2900
 6145SOL    HW230069   3.233   4.484   6.916  0.5234 -1.5197  0.7661
 6146SOL     OW30070   0.711   1.587   5.692  0.1712  0.0384  0.1388
 6146SOL    HW130071   0.676   1.520   5.634  0.3156  0.7556 -0.7698
 6146SOL    HW230072   0.742   1.542   5.771  0.4178  0.7256  0.4408
 6147SOL     OW30073   4.312   2.036  11.177  0.1408 -0.6441 -0.1814
 6147SOL    HW130074   4.247   2.057  11.243  0.1820 -0.7404 -0.1112
 6147SOL    HW230075   4.252   2.022  11.104  0.2669  0.1406 -0.4395
 6148SOL     OW30076   4.346   3.264   9.702 -0.0996  0.3112 -0.2774
 6148SOL    HW130077   4.269   3.312   9.735 -0.8209 -0.2132 -1.1850
 6148SOL    HW230078   4.382   3.334   9.647 -1.2610  0.3033 -1.0501
 6149SOL     OW30079   4.710   0.202  13.777 -0.3634 -0.0342  0.2929
 6149SOL    HW130080   4.698   0.279  13.721  2.3697 -1.2285 -1.8839
 6149SOL    HW230081   4.646   0.139  13.742 -0.9591  1.1687 -0.7908
 6150SOL     OW30082   2.396   2.986   1.137 -0.1881  0.8182 -0.2987
 6150SOL    HW130083   2.367   3.001   1.047  0.0697 -0.3419 -0.5787
 6150SOL    HW230084   2.308   2.994   1.173 -0.4024  1.1478 -0.8939
 6151SOL     OW30085   1.873   3.244   3.422 -0.0325 -0.9706 -0.7391
 6151SOL    HW130086   1.958   3.273   3.454 -0.2520  1.3151 -2.2314
 6151SOL    HW230087   1.889   3.250   3.327  0.3462  1.2035 -0.5255
 6152SOL     OW30088   0.496   2.935   5.639  0.7784  0.0234 -0.3460
 6152SOL    HW130089   0.466   2.954   5.550 -0.2069  0.1882  0.0146
 6152SOL    HW230090   0.588   2.960   5.636  1.3564 -2.0237  1.3258
 6153SOL     OW30091   0.418   2.631   2.977 -0.0490 -0.3690 -0.1498
 6153SOL    HW130092   0.426   2.540   3.005 -1.9723 -0.0895  1.3262
 6153SOL    HW230093   0.327   2.656   2.993  0.4486  1.2729  0.1447
 6154SOL     OW30094   0.731   2.504   1.758  0.2663 -0.3319  0.6691
 6154SOL    HW130095   0.698   2.571   1.817 -1.2790 -0.2329 -0.3043
 6154SOL    HW230096   0.665   2.437   1.776 -1.3749  0.6932 -1.6161
 6155SOL     OW30097   1.744   2.926   3.791  0.6142 -0.5114 -0.0745
 6155SOL    HW130098   1.738   2.842   3.746 -1.5328 -1.1415  1.4099
 6155SOL    HW230099   1.722   2.996   3.729 -0.3010 -0.2919  0.4957
 6156SOL     OW30100   4.136   4.687   7.546 -0.0455 -0.4489  0.3570
 6156SOL    HW130101   4.213   4.680   7.602 -0.4773  0.1858  1.0415
 6156SOL    HW230102   4.071   4.691   7.616 -0.8755 -0.3336 -0.4202
 6157SOL     OW30103   1.180   4.669   9.537 -0.2432  0.4426  0.0286
 6157SOL    HW130104   1.128   0.011   9.526 -0.6373  0.1781  0.0071
 6157SOL    HW230105   1.240   4.694   9.607 -0.0292 -1.0999  0.3834
 6158SOL     OW30106   2.823   2.373  10.348 -0.5453  0.3735 -0.1943
 6158SOL    HW130107   2.771   2.394  10.270 -0.1053 -1.5876 -1.0307
 6158SOL    HW230108   2.886   2.307  10.319 -0.6162  0.6608 -1.0246
 6159SOL     OW30109   1.903   2.413   8.026  0.4849 -0.1840  0.2448
 6159SOL    HW130110   1.965   2.467   8.076 -0.6305  1.2707  0.0545
 6159SOL    HW230111   1.952   2.332   8.042  0.7839  0.3036  1.8047
 6160SOL     OW30112   1.689   2.494  15.778  0.5927  0.1858  0.1519
 6160SOL    HW130113   1.741   2.517  15.701 -0.4002 -4.0776 -1.7673
 6160SOL    HW230114   1.638   2.575  15.785  0.4096  0.3066 -2.5896
 6161SOL     OW30115   3.513   0.819   5.870  0.2992 -0.0983  0.1079
 6161SOL    HW130116   3.565   0.742   5.849 -0.7305 -0.2971 -1.6959
 6161SOL    HW230117   3.492   0.847   5.781 -0.3947 -3.6532 -0.8203
 6162SOL     OW30118   0.292   0.210  13.835 -0.3134 -0.5529  0.6415
 6162SOL    HW130119   0.263   0.267  13.764  2.2155 -0.0643  0.0064
 6162SOL    HW230120   0.209   0.168  13.856 -1.8232  1.8144 -0.5759
 6163SOL     OW30121   2.676   4.487   3.566  0.0485 -0.5312 -0.2229
 6163SOL    HW130122   2.678   4.525   3.654 -0.2127  1.2000 -0.9599
 6163SOL    HW230123   2.601   4.535   3.532  0.0661 -0.6689 -0.4541
 6164SOL     OW30124   1.082   0.006  12.231 -0.3647 -0.0828 -0.0671
 6164SOL    HW130125   1.077   4.716  12.323 -0.7793  0.0389 -0.0527
 6164SOL    HW230126   1.170   4.714  12.205 -0.5387  1.9023 -2.8097
 6165SOL     OW30127   2.542   0.638   7.150  0.1042  0.1970  0.4134
 6165SOL    HW130128   2.595   0.567   7.188  0.6923 -0.0525 -0.8639
 6165SOL    HW230129   2.457   0.596   7.159 -1.0625  1.8271 -2.7898
 6166SOL     OW30130   4.498   2.930   6.809 -0.4558 -0.0829 -0.5014
 6166SOL    HW130131   4.578   2.933   6.862 -1.2064 -1.5878  0.7341
 6166SOL    HW230132   4.506   2.837   6.788 -3.0201 -0.7566  1.5304
 6167SOL     OW30133   2.083   3.740  17.058 -0.5351  0.4846  0.2509
 6167SOL    HW130134   2.028   3.775  17.128 -1.1741  0.8935 -0.4610
 6167SOL    HW230135   2.031   3.765  16.982  0.6841  0.1512 -0.7029
 6168SOL     OW30136   3.964   0.245   4.509 -0.2008  1.2229  0.5237
 6168SOL    HW130137   4.023   0.316   4.534  0.9429  0.0111  1.2672
 6168SOL    HW230138   4.029   0.191   4.464 -0.7444  0.7184  0.3468
 6169SOL     OW30139   3.997   0.653   6.190 -0.0034  0.2750  0.1984
 6169SOL    HW130140   3.972   0.706   6.115 -0.5961 -0.2758  0.0034
 6169SOL    HW230141   4.070   0.599   6.162 -2.0949 -1.4019 -1.9962
 6170SOL     OW30142   0.639   0.407  14.911 -0.2174 -0.1469 -0.6663
 6170SOL    HW130143   0.555   0.365  14.927 -0.4458  0.3300 -0.6159
 6170SOL    HW230144   0.686   0.368  14.984  0.2682 -0.5945 -1.2176
 6171SOL     OW30145   2.126   2.951  11.759 -0.3950  0.0111 -0.0719
 6171SOL    HW130146   2.165   2.910  11.836  0.3936 -1.4706 -1.2664
 6171SOL    HW230147   2.116   3.038  11.797 -1.2218 -0.6964  1.3191
 6172SOL     OW30148   4.277   2.543   9.856  0.5991  0.0349  0.2413
 6172SOL    HW130149   4.330   2.622   9.842 -1.5273  1.5836  1.0288
 6172SOL    HW230150   4.307   2.504   9.937  1.2316  1.7576  0.8351
 6173SOL     OW30151   2.481   3.106   3.017  0.4080  0.0641  0.2591
 6173SOL    HW130152   2.524   3.069   2.940 -0.8007 -1.2531  0.2084
 6173SOL    HW230153   2.471   3.197   2.989 -1.0240 -0.2993 -0.4235
 6174SOL     OW30154   3.680   0.374   1.549 -0.2263  0.1519  0.2572
 6174SOL    HW130155   3.765   0.417   1.556 -0.2525 -0.1653  2.3105
 6174SOL    HW230156   3.637   0.434   1.488  1.5072  1.4444  0.3016
 6175SOL     OW30157   2.586   1.363  14.106 -0.0215 -0.2163  0.4535
 6175SOL    HW130158   2.498   1.394  14.130 -0.5539 -0.6533 -0.9482
 6175SOL    HW230159   2.589   1.272  14.136  0.6554 -0.7210 -1.1837
 6176SOL     OW30160   4.365   2.996   4.182 -0.1290 -0.0186 -0.0777
 6176SOL    HW130161   4.276   2.967   4.163 -1.6988  4.4918  0.3828
 6176SOL    HW230162   4.416   2.946   4.118  0.6135  0.4021  0.1765
 6177SOL     OW30163   4.482   1.511   1.778  0.9325  0.2571  0.2824
 6177SOL    HW130164   4.455   1.420   1.772  0.7983  0.2979  0.2718
 6177SOL    HW230165   4.527   1.495   1.861  1.3822  2.6929  0.5188
 6178SOL     OW30166   2.444   4.148   7.890 -0.8707 -0.5247 -0.1246
 6178SOL    HW130167   2.431   4.070   7.835 -2.5659 -0.5869  0.3897
 6178SOL    HW230168   2.402   4.121   7.972 -3.0390 -0.2866 -1.1717
 6179SOL     OW30169   1.335   2.112   0.940  0.1140  0.4030 -0.6959
 6179SOL    HW130170   1.392   2.097   1.017 -1.2262 -2.5122 -0.2542
 6179SOL    HW230171   1.262   2.052   0.951 -0.6048  1.7678  2.0319
 6180SOL     OW30172   2.461   2.979   4.837  0.4881  0.5498  0.3074
 6180SOL    HW130173   2.469   2.884   4.836 -0.3926  0.4997 -2.8096
 6180SOL    HW230174   2.392   2.996   4.772  2.1625 -0.7473 -1.8029
 6181SOL     OW30175   0.317   4.095   8.194  0.1689 -0.5487 -0.2755
 6181SOL    HW130176   0.237   4.047   8.211 -0.6088  0.7054 -0.3999
 6181SOL    HW230177   0.324   4.149   8.273 -0.4419 -2.0835  0.8191
 6182SOL     OW30178   3.792   0.346   5.123 -0.0039 -0.2788  0.6460
 6182SOL    HW130179   3.815   0.258   5.154  1.2455 -0.4801 -0.8625
 6182SOL    HW230180   3.802   0.330   5.029 -0.5510  0.3706  0.4788
 6183SOL     OW30181   3.846   3.935   4.845 -0.5410  0.4277 -0.5212
 6183SOL    HW130182   3.770   3.899   4.799 -0.3585 -0.0972 -0.4156
 6183SOL    HW230183   3.834   3.889   4.928 -3.0450  0.7765 -0.6743
 6184SOL     OW30184   0.135   3.241   8.981 -0.1797  0.4025 -0.5136
 6184SOL    HW130185   0.048   3.249   9.019  0.3488  0.5295  0.6476
 6184SOL    HW230186   0.155   3.148   8.990  0.5779  0.8026  1.8016
 6185SOL     OW30187   3.489   0.241   1.152  0.3736  0.0229  0.0117
 6185SOL    HW130188   3.574   0.202   1.173 -0.4903 -3.5175 -3.0524
 6185SOL    HW230189   3.428   0.192   1.207  0.5032  0.8048  0.8457
 6186SOL     OW30190   2.142   2.685   8.575  0.6381  0.0073  0.3698
 6186SOL    HW130191   2.118   2.596   8.546 -2.8612  1.4344 -1.1007
 6186SOL    HW230192   2.070   2.692   8.637  1.1131 -0.8254  1.0179
 6187SOL     OW30193   1.167   2.667  13.493 -0.4098  0.4970 -0.4297
 6187SOL    HW130194   1.156   2.753  13.451  1.3027  1.8379  1.8637
 6187SOL    HW230195   1.079   2.632  13.501 -0.2416  0.3657  0.8680
 6188SOL     OW30196   2.136   1.239   2.142  0.2134  0.0097  0.7624
 6188SOL    HW130197   2.183   1.306   2.091  0.6820 -2.0832 -1.5624
 6188SOL    HW230198   2.063   1.230   2.081  0.3259 -2.5919  1.0407
 6189SOL     OW30199   0.402   0.744   3.806 -0.1930  0.0571 -0.6399
 6189SOL    HW130200   0.487   0.787   3.797  0.2709 -0.8213 -0.4317
 6189SOL    HW230201   0.423   0.652   3.789  3.7446  0.9313 -0.4698
 6190SOL     OW30202   3.981   4.065   3.136 -0.0652 -0.0029  0.0316
 6190SOL    HW130203   4.071   4.050   3.107 -0.7621 -2.3535 -1.0184
 6190SOL    HW230204   3.964   4.141   3.081 -1.8305 -0.3521  0.0800
 6191SOL     OW30205   4.097   1.183   4.105 -0.1628 -0.0400 -0.1768
 6191SOL    HW130206   4.149   1.260   4.081 -0.2488 -0.2609 -1.0622
 6191SOL    HW230207   4.073   1.156   4.017 -0.4309  0.6646 -0.3239
 6192SOL     OW30208   1.422   2.784   8.663 -0.3107 -0.2749  0.2804
 6192SOL    HW130209   1.386   2.834   8.737 -2.5717  1.3864 -1.9080
 6192SOL    HW230210   1.358   2.767   8.593  1.1216 -1.0168 -0.8519
 6193SOL     OW30211   4.128   4.547   5.443 -0.3380  0.0265 -0.2808
 6193SOL    HW130212   4.158   4.493   5.516  2.1894  0.0004 -1.3656
 6193SOL    HW230213   4.051   4.591   5.481 -0.9300  0.5011 -2.0353
 6194SOL     OW30214   2.945   3.234   4.061  0.2602  0.0359 -0.0222
 6194SOL    HW130215   2.896   3.159   4.027  0.8003 -0.7237  0.8948
 6194SOL    HW230216   3.003   3.258   3.989  1.6640  0.4732  1.2658
 6195SOL     OW30217   3.910   1.065   7.598  0.2922 -0.3093 -0.0543
 6195SOL    HW130218   3.842   1.117   7.640 -0.5502 -0.9561 -0.6264
 6195SOL    HW230219   3.976   1.130   7.571 -0.3945  0.1779 -0.5466
 6196SOL     OW30220   2.871   1.037   6.241 -0.1107 -0.5803  0.4027
 6196SOL    HW130221   2.940   1.032   6.307 -0.0095 -1.3068  0.2409
 6196SOL    HW230222   2.836   0.950   6.258 -0.3161 -0.8189 -1.2031
 6197SOL     OW30223   1.562   1.661   5.268  1.1510 -0.5232  0.0210
 6197SOL    HW130224   1.576   1.592   5.202  2.4446  1.0147 -1.3047
 6197SOL    HW230225   1.585   1.744   5.226 -0.2811  0.1518  0.5811
 6198SOL     OW30226   2.027   3.992   4.810 -0.0131  0.0354  0.1078
 6198SOL    HW130227   2.016   3.897   4.809  0.8067 -0.0528 -0.5956
 6198SOL    HW230228   1.940   4.019   4.782 -0.2739  0.9055  1.7331
 6199SOL     OW30229   0.406   3.266  13.637 -0.2039 -0.1706 -0.3142
 6199SOL    HW130230   0.382   3.336  13.698 -2.3265 -1.2088  0.0522
 6199SOL    HW230231   0.466   3.210  13.687  1.4692  1.6499 -0.2545
 6200SOL     OW30232   2.528   1.160   7.344 -0.0669  0.3560 -0.0293
 6200SOL    HW130233   2.532   1.074   7.302  1.4727 -0.1745  1.1528
 6200SOL    HW230234   2.572   1.222   7.286  1.1993  0.5421  1.1261
 6201SOL     OW30235   2.316   0.358   9.422 -0.6940 -0.2896  0.0634
 6201SOL    HW130236   2.255   0.368   9.496  0.0919 -2.1868  0.9583
 6201SOL    HW230237   2.400   0.376   9.464 -0.7761 -2.8642  1.3617
 6202SOL     OW30238   2.131   2.139  12.396 -0.1248 -0.1115 -0.0148
 6202SOL    HW130239   2.045   2.178  12.412 -0.4696 -0.5467 -0.8149
 6202SOL    HW230240   2.114   2.056  12.352  3.3790  0.0974 -1.7954
 6203SOL     OW30241   4.663   3.628   3.848 -0.2238 -0.2155 -0.1180
 6203SOL    HW130242   4.583   3.581   3.871  0.8821 -2.8291 -1.6979
 6203SOL    HW230243   4.649   3.639   3.754 -1.5522  0.8989  0.2121
 6204SOL     OW30244   0.252   0.589   6.083 -0.5241  0.2566  0.2138
 6204SOL    HW130245   0.347   0.590   6.092 -0.6247 -3.2052  1.6545
 6204SOL    HW230246   0.228   0.497   6.068 -1.2558  0.9147 -2.6984
 6205SOL     OW30247   0.935   3.373   3.810 -0.0880 -0.3828  0.3272
 6205SOL    HW130248   0.875   3.364   3.884 -0.6395 -1.4155 -0.2474
 6205SOL    HW230249   0.889   3.442   3.763  1.6765  0.9151  0.5304
 6206SOL     OW30250   4.550   1.514   4.037  0.3526  0.0342  0.2733
 6206SOL    HW130251   4.532   1.608   4.033  1.7986  0.4072  2.4431
 6206SOL    HW230252   4.553   1.512   4.132  2.8139 -0.6618  0.1722
 6207SOL     OW30253   3.915   4.339   7.591 -0.8502 -0.2133 -0.4150
 6207SOL    HW130254   3.936   4.361   7.681  1.2801 -0.4450 -0.8518
 6207SOL    HW230255   3.916   4.244   7.606  3.1554  0.0811  1.1500
 6208SOL     OW30256   0.064   4.080   9.723 -0.2653  0.3698 -0.4628
 6208SOL    HW130257   0.151   4.041   9.728 -0.3026  0.4878  1.0203
 6208SOL    HW230258   0.027   4.013   9.666  0.7031 -2.1149  1.8320
 6209SOL     OW30259   3.942   3.875  13.979  0.7021  0.3965  0.2821
 6209SOL    HW130260   3.973   3.929  14.052  1.2673 -1.9252  1.7531
 6209SOL    HW230261   4.013   3.873  13.915  0.9820 -1.6250  0.6557
 6210SOL     OW30262   4.265   4.486   6.527  0.6615  0.4417  0.6648
 6210SOL    HW130263   4.215   4.410   6.558  0.2792  1.0185  1.4543
 6210SOL    HW230264   4.345   4.439   6.502 -0.9565 -0.8012 -2.1364
 6211SOL     OW30265   1.466   1.102   9.453  0.1959  0.1521 -0.2349
 6211SOL    HW130266   1.485   1.086   9.545 -1.5830  0.7199  0.2346
 6211SOL    HW230267   1.445   1.194   9.463  0.3912  0.0014  1.5101
 6212SOL     OW30268   1.993   3.026   8.078  0.2585 -0.7040  0.1302
 6212SOL    HW130269   1.993   2.950   8.020 -0.1757 -0.5870 -0.0246
 6212SOL    HW230270   1.905   3.061   8.063  1.2747  1.1420 -1.5340
 6213SOL     OW30271   1.338   3.876   4.373  0.1867 -0.4644 -0.0525
 6213SOL    HW130272   1.342   3.813   4.444 -2.3931 -0.7665 -0.1532
 6213SOL    HW230273   1.244   3.896   4.383  0.2555  0.5453 -1.2860
 6214SOL     OW30274   3.932   0.611   5.849  0.1308 -0.0507 -0.4360
 6214SOL    HW130275   4.016   0.644   5.815 -0.3672  0.9099 -0.7302
 6214SOL    HW230276   3.929   0.675   5.920  0.3312 -1.4967  0.8734
 6215SOL     OW30277   2.460   3.705   9.306 -0.2106 -0.1670 -0.0048
 6215SOL    HW130278   2.433   3.640   9.241  0.9864  0.3993 -1.0798
 6215SOL    HW230279   2.555   3.692   9.310 -0.0216  1.0094 -0.6175
 6216SOL     OW30280   1.445   0.075  12.557 -0.2946 -0.4495  0.0477
 6216SOL    HW130281   1.498   0.045  12.484  1.9739  1.2198  1.0261
 6216SOL    HW230282   1.403   0.154  12.523  1.2995  0.1413 -0.5497
 6217SOL     OW30283   2.304   3.472   7.376  0.2285 -0.4318  0.0532
 6217SOL    HW130284   2.389   3.511   7.400  0.1104 -0.5592  0.6965
 6217SOL    HW230285   2.309   3.487   7.282 -3.1541  1.5412  0.2008
 6218SOL     OW30286   2.849   3.415   1.681  0.5486 -0.1512  0.1447
 6218SOL    HW130287   2.814   3.359   1.612  0.8983 -0.3890  0.1653
 6218SOL    HW230288   2.793   3.387   1.754 -0.2157 -3.1829 -1.6167
 6219SOL     OW30289   0.090   0.321   5.574  0.1910  0.7097  0.1115
 6219SOL    HW130290   0.152   0.378   5.529  1.6426 -1.2516 -0.3910
 6219SOL    HW230291   0.019   0.315   5.511 -0.1347  0.4012  0.5075
 6220SOL     OW30292   1.461   0.443  13.255  0.1106  0.1331 -0.2969
 6220SOL    HW130293   1.448   0.511  13.321 -0.3450  0.8636 -1.1491
 6220SOL    HW230294   1.535   0.400  13.299  0.2094  0.1923 -0.4047
 6221SOL     OW30295   4.625   3.674  11.205 -0.1330 -0.2410  0.1691
 6221SOL    HW130296   4.675   3.691  11.285 -1.9864 -2.4584  1.8314
 6221SOL    HW230297   4.682   3.607  11.168 -1.8958  0.0196 -3.0225
 6222SOL     OW30298   2.098   0.958  13.483 -0.2763 -0.5071 -0.4712
 6222SOL    HW130299   2.190   0.982  13.474 -0.4839  0.0399 -1.1590
 6222SOL    HW230300   2.088   0.983  13.574  3.3837 -1.9289  0.3189
 6223SOL     OW30301   2.970   2.682   8.107  0.3482  0.0222  0.6248
 6223SOL    HW130302   2.971   2.761   8.053 -0.8727 -0.9472 -0.8324
 6223SOL    HW230303   2.979   2.716   8.196  2.3450  0.0021  0.4200
 6224SOL     OW30304   0.015   4.675   8.562  0.1085  0.1182 -0.9468
 6224SOL    HW130305   0.044   4.596   8.608  0.2709  0.7765  0.0802
 6224SOL    HW230306   4.679   4.640   8.511 -1.9960  1.5401  1.0988
 6225SOL     OW30307   4.608   2.513   7.061  0.3736 -0.5465  0.5605
 6225SOL    HW130308   4.558   2.538   7.139 -2.4829 -1.0934 -1.1070
 6225SOL    HW230309   4.557   2.555   6.992 -1.2871 -1.1219  1.4395
 6226SOL     OW30310   3.472   0.643   5.451  0.0648 -0.2915 -0.6321
 6226SOL    HW130311   3.542   0.686   5.403  0.9279  1.1786  1.9264
 6226SOL    HW230312   3.427   0.590   5.385 -0.4182  0.3819 -0.8451
 6227SOL     OW30313   0.902   1.529   3.139  0.3524  0.3351 -0.0561
 6227SOL    HW130314   0.873   1.617   3.117 -0.6055 -0.6349 -2.7209
 6227SOL    HW230315   0.933   1.544   3.228 -0.1834 -1.8694  0.5163
 6228SOL     OW30316   1.874   1.142   2.085  0.2565 -0.2532  0.3211
 6228SOL    HW130317   1.823   1.072   2.127  0.4023  1.1103  2.7523
 6228SOL    HW230318   1.897   1.089   2.009 -2.8337 -0.4401 -0.4809
 6229SOL     OW30319   0.335   0.276   3.970  0.4999  0.8306  0.6609
 6229SOL    HW130320   0.260   0.332   3.990  0.3082  0.4720  0.9405
 6229SOL    HW230321   0.323   0.252   3.879  1.2436 -1.7788  1.2514
 6230SOL     OW30322   2.844   2.336   8.159  0.1511  0.2017 -0.0610
 6230SOL    HW130323   2.930   2.366   8.129  0.5748 -0.1627  0.7951
 6230SOL    HW230324   2.785   2.409   8.138  0.5876  0.7054  0.4502
 6231SOL     OW30325   2.745   3.433  10.037  0.4700  0.0063  0.6578
 6231SOL    HW130326   2.728   3.353  10.087 -0.4980 -0.0343  0.2783
 6231SOL    HW230327   2.836   3.449  10.062  1.9332 -2.0740 -3.3705
 6232SOL     OW30328   3.651   4.145   2.596 -0.7225 -0.4199 -0.0767
 6232SOL    HW130329   3.593   4.113   2.527 -0.1937  0.8279 -1.0888
 6232SOL    HW230330   3.730   4.169   2.548 -0.3653  2.1952  1.8314
 6233SOL     OW30331   3.446   3.541  16.951 -0.0734  0.6007 -0.2630
 6233SOL    HW130332   3.422   3.540  16.858 -0.7619  0.3745 -0.0884
 6233SOL    HW230333   3.428   3.451  16.976 -0.1866  1.3288  2.3605
 6234SOL     OW30334   2.139   3.257   3.060 -0.0487  0.0156  0.1233
 6234SOL    HW130335   2.223   3.302   3.067  0.4135 -0.7604 -0.3902
 6234SOL    HW230336   2.144   3.210   3.143  0.1139  1.2004  0.7761
 6235SOL     OW30337   1.913   2.961   2.444 -0.2046 -0.3708 -0.1526
 6235SOL    HW130338   1.992   2.909   2.427 -0.0779 -0.7408  1.5261
 6235SOL    HW230339   1.875   2.919   2.521 -0.0209  0.1753  0.2323
 6236SOL     OW30340   2.340   0.225  12.897  0.1462  0.2892  0.0155
 6236SOL    HW130341   2.423   0.263  12.870 -0.2814  2.3898  1.6574
 6236SOL    HW230342   2.309   0.299  12.949 -1.0224  0.0743 -0.3765
 6237SOL     OW30343   0.302   4.229   7.934  0.0212  0.1845 -0.5494
 6237SOL    HW130344   0.313   4.168   8.007  1.7372  1.0907 -0.0706
 6237SOL    HW230345   0.347   4.306   7.969 -0.8853  1.0245 -1.2060
 6238SOL     OW30346   3.167   4.733   9.976 -0.5841 -0.1491 -0.0908
 6238SOL    HW130347   3.215   4.667   9.925  0.4475  1.2286 -0.9050
 6238SOL    HW230348   3.095   4.680  10.011 -1.2987  2.1909  1.9178
 6239SOL     OW30349   0.272   2.265   6.245  0.8134 -1.1872  0.0212
 6239SOL    HW130350   0.341   2.225   6.192  2.7270  2.2443 -0.0497
 6239SOL    HW230351   0.292   2.358   6.236 -0.3580 -1.0686 -1.2504
 6240SOL     OW30352   3.131   1.804   4.221  0.0783 -0.5177 -0.0942
 6240SOL    HW130353   3.180   1.885   4.230  0.9461 -1.2553  1.8379
 6240SOL    HW230354   3.194   1.735   4.241 -2.0986 -2.1216  1.2913
 6241SOL     OW30355   1.472   2.620   0.053  0.6738 -0.2503  0.0143
 6241SOL    HW130356   1.391   2.570   0.051 -0.8895  2.2828 -0.4834
 6241SOL    HW230357   1.452   2.696   0.108 -0.4901 -0.2214 -0.4373
 6242SOL     OW30358   3.767   0.309  17.275  0.0329 -0.1315  0.2734
 6242SOL    HW130359   3.723   0.339  17.355  0.3946 -2.5379  1.3798
 6242SOL    HW230360   3.729   0.366  17.208  0.6535  0.6402  0.5863
 6243SOL     OW30361   2.353   3.640   9.607  0.6809 -0.0203 -0.2758
 6243SOL    HW130362   2.382   3.652   9.697 -1.1820  2.5136 -0.0289
 6243SOL    HW230363   2.380   3.718   9.559 -1.2934  1.1068  0.4526
 6244SOL     OW30364   2.191   4.269   4.423  0.4113  0.3968  0.2151
 6244SOL    HW130365   2.125   4.285   4.356  1.5005 -0.4215 -1.0737
 6244SOL    HW230366   2.144   4.253   4.505  2.1735  1.2561  1.4038
 6245SOL     OW30367   2.040   3.795  10.956 -0.3554 -0.4532 -0.4759
 6245SOL    HW130368   1.985   3.791  10.877  1.0187 -1.2257 -1.4070
 6245SOL    HW230369   2.008   3.865  11.012  1.6270 -0.1170  0.2090
 6246SOL     OW30370   1.608   4.108   6.969 -0.5806  0.0186 -0.1422
 6246SOL    HW130371   1.554   4.153   6.904 -1.2354  0.5471  0.7797
 6246SOL    HW230372   1.588   4.015   6.960 -2.0265  0.3874 -0.6118
 6247SOL     OW30373   2.184   1.644  15.772 -0.0427 -0.1691  0.0226
 6247SOL    HW130374   2.181   1.655  15.677  0.7068 -0.3084 -0.0154
 6247SOL    HW230375   2.139   1.721  15.807 -1.4774 -1.5727  1.2516
 6248SOL     OW30376   3.433   4.313  11.877  0.6945  0.5238 -0.0655
 6248SOL    HW130377   3.351   4.265  11.869 -0.0350  2.1709 -2.3862
 6248SOL    HW230378   3.493   4.244  11.848  1.3883  1.4584 -0.8512
 6249SOL     OW30379   2.957   3.820   8.036  0.0213 -0.1668 -0.2344
 6249SOL    HW130380   3.007   3.769   8.100 -0.4516  1.4251  1.3771
 6249SOL    HW230381   2.998   3.906   8.040 -2.0505  0.7530  0.7025
 6250SOL     OW30382   2.526   4.342  10.419  0.0242 -0.4392  0.4109
 6250SOL    HW130383   2.502   4.434  10.413  0.5616 -0.2806  0.6930
 6250SOL    HW230384   2.600   4.339  10.358  0.2925  2.7024  0.6052
 6251SOL     OW30385   3.094   2.765   8.944  0.0892  0.1438 -0.1437
 6251SOL    HW130386   3.136   2.787   8.862 -0.7699  1.8382 -0.1270
 6251SOL    HW230387   3.006   2.746   8.911  0.9408 -0.6464 -1.9626
 6252SOL     OW30388   1.481   3.781   7.127  0.3516  0.0206  0.0070
 6252SOL    HW130389   1.548   3.742   7.183 -1.6932 -0.1833  2.3285
 6252SOL    HW230390   1.395   3.749   7.154  0.1512  1.7318  1.4203
 6253SOL     OW30391   0.766   0.273   3.404 -0.9770  0.1243  0.6006
 6253SOL    HW130392   0.780   0.355   3.357 -2.8348 -0.4517 -0.9548
 6253SOL    HW230393   0.682   0.250   3.363 -1.7670  0.5708  1.9584
 6254SOL     OW30394   1.262   4.224   4.700  0.6485 -0.2814  0.8292
 6254SOL    HW130395   1.201   4.150   4.700 -0.2455  0.4588  1.5781
 6254SOL    HW230396   1.294   4.222   4.610  1.2833 -2.1061  1.1058
 6255SOL     OW30397   1.488   3.892  12.005  0.3509  0.2728 -0.4222
 6255SOL    HW130398   1.457   3.916  12.092 -1.2593 -1.0214 -0.6366
 6255SOL    HW230399   1.412   3.855  11.959 -0.0597 -0.2462  0.6792
 6256SOL     OW30400   1.637   0.479   2.499  0.3502  0.1451  0.1973
 6256SOL    HW130401   1.668   0.402   2.548 -1.8153 -1.0926 -0.3485
 6256SOL    HW230402   1.715   0.510   2.454 -0.4527  0.5605 -0.9195
 6257SOL     OW30403   4.042   4.457  11.414 -0.7535  0.5789 -0.4469
 6257SOL    HW130404   4.005   4.542  11.389  1.4371  1.2665 -1.4097
 6257SOL    HW230405   3.988   4.387  11.377 -0.4188 -0.3517  0.8393
 6258SOL     OW30406   0.715   3.530   5.570 -0.4861 -0.0684  0.1775
 6258SOL    HW130407   0.658   3.481   5.628  2.3320  0.4343  3.3300
 6258SOL    HW230408   0.693   3.498   5.482 -0.6684 -0.4623  0.3709
 6259SOL     OW30409   4.658   3.719   2.284  0.1893 -0.2218  0.3739
 6259SOL    HW130410   4.619   3.729   2.198 -2.0890 -2.7885  1.1150
 6259SOL    HW230411   4.640   3.626   2.299  2.3751 -0.5773  0.8310
 6260SOL     OW30412   1.751   4.701   7.411  0.2154 -0.1690  0.6017
 6260SOL    HW130413   1.775   4.621   7.458  0.2050 -0.9431 -0.7006
 6260SOL    HW230414   1.701   4.667   7.337  1.8488  3.4088 -2.1171
 6261SOL     OW30415   1.827   0.591   1.167 -0.3170 -0.4713 -0.2049
 6261SOL    HW130416   1.915   0.571   1.134 -0.0150  0.7457 -0.1460
 6261SOL    HW230417   1.771   0.567   1.093  0.9499  0.3447 -1.4342
 6262SOL     OW30418   2.921   2.062  17.521  0.0439  0.2967 -0.2149
 6262SOL    HW130419   2.962   2.061  17.607 -0.9665 -0.1677  0.2648
 6262SOL    HW230420   2.996   2.023  17.476  0.3130 -1.0615  1.4121
 6263SOL     OW30421   2.881   1.196   0.814 -0.0023  0.1452  0.4838
 6263SOL    HW130422   2.910   1.119   0.765  1.1404 -0.3977  1.9967
 6263SOL    HW230423   2.866   1.158   0.901 -1.2645  2.1048  1.1183
 6264SOL     OW30424   4.221   0.323   5.887 -0.9471 -0.0607  0.1241
 6264SOL    HW130425   4.264   0.391   5.939 -1.4353  0.6521 -0.3963
 6264SOL    HW230426   4.244   0.354   5.799  1.1405  0.2343  0.7842
 6265SOL     OW30427   1.227   3.969   7.737  0.1364  0.1386  0.0778
 6265SOL    HW130428   1.183   4.029   7.677 -4.3371 -2.4734  0.7091
 6265SOL    HW230429   1.312   3.951   7.698  0.0768  0.0946 -0.0307
 6266SOL     OW30430   3.169   0.614   0.293 -0.4131  0.0068  0.5271
 6266SOL    HW130431   3.253   0.610   0.337 -0.8701  1.0812  1.4936
 6266SOL    HW230432   3.127   0.531   0.318 -1.1799 -0.0758 -0.9701
 6267SOL     OW30433   0.355   0.726   4.764 -0.1018  0.8919 -0.3356
 6267SOL    HW130434   0.348   0.800   4.825  0.8130 -2.0253  3.3419
 6267SOL    HW230435   0.348   0.766   4.678 -0.1598 -0.5975 -1.0140
 6268SOL     OW30436   3.625   3.007   2.864  0.6745 -0.2510  0.5352
 6268SOL    HW130437   3.656   2.953   2.792  2.1073  0.0758  0.9026
 6268SOL    HW230438   3.705   3.052   2.892 -0.0167  0.4999  1.3191
 6269SOL     OW30439   3.732   4.655   4.417  0.4724 -0.0089 -0.4675
 6269SOL    HW130440   3.658   4.656   4.357  1.1618 -0.9044 -1.3320
 6269SOL    HW230441   3.762   0.008   4.409 -0.3555  0.3830  0.8981
 6270SOL     OW30442   0.383   4.598   1.643  0.2382 -0.3099  0.2649
 6270SOL    HW130443   0.362   4.531   1.708 -2.2051  3.0166  2.9049
 6270SOL    HW230444   0.463   4.632   1.683 -0.3614  1.7625 -0.3232
 6271SOL     OW30445   2.039   3.157  11.574 -0.1333 -0.1780 -0.6071
 6271SOL    HW130446   2.070   3.089  11.634 -0.1853  1.7446  1.5814
 6271SOL    HW230447   2.117   3.168  11.519  1.0900  0.0557  1.1722
 6272SOL     OW30448   4.479   3.019   9.671  0.2542 -0.1466 -0.3548
 6272SOL    HW130449   4.463   3.075   9.747 -0.2350  2.0054 -2.0389
 6272SOL    HW230450   4.416   3.059   9.612  2.4215  1.7521 -1.4034
 6273SOL     OW30451   2.448   1.518  12.149 -0.3547  0.1320  0.6092
 6273SOL    HW130452   2.505   1.573  12.202 -0.8644  0.0509  1.2419
 6273SOL    HW230453   2.425   1.594  12.096  0.1334 -0.9649 -1.1820
 6274SOL     OW30454   4.173   3.559  13.519 -0.5987  0.1168 -0.1754
 6274SOL    HW130455   4.105   3.499  13.489  1.0368 -2.1363  0.6376
 6274SOL    HW230456   4.230   3.545  13.444 -0.0880  1.0102  0.0437
 6275SOL     OW30457   2.155   2.298   1.149 -0.5247 -0.4307 -0.1947
 6275SOL    HW130458   2.143   2.225   1.088 -1.7303 -1.3915  1.1948
 6275SOL    HW230459   2.070   2.341   1.148 -0.5132 -0.4201 -0.7694
 6276SOL     OW30460   0.280   0.608   4.337  0.0685  0.0982 -0.3671
 6276SOL    HW130461   0.330   0.530   4.315 -2.9461 -1.4602 -1.6858
 6276SOL    HW230462   0.200   0.580   4.383  1.9572 -0.4200  2.5629
 6277SOL     OW30463   0.998   2.798   7.577  0.3713  1.1752 -0.1145
 6277SOL    HW130464   1.094   2.795   7.576  0.3525  0.4698  0.9618
 6277SOL    HW230465   0.982   2.812   7.670  0.3238  4.0123 -0.5602
 6278SOL     OW30466   3.240   2.517   2.983  0.3565  0.2025 -0.2193
 6278SOL    HW130467   3.313   2.534   2.924  2.5522  0.5673  2.5839
 6278SOL    HW230468   3.265   2.550   3.070  2.0291  0.3149 -0.7463
 6279SOL     OW30469   3.176   4.476   4.022 -0.6897  0.1362  0.2538
 6279SOL    HW130470   3.182   4.569   4.041  1.1842  0.0080  0.2404
 6279SOL    HW230471   3.138   4.497   3.936 -0.7870  2.3221  0.8573
 6280SOL     OW30472   2.455   3.199   4.516  0.0472 -0.1191 -0.7057
 6280SOL    HW130473   2.475   3.161   4.431  0.0328 -2.0308  0.1620
 6280SOL    HW230474   2.413   3.283   4.493 -1.9330 -1.3350 -1.5617
 6281SOL     OW30475   2.583   4.199  15.818 -0.2199  0.6537 -0.2049
 6281SOL    HW130476   2.551   4.284  15.788  1.2829  0.5509 -2.1261
 6281SOL    HW230477   2.659   4.232  15.866  0.2037  1.0923 -1.1855
 6282SOL     OW30478   0.401   1.992   8.777  0.1328  0.4388 -0.0084
 6282SOL    HW130479   0.479   1.965   8.826 -0.8871  0.7779  1.8130
 6282SOL    HW230480   0.405   2.087   8.773  1.3781  0.4022  0.3213
 6283SOL     OW30481   2.169   1.794   7.016 -0.0646 -0.1125 -0.5761
 6283SOL    HW130482   2.162   1.709   6.971 -0.8251 -0.2699 -0.1772
 6283SOL    HW230483   2.099   1.841   6.971  0.6186 -0.3064 -1.8518
 6284SOL     OW30484   3.550   4.110  15.990 -0.2054  0.4158  0.0012
 6284SOL    HW130485   3.561   4.121  15.895  1.7594 -2.8623 -0.1739
 6284SOL    HW230486   3.533   4.199  16.020  1.1904  0.3448  1.0572
 6285SOL     OW30487   4.103   2.500   8.548  0.1268 -0.5232 -0.1116
 6285SOL    HW130488   4.032   2.460   8.499  0.7571  0.1691 -1.5914
 6285SOL    HW230489   4.116   2.579   8.495  2.3847  0.4073  1.8145
 6286SOL     OW30490   1.399   3.815   8.005 -0.2900  0.4976  0.2325
 6286SOL    HW130491   1.304   3.816   8.022 -0.2897 -1.0112  0.3190
 6286SOL    HW230492   1.406   3.749   7.937  0.9884  1.0284 -0.1373
 6287SOL     OW30493   3.252   3.465   2.711  0.0887  0.0773 -0.0876
 6287SOL    HW130494   3.313   3.479   2.782 -1.9052  1.8433  1.2728
 6287SOL    HW230495   3.200   3.397   2.754  0.1155 -1.2550 -2.1459
 6288SOL     OW30496   3.087   2.074  17.222 -0.0664  0.4079 -0.4514
 6288SOL    HW130497   3.127   2.095  17.307 -0.2195 -1.3700  0.0731
 6288SOL    HW230498   3.163   2.051  17.168  0.2053  3.0983 -1.2064
 6289SOL     OW30499   0.064   2.345  17.514 -0.0839 -0.5707 -0.7485
 6289SOL    HW130500   0.104   2.425  17.549 -2.5984  0.6810 -0.7078
 6289SOL    HW230501   4.720   2.383  17.479 -1.7301  0.2974  4.0629
 6290SOL     OW30502   2.081   3.447   4.048  0.7717  0.7266  0.1048
 6290SOL    HW130503   2.162   3.498   4.048  1.3802 -0.2380 -1.9272
 6290SOL    HW230504   2.022   3.504   4.097  0.4937  0.3879  0.1645
 6291SOL     OW30505   2.953   2.060  15.108  0.0219 -0.2622 -0.6598
 6291SOL    HW130506   2.871   2.102  15.083  0.7712  0.9036 -1.1313
 6291SOL    HW230507   3.027   2.108  15.072  0.4499 -0.2086  0.2804
 6292SOL     OW30508   0.432   1.296   6.096  0.1466 -0.2724  0.3908
 6292SOL    HW130509   0.380   1.217   6.083 -0.8677  0.5847 -0.7024
 6292SOL    HW230510   0.418   1.334   6.010 -0.7480  2.4350  1.7280
 6293SOL     OW30511   1.460   2.063  11.263 -0.8751 -0.6121  0.3455
 6293SOL    HW130512   1.387   2.098  11.212 -1.3472 -1.5824  0.3680
 6293SOL    HW230513   1.414   2.030  11.340  0.6120 -1.0586  1.0396
 6294SOL     OW30514   3.785   3.299   6.445  0.0755  0.4087 -0.2289
 6294SOL    HW130515   3.800   3.235   6.375 -0.0778  0.4328 -0.2816
 6294SOL    HW230516   3.700   3.334   6.420 -0.0965  0.3767  0.3043
 6295SOL     OW30517   0.906   1.349   4.660 -0.2531  0.3014  0.3024
 6295SOL    HW130518   0.910   1.443   4.681 -0.7247  0.8051 -1.8905
 6295SOL    HW230519   0.946   1.311   4.737  1.6753  1.5963 -0.0675
 6296SOL     OW30520   0.006   0.085   2.007  0.0347 -0.4393 -0.2534
 6296SOL    HW130521   0.021   0.083   2.102 -0.0676 -4.3035 -0.2940
 6296SOL    HW230522   4.662   0.136   2.008  0.4924  0.2854 -0.6589
 6297SOL     OW30523   2.677   3.808   7.904  0.4916 -0.0185 -0.0998
 6297SOL    HW130524   2.636   3.747   7.965  1.4158  0.8349  1.3772
 6297SOL    HW230525   2.730   3.858   7.966 -1.9538  2.0248  0.3695
 6298SOL     OW30526   1.002   4.432  14.545  0.0324  0.2432  0.1454
 6298SOL    HW130527   1.075   4.493  14.559  0.8922 -0.5737 -0.7039
 6298SOL    HW230528   0.940   4.465  14.610  1.7699 -0.6348  2.2887
 6299SOL     OW30529   0.600   4.161   2.048 -0.3775  0.3545  0.4048
 6299SOL    HW130530   0.563   4.168   1.960 -0.2550  1.4770  0.4447
 6299SOL    HW230531   0.584   4.253   2.070  0.4619  0.6783 -0.3605
 6300SOL     OW30532   3.989   2.591   4.335  0.5282 -0.1608 -0.2384
 6300SOL    HW130533   3.957   2.670   4.380 -2.2461  0.0769 -2.6280
 6300SOL    HW230534   3.914   2.579   4.277  2.4962 -0.3184 -2.7179
 6301SOL     OW30535   2.703   2.236   8.349 -0.1670  0.1299  0.1543
 6301SOL    HW130536   2.657   2.171   8.295  0.9807  0.8839 -1.7208
 6301SOL    HW230537   2.751   2.276   8.276 -1.2455 -0.1422 -0.7064
 6302SOL     OW30538   4.184   4.656  12.340 -0.1407 -0.0609  0.5398
 6302SOL    HW130539   4.146   4.689  12.259 -1.3143 -2.3594  0.1660
 6302SOL    HW230540   4.212   4.567  12.317  2.0895  0.0472  2.7649
 6303SOL     OW30541   0.901   2.092   3.571 -0.7596  0.3887  0.6038
 6303SOL    HW130542   0.995   2.110   3.570 -0.2677 -2.1830  0.7755
 6303SOL    HW230543   0.901   2.027   3.502 -0.9738 -0.5329  1.4678
 6304SOL     OW30544   1.418   2.302   8.158  0.1897 -0.1863  0.5459
 6304SOL    HW130545   1.450   2.366   8.095 -1.3809  1.5451  1.4967
 6304SOL    HW230546   1.401   2.364   8.228  0.0690 -0.9680  1.2103
 6305SOL     OW30547   4.148   0.920   3.486  0.3799 -0.4773  0.3453
 6305SOL    HW130548   4.101   0.848   3.529  1.2149 -1.3045 -0.1296
 6305SOL    HW230549   4.237   0.891   3.507  1.7201  2.2501 -1.4898
 6306SOL     OW30550   0.363   0.367   6.920  0.5209  0.0798 -0.5071
 6306SOL    HW130551   0.328   0.278   6.919  0.3356  0.1423  0.5898
 6306SOL    HW230552   0.284   0.413   6.890  0.5776  0.0514 -0.7008
 6307SOL     OW30553   4.262   3.526   2.137  0.1569 -0.2558  0.3669
 6307SOL    HW130554   4.325   3.541   2.067 -0.7746  0.5817 -0.2920
 6307SOL    HW230555   4.211   3.454   2.100  1.9943 -0.8472 -0.9921
 6308SOL     OW30556   2.404   3.290  16.341  0.4112  0.0930 -0.5330
 6308SOL    HW130557   2.319   3.281  16.300  0.4157  1.8783 -0.9344
 6308SOL    HW230558   2.409   3.201  16.375 -1.3620  1.1042  2.3776
 6309SOL     OW30559   2.363   3.941   9.189 -0.1812  0.1171  0.0731
 6309SOL    HW130560   2.390   3.862   9.236  1.6524  0.3880 -0.5101
 6309SOL    HW230561   2.449   3.971   9.158 -0.6538  2.8757  1.4096
 6310SOL     OW30562   2.096   0.451   8.594 -0.2553  0.2520  0.4487
 6310SOL    HW130563   2.162   0.521   8.594  0.7988 -0.7293  1.4729
 6310SOL    HW230564   2.016   0.490   8.561 -1.7842 -1.5913  1.9898
 6311SOL     OW30565   1.609   2.430  10.196 -0.2174  0.5027 -0.2845
 6311SOL    HW130566   1.522   2.390  10.194  0.4310 -0.9264 -0.1070
 6311SOL    HW230567   1.669   2.362  10.226 -0.3998  0.7862  0.7405
 6312SOL     OW30568   0.775   1.429   2.760  0.0296  0.3229 -0.5433
 6312SOL    HW130569   0.814   1.422   2.847 -0.1436 -0.2415 -0.5092
 6312SOL    HW230570   0.789   1.345   2.715  1.0413  1.5275 -2.5096
 6313SOL     OW30571   1.499   2.481   7.948 -0.0293  0.7645  0.2401
 6313SOL    HW130572   1.493   2.522   7.862  1.5029  2.7646  1.0821
 6313SOL    HW230573   1.571   2.526   7.992  1.2121 -2.6109  1.6510
 6314SOL     OW30574   4.486   2.097  14.900 -0.1062 -0.8397 -0.3077
 6314SOL    HW130575   4.511   2.016  14.855 -1.1669 -0.5166 -1.4887
 6314SOL    HW230576   4.551   2.157  14.866 -1.6728 -0.9650 -3.5506
 6315SOL     OW30577   2.397   4.313   3.284 -0.4257  0.4394 -0.5297
 6315SOL    HW130578   2.317   4.274   3.247  0.8576 -1.9990 -0.7803
 6315SOL    HW230579   2.466   4.246   3.284 -0.7001  0.1504 -1.5891
 6316SOL     OW30580   1.695   3.885   2.598 -0.2875 -0.5420 -0.2704
 6316SOL    HW130581   1.742   3.911   2.519  1.5868  1.2223  1.4113
 6316SOL    HW230582   1.686   3.790   2.597  0.6409 -0.6346  0.2170
 6317SOL     OW30583   1.013   2.275   6.352  0.3645  0.1330 -0.2586
 6317SOL    HW130584   0.919   2.265   6.332  0.4766  0.8338 -1.1629
 6317SOL    HW230585   1.005   2.367   6.377  0.5612  0.4054 -1.1736
 6318SOL     OW30586   2.558   3.731   5.655  0.4914 -0.0458  0.7543
 6318SOL    HW130587   2.610   3.673   5.711  1.7321 -0.7549 -1.0976
 6318SOL    HW230588   2.599   3.731   5.568  0.7375 -0.9851  0.8669
 6319SOL     OW30589   2.338   2.751  10.338  0.2021 -0.0243  0.1326
 6319SOL    HW130590   2.331   2.709  10.424  0.7899  1.9053  1.1271
 6319SOL    HW230591   2.260   2.806  10.344  0.6602  0.3929  2.4146
 6320SOL     OW30592   1.708   0.373   5.908 -0.1120 -1.1726 -0.0234
 6320SOL    HW130593   1.786   0.322   5.885  1.4515  1.2985 -0.1873
 6320SOL    HW230594   1.687   0.337   5.994 -0.3996 -0.9274  0.0078
 6321SOL     OW30595   3.583   0.364  10.522  0.1925  0.0627 -0.3663
 6321SOL    HW130596   3.632   0.283  10.507  0.9523  0.6064 -0.7864
 6321SOL    HW230597   3.579   0.405  10.435 -2.1151  0.9964  0.1824
 6322SOL     OW30598   3.480   0.903   3.319  0.2133  0.2550 -0.3803
 6322SOL    HW130599   3.415   0.971   3.339 -0.5537 -0.9190  1.1135
 6322SOL    HW230600   3.558   0.915   3.372  0.0239  0.1969 -0.0896
 6323SOL     OW30601   3.787   0.011   5.744 -0.4084  0.4801 -0.0237
 6323SOL    HW130602   3.796   4.685   5.816 -0.8584  0.1375 -0.2663
 6323SOL    HW230603   3.828   0.087   5.784  1.3437 -0.5804  0.1800
 6324SOL     OW30604   3.909   0.495   2.919  0.6478  0.0920 -0.3525
 6324SOL    HW130605   3.990   0.444   2.925  2.5843  3.0845 -0.8711
 6324SOL    HW230606   3.935   0.582   2.950  1.6822 -0.1563 -0.5353
 6325SOL     OW30607   3.341   2.617   4.888  0.2517  0.4308  0.2056
 6325SOL    HW130608   3.343   2.602   4.982  0.5678 -2.3929 -0.2491
 6325SOL    HW230609   3.420   2.571   4.860 -2.5629 -1.6502 -4.3594
 6326SOL     OW30610   1.658   4.486   2.351  0.0871 -0.6084  0.3184
 6326SOL    HW130611   1.696   4.528   2.429  0.5754  3.2602 -1.9789
 6326SOL    HW230612   1.572   4.528   2.346 -0.2936 -1.6476 -1.6565
 6327SOL     OW30613   4.686   0.712   5.594 -0.5120  0.0087 -0.1391
 6327SOL    HW130614   0.016   0.645   5.578 -2.1154 -1.6960  0.2339
 6327SOL    HW230615   4.647   0.690   5.679 -2.1247 -1.7660 -1.3132
 6328SOL     OW30616   2.805   0.637   5.579 -0.3801 -0.1756 -0.2663
 6328SOL    HW130617   2.809   0.674   5.491  1.3295 -0.0972 -0.1576
 6328SOL    HW230618   2.808   0.542   5.569  2.3694 -0.3504  2.1170
 6329SOL     OW30619   3.984   2.203  17.300  0.4229  0.1423 -0.2051
 6329SOL    HW130620   4.065   2.250  17.284  0.1354  0.5102 -0.5920
 6329SOL    HW230621   4.009   2.163  17.383 -0.4379  1.3028  0.6156
 6330SOL     OW30622   0.970   1.646   3.677  0.0660  0.0615  0.4145
 6330SOL    HW130623   0.876   1.632   3.682 -0.1681  1.2049 -0.6891
 6330SOL    HW230624   0.996   1.720   3.731  1.9675  0.2300 -0.7347
 6331SOL     OW30625   2.322   1.039   4.702 -0.0372  0.0927 -0.1417
 6331SOL    HW130626   2.386   1.019   4.771 -0.6085 -1.4081 -0.0618
 6331SOL    HW230627   2.285   1.121   4.733 -0.3973 -0.0741 -0.1408
 6332SOL     OW30628   4.479   4.186   5.853 -0.2567 -0.0535  0.0877
 6332SOL    HW130629   4.562   4.150   5.884 -0.5493 -0.0875  0.8173
 6332SOL    HW230630   4.428   4.108   5.833  0.7173 -0.0809 -2.2922
 6333SOL     OW30631   0.275   1.993   7.868  0.2820 -0.4867 -0.4114
 6333SOL    HW130632   0.304   2.031   7.785 -4.3177 -3.1928 -3.2534
 6333SOL    HW230633   0.353   2.008   7.920 -1.1655  0.6187  1.4592
 6334SOL     OW30634   3.833   4.160  11.683 -0.0070  0.8933 -0.1482
 6334SOL    HW130635   3.767   4.142  11.751  0.4345 -1.3514 -0.2966
 6334SOL    HW230636   3.791   4.241  11.654 -1.1073  1.2396  2.4000
 6335SOL     OW30637   2.684   2.125   6.620  0.1875  0.2399  0.2321
 6335SOL    HW130638   2.615   2.163   6.565  0.4861  2.4949  1.4055
 6335SOL    HW230639   2.645   2.130   6.708 -1.0959 -0.0940 -0.3190
 6336SOL     OW30640   4.239   2.683   8.332  0.0015  0.2882 -0.3003
 6336SOL    HW130641   4.157   2.688   8.283 -0.4779  0.5269  0.5463
 6336SOL    HW230642   4.231   2.736   8.411  0.0267  0.1074 -0.1757
 6337SOL     OW30643   2.905   1.299  15.316  0.0378 -0.2552  0.3423
 6337SOL    HW130644   2.988   1.347  15.313 -0.9398  1.3482 -0.8356
 6337SOL    HW230645   2.901   1.265  15.227 -1.5633  2.2472 -0.5384
 6338SOL     OW30646   3.623   4.646   4.822 -0.2125  0.3481 -0.5736
 6338SOL    HW130647   3.587   4.579   4.764  0.0218 -0.6496  0.4413
 6338SOL    HW230648   3.674   4.601   4.889  0.5361  0.7560 -0.8690
 6339SOL     OW30649   2.075   1.139   9.311 -0.4398  0.3441 -0.7977
 6339SOL    HW130650   2.032   1.075   9.369  1.9518  0.5091  1.1575
 6339SOL    HW230651   2.097   1.093   9.230 -3.8185  1.2242 -2.2355
 6340SOL     OW30652   2.331   4.493   3.008 -0.1497 -0.1428  0.0485
 6340SOL    HW130653   2.316   4.423   3.071 -1.7576  0.2521  0.1057
 6340SOL    HW230654   2.336   4.439   2.929  0.5395  2.0964 -1.4503
 6341SOL     OW30655   1.251   0.771  13.483  0.1666  0.4430  1.2989
 6341SOL    HW130656   1.252   0.861  13.516  0.7231  1.0258 -0.2879
 6341SOL    HW230657   1.160   0.742  13.473 -0.0354  2.0798 -1.5987
 6342SOL     OW30658   0.051   0.870   4.876 -0.2092 -0.1018 -0.1612
 6342SOL    HW130659   0.035   0.780   4.907  0.0452 -0.5314 -1.2846
 6342SOL    HW230660   4.706   0.916   4.892  0.1469  0.9930 -1.5281
 6343SOL     OW30661   4.387   1.092  17.456  0.0504  0.2595  0.3565
 6343SOL    HW130662   4.297   1.105  17.425  1.1012  3.8683 -1.1508
 6343SOL    HW230663   4.432   1.122  17.377  0.9262  0.5772  0.9855
 6344SOL     OW30664   4.268   0.637   6.422  0.6715 -0.2580  0.2664
 6344SOL    HW130665   4.228   0.683   6.496 -2.7600  0.7334 -2.1669
 6344SOL    HW230666   4.280   0.706   6.358  1.0131  0.5952  1.2481
 6345SOL     OW30667   1.822   0.778   7.261 -0.6212  0.1940  0.2652
 6345SOL    HW130668   1.865   0.797   7.344 -2.0792  0.2418  1.0060
 6345SOL    HW230669   1.888   0.719   7.225  0.1156  1.9882 -1.4045
 6346SOL     OW30670   0.728   2.223  14.686 -0.1229  0.2719 -0.3235
 6346SOL    HW130671   0.753   2.134  14.662  0.1894  0.2708  0.0053
 6346SOL    HW230672   0.785   2.276  14.631  1.6698  0.2985  1.5562
 6347SOL     OW30673   1.302   3.328   2.983 -0.2947 -0.0349 -0.0456
 6347SOL    HW130674   1.273   3.238   2.969  1.1984 -0.3977 -0.8072
 6347SOL    HW230675   1.357   3.312   3.060 -1.1381  0.4595  0.6694
 6348SOL     OW30676   1.302   4.173  11.995 -0.2648  0.7059 -0.0813
 6348SOL    HW130677   1.396   4.184  12.004  0.0288 -2.5301  0.7833
 6348SOL    HW230678   1.273   4.237  12.061  0.6789  1.1657 -0.1154
 6349SOL     OW30679   1.279   1.688   8.548 -0.0963  0.1168 -0.4103
 6349SOL    HW130680   1.293   1.749   8.474 -1.6421  0.9131 -0.0397
 6349SOL    HW230681   1.242   1.608   8.510 -3.0592  0.9397  0.8161
 6350SOL     OW30682   1.511   2.600   5.306 -0.1507  1.1034  0.1147
 6350SOL    HW130683   1.523   2.510   5.334 -0.2061  0.7462 -1.0240
 6350SOL    HW230684   1.503   2.647   5.389  2.7420 -0.4836  1.2661
 6351SOL     OW30685   3.666   4.179   3.392  0.4346 -0.2758 -0.0580
 6351SOL    HW130686   3.585   4.152   3.349  1.1110 -1.9115 -0.2804
 6351SOL    HW230687   3.646   4.237   3.465 -0.9094 -0.1765 -0.5083
 6352SOL     OW30688   4.311   1.604   4.219 -0.1035  0.2137  1.2652
 6352SOL    HW130689   4.341   1.635   4.304 -1.1728 -1.4277  2.2525
 6352SOL    HW230690   4.240   1.665   4.202  1.6866  1.5644 -1.2459
 6353SOL     OW30691   1.576   1.637   8.545  0.4174  0.2095 -0.1562
 6353SOL    HW130692   1.541   1.579   8.477  0.7183  2.3914 -2.1526
 6353SOL    HW230693   1.509   1.617   8.611  0.1139  0.9272 -0.2496
 6354SOL     OW30694   0.159   4.508   5.495 -0.1521 -0.2417 -0.2101
 6354SOL    HW130695   0.170   4.415   5.517 -1.8721 -0.8783 -2.0252
 6354SOL    HW230696   0.229   4.549   5.546  1.1386 -0.1010 -2.0630
 6355SOL     OW30697   2.314   1.513   5.056 -0.1186 -0.1120 -0.2877
 6355SOL    HW130698   2.393   1.497   5.005  0.4111 -1.7325  1.0406
 6355SOL    HW230699   2.249   1.446   5.038 -0.6357 -0.3138  2.3814
 6356SOL     OW30700   2.339   0.489   7.193  0.0202 -0.0564 -0.6159
 6356SOL    HW130701   2.270   0.469   7.256 -0.9893  1.1249 -1.3464
 6356SOL    HW230702   2.340   0.420   7.127 -0.3273 -0.1076 -0.5693
 6357SOL     OW30703   2.968   3.160   2.167  0.5773 -0.0433 -0.1799
 6357SOL    HW130704   3.039   3.225   2.162  0.1839  0.4345  0.4877
 6357SOL    HW230705   2.977   3.148   2.261 -1.6701  0.3138  0.0770
 6358SOL     OW30706   2.463   0.328   6.244 -0.3210 -0.0891  0.4852
 6358SOL    HW130707   2.492   0.334   6.335  0.7846  1.8753 -0.0021
 6358SOL    HW230708   2.368   0.324   6.247 -0.3720  0.4000 -0.6922
 6359SOL     OW30709   4.026   3.796   5.592 -0.1163  0.1253  0.1466
 6359SOL    HW130710   4.098   3.782   5.653  1.8002  2.2809 -1.6689
 6359SOL    HW230711   3.970   3.855   5.643 -0.3481 -0.5240  0.6574
 6360SOL     OW30712   2.731   4.244   9.587  0.5700 -0.2018 -0.3893
 6360SOL    HW130713   2.728   4.220   9.494  0.6015 -1.4333 -0.0728
 6360SOL    HW230714   2.788   4.320   9.574  1.4022 -1.1138 -2.1491
 6361SOL     OW30715   2.591   2.475  11.163  0.3544  0.0522  0.1040
 6361SOL    HW130716   2.584   2.421  11.085  3.7773 -0.2946  0.0587
 6361SOL    HW230717   2.541   2.418  11.221  1.7110  1.0282  2.2394
 6362SOL     OW30718   2.933   2.253   9.620 -0.4539  0.4144 -0.6034
 6362SOL    HW130719   2.853   2.292   9.584 -1.0343 -1.4568 -1.3432
 6362SOL    HW230720   2.951   2.297   9.704  1.5373  0.1237 -0.8820
 6363SOL     OW30721   3.819   3.121   8.833  0.2553  0.5142 -0.2227
 6363SOL    HW130722   3.759   3.069   8.779  0.4892  0.6566 -0.6163
 6363SOL    HW230723   3.897   3.111   8.779 -0.3119 -1.2859 -0.7334
 6364SOL     OW30724   3.075   3.198   8.155 -0.5629 -0.4427  0.6652
 6364SOL    HW130725   2.995   3.214   8.104  0.0603  0.6520  0.0309
 6364SOL    HW230726   3.138   3.238   8.095  0.4108 -1.9385  0.6846
 6365SOL     OW30727   1.216   4.048   6.824 -0.0535  0.2058  0.0488
 6365SOL    HW130728   1.161   3.999   6.886  0.1238 -0.3792 -0.2586
 6365SOL    HW230729   1.147   4.072   6.762  0.4181  2.7189  0.4825
 6366SOL     OW30730   1.949   4.182   5.846 -0.5184  0.4658 -0.0975
 6366SOL    HW130731   1.896   4.106   5.823  0.3747 -0.5443  1.1442
 6366SOL    HW230732   2.041   4.159   5.863 -0.4103  1.5188  0.7341
 6367SOL     OW30733   1.271   2.810   7.519 -0.0275  0.1435 -0.0175
 6367SOL    HW130734   1.350   2.863   7.519 -1.0289  1.6175 -0.9503
 6367SOL    HW230735   1.310   2.723   7.510 -0.0620  0.0517  0.7182
 6368SOL     OW30736   3.943   2.733   0.819  0.3819 -0.1147  0.0297
 6368SOL    HW130737   3.920   2.786   0.894 -0.5435  0.5178 -0.6970
 6368SOL    HW230738   3.924   2.794   0.747 -0.8852 -1.1881 -0.5653
 6369SOL     OW30739   2.404   2.610   8.243  1.2312  0.4572  0.0861
 6369SOL    HW130740   2.378   2.687   8.192  3.0690 -0.0675 -1.6419
 6369SOL    HW230741   2.388   2.644   8.332  0.0325  0.7689 -0.2486
 6370SOL     OW30742   2.457   4.456   1.942  0.5838 -0.5629  0.4594
 6370SOL    HW130743   2.501   4.418   1.866 -1.7921 -0.1830 -1.0966
 6370SOL    HW230744   2.508   4.405   2.005 -0.7607  0.4517  2.3788
 6371SOL     OW30745   4.686   0.332  13.377 -0.3832  0.1366  0.2302
 6371SOL    HW130746   4.602   0.293  13.402  0.2473 -1.1039  0.3868
 6371SOL    HW230747   4.678   0.332  13.281 -0.3220  5.0045  0.2438
 6372SOL     OW30748   0.477   0.383   1.842 -0.4082 -0.2172 -0.3832
 6372SOL    HW130749   0.399   0.429   1.870 -0.4851 -1.3045  1.2006
 6372SOL    HW230750   0.513   0.453   1.787 -1.1900  1.7913  1.6767
 6373SOL     OW30751   2.737   2.844   9.992  0.2269  0.2258 -0.7088
 6373SOL    HW130752   2.799   2.773   9.976  0.8353  0.5048  0.4087
 6373SOL    HW230753   2.686   2.847   9.911 -1.5374 -2.8637  0.3328
 6374SOL     OW30754   3.386   2.327   0.575 -0.2903 -0.2620  0.3666
 6374SOL    HW130755   3.462   2.312   0.632  1.4599 -0.5121 -2.0305
 6374SOL    HW230756   3.371   2.421   0.579 -0.8732 -0.4006  1.3863
 6375SOL     OW30757   2.880   2.142  11.242  0.1401 -0.3966  0.4165
 6375SOL    HW130758   2.827   2.144  11.321  0.5838 -0.7346  0.7235
 6375SOL    HW230759   2.877   2.055  11.203  0.8654 -0.5458  0.6952
 6376SOL     OW30760   3.905   4.130   8.565  0.2958 -0.4141  0.4517
 6376SOL    HW130761   3.985   4.082   8.588  1.0699  0.9085  0.5173
 6376SOL    HW230762   3.875   4.166   8.648  2.1100  1.7916  0.1482
 6377SOL     OW30763   4.245   2.090   4.031 -0.0266 -0.2801  0.5248
 6377SOL    HW130764   4.220   2.017   3.974  2.4052  0.4832 -1.5516
 6377SOL    HW230765   4.174   2.079   4.094  0.0360  0.2986  0.6980
 6378SOL     OW30766   4.733   4.716   4.444 -0.4915 -0.0360  0.1511
 6378SOL    HW130767   4.713   4.703   4.536 -0.6746  4.3412  0.7269
 6378SOL    HW230768   4.690   4.641   4.402  1.0875 -0.8016 -0.0669
 6379SOL     OW30769   3.424   1.055   8.055 -0.1934 -0.0199  0.2925
 6379SOL    HW130770   3.409   0.962   8.071 -1.4085  0.3979  1.6486
 6379SOL    HW230771   3.422   1.096   8.142 -0.3985  2.1812 -0.7372
 6380SOL     OW30772   3.123   3.863  16.056  0.2048  0.4968 -0.2727
 6380SOL    HW130773   3.080   3.812  15.987 -0.0640 -0.4439  0.5987
 6380SOL    HW230774   3.191   3.892  15.995  0.2061  2.3271  0.5972
 6381SOL     OW30775   4.298   1.540   4.996 -0.1475  0.0686 -0.2630
 6381SOL    HW130776   4.384   1.503   5.016  0.8196  2.1022 -0.6615
 6381SOL    HW230777   4.258   1.549   5.082 -1.3369 -0.4352 -0.7481
 6382SOL     OW30778   3.926   0.532   3.441 -0.0777 -0.0158  0.1074
 6382SOL    HW130779   3.902   0.589   3.368 -1.3301 -1.2958 -0.4838
 6382SOL    HW230780   4.007   0.575   3.468  0.2135  0.2783 -1.2271
 6383SOL     OW30781   0.370   0.357   2.893  0.1207 -0.2155 -0.1448
 6383SOL    HW130782   0.344   0.448   2.907 -0.7296 -0.5548  0.5253
 6383SOL    HW230783   0.464   0.354   2.907  0.4887  1.3514 -2.2580
 6384SOL     OW30784   1.849   2.290  10.344  0.4423 -0.5767 -0.1013
 6384SOL    HW130785   1.787   2.219  10.324  0.1267 -0.0813 -0.8890
 6384SOL    HW230786   1.920   2.280  10.281 -0.1870  1.0320 -1.0880
 6385SOL     OW30787   3.734   3.192   8.534  0.2321  0.4329 -0.3763
 6385SOL    HW130788   3.743   3.109   8.488  0.7539  0.9313 -1.1821
 6385SOL    HW230789   3.639   3.204   8.527  0.1431 -0.1696 -0.2139
 6386SOL     OW30790   0.043   4.353   7.889 -0.0375  0.0230  0.1700
 6386SOL    HW130791   0.127   4.313   7.912 -0.3322 -0.9452 -0.4799
 6386SOL    HW230792   0.029   4.310   7.805 -0.3194 -1.9067  1.2168
 6387SOL     OW30793   1.004   0.390   3.096  0.1492 -0.3973  0.4516
 6387SOL    HW130794   1.065   0.379   3.023  1.7217  0.5518  1.6105
 6387SOL    HW230795   1.059   0.381   3.174 -0.0239  1.4319  0.7809
 6388SOL     OW30796   0.159   1.983  16.899  0.1302 -0.1908 -0.0635
 6388SOL    HW130797   0.251   1.982  16.926 -0.3675 -0.8428  1.5922
 6388SOL    HW230798   0.155   2.064  16.849 -1.0949 -1.0873 -1.4188
 6389SOL     OW30799   2.145   2.010   2.847  0.4529  0.2796  0.6039
 6389SOL    HW130800   2.132   1.920   2.818  0.8926  0.2932  0.3692
 6389SOL    HW230801   2.196   1.996   2.927 -0.2573  0.1672  1.0402
 6390SOL     OW30802   0.805   1.328  10.817 -0.2947  0.7867 -0.0047
 6390SOL    HW130803   0.854   1.390  10.762  0.3720  0.4958  0.2620
 6390SOL    HW230804   0.784   1.260  10.752  1.6729 -0.8789  1.1082
 6391SOL     OW30805   3.375   1.843  15.518  0.5694  0.0813 -0.2362
 6391SOL    HW130806   3.425   1.877  15.444  1.0085 -1.7321 -0.7797
 6391SOL    HW230807   3.313   1.912  15.541 -1.1554 -1.3418 -0.6171
 6392SOL     OW30808   2.000   2.683   2.599 -0.1082  0.1079 -0.0907
 6392SOL    HW130809   1.924   2.690   2.658 -0.7054  2.2655 -1.1103
 6392SOL    HW230810   1.956   2.634   2.530 -0.2065 -0.7778  0.5969
 6393SOL     OW30811   1.792   3.445   6.487  0.4530 -0.5691  0.2336
 6393SOL    HW130812   1.698   3.462   6.490  0.4425 -0.9458  2.0942
 6393SOL    HW230813   1.799   3.366   6.540  0.8814  0.8417  2.2588
 6394SOL     OW30814   2.124   2.638  12.960  1.1273  0.1088 -0.0804
 6394SOL    HW130815   2.213   2.664  12.986  2.0759 -1.8764 -1.3473
 6394SOL    HW230816   2.077   2.642  13.044  1.9276  0.7391  0.3493
 6395SOL     OW30817   4.625   0.187   8.834 -0.1686  0.3616  0.2523
 6395SOL    HW130818   4.687   0.229   8.776  0.3873  0.9909  1.2943
 6395SOL    HW230819   4.676   0.186   8.915  0.2507  0.5363 -0.0128
 6396SOL     OW30820   0.614   1.619   8.156 -0.4452 -0.3547  0.3071
 6396SOL    HW130821   0.524   1.643   8.175  0.1254  0.3829  2.0546
 6396SOL    HW230822   0.632   1.577   8.240  1.3262 -3.5759 -1.6872
 6397SOL     OW30823   3.616   4.179   4.928 -0.1237 -0.0569  0.2866
 6397SOL    HW130824   3.698   4.131   4.915  1.1973  2.4537 -0.7173
 6397SOL    HW230825   3.611   4.211   4.838 -0.1197 -1.8175 -0.3398
 6398SOL     OW30826   0.843   1.612   9.275  0.3537  0.0669 -0.2329
 6398SOL    HW130827   0.871   1.635   9.363  0.3256  0.3857 -0.3064
 6398SOL    HW230828   0.808   1.524   9.289 -2.1833  1.3407  1.4384
 6399SOL     OW30829   1.578   3.719   3.281  0.0624  0.0366 -0.0525
 6399SOL    HW130830   1.493   3.748   3.315 -0.1492 -0.8398  0.1575
 6399SOL    HW230831   1.563   3.625   3.284  0.6937 -0.0014  2.1243
 6400SOL     OW30832   0.959   0.284   1.480 -0.5670  0.3703  0.0088
 6400SOL    HW130833   0.962   0.377   1.455 -0.9583  0.2435 -0.5016
 6400SOL    HW230834   0.952   0.293   1.575  1.3413  0.9214  0.1091
 6401SOL     OW30835   3.185   0.802   9.480  0.0768 -0.2877 -0.7930
 6401SOL    HW130836   3.277   0.801   9.505 -0.1456 -1.2681 -0.0035
 6401SOL    HW230837   3.128   0.829   9.553  1.2955 -2.2348  0.8918
 6402SOL     OW30838   4.250   3.905   9.563  0.3715 -0.0272  0.0042
 6402SOL    HW130839   4.318   3.972   9.570 -1.1270  1.5806 -0.8406
 6402SOL    HW230840   4.168   3.949   9.586  0.1274 -0.7584  0.5541
 6403SOL     OW30841   0.645   3.504   9.005  0.1039 -0.0645 -0.1041
 6403SOL    HW130842   0.591   3.456   9.068  1.5587 -1.7191 -0.1132
 6403SOL    HW230843   0.684   3.436   8.950  0.3689 -0.6422  0.8008
 6404SOL     OW30844   2.059   0.760  13.719  0.2216  0.4208  0.1136
 6404SOL    HW130845   2.030   0.767  13.628  2.4989  1.0072 -0.5811
 6404SOL    HW230846   2.132   0.698  13.719 -0.1755 -0.0334  0.8316
 6405SOL     OW30847   4.033   3.847  12.827  0.1070  0.2718  0.4586
 6405SOL    HW130848   4.052   3.909  12.757  0.8933  0.4329  0.8054
 6405SOL    HW230849   3.940   3.865  12.837  0.5670  2.6648  0.3371
 6406SOL     OW30850   4.274   3.659   9.646 -0.2550 -0.6349  0.0927
 6406SOL    HW130851   4.272   3.748   9.610  0.1157 -0.4446  0.5430
 6406SOL    HW230852   4.351   3.663   9.702 -0.2239 -0.8609  0.0660
 6407SOL     OW30853   2.748   4.027   6.280 -0.1665  0.4377 -0.1547
 6407SOL    HW130854   2.687   4.095   6.252 -0.1615 -0.2209 -1.7516
 6407SOL    HW230855   2.749   3.970   6.203 -0.5246  0.8217 -0.4392
 6408SOL     OW30856   2.942   4.661   8.164 -0.0346 -0.1681  0.0454
 6408SOL    HW130857   2.953   4.666   8.069 -3.0957  2.4622 -0.1692
 6408SOL    HW230858   3.034   4.676   8.182  0.2236  0.5417 -1.8502
 6409SOL     OW30859   3.193   1.314   3.434 -0.0360 -0.0708 -0.1714
 6409SOL    HW130860   3.195   1.384   3.499 -1.4771  1.3831 -1.6968
 6409SOL    HW230861   3.257   1.256   3.475 -1.6552 -0.6340  1.5537
 6410SOL     OW30862   3.067   2.861   4.671 -0.5456  0.8617  0.1451
 6410SOL    HW130863   3.061   2.945   4.626 -0.3134  1.1902  0.7237
 6410SOL    HW230864   2.993   2.867   4.732  0.3170 -0.7749  1.3671
 6411SOL     OW30865   0.226   0.820   6.239  0.1769  0.2385  0.4582
 6411SOL    HW130866   0.237   0.734   6.198 -2.3086  0.4578 -0.6702
 6411SOL    HW230867   0.179   0.795   6.319 -0.2037 -0.3249  0.0639
 6412SOL     OW30868   1.323   1.470   5.983  0.7770 -0.6930 -0.0917
 6412SOL    HW130869   1.338   1.497   5.892 -0.0439  2.7902  0.8230
 6412SOL    HW230870   1.362   1.546   6.025 -1.1405 -0.8629  1.9867
 6413SOL     OW30871   1.131   0.888   6.445  0.0457  0.0891 -0.4443
 6413SOL    HW130872   1.188   0.840   6.505  1.4681  1.1199 -0.9767
 6413SOL    HW230873   1.048   0.872   6.490  0.1555 -0.3083 -0.3778
 6414SOL     OW30874   3.058   1.932  14.064 -0.2468  0.0689  0.6595
 6414SOL    HW130875   2.991   1.999  14.054 -0.3828  0.1315  2.0098
 6414SOL    HW230876   3.009   1.854  14.089  1.1927 -0.5743  1.4549
 6415SOL     OW30877   0.695   0.718  12.613 -0.3903 -0.0328  0.4370
 6415SOL    HW130878   0.697   0.623  12.621  0.9472 -0.1865 -1.5930
 6415SOL    HW230879   0.623   0.730  12.551 -0.1407 -1.3095 -0.1078
 6416SOL     OW30880   3.833   3.242   1.999 -0.3638  0.3327  0.8151
 6416SOL    HW130881   3.771   3.308   1.967  0.0788 -0.5270 -1.8807
 6416SOL    HW230882   3.885   3.218   1.922  0.6552  2.2271  0.9040
 6417SOL     OW30883   0.280   2.904  16.363 -0.2506 -0.5504  0.4146
 6417SOL    HW130884   0.291   2.825  16.310  0.8197 -1.0708  1.4109
 6417SOL    HW230885   0.188   2.925  16.346  0.2053 -0.6033 -2.0777
 6418SOL     OW30886   2.446   0.665   1.550  0.7024 -0.3937 -0.0614
 6418SOL    HW130887   2.381   0.721   1.507  0.1118 -2.3149 -1.6267
 6418SOL    HW230888   2.418   0.684   1.640 -0.9489  1.0323 -0.8813
 6419SOL     OW30889   1.160   1.155   3.669 -0.2012 -0.2549  0.1815
 6419SOL    HW130890   1.066   1.136   3.677  0.1171 -2.1810 -0.8687
 6419SOL    HW230891   1.197   1.080   3.714  1.4993 -0.2428 -1.1984
 6420SOL     OW30892   2.369   1.185   0.231 -0.3268  0.7013 -0.3105
 6420SOL    HW130893   2.355   1.152   0.320  2.1901  0.1076 -0.1197
 6420SOL    HW230894   2.348   1.106   0.181  1.4314 -1.1970  1.9528
 6421SOL     OW30895   2.662   4.054  11.313 -0.1494  0.1920 -0.3034
 6421SOL    HW130896   2.613   3.994  11.257 -0.9161 -0.5256  1.1252
 6421SOL    HW230897   2.717   4.082  11.240 -1.3144  2.1255 -0.4409
 6422SOL     OW30898   1.678   2.175   0.745 -1.0250 -0.0611  0.2237
 6422SOL    HW130899   1.768   2.176   0.712 -0.8545 -2.4192  0.6178
 6422SOL    HW230900   1.635   2.151   0.663  0.2996  0.3459 -0.5790
 6423SOL     OW30901   0.991   0.179   3.546 -0.4956 -0.2938  0.6390
 6423SOL    HW130902   1.032   0.164   3.461 -0.8359  0.5118  0.3276
 6423SOL    HW230903   0.904   0.212   3.520 -1.1865 -0.0036  3.3085
 6424SOL     OW30904   1.498   4.658   3.691 -0.1479  0.3556  0.1871
 6424SOL    HW130905   1.529   0.006   3.661 -0.4333  0.2734 -0.3402
 6424SOL    HW230906   1.426   4.631   3.634  0.9487  1.0811 -1.5468
 6425SOL     OW30907   2.482   1.149   9.149  0.4542  0.2096 -0.3963
 6425SOL    HW130908   2.530   1.157   9.066  0.5531 -1.3723 -0.4886
 6425SOL    HW230909   2.549   1.151   9.218 -0.6308 -1.2675  0.6879
 6426SOL     OW30910   4.495   4.384   0.352  0.0989  0.0659  0.7020
 6426SOL    HW130911   4.470   4.446   0.421 -0.7609  2.1878 -1.4967
 6426SOL    HW230912   4.466   4.423   0.269  1.5016  2.1625  1.1885
 6427SOL     OW30913   2.703   3.465   5.740 -0.5225 -0.1741  0.7414
 6427SOL    HW130914   2.676   3.383   5.780 -1.9091  1.0148  2.2338
 6427SOL    HW230915   2.751   3.431   5.664  0.5415  2.1971  0.3585
 6428SOL     OW30916   3.513   2.973  17.127  0.4074 -0.4791 -0.1016
 6428SOL    HW130917   3.513   2.937  17.216  3.1177  0.1426  0.1321
 6428SOL    HW230918   3.542   3.061  17.147  0.3087  0.0103 -2.0976
 6429SOL     OW30919   2.933   0.396   4.220  0.5033 -0.1416  0.0804
 6429SOL    HW130920   2.899   0.483   4.242  0.0635  0.2607 -2.1388
 6429SOL    HW230921   2.949   0.409   4.127 -2.2641 -1.8914 -0.6430
 6430SOL     OW30922   3.339   2.696  15.771  0.4759  0.6635 -0.3109
 6430SOL    HW130923   3.399   2.625  15.749  0.2100 -0.0113  1.0978
 6430SOL    HW230924   3.390   2.772  15.744  0.8130  0.8727  0.9003
 6431SOL     OW30925   0.977   1.413   5.074  0.0936  0.6059  0.5669
 6431SOL    HW130926   0.970   1.338   5.133  0.4365  0.5458  0.5365
 6431SOL    HW230927   1.070   1.396   5.059 -0.0426  0.1545  0.2444
 6432SOL     OW30928   0.043   4.695   4.015 -0.2467 -0.5060 -0.1504
 6432SOL    HW130929   0.028   4.646   3.934 -0.7363 -0.6352  0.0149
 6432SOL    HW230930   4.714   0.028   4.015  1.7801  1.4047 -0.9967
 6433SOL     OW30931   0.176   2.373   7.407  0.1102 -0.1020 -0.5258
 6433SOL    HW130932   0.149   2.451   7.455 -0.6570 -1.6381  1.5447
 6433SOL    HW230933   0.101   2.348   7.354 -0.2450  2.2155 -1.0976
 6434SOL     OW30934   2.774   0.754   6.322 -0.3285 -0.1618 -0.3251
 6434SOL    HW130935   2.812   0.714   6.244 -0.3938 -0.0934 -0.3914
 6434SOL    HW230936   2.781   0.678   6.380  2.0176  0.3866  0.1161
 6435SOL     OW30937   2.968   4.411   8.835 -0.2452 -0.0631  0.0442
 6435SOL    HW130938   2.981   4.477   8.768 -0.2876 -1.1204 -1.0054
 6435SOL    HW230939   2.885   4.438   8.874  0.1772  2.1668 -0.6062
 6436SOL     OW30940   2.724   3.476   4.015  0.2459 -0.0631 -0.2177
 6436SOL    HW130941   2.786   3.406   4.037  0.9839  0.9155  0.8525
 6436SOL    HW230942   2.784   3.551   4.022  1.3615 -1.1097  1.4549
 6437SOL     OW30943   0.278   1.319  10.550 -0.6885 -0.6420 -0.3251
 6437SOL    HW130944   0.370   1.323  10.573 -1.0978  1.3135  1.0256
 6437SOL    HW230945   0.254   1.402  10.592  1.6266  0.5688 -1.4159
 6438SOL     OW30946   3.545   0.356   6.130 -0.4449  0.0751  0.1162
 6438SOL    HW130947   3.599   0.435   6.132  1.5568 -1.2513 -1.4113
 6438SOL    HW230948   3.542   0.341   6.036  0.5675  0.9414 -0.0543
 6439SOL     OW30949   2.866   0.421   8.735 -0.0232 -0.3379  0.6437
 6439SOL    HW130950   2.897   0.348   8.789 -1.5961 -1.1797  0.4015
 6439SOL    HW230951   2.931   0.489   8.755 -0.5998  0.0532  1.1899
 6440SOL     OW30952   4.500   4.619   8.233 -0.1938 -0.0448 -0.2089
 6440SOL    HW130953   4.566   4.633   8.165  0.2939 -2.5696 -0.2520
 6440SOL    HW230954   4.456   4.704   8.226 -0.8377 -0.4995 -1.5828
 6441SOL     OW30955   1.178   2.266   8.031 -0.2592  0.0811  0.3492
 6441SOL    HW130956   1.234   2.260   8.108 -0.4561 -1.2617  0.3830
 6441SOL    HW230957   1.250   2.248   7.970 -0.2235  1.1528  0.0732
 6442SOL     OW30958   1.951   1.153   7.742 -0.2330  0.1008  0.1571
 6442SOL    HW130959   2.044   1.144   7.720  0.0106  3.6411 -0.1601
 6442SOL    HW230960   1.936   1.090   7.813 -0.0015  0.1176  0.2223
 6443SOL     OW30961   4.508   1.267   7.106  0.2972 -0.6522  0.2718
 6443SOL    HW130962   4.446   1.339   7.093 -1.0116 -1.8360 -0.1274
 6443SOL    HW230963   4.477   1.215   7.180  2.2179  0.0968  1.5982
 6444SOL     OW30964   2.385   2.060   2.987 -0.6124  0.8558 -0.1506
 6444SOL    HW130965   2.457   2.122   2.995 -3.5439  4.0298  1.7072
 6444SOL    HW230966   2.377   2.049   2.892  2.9772 -0.2871 -0.2905
 6445SOL     OW30967   1.489   0.962   4.037  0.6608 -0.1889  0.0087
 6445SOL    HW130968   1.574   0.997   4.010  0.2929 -1.3780 -2.7246
 6445SOL    HW230969   1.431   1.037   4.027  0.2105 -0.9950 -3.6476
 6446SOL     OW30970   1.772   3.542   9.311 -0.8310 -0.7856 -0.1497
 6446SOL    HW130971   1.866   3.525   9.316 -0.8103 -1.0438 -1.5568
 6446SOL    HW230972   1.777   3.628   9.270  1.7652 -1.0031 -0.3015
 6447SOL     OW30973   2.365   2.973   5.541  0.1629  0.0326 -0.3012
 6447SOL    HW130974   2.292   2.930   5.497 -0.6498  0.8674  0.2373
 6447SOL    HW230975   2.336   2.987   5.631 -0.2986  3.8762 -1.0718
 6448SOL     OW30976   2.733   1.321  11.749 -0.0089  0.0903 -0.3490
 6448SOL    HW130977   2.657   1.341  11.804  0.8087  0.7835  0.5334
 6448SOL    HW230978   2.738   1.225  11.751 -1.7636 -0.0153 -0.7814
 6449SOL     OW30979   3.478   4.511   4.595  0.6005 -0.0931  0.3235
 6449SOL    HW130980   3.529   4.577   4.550  0.6916 -0.4870 -0.1460
 6449SOL    HW230981   3.403   4.504   4.537  1.3238 -0.3615 -0.5733
 6450SOL     OW30982   0.025   2.685   1.032 -0.0189  0.3121 -0.0552
 6450SOL    HW130983   0.097   2.663   1.090  0.4031  0.2429 -0.6008
 6450SOL    HW230984   4.689   2.627   1.054  0.4124 -0.5568 -0.9026
 6451SOL     OW30985   4.222   4.163   7.410 -0.2712 -0.3074 -0.1281
 6451SOL    HW130986   4.272   4.197   7.336 -1.9346  2.3984 -0.0366
 6451SOL    HW230987   4.212   4.241   7.465 -0.6578  0.4342 -1.2560
 6452SOL     OW30988   4.489   4.334   6.482 -0.3263 -0.3233  0.3095
 6452SOL    HW130989   4.525   4.247   6.497 -0.2406 -0.4223 -0.4838
 6452SOL    HW230990   4.457   4.329   6.392  0.9331  0.0902 -0.1616
 6453SOL     OW30991   3.893   0.542   0.912 -0.4068  0.2388 -0.5339
 6453SOL    HW130992   3.810   0.495   0.908  0.0721 -0.6339 -0.3161
 6453SOL    HW230993   3.946   0.505   0.842  1.6682  1.3889  0.4323
 6454SOL     OW30994   4.305   0.028   5.889 -0.7373 -0.0725 -0.5889
 6454SOL    HW130995   4.300   0.115   5.928 -0.6847 -1.2339  1.9976
 6454SOL    HW230996   4.390   0.002   5.926 -0.4164  3.0669  0.8165
 6455SOL     OW30997   1.561   3.148   2.723 -0.4450  0.2571 -0.4867
 6455SOL    HW130998   1.598   3.177   2.806 -1.4924 -0.5797  0.2586
 6455SOL    HW230999   1.505   3.224   2.712  1.5020  1.8918  0.9404
 6456SOL     OW31000   2.780   1.542  14.206 -0.4420  0.1101 -0.2577
 6456SOL    HW131001   2.733   1.476  14.156  1.3121 -0.2468 -1.4442
 6456SOL    HW231002   2.860   1.501  14.239 -1.5249  0.8187  3.2061
 6457SOL     OW31003   1.269   3.772   8.658  0.0889 -0.3208  0.6461
 6457SOL    HW131004   1.293   3.726   8.739  2.9622  0.1711  0.0680
 6457SOL    HW231005   1.302   3.858   8.683  2.7047 -1.0622 -0.2381
 6458SOL     OW31006   4.078   3.174   9.950 -0.3099  0.4446  0.1739
 6458SOL    HW131007   4.123   3.142  10.028  0.4369 -1.3129 -0.9617
 6458SOL    HW231008   4.029   3.252   9.974 -2.8466 -1.1496  0.1240
 6459SOL     OW31009   4.031   1.645  14.252 -0.5657  0.1731 -0.1506
 6459SOL    HW131010   4.104   1.697  14.286  0.8599 -2.1612  0.4116
 6459SOL    HW231011   3.992   1.616  14.334  1.7575  1.5951  1.4428
 6460SOL     OW31012   1.663   0.445   3.437  0.4201 -0.0633  0.0258
 6460SOL    HW131013   1.644   0.472   3.347  1.2336  2.0836  0.5004
 6460SOL    HW231014   1.705   0.363   3.415  0.1046 -0.3972  0.6690
 6461SOL     OW31015   2.415   3.014  11.107 -0.0664  0.3868  0.3963
 6461SOL    HW131016   2.486   2.968  11.063 -0.5671  0.8458 -0.9286
 6461SOL    HW231017   2.455   3.033  11.191  1.1061  0.7788 -0.2591
 6462SOL     OW31018   4.731   0.636   1.411 -0.5427 -0.4400  0.3258
 6462SOL    HW131019   0.072   0.625   1.465 -0.2234  1.7759  0.3261
 6462SOL    HW231020   4.699   0.722   1.439  1.4484  0.6713 -0.7918
 6463SOL     OW31021   0.987   3.114  14.130 -0.3985  0.4033  1.1218
 6463SOL    HW131022   1.079   3.137  14.123 -0.7676  1.2744 -0.9070
 6463SOL    HW231023   0.946   3.197  14.106 -0.6317  0.0671  0.3689
 6464SOL     OW31024   1.851   1.979   0.302 -0.3698  0.1718 -0.4029
 6464SOL    HW131025   1.794   2.053   0.281  0.4687  0.9154 -0.1172
 6464SOL    HW231026   1.827   1.923   0.228  0.4687 -0.2503 -0.3548
 6465SOL     OW31027   1.538   1.680   3.292  0.4374  0.3223 -0.4901
 6465SOL    HW131028   1.545   1.600   3.345 -1.1733  1.2551  1.1129
 6465SOL    HW231029   1.617   1.666   3.239  0.9037 -1.0892  0.5911
 6466SOL     OW31030   4.494   2.653   6.863  0.2957 -0.0283  0.7623
 6466SOL    HW131031   4.512   2.649   6.769  0.0551  0.0278  0.7146
 6466SOL    HW231032   4.401   2.676   6.864 -0.0673 -1.3999 -0.3784
 6467SOL     OW31033   2.834   1.108   9.039  0.1493  0.8473  0.3767
 6467SOL    HW131034   2.818   1.203   9.039 -2.5013  0.3917 -0.5870
 6467SOL    HW231035   2.918   1.110   8.993 -0.6195  0.4901 -1.0367
 6468SOL     OW31036   3.594   3.425   6.808  0.2486 -0.3907  0.8241
 6468SOL    HW131037   3.621   3.354   6.750  2.5000  1.5946 -0.5862
 6468SOL    HW231038   3.584   3.377   6.890 -1.2850  1.2493  1.5766
 6469SOL     OW31039   2.855   4.709   3.428  0.0723 -0.5941 -0.4886
 6469SOL    HW131040   2.841   4.615   3.432 -0.1824 -0.6585 -2.9485
 6469SOL    HW231041   2.934   4.713   3.374  0.0168  0.8314 -0.4724
 6470SOL     OW31042   1.684   2.248   7.897 -0.5088 -0.0944 -0.1221
 6470SOL    HW131043   1.740   2.319   7.929 -0.0940  0.3033 -1.7262
 6470SOL    HW231044   1.603   2.273   7.941  0.1202 -3.1218  2.7141
 6471SOL     OW31045   1.657   0.261   6.416 -0.3166  0.0804  0.0209
 6471SOL    HW131046   1.631   0.350   6.391 -0.0312  0.3753  0.7482
 6471SOL    HW231047   1.652   0.218   6.331 -0.1721 -2.1831  1.1681
 6472SOL     OW31048   3.638   1.273   1.025 -0.2306 -0.3311  0.2040
 6472SOL    HW131049   3.548   1.273   1.059  0.0493 -0.5538  0.9510
 6472SOL    HW231050   3.685   1.203   1.070 -1.7911 -0.7472  1.2058
 6473SOL     OW31051   1.607   3.251  16.717  0.7286 -0.2870  0.0248
 6473SOL    HW131052   1.580   3.241  16.808 -1.4793  2.4838 -0.3182
 6473SOL    HW231053   1.537   3.309  16.689  1.6819  0.5694 -0.6109
 6474SOL     OW31054   1.230   1.903   4.761 -0.1585 -0.0091  0.4948
 6474SOL    HW131055   1.211   1.839   4.830  2.8601 -2.7250 -1.1608
 6474SOL    HW231056   1.165   1.967   4.789  0.2600  0.5258  0.2388
 6475SOL     OW31057   3.328   3.810   3.960  0.0865  0.1974  0.5487
 6475SOL    HW131058   3.405   3.842   3.913 -0.4086  2.1424  1.0753
 6475SOL    HW231059   3.285   3.893   3.982  0.6742  0.5892  0.2329
 6476SOL     OW31060   4.202   2.321  17.244  0.0835  0.0008  0.2976
 6476SOL    HW131061   4.223   2.393  17.184  1.1815 -0.7820 -0.2528
 6476SOL    HW231062   4.283   2.290  17.286  0.6528  1.0737 -0.0011
 6477SOL     OW31063   0.656   1.506   7.917  0.7357  0.0452 -0.5551
 6477SOL    HW131064   0.576   1.454   7.920  1.3342 -0.8467  0.0893
 6477SOL    HW231065   0.664   1.536   8.007 -0.3447 -1.9439  0.2035
 6478SOL     OW31066   3.981   4.701   4.733  0.4122  0.1615  0.0469
 6478SOL    HW131067   4.030   0.019   4.794  0.9995  0.1958 -0.4590
 6478SOL    HW231068   4.051   4.639   4.712  1.4329  1.2679  0.2043
 6479SOL     OW31069   2.302   3.284  11.701  0.7030 -0.0175  0.2092
 6479SOL    HW131070   2.262   3.369  11.681 -1.4058 -0.7667  1.2998
 6479SOL    HW231071   2.235   3.260  11.765  0.9666 -0.6724  0.2421
 6480SOL     OW31072   3.793   2.686   5.140  0.2200 -0.0260  0.1851
 6480SOL    HW131073   3.815   2.593   5.133  0.7045 -0.0909  2.5192
 6480SOL    HW231074   3.879   2.729   5.147 -0.2701  0.8253  0.8794
 6481SOL     OW31075   1.777   3.277   8.634 -0.0410  0.4935 -0.3316
 6481SOL    HW131076   1.787   3.372   8.626  1.2655  0.2541 -1.4419
 6481SOL    HW231077   1.786   3.260   8.728 -0.0397  1.7836 -0.0998
 6482SOL     OW31078   0.682   4.092   5.951 -0.7758  0.3832  0.8679
 6482SOL    HW131079   0.589   4.093   5.974 -1.0236  1.0858 -0.1581
 6482SOL    HW231080   0.689   4.016   5.894 -1.6631  0.5889  0.4757
 6483SOL     OW31081   0.782   4.664  11.811  0.1841  0.5345 -0.7363
 6483SOL    HW131082   0.843   4.690  11.880 -1.6749 -2.5339  2.0455
 6483SOL    HW231083   0.796   4.570  11.801  0.3926  0.5315 -0.4075
 6484SOL     OW31084   3.654   2.925   2.363 -0.0744  0.2517 -0.2487
 6484SOL    HW131085   3.696   2.992   2.309 -1.9812 -0.1775 -2.2496
 6484SOL    HW231086   3.564   2.944   2.337 -0.7718 -3.1488 -0.3603
 6485SOL     OW31087   2.966   2.461   2.993  0.2645  0.1410 -0.4802
 6485SOL    HW131088   3.059   2.485   3.000  0.1153  0.9203 -1.2574
 6485SOL    HW231089   2.925   2.530   2.942 -2.8610  0.1898  2.0516
 6486SOL     OW31090   3.344   2.723   9.436  0.5259  0.3957 -0.4324
 6486SOL    HW131091   3.372   2.808   9.473 -0.4088 -0.5575  2.4743
 6486SOL    HW231092   3.331   2.669   9.514 -0.4627  0.0821 -0.8074
 6487SOL     OW31093   4.315   2.007   7.074 -0.1340 -0.1397  0.6494
 6487SOL    HW131094   4.377   1.980   7.006  3.1579  2.9651  2.4447
 6487SOL    HW231095   4.237   1.985   7.023  1.7127 -2.1086 -1.3254
 6488SOL     OW31096   3.787   4.128   7.224 -0.2355 -0.0953  0.4686
 6488SOL    HW131097   3.798   4.161   7.134 -1.0555 -0.3556  0.2750
 6488SOL    HW231098   3.830   4.044   7.208 -1.9256 -0.3686 -2.7538
 6489SOL     OW31099   4.170   0.745  15.192 -0.5798 -0.0507  0.2685
 6489SOL    HW131100   4.228   0.767  15.265 -0.1489  0.1059 -0.1136
 6489SOL    HW231101   4.147   0.835  15.166 -2.7693 -0.7817 -0.2811
 6490SOL     OW31102   1.816   2.539  17.109 -0.6282 -0.2215  0.3402
 6490SOL    HW131103   1.895   2.510  17.065 -1.0361 -0.7629 -0.0405
 6490SOL    HW231104   1.855   2.597  17.174 -0.9700 -0.5361  0.8223
 6491SOL     OW31105   3.460   0.628   3.503 -0.1203  0.2221 -0.4982
 6491SOL    HW131106   3.494   0.547   3.466  0.7475 -0.6291  2.1324
 6491SOL    HW231107   3.460   0.683   3.425 -1.6189 -0.7060 -1.1539
 6492SOL     OW31108   3.784   2.864   8.612  0.1832 -0.0978  0.3041
 6492SOL    HW131109   3.698   2.887   8.645  1.5284  0.8871  3.1720
 6492SOL    HW231110   3.833   2.831   8.688  1.2021 -0.8523 -0.6862
 6493SOL     OW31111   3.711   4.703  10.108  0.3093  0.2113  0.2685
 6493SOL    HW131112   3.696   4.651  10.186 -0.8734  0.1631  0.0104
 6493SOL    HW231113   3.631   0.019  10.103  1.0586  1.3299  0.1101
 6494SOL     OW31114   0.031   3.983   3.559  0.4092  0.2050 -0.7128
 6494SOL    HW131115   0.117   3.958   3.594  0.1509  2.8991  1.8442
 6494SOL    HW231116   0.046   4.077   3.551  0.3603 -0.0266 -3.6394
 6495SOL     OW31117   3.653   3.200   7.833  0.7957  0.4416 -0.5959
 6495SOL    HW131118   3.723   3.253   7.796  1.1938 -0.2245 -0.7961
 6495SOL    HW231119   3.610   3.264   7.890 -2.3517  0.2330 -2.7495
 6496SOL     OW31120   2.426   3.118   7.202  0.2198  0.2463  1.2713
 6496SOL    HW131121   2.367   3.054   7.163  0.6364 -2.2454  4.7293
 6496SOL    HW231122   2.430   3.189   7.138  0.8083 -0.6431  0.3170
 6497SOL     OW31123   3.495   3.600   7.440  0.4042  0.6384 -0.4981
 6497SOL    HW131124   3.517   3.551   7.519 -0.0872  0.9021 -0.1979
 6497SOL    HW231125   3.401   3.608   7.457  0.8944  2.0856  1.4263
 6498SOL     OW31126   0.841   1.110   3.748  0.1423  0.0305  0.1120
 6498SOL    HW131127   0.773   1.113   3.681 -0.6271 -1.9861  0.8001
 6498SOL    HW231128   0.852   1.203   3.768  0.0917  0.0390  0.0995
 6499SOL     OW31129   2.449   1.085   8.641 -0.2499  0.2706 -0.3018
 6499SOL    HW131130   2.500   1.053   8.567  0.8224  0.4411  0.3510
 6499SOL    HW231131   2.378   1.021   8.641  0.0095 -0.0161 -0.7488
 6500SOL     OW31132   0.461   1.840   4.937 -0.1268  0.0922 -0.0207
 6500SOL    HW131133   0.441   1.931   4.962 -0.1391 -0.5318  2.2217
 6500SOL    HW231134   0.467   1.798   5.023 -1.5873 -1.4413 -0.6888
 6501SOL     OW31135   2.675   3.342   1.861 -0.0298  0.2673 -0.3848
 6501SOL    HW131136   2.579   3.341   1.855 -0.1541  1.4801  1.6829
 6501SOL    HW231137   2.692   3.273   1.925 -0.0402  1.1178  0.5274
 6502SOL     OW31138   0.454   0.827  14.152 -0.3965  0.0057  0.3067
 6502SOL    HW131139   0.533   0.773  14.142 -0.8642 -0.3926 -1.1508
 6502SOL    HW231140   0.426   0.788  14.235  1.6448 -0.2068  0.9069
 6503SOL     OW31141   0.798   2.986  13.931  0.3755 -0.3137  0.3227
 6503SOL    HW131142   0.808   3.060  13.991  1.2864 -2.0926  2.3349
 6503SOL    HW231143   0.889   2.963  13.910  0.5262  0.7276 -0.2071
 6504SOL     OW31144   2.907   1.767   6.627  0.0523 -0.1026 -0.4353
 6504SOL    HW131145   2.932   1.845   6.676  2.1209 -0.5270 -0.8177
 6504SOL    HW231146   2.858   1.803   6.554 -0.9793 -0.4936  0.0567
 6505SOL     OW31147   4.494   0.238   2.075  0.2601  0.1155  0.0883
 6505SOL    HW131148   4.463   0.189   1.999  1.0118 -0.1681 -0.0357
 6505SOL    HW231149   4.418   0.260   2.129 -2.6808 -0.0129 -4.0643
 6506SOL     OW31150   2.068   3.798   6.753  0.0882  0.2003  0.3283
 6506SOL    HW131151   1.979   3.834   6.745  0.7297  1.7640  0.2033
 6506SOL    HW231152   2.116   3.873   6.719 -2.7543  0.4881 -3.1804
 6507SOL     OW31153   1.622   2.790   1.852 -0.5185  0.2870  0.8694
 6507SOL    HW131154   1.689   2.740   1.899 -0.3735 -0.0591  0.2950
 6507SOL    HW231155   1.661   2.878   1.851 -1.1285  0.5632  1.3486
 6508SOL     OW31156   4.497   2.908   5.148 -0.5846 -0.3721 -0.4072
 6508SOL    HW131157   4.466   2.931   5.060 -0.1722  2.4495  0.1676
 6508SOL    HW231158   4.415   2.872   5.181  0.2409 -0.3228  1.6552
 6509SOL     OW31159   2.764   2.843   4.030 -0.7712  0.1142  0.1707
 6509SOL    HW131160   2.733   2.800   3.950  0.9849  0.0255 -0.4734
 6509SOL    HW231161   2.805   2.920   3.989  0.3920 -0.1066  0.9215
 6510SOL     OW31162   3.061   2.677   6.739 -0.1564  0.6426 -0.1397
 6510SOL    HW131163   3.041   2.749   6.679 -0.1574  0.2885 -0.5667
 6510SOL    HW231164   3.100   2.619   6.674  2.3166 -0.3719  2.2491
 6511SOL     OW31165   0.679   3.388  15.368 -0.5849 -0.1142 -0.1026
 6511SOL    HW131166   0.690   3.462  15.308 -3.5200  0.5339  0.2015
 6511SOL    HW231167   0.764   3.344  15.361 -0.4375  0.0465  0.6897
 6512SOL     OW31168   1.588   2.203   5.848  0.2274  0.3743  0.2036
 6512SOL    HW131169   1.589   2.299   5.849  0.0393  0.4182 -2.6141
 6512SOL    HW231170   1.601   2.191   5.754 -2.3646  1.4772 -0.2744
 6513SOL     OW31171   2.036   2.635   9.466  0.3068  0.6366 -0.0089
 6513SOL    HW131172   1.974   2.654   9.536 -1.0371 -1.7389 -0.5609
 6513SOL    HW231173   2.090   2.713   9.458 -0.8098  1.2569 -1.5347
 6514SOL     OW31174   0.309   3.410   4.858  0.1132 -0.6976 -0.5969
 6514SOL    HW131175   0.245   3.474   4.828 -0.8695 -0.9544  0.9551
 6514SOL    HW231176   0.278   3.320   4.851  4.5784 -2.1025 -2.5435
 6515SOL     OW31177   2.493   0.784   7.525 -0.2331  0.0975  0.2650
 6515SOL    HW131178   2.526   0.835   7.451  2.1870 -1.2722  0.3928
 6515SOL    HW231179   2.415   0.832   7.553 -0.9568 -2.1566  2.0606
 6516SOL     OW31180   4.341   2.560   4.541  0.1434 -0.4574 -0.3363
 6516SOL    HW131181   4.412   2.611   4.579 -0.1857 -2.3173  2.7159
 6516SOL    HW231182   4.318   2.627   4.476 -0.1087 -0.8772 -0.6815
 6517SOL     OW31183   1.550   2.071   6.331 -0.3213 -0.2995 -0.1491
 6517SOL    HW131184   1.474   2.130   6.329 -0.5864 -0.6517 -0.5002
 6517SOL    HW231185   1.626   2.128   6.343  0.8089 -1.1747 -3.1532
 6518SOL     OW31186   4.122   0.179   0.630 -0.4165  0.1660  0.2325
 6518SOL    HW131187   4.168   0.104   0.592  1.3795  2.2232 -1.7028
 6518SOL    HW231188   4.065   0.130   0.689  0.3766  0.2717  1.0786
 6519SOL     OW31189   3.060   0.647   7.984  0.7066 -0.1856  0.1663
 6519SOL    HW131190   3.145   0.620   7.949 -0.4870 -1.8782 -1.4524
 6519SOL    HW231191   3.047   0.735   7.948  0.0198 -1.6261 -3.1046
 6520SOL     OW31192   2.510   0.953   1.741 -0.4163  0.6927  0.2282
 6520SOL    HW131193   2.554   0.869   1.754 -1.6715 -0.2412 -1.5851
 6520SOL    HW231194   2.529   0.981   1.831 -1.8221  2.0549  0.0964
 6521SOL     OW31195   3.440   3.908   7.306 -0.4390  0.2198 -0.2359
 6521SOL    HW131196   3.502   3.926   7.377  0.0419 -0.1950 -0.5404
 6521SOL    HW231197   3.390   3.835   7.342 -3.6412  1.9280 -1.3219
 6522SOL     OW31198   3.750   0.984   7.399 -0.0704  0.1836 -0.1219
 6522SOL    HW131199   3.816   0.963   7.465  0.3815  0.8975 -0.3509
 6522SOL    HW231200   3.787   1.070   7.379  2.8440 -0.6882  1.4997
 6523SOL     OW31201   3.587   3.952   7.568 -0.1434  0.0712 -0.1123
 6523SOL    HW131202   3.641   3.918   7.640  1.0375 -0.5776 -1.2862
 6523SOL    HW231203   3.557   4.037   7.599 -2.9588 -0.7819 -0.5446
 6524SOL     OW31204   0.485   2.089   8.354  0.0178  0.2538 -0.2810
 6524SOL    HW131205   0.489   2.104   8.449  2.3691  0.9208 -0.4839
 6524SOL    HW231206   0.579   2.079   8.339  0.1943 -0.7327  1.4402
 6525SOL     OW31207   2.626   4.613   4.795  0.1909  0.8951  0.3526
 6525SOL    HW131208   2.569   4.557   4.743 -0.4666 -0.3870  2.4443
 6525SOL    HW231209   2.619   4.696   4.748 -1.9267 -0.5167 -1.8039
 6526SOL     OW31210   1.343   2.830  17.078  0.9046 -0.1113  0.3141
 6526SOL    HW131211   1.434   2.801  17.070  1.4558  1.3604  1.3498
 6526SOL    HW231212   1.328   2.878  17.159  0.3643  0.3784 -0.0744
 6527SOL     OW31213   3.151   0.213   8.049  0.0766  1.0607 -0.0168
 6527SOL    HW131214   3.059   0.222   8.074  0.1098  2.0009 -0.2389
 6527SOL    HW231215   3.151   0.160   7.969 -0.3314  1.9329 -0.6027
 6528SOL     OW31216   3.909   2.840   3.083  0.1503  0.5363  0.2486
 6528SOL    HW131217   3.815   2.846   3.101  0.0604  0.1350 -0.0911
 6528SOL    HW231218   3.915   2.911   3.018  1.4942 -0.8129 -1.0940
 6529SOL     OW31219   1.085   4.408   2.905  0.6048 -0.0586 -0.1977
 6529SOL    HW131220   1.157   4.434   2.962  0.5672 -1.3366  0.4241
 6529SOL    HW231221   1.115   4.319   2.890 -0.6459 -0.8119  1.7091
 6530SOL     OW31222   2.080   4.651   8.015  0.0260 -0.9305  0.3488
 6530SOL    HW131223   2.014   4.582   8.018 -2.2566  1.2275 -0.3501
 6530SOL    HW231224   2.112   4.650   8.105  0.0335  0.8066  0.3627
 6531SOL     OW31225   0.596   1.994   3.838 -0.3545 -0.3953  0.0071
 6531SOL    HW131226   0.533   1.991   3.911  0.2885 -1.5806  0.5072
 6531SOL    HW231227   0.628   1.905   3.828  1.4055  0.2268  0.1105
 6532SOL     OW31228   4.397   4.015  12.798  0.3016  0.5283  0.1428
 6532SOL    HW131229   4.405   3.956  12.723 -3.8353  0.0318  0.0713
 6532SOL    HW231230   4.305   4.039  12.787 -0.4452 -2.1150  0.7204
 6533SOL     OW31231   0.364   2.009   0.276 -0.2330  0.0760 -0.0614
 6533SOL    HW131232   0.403   1.923   0.260  0.1236  0.3858 -0.8014
 6533SOL    HW231233   0.276   1.978   0.301  0.3651 -1.0599  0.6563
 6534SOL     OW31234   2.196   0.104   7.552  0.0776 -0.1482 -0.2623
 6534SOL    HW131235   2.212   0.105   7.646 -1.6136  0.7548  0.0124
 6534SOL    HW231236   2.112   0.149   7.551  0.2316  0.1851  2.5768
 6535SOL     OW31237   1.799   0.425   5.219  0.1069 -0.2952  0.0932
 6535SOL    HW131238   1.818   0.472   5.300  2.0094 -2.6877  1.0288
 6535SOL    HW231239   1.835   0.485   5.153  0.9795 -2.0032 -0.9889
 6536SOL     OW31240   0.899   2.545   2.120 -0.0258 -0.1301  0.4521
 6536SOL    HW131241   0.922   2.631   2.083 -1.2734 -0.0384 -0.0866
 6536SOL    HW231242   0.919   2.484   2.049 -1.7113  2.5081 -2.2896
 6537SOL     OW31243   3.719   0.574   7.420 -0.7818 -0.1534  0.5295
 6537SOL    HW131244   3.670   0.512   7.366 -0.0364 -2.0065  1.9862
 6537SOL    HW231245   3.809   0.554   7.397 -0.0949  0.4745  2.6218
 6538SOL     OW31246   3.647   1.894  12.674  0.2972  0.1562  0.2588
 6538SOL    HW131247   3.721   1.947  12.643  1.3629 -0.5447  1.5898
 6538SOL    HW231248   3.599   1.968  12.712 -1.8623 -0.9261 -0.3746
 6539SOL     OW31249   4.491   1.966   7.612 -0.0270 -0.7045  1.0231
 6539SOL    HW131250   4.572   2.001   7.574  0.2643 -1.6876  0.7497
 6539SOL    HW231251   4.434   1.991   7.539  1.8939 -0.0084 -0.2672
 6540SOL     OW31252   1.614   3.051   8.259 -0.1897  0.0098 -0.4035
 6540SOL    HW131253   1.542   3.014   8.208  0.6244  0.6152 -1.9925
 6540SOL    HW231254   1.665   3.108   8.201  0.9968 -1.2603 -0.6025
 6541SOL     OW31255   3.201   2.163  17.442  0.6461  0.1208  0.3593
 6541SOL    HW131256   3.188   2.244  17.491 -1.3362  1.0658 -1.7300
 6541SOL    HW231257   3.241   2.105  17.507 -0.7674 -1.6481 -0.3524
 6542SOL     OW31258   0.498   4.183   1.786 -0.3691 -0.5553 -0.2392
 6542SOL    HW131259   0.429   4.118   1.800 -0.7307 -0.1888 -0.3354
 6542SOL    HW231260   0.459   4.243   1.723 -0.8022  0.2036  0.7623
 6543SOL     OW31261   0.898   3.540  16.913  0.5799 -0.2096 -0.3335
 6543SOL    HW131262   0.971   3.534  16.974  1.3141 -0.0138 -1.2075
 6543SOL    HW231263   0.929   3.497  16.834  0.9808 -1.4645  0.5100
 6544SOL     OW31264   2.159   0.198   5.667 -0.4626  0.9147  0.2024
 6544SOL    HW131265   2.131   0.144   5.593 -0.1157  2.4931 -1.1090
 6544SOL    HW231266   2.239   0.236   5.630 -1.7718  1.0182 -2.5492
 6545SOL     OW31267   0.367   4.484   1.401 -0.5310 -0.1818  0.1867
 6545SOL    HW131268   0.381   4.514   1.491  1.1112  0.7804 -0.4013
 6545SOL    HW231269   0.442   4.426   1.390 -2.2153 -2.3566  0.0495
 6546SOL     OW31270   2.414   3.863   3.351 -0.2988 -0.0055 -0.3258
 6546SOL    HW131271   2.487   3.850   3.412  0.3844 -0.2659 -1.1991
 6546SOL    HW231272   2.357   3.813   3.409 -0.5645  1.5265  0.7555
 6547SOL     OW31273   2.691   3.194   9.247 -0.0412  0.5276  0.3584
 6547SOL    HW131274   2.760   3.128   9.244 -2.7223 -2.3170  1.7951
 6547SOL    HW231275   2.613   3.139   9.248  1.1974 -1.2320 -0.2388
 6548SOL     OW31276   1.069   3.824   3.339  0.2238  0.9582  0.0755
 6548SOL    HW131277   1.032   3.761   3.401 -0.1226  0.6167 -0.4792
 6548SOL    HW231278   1.039   3.791   3.254 -1.4147 -0.1139  1.0515
 6549SOL     OW31279   4.536   1.901   4.195  0.6921  0.8092 -0.1091
 6549SOL    HW131280   4.450   1.882   4.155  0.4869 -0.4381  0.9395
 6549SOL    HW231281   4.517   1.948   4.275  0.3744  0.8948 -0.2336
 6550SOL     OW31282   2.700   1.177   3.602 -0.2866 -0.0574  0.3047
 6550SOL    HW131283   2.770   1.214   3.547  1.0717 -0.7477  1.5746
 6550SOL    HW231284   2.646   1.152   3.527  0.2073  2.0869 -0.7853
 6551SOL     OW31285   0.903   4.277   1.315 -0.1060  0.3653  0.2025
 6551SOL    HW131286   0.899   4.362   1.270  0.9570  0.1586 -0.2882
 6551SOL    HW231287   0.842   4.278   1.388  1.5115 -1.6463  1.5674
 6552SOL     OW31288   4.518   0.293   3.170  0.5748  0.0430  0.4831
 6552SOL    HW131289   4.497   0.379   3.207 -2.0082  0.6925 -2.4046
 6552SOL    HW231290   4.587   0.262   3.228  0.2299  1.8280  1.8720
 6553SOL     OW31291   3.960   0.568   7.314  0.5519 -0.6896 -0.0198
 6553SOL    HW131292   4.009   0.501   7.267  0.4457 -0.0175 -1.0874
 6553SOL    HW231293   3.961   0.637   7.248  3.5747  0.3740  1.1203
 6554SOL     OW31294   3.453   3.802  10.685 -0.1900  0.6332  0.0609
 6554SOL    HW131295   3.382   3.764  10.633  0.0024  3.0127 -1.9477
 6554SOL    HW231296   3.501   3.840  10.612 -0.1901  2.2870  0.9160
 6555SOL     OW31297   0.416   4.017   6.052 -0.1764 -0.4365 -0.0223
 6555SOL    HW131298   0.419   3.945   6.115 -1.9522 -0.7757 -0.3264
 6555SOL    HW231299   0.333   3.987   6.015  0.0785 -0.7038 -0.3742
 6556SOL     OW31300   1.296   0.197  11.619  0.3263  0.2531 -0.1672
 6556SOL    HW131301   1.358   0.268  11.600  1.3757 -0.7001 -0.2653
 6556SOL    HW231302   1.267   0.178  11.529  0.1724  0.2331 -0.1130
 6557SOL     OW31303   1.656   4.144  11.972  0.8227  0.7613  0.4145
 6557SOL    HW131304   1.591   4.081  11.942  3.3992 -0.7763 -1.9634
 6557SOL    HW231305   1.716   4.089  12.021 -0.8976 -1.2988  0.1726
 6558SOL     OW31306   0.142   2.377  14.933 -0.0608 -0.0296  0.3753
 6558SOL    HW131307   0.193   2.326  14.870 -1.4204 -1.4111  0.3934
 6558SOL    HW231308   0.201   2.449  14.954 -0.6826  0.5864  0.0152
 6559SOL     OW31309   3.814   2.825   7.730  0.0899 -0.4701  0.2463
 6559SOL    HW131310   3.853   2.893   7.674  0.9681 -1.9513 -0.9229
 6559SOL    HW231311   3.838   2.742   7.690 -1.4486 -0.0988 -1.4298
 6560SOL     OW31312   3.959   2.491   7.204  0.4919  0.4799 -0.3029
 6560SOL    HW131313   4.012   2.547   7.262  1.8864 -0.2845 -0.8385
 6560SOL    HW231314   4.025   2.439   7.158  0.0833  1.1157 -1.6011
 6561SOL     OW31315   2.442   4.167  17.617 -0.2006 -0.4049  0.0536
 6561SOL    HW131316   2.451   4.088  17.670 -1.6380  0.8666  2.2300
 6561SOL    HW231317   2.427   4.233  17.685 -2.9306  0.0235 -0.9755
 6562SOL     OW31318   2.497   2.651   9.926 -0.1464 -0.0024 -0.1458
 6562SOL    HW131319   2.457   2.581   9.977  1.1281  1.0436  2.2775
 6562SOL    HW231320   2.461   2.724   9.976  0.4484  0.0674  0.1761
 6563SOL     OW31321   2.326   3.948  15.389 -0.4858  0.3215 -0.0271
 6563SOL    HW131322   2.260   4.017  15.396  0.4105  1.0090  1.5798
 6563SOL    HW231323   2.401   3.996  15.424 -0.9336  0.8770  0.1639
 6564SOL     OW31324   0.188   2.482   5.602  0.0387  0.3217 -0.5213
 6564SOL    HW131325   0.135   2.408   5.571 -0.9531  0.8689 -0.1214
 6564SOL    HW231326   0.246   2.435   5.662  0.6533  1.8994  0.1264
 6565SOL     OW31327   0.412   0.826   4.456  0.2389  0.1697 -1.2964
 6565SOL    HW131328   0.371   0.745   4.426  0.9385 -0.4641 -0.5430
 6565SOL    HW231329   0.354   0.886   4.410 -1.8127 -1.1334 -0.4369
 6566SOL     OW31330   2.855   1.172   4.840 -0.4020  0.2532  0.0989
 6566SOL    HW131331   2.911   1.118   4.785 -0.2273  1.2494 -0.6959
 6566SOL    HW231332   2.767   1.135   4.831 -0.0377 -0.4934 -0.3918
 6567SOL     OW31333   1.922   1.075  14.478  0.1393 -0.9449  0.5455
 6567SOL    HW131334   1.885   1.160  14.454  0.7924 -0.6572  0.5762
 6567SOL    HW231335   1.978   1.103  14.551 -1.1319  2.0009  0.4164
 6568SOL     OW31336   4.173   2.445   0.384  0.1260 -0.1783  0.2984
 6568SOL    HW131337   4.208   2.447   0.294 -0.1573  0.6586  0.2102
 6568SOL    HW231338   4.224   2.504   0.438  0.6427 -0.9009  0.6009
 6569SOL     OW31339   2.556   0.424   2.505 -0.0071 -0.1080  0.7575
 6569SOL    HW131340   2.584   0.338   2.537 -1.5612 -0.7876  0.2540
 6569SOL    HW231341   2.523   0.466   2.585 -1.2407  0.6087 -0.1370
 6570SOL     OW31342   3.046   0.481  17.638  0.0689 -0.1280  0.3770
 6570SOL    HW131343   3.033   0.549  17.705 -2.5036 -1.0241  0.7776
 6570SOL    HW231344   2.966   0.434  17.663  0.8713 -1.5213  0.3185
 6571SOL     OW31345   0.885   3.697   6.990  0.1249  0.4722  0.2547
 6571SOL    HW131346   0.790   3.690   6.992  0.1499 -0.1342 -0.6498
 6571SOL    HW231347   0.896   3.689   6.895 -0.8200 -0.3249  0.2114
 6572SOL     OW31348   2.752   0.205   5.034  0.0043  0.2513  0.8037
 6572SOL    HW131349   2.698   0.126   5.039 -2.2909  1.7417  0.1182
 6572SOL    HW231350   2.787   0.206   5.123  0.3085 -0.8709  0.6955
 6573SOL     OW31351   2.647   4.302  11.582  0.2049 -0.3000  0.1042
 6573SOL    HW131352   2.631   4.348  11.499 -1.1680 -0.9177  0.0318
 6573SOL    HW231353   2.570   4.328  11.632 -1.7208 -2.1620 -1.9006
 6574SOL     OW31354   2.936   2.682  10.506  0.2601  0.3332 -0.2740
 6574SOL    HW131355   3.017   2.718  10.543 -1.2147  1.1440  2.1290
 6574SOL    HW231356   2.977   2.615  10.451 -1.0531 -1.1736  0.5868
 6575SOL     OW31357   1.002   4.186   3.160  0.5430  0.0906  0.5042
 6575SOL    HW131358   0.928   4.178   3.100  0.3163 -0.3000  0.8386
 6575SOL    HW231359   1.072   4.174   3.096 -0.4199  0.1711 -0.5626
 6576SOL     OW31360   1.484   0.039   3.925  0.1986 -0.3245 -0.4868
 6576SOL    HW131361   1.487   4.712   3.853  2.5411 -0.9825  0.1808
 6576SOL    HW231362   1.472   0.121   3.876 -1.4710 -0.7809 -0.8280
 6577SOL     OW31363   0.912   4.678   2.950  0.0238 -0.0394  0.1601
 6577SOL    HW131364   0.863   4.596   2.944 -0.7236  0.1082  4.7789
 6577SOL    HW231365   0.934   4.695   2.858  1.6354  1.6308  0.8466
 6578SOL     OW31366   3.644   1.058   9.870  0.0285  0.1120  0.4886
 6578SOL    HW131367   3.556   1.090   9.888 -0.2010 -0.5388  0.5172
 6578SOL    HW231368   3.686   1.089   9.950  4.1854 -2.7936 -0.5486
 6579SOL     OW31369   4.616   2.992  12.937  0.7431 -0.0790 -0.3093
 6579SOL    HW131370   4.700   2.972  12.980  0.6782  2.1943  0.8711
 6579SOL    HW231371   4.579   3.051  13.002 -0.2017  0.0406 -0.9611
 6580SOL     OW31372   1.580   0.795   0.958  0.2230  0.2864 -0.3237
 6580SOL    HW131373   1.512   0.832   0.902 -0.1217 -0.3478 -0.3191
 6580SOL    HW231374   1.572   0.859   1.029  2.6681 -0.8633  0.9832
 6581SOL     OW31375   4.574   4.228  16.480 -0.3348 -0.1526  0.6398
 6581SOL    HW131376   4.555   4.158  16.542 -0.6030  0.9729  1.8126
 6581SOL    HW231377   4.552   4.304  16.534 -0.5425 -0.6308  1.2221
 6582SOL     OW31378   3.550   0.581   1.426  0.4253  0.8505 -0.9837
 6582SOL    HW131379   3.490   0.573   1.352  1.5402  1.8532 -2.0119
 6582SOL    HW231380   3.480   0.599   1.488  0.1129 -2.6291 -0.3258
 6583SOL     OW31381   1.814   2.720   7.831  0.2818 -0.3213 -0.3910
 6583SOL    HW131382   1.795   2.658   7.902 -1.4356  0.0788 -0.4983
 6583SOL    HW231383   1.897   2.759   7.859  0.3505 -1.1873  0.5939
 6584SOL     OW31384   3.098   1.843   1.242 -0.2183 -0.4126  0.4385
 6584SOL    HW131385   3.044   1.915   1.210  0.5100 -0.5842 -1.1826
 6584SOL    HW231386   3.167   1.894   1.283 -0.9301  1.1933 -0.3311
 6585SOL     OW31387   0.543   0.634   2.476 -0.1269  0.4977  0.1500
 6585SOL    HW131388   0.634   0.630   2.446  0.4321  0.6076  1.8428
 6585SOL    HW231389   0.538   0.551   2.524 -1.7559  1.0224  0.9008
 6586SOL     OW31390   1.281   3.052   8.136  0.8595  0.4936  0.5812
 6586SOL    HW131391   1.224   3.003   8.076  1.5905 -0.3834  0.5917
 6586SOL    HW231392   1.300   3.134   8.091  0.4224  1.4727  2.2088
 6587SOL     OW31393   0.615   1.928   2.013 -0.9245 -0.4634 -0.0094
 6587SOL    HW131394   0.543   1.935   1.951 -2.0214 -1.1437  1.1662
 6587SOL    HW231395   0.586   1.983   2.086  1.5575  1.1444 -0.2297
 6588SOL     OW31396   0.760   4.147   5.518 -0.0324 -0.2784  0.3555
 6588SOL    HW131397   0.814   4.205   5.464  1.2900  0.6244  2.6361
 6588SOL    HW231398   0.792   4.057   5.508  0.9770 -0.0720  1.7555
 6589SOL     OW31399   1.089   0.108  12.538 -0.2152  0.0003  0.7266
 6589SOL    HW131400   1.118   0.197  12.522  0.5280 -0.1598  1.1626
 6589SOL    HW231401   1.121   0.088  12.626 -0.6183 -1.6777  0.4969
 6590SOL     OW31402   3.164   2.241   5.697  0.5469  0.8428 -0.7251
 6590SOL    HW131403   3.111   2.187   5.639  1.7169 -0.1151 -0.8993
 6590SOL    HW231404   3.110   2.318   5.715  0.4518  0.4720  0.5794
 6591SOL     OW31405   2.281   2.822   1.899 -0.3631  0.1154  0.6271
 6591SOL    HW131406   2.330   2.804   1.979  0.8887  2.0983  0.3181
 6591SOL    HW231407   2.338   2.800   1.826  0.8392 -1.1403  1.9663
 6592SOL     OW31408   1.106   2.443   6.926  0.0990  0.2135 -0.1913
 6592SOL    HW131409   1.079   2.489   7.006  2.6689  2.2312 -0.4856
 6592SOL    HW231410   1.184   2.495   6.906  0.0737  0.8548  1.3496
 6593SOL     OW31411   2.645   2.866   1.996  0.3271  0.1994  0.1817
 6593SOL    HW131412   2.566   2.847   2.046 -1.9810  1.6722 -2.9005
 6593SOL    HW231413   2.663   2.778   1.962  1.8692  1.1762 -1.5565
 6594SOL     OW31414   0.473   0.098   1.394  0.4597  0.3737 -0.2061
 6594SOL    HW131415   0.414   0.140   1.456 -2.3237 -1.0659 -1.9036
 6594SOL    HW231416   0.427   0.102   1.310  0.3060 -2.8325 -0.2875
 6595SOL     OW31417   0.284   0.258   7.479  0.0274  0.1411  0.3219
 6595SOL    HW131418   0.206   0.220   7.439  0.2740 -1.5924  1.5058
 6595SOL    HW231419   0.309   0.194   7.546 -0.5637 -0.6566 -0.2255
 6596SOL     OW31420   4.190   1.150  15.382 -0.2716  0.1034  0.2499
 6596SOL    HW131421   4.230   1.115  15.303 -2.9638 -3.0307  0.2863
 6596SOL    HW231422   4.230   1.085  15.440 -0.2881 -2.0719 -2.1857
 6597SOL     OW31423   2.685   0.164   3.501 -0.9199 -0.3585  0.2044
 6597SOL    HW131424   2.756   0.106   3.473  0.2066  0.1859  1.9354
 6597SOL    HW231425   2.742   0.235   3.531 -1.2946 -0.0277  0.1274
 6598SOL     OW31426   3.524   1.198   5.156  0.0772  0.4049 -0.6662
 6598SOL    HW131427   3.438   1.240   5.163 -0.7460 -1.2478 -0.7859
 6598SOL    HW231428   3.504   1.105   5.157 -0.9984  0.6411 -0.6851
 6599SOL     OW31429   4.519   4.235   5.579 -0.3945 -0.3605  0.1212
 6599SOL    HW131430   4.478   4.233   5.665  1.1481  2.3519  0.9359
 6599SOL    HW231431   4.532   4.330   5.578 -0.8243 -0.2878  3.5359
 6600SOL     OW31432   2.984   3.187   3.674 -0.5258  0.2440  0.2959
 6600SOL    HW131433   2.913   3.175   3.612 -0.2925 -2.7222  0.6026
 6600SOL    HW231434   3.059   3.151   3.625 -0.4439  1.1294 -0.2310
 6601SOL     OW31435   3.255   0.700  10.697 -0.1170  0.2639 -0.6198
 6601SOL    HW131436   3.343   0.698  10.661  0.1522  0.6640  0.0031
 6601SOL    HW231437   3.254   0.791  10.729 -0.1325 -0.4370  1.3742
 6602SOL     OW31438   4.136   4.511   0.200 -0.7086 -0.1925  0.0815
 6602SOL    HW131439   4.097   4.557   0.126 -1.0616 -0.0291  0.3687
 6602SOL    HW231440   4.133   4.425   0.159 -0.1398  0.7736 -1.9691
 6603SOL     OW31441   2.226   3.685  15.433  0.3772  0.3450  0.4634
 6603SOL    HW131442   2.159   3.726  15.488 -0.4452 -1.6960  0.9666
 6603SOL    HW231443   2.286   3.757  15.413 -0.8044  1.0701 -0.5168
 6604SOL     OW31444   4.564   4.134   3.041 -0.3981 -0.3211  0.7475
 6604SOL    HW131445   4.518   4.207   2.999  0.4708  0.3906  1.0339
 6604SOL    HW231446   4.516   4.134   3.124  1.1147  1.7462  1.6284
 6605SOL     OW31447   2.019   0.994   7.073  0.4347 -0.2114 -0.0188
 6605SOL    HW131448   1.930   1.017   7.043  1.0174  2.0234 -0.0267
 6605SOL    HW231449   2.011   1.012   7.166  1.2021 -1.6985  0.3409
 6606SOL     OW31450   2.527   3.379   2.921 -0.1375  0.5016 -0.1911
 6606SOL    HW131451   2.509   3.450   2.860  0.5165  0.8272 -0.0035
 6606SOL    HW231452   2.466   3.400   2.991 -0.2137 -1.3117  0.2914
 6607SOL     OW31453   2.561   4.455   5.220 -0.0466 -0.2425  0.4649
 6607SOL    HW131454   2.640   4.403   5.236  0.9880  0.6223 -1.8566
 6607SOL    HW231455   2.574   4.522   5.287  2.4852 -0.5770  0.3199
 6608SOL     OW31456   0.375   3.560  15.660 -0.1950  0.1625  0.1510
 6608SOL    HW131457   0.456   3.515  15.636  0.3380  0.1115  2.0939
 6608SOL    HW231458   0.381   3.645  15.618 -0.2538  0.1682  0.1539
 6609SOL     OW31459   2.211   2.878  11.309  0.0629  0.6028 -0.3417
 6609SOL    HW131460   2.129   2.832  11.288 -0.4181  0.6101  1.4693
 6609SOL    HW231461   2.239   2.818  11.378  2.2653  0.7660 -1.1080
 6610SOL     OW31462   0.549   0.944  14.844 -0.2890  0.1067 -0.3495
 6610SOL    HW131463   0.579   0.858  14.872  0.5423  0.9521  1.3479
 6610SOL    HW231464   0.466   0.931  14.797 -0.7218 -1.9551  0.9880
 6611SOL     OW31465   2.232   0.292  12.278  0.7090  0.2932  0.2257
 6611SOL    HW131466   2.218   0.365  12.217 -0.3070 -1.4150 -1.5816
 6611SOL    HW231467   2.310   0.253  12.238  1.8061  1.9949  0.6940
 6612SOL     OW31468   3.927   0.531   4.843  0.1929  0.4676 -0.4456
 6612SOL    HW131469   3.910   0.436   4.841 -0.4412  0.6442 -2.7115
 6612SOL    HW231470   3.984   0.542   4.767 -1.2323  1.1860 -1.4071
 6613SOL     OW31471   4.010   2.524   3.497  0.2575 -0.0715 -0.1760
 6613SOL    HW131472   3.977   2.466   3.566  1.1278 -0.1481  0.1724
 6613SOL    HW231473   4.085   2.567   3.538  0.9343 -0.0881 -1.3737
 6614SOL     OW31474   1.588   1.567   6.345 -0.4325  0.2817 -0.0142
 6614SOL    HW131475   1.531   1.643   6.347 -0.2160  0.4190  1.1247
 6614SOL    HW231476   1.669   1.607   6.377 -0.8510  0.0721  1.2914
 6615SOL     OW31477   1.041   3.301   0.361  0.7218  0.3389 -0.0645
 6615SOL    HW131478   1.003   3.311   0.449  0.0144  0.8987 -0.4324
 6615SOL    HW231479   1.002   3.372   0.310  2.2615  3.1225  2.6257
 6616SOL     OW31480   3.458   1.695   7.527 -0.0419  0.1950 -0.4741
 6616SOL    HW131481   3.402   1.621   7.504  0.8303 -0.9436  1.0919
 6616SOL    HW231482   3.529   1.685   7.464 -1.6289 -2.9829 -1.7428
 6617SOL     OW31483   2.113   0.075   5.418 -0.0037  0.0421 -0.5775
 6617SOL    HW131484   2.201   0.044   5.398  0.0701  0.1548 -0.4206
 6617SOL    HW231485   2.097   0.129   5.340  3.0483 -0.2684 -1.4035
 6618SOL     OW31486   3.012   3.094  12.655  0.1696 -0.2492 -0.1436
 6618SOL    HW131487   3.095   3.048  12.645  0.3305  0.5937 -2.6889
 6618SOL    HW231488   3.039   3.128  12.740  0.6886  0.6519 -0.6639
 6619SOL     OW31489   0.558   2.809   3.508 -0.7927 -0.6158  0.4678
 6619SOL    HW131490   0.654   2.813   3.510 -0.8084 -1.0589  2.0530
 6619SOL    HW231491   0.541   2.820   3.602 -3.4430 -1.8805  0.1456
 6620SOL     OW31492   1.543   3.765   3.944  0.0540 -0.1776  0.1180
 6620SOL    HW131493   1.541   3.681   3.989  0.7923 -0.1226  0.2471
 6620SOL    HW231494   1.636   3.781   3.930  0.1400 -1.8828 -1.2830
 6621SOL     OW31495   2.249   0.086   8.834  0.2055  0.0855  0.0433
 6621SOL    HW131496   2.335   0.100   8.793  0.4378  0.2873  0.6022
 6621SOL    HW231497   2.224   0.178   8.845  0.7962  0.2658 -0.1118
 6622SOL     OW31498   2.355   0.561   5.395  0.2407 -0.6558  0.0814
 6622SOL    HW131499   2.417   0.535   5.327 -1.2412 -0.8070 -1.2199
 6622SOL    HW231500   2.399   0.622   5.453  1.8387 -1.3963 -0.3558
 6623SOL     OW31501   3.064   4.664   5.524  0.2568  0.7029 -0.1260
 6623SOL    HW131502   3.032   4.612   5.597 -0.1150  0.4297 -0.4835
 6623SOL    HW231503   3.157   4.674   5.545  0.2271 -0.0023  0.3343
 6624SOL     OW31504   0.154   3.809   8.628  0.3026  0.2155  0.4075
 6624SOL    HW131505   0.094   3.804   8.703  0.9031  1.3628  0.9614
 6624SOL    HW231506   0.166   3.903   8.616  0.0976  0.4547  2.0582
 6625SOL     OW31507   0.475   1.598   3.308  0.0726  0.7594  0.3703
 6625SOL    HW131508   0.416   1.671   3.289 -1.6780 -0.9082 -0.6156
 6625SOL    HW231509   0.462   1.538   3.234  2.7427  0.8250 -0.1545
 6626SOL     OW31510   0.920   0.918   7.799  0.4866 -0.0455 -0.6269
 6626SOL    HW131511   0.833   0.910   7.761 -1.9400  0.7966  4.7387
 6626SOL    HW231512   0.968   0.979   7.743 -1.2936 -0.6795 -2.8675
 6627SOL     OW31513   3.268   2.234   1.425 -0.0834 -0.8614 -0.0931
 6627SOL    HW131514   3.356   2.269   1.438  0.4460 -1.9482 -0.6506
 6627SOL    HW231515   3.294   2.156   1.375 -0.9332 -0.3506 -1.3472
 6628SOL     OW31516   3.995   4.474   1.915  0.2719  0.0651 -0.6258
 6628SOL    HW131517   4.021   4.464   1.824 -1.2787  0.9966 -1.1688
 6628SOL    HW231518   3.930   4.406   1.933  0.3934 -0.3567 -1.7524
 6629SOL     OW31519   4.673   3.230   2.269  0.6795  0.4244 -0.7915
 6629SOL    HW131520   4.708   3.223   2.357  2.2512  0.4739 -1.4167
 6629SOL    HW231521   0.011   3.266   2.223  1.3573  0.6907  0.5261
 6630SOL     OW31522   4.707   1.325   2.010 -0.1643  0.0980 -0.0782
 6630SOL    HW131523   4.627   1.273   2.015 -0.0162 -0.2162 -0.9645
 6630SOL    HW231524   4.677   1.397   2.065 -2.9927 -0.6573 -0.6443
 6631SOL     OW31525   2.986   3.153  11.593  0.2508 -0.2288  0.4012
 6631SOL    HW131526   2.937   3.073  11.578 -1.3543  0.8157  0.0862
 6631SOL    HW231527   3.054   3.149  11.525 -0.7940 -0.3474 -0.6238
 6632SOL     OW31528   2.397   4.063  15.950 -0.7195  0.2290 -0.2029
 6632SOL    HW131529   2.478   4.112  15.934 -0.3639 -0.1520  0.4526
 6632SOL    HW231530   2.354   4.094  15.870  1.2567 -0.2742 -1.4648
 6633SOL     OW31531   2.537   1.402   2.892 -0.4963  0.0714 -0.2850
 6633SOL    HW131532   2.539   1.338   2.821 -0.7825 -1.0760  0.7425
 6633SOL    HW231533   2.460   1.457   2.877 -0.3769  0.0411 -0.9973
 6634SOL     OW31534   0.817   1.203  12.745 -0.5438 -0.0768  0.2578
 6634SOL    HW131535   0.840   1.140  12.677 -0.4011  0.3729 -0.1088
 6634SOL    HW231536   0.851   1.286  12.712 -3.0095  0.3176 -1.3171
 6635SOL     OW31537   2.254   0.021   3.062  0.0597  0.4727  0.0712
 6635SOL    HW131538   2.319   0.022   3.132 -0.7839 -1.8969  0.8834
 6635SOL    HW231539   2.274   4.671   3.027 -0.7957 -0.1181  1.0596
 6636SOL     OW31540   3.255   1.924  12.731 -0.0079  0.0352  0.4855
 6636SOL    HW131541   3.164   1.942  12.711 -0.2717 -0.3750  1.3001
 6636SOL    HW231542   3.266   1.998  12.792  0.5270  1.9286 -1.8724
 6637SOL     OW31543   1.514   2.789   4.894 -0.1169  0.3458  0.5196
 6637SOL    HW131544   1.463   2.778   4.974 -2.0445  2.5489 -0.3901
 6637SOL    HW231545   1.580   2.722   4.910  1.1230  0.9355 -2.1076
 6638SOL     OW31546   2.798   0.493  15.115  0.0558 -0.7782  0.0195
 6638SOL    HW131547   2.742   0.505  15.191  1.0230 -0.3092  0.6551
 6638SOL    HW231548   2.889   0.522  15.126 -0.4214 -0.8104  4.0515
 6639SOL     OW31549   3.276   0.079   3.220 -0.8470  0.0504  0.0589
 6639SOL    HW131550   3.266   0.165   3.178 -1.0586 -0.1507 -0.3035
 6639SOL    HW231551   3.351   0.040   3.176 -1.0243  1.5929 -1.6713
 6640SOL     OW31552   3.853   1.532  14.427 -0.5970  0.4339  0.4884
 6640SOL    HW131553   3.846   1.482  14.345  0.6675  0.5236  0.3350
 6640SOL    HW231554   3.761   1.530  14.452 -0.8108 -2.2401 -0.4939
 6641SOL     OW31555   1.890   2.945   4.900 -0.0608 -0.5742  0.0342
 6641SOL    HW131556   1.837   2.995   4.962  0.1670  0.3122 -0.4917
 6641SOL    HW231557   1.857   2.992   4.823  0.3912  0.6387  0.5806
 6642SOL     OW31558   0.354   3.118  13.874  0.1859 -0.3152 -0.2579
 6642SOL    HW131559   0.379   3.038  13.827  1.3802 -0.4402  0.5993
 6642SOL    HW231560   0.264   3.135  13.844 -0.8762 -4.2967  0.6762
 6643SOL     OW31561   1.139   1.734   3.219  0.4311  0.2422 -0.6041
 6643SOL    HW131562   1.221   1.754   3.173 -1.2166  1.5908 -3.0085
 6643SOL    HW231563   1.152   1.662   3.279 -3.3007  1.1911  1.3721
 6644SOL     OW31564   2.902   4.621  12.075 -0.6069 -0.2781 -0.6246
 6644SOL    HW131565   2.861   4.543  12.040 -1.4127  0.5119 -1.4258
 6644SOL    HW231566   2.988   4.599  12.112 -1.3781 -1.2969  0.5623
 6645SOL     OW31567   3.128   0.944   4.184  0.4181  0.0653  0.2011
 6645SOL    HW131568   3.219   0.926   4.159  0.7160 -0.4352  1.6804
 6645SOL    HW231569   3.130   0.927   4.278  1.3712 -0.2606  0.1167
 6646SOL     OW31570   2.449   4.207   0.717 -0.0557 -0.4285 -0.5356
 6646SOL    HW131571   2.456   4.121   0.758  0.7674  1.3882  3.1479
 6646SOL    HW231572   2.453   4.194   0.622  2.3642  0.5903 -0.5626
 6647SOL     OW31573   0.888   3.871   3.609 -0.5293  0.0043 -0.1186
 6647SOL    HW131574   0.863   3.846   3.698  2.8792  1.1306  1.1343
 6647SOL    HW231575   0.878   3.793   3.555 -0.8675  1.2897 -1.9254
 6648SOL     OW31576   2.548   4.565  10.651 -0.0323  0.0876 -0.1045
 6648SOL    HW131577   2.471   4.543  10.704 -0.2376 -1.0820 -0.9039
 6648SOL    HW231578   2.513   4.584  10.564 -0.3211 -0.4115 -0.0954
 6649SOL     OW31579   3.980   0.415   1.606 -0.6813  0.2848 -0.3297
 6649SOL    HW131580   3.979   0.320   1.619  0.1865  0.0683 -1.9174
 6649SOL    HW231581   4.058   0.428   1.660 -0.4819 -1.9103 -0.0630
 6650SOL     OW31582   2.828   3.959   8.836 -0.1193  0.6135 -0.2619
 6650SOL    HW131583   2.890   4.029   8.860  1.4458 -1.8563  2.8733
 6650SOL    HW231584   2.815   3.981   8.744 -0.2363  1.4650 -0.0423
 6651SOL     OW31585   3.343   2.562   3.243 -0.1876  0.2566 -0.9973
 6651SOL    HW131586   3.421   2.507   3.255  0.2471  0.7072 -1.6994
 6651SOL    HW231587   3.285   2.533   3.313  3.4714 -0.5625  1.6692
 6652SOL     OW31588   0.539   0.772   1.498  0.2104 -0.0865 -0.0220
 6652SOL    HW131589   0.500   0.837   1.440 -2.4424 -0.7626  0.9915
 6652SOL    HW231590   0.551   0.822   1.579  1.2938 -0.6501  0.1587
 6653SOL     OW31591   1.295   2.954  10.367 -0.0343 -0.4464  0.4296
 6653SOL    HW131592   1.288   2.978  10.275  0.1203 -1.7804  0.0657
 6653SOL    HW231593   1.218   3.001  10.398 -0.9759 -1.0986 -0.9398
 6654SOL     OW31594   0.815   2.383   4.502  0.6541 -0.1512  0.1448
 6654SOL    HW131595   0.808   2.288   4.490  0.9990 -0.2849  1.0193
 6654SOL    HW231596   0.731   2.402   4.545  0.7920  0.5861  0.0838
 6655SOL     OW31597   2.624   4.414   8.461  0.3763  0.0011  0.1218
 6655SOL    HW131598   2.649   4.472   8.388  1.2005 -0.0792  0.3510
 6655SOL    HW231599   2.561   4.468   8.508  2.6976  1.3336  1.6775
 6656SOL     OW31600   0.004   1.329   3.340  0.4278  0.2038  0.3975
 6656SOL    HW131601   0.075   1.273   3.371  1.0910  0.6250 -0.3366
 6656SOL    HW231602   4.729   1.299   3.249 -2.1189 -1.3873  1.2442
 6657SOL     OW31603   2.019   4.061   0.670  0.1275 -0.3292 -0.1866
 6657SOL    HW131604   1.930   4.057   0.705  0.2468 -1.8196 -0.0275
 6657SOL    HW231605   2.030   3.997   0.599 -0.9445 -1.1553  0.3861
 6658SOL     OW31606   0.152   3.701   0.844 -0.5527 -0.2313  0.0246
 6658SOL    HW131607   0.151   3.784   0.891  0.7639  0.3491 -0.9611
 6658SOL    HW231608   0.244   3.675   0.845 -0.5780 -0.3633 -1.4592
 6659SOL     OW31609   0.215   4.628   2.304  0.8522 -0.9812 -0.2053
 6659SOL    HW131610   0.205   4.532   2.303  0.4797 -0.9351 -1.2025
 6659SOL    HW231611   0.126   4.662   2.304  0.5123 -1.8355 -1.4277
 6660SOL     OW31612   0.628   2.686   1.961  0.2163 -0.2135 -0.0593
 6660SOL    HW131613   0.574   2.761   1.937  2.0655  1.0049 -0.3469
 6660SOL    HW231614   0.697   2.731   2.009  0.4925  1.2199 -1.8487
 6661SOL     OW31615   1.769   1.042   3.930 -0.3078  0.1400 -0.0881
 6661SOL    HW131616   1.823   1.045   3.851 -0.8575  1.2937 -0.4267
 6661SOL    HW231617   1.755   0.948   3.941 -1.0125  0.1514 -0.8904
 6662SOL     OW31618   3.965   1.056   8.154  0.5245  0.0365  0.1701
 6662SOL    HW131619   4.019   1.002   8.213  0.5705  0.7137  0.7426
 6662SOL    HW231620   3.895   1.083   8.214  0.5867 -1.0330  0.7321
 6663SOL     OW31621   4.168   3.957   2.309  1.0493  0.0261  0.0907
 6663SOL    HW131622   4.092   3.953   2.250  1.4331 -2.1493 -0.2350
 6663SOL    HW231623   4.138   3.901   2.381  0.9121 -2.2851 -1.7735
 6664SOL     OW31624   3.260   2.979  12.649 -0.7745 -0.2646  0.4620
 6664SOL    HW131625   3.253   2.999  12.555  0.0367  1.9055  0.8775
 6664SOL    HW231626   3.268   2.883  12.653  1.1648 -0.0804  0.8212
 6665SOL     OW31627   1.349   0.906   8.729  0.2975 -0.4473  0.0637
 6665SOL    HW131628   1.336   0.842   8.659 -0.0447 -0.1582 -0.1349
 6665SOL    HW231629   1.442   0.911   8.750  0.3507 -1.0109 -0.0323
 6666SOL     OW31630   3.556   4.399   3.203 -0.3869 -0.0631 -0.1451
 6666SOL    HW131631   3.516   4.324   3.248 -1.4182  0.4706 -0.1792
 6666SOL    HW231632   3.483   4.453   3.175  0.1474  0.9080  0.3345
 6667SOL     OW31633   0.160   0.222   8.217  0.3248  0.1796  0.3879
 6667SOL    HW131634   0.189   0.143   8.262 -1.4269  1.3025  3.4761
 6667SOL    HW231635   0.217   0.278   8.269  2.3696 -0.3536 -1.2937
 6668SOL     OW31636   1.231   4.205   6.095  0.0762 -0.1730 -0.6256
 6668SOL    HW131637   1.325   4.222   6.096 -0.3788  2.2287  1.4331
 6668SOL    HW231638   1.226   4.131   6.034 -2.9054 -0.2645 -0.2902
 6669SOL     OW31639   3.968   2.213   6.110 -0.4001  0.7533  0.0799
 6669SOL    HW131640   4.054   2.255   6.105  0.1256 -0.4019 -0.6092
 6669SOL    HW231641   3.990   2.147   6.044  1.6082  3.2364 -1.7245
 6670SOL     OW31642   3.674   4.494   2.863 -0.1730 -0.4208  0.8535
 6670SOL    HW131643   3.726   4.469   2.940 -0.0012  0.1295  0.9218
 6670SOL    HW231644   3.685   4.590   2.859 -1.8670 -0.4304 -3.5995
 6671SOL     OW31645   1.507   1.759   2.620  0.1862 -0.1585  0.6560
 6671SOL    HW131646   1.445   1.824   2.652  0.4636 -0.8693  2.6519
 6671SOL    HW231647   1.502   1.686   2.682  0.2229  1.2369  2.2800
 6672SOL     OW31648   2.138   3.135   3.309  0.2887 -0.0244 -0.2286
 6672SOL    HW131649   2.109   3.061   3.363  0.0211  0.1453 -0.1422
 6672SOL    HW231650   2.218   3.158   3.357  0.5841 -1.5224  0.0210
 6673SOL     OW31651   2.673   1.510   3.783 -0.1158 -0.4182  0.7308
 6673SOL    HW131652   2.590   1.513   3.830  0.6510  0.6123  2.0117
 6673SOL    HW231653   2.640   1.502   3.693  1.1761  1.5027  0.0932
 6674SOL     OW31654   3.247   2.893   5.804 -0.2758 -0.0379  0.1902
 6674SOL    HW131655   3.176   2.914   5.743  0.9515  0.0244 -1.1894
 6674SOL    HW231656   3.189   2.868   5.877  1.7513 -1.3997  1.3321
 6675SOL     OW31657   1.661   0.575  13.464  0.2400  0.5964  0.0683
 6675SOL    HW131658   1.601   0.612  13.400  1.4658 -0.5487 -1.7441
 6675SOL    HW231659   1.616   0.602  13.544  0.7585 -0.6992  0.7939
 6676SOL     OW31660   1.387   0.784  13.041 -0.2960  0.3051 -0.0031
 6676SOL    HW131661   1.474   0.756  13.012 -0.7877  2.2566 -3.4532
 6676SOL    HW231662   1.329   0.725  12.993  0.3618  0.4064 -0.9320
 6677SOL     OW31663   4.352   2.584   3.860 -0.3292  0.2727 -0.2809
 6677SOL    HW131664   4.367   2.491   3.844  1.1533  0.0325  2.4181
 6677SOL    HW231665   4.318   2.575   3.949 -0.1085  1.1840 -0.0969
 6678SOL     OW31666   2.584   0.760   3.954  0.2134 -0.1461 -1.0393
 6678SOL    HW131667   2.565   0.750   4.047  0.3294 -1.7638 -1.1889
 6678SOL    HW231668   2.680   0.764   3.951  0.1741  2.5375  1.3438
 6679SOL     OW31669   1.392   3.055   9.403  0.1552  0.8781 -0.5110
 6679SOL    HW131670   1.483   3.029   9.388  0.3241 -0.1305  2.2897
 6679SOL    HW231671   1.399   3.102   9.486  0.8769 -1.5372  0.7838
 6680SOL     OW31672   3.182   3.952   7.535 -0.2058 -0.8212  0.4557
 6680SOL    HW131673   3.191   3.980   7.626  2.0900 -0.8574  0.2368
 6680SOL    HW231674   3.216   4.031   7.492 -0.5275 -0.3244  1.1151
 6681SOL     OW31675   3.435   1.494   5.564 -0.3737  0.2514 -0.0367
 6681SOL    HW131676   3.475   1.415   5.599  0.6594  1.4845  1.5878
 6681SOL    HW231677   3.342   1.475   5.572 -0.7044  1.8700 -0.0018
 6682SOL     OW31678   4.599   4.332   2.619 -0.2640 -0.0697 -0.2713
 6682SOL    HW131679   4.678   4.304   2.573 -0.1165  0.4940 -0.3697
 6682SOL    HW231680   4.535   4.271   2.582 -0.5557 -0.2469  0.5256
 6683SOL     OW31681   0.871   4.425   9.012 -0.1432  0.3955 -0.2847
 6683SOL    HW131682   0.864   4.428   8.916  0.3816 -1.8171 -0.3834
 6683SOL    HW231683   0.822   4.504   9.036  1.0577  0.2409  2.5683
 6684SOL     OW31684   3.746   4.197  12.896 -0.4502  0.6684 -0.4910
 6684SOL    HW131685   3.817   4.186  12.960 -0.1405  0.2070 -0.9123
 6684SOL    HW231686   3.758   4.283  12.855  2.1633  1.3442  1.7491
 6685SOL     OW31687   1.896   4.323   6.165  0.2905 -0.3586  0.3936
 6685SOL    HW131688   1.808   4.360   6.157  0.3226 -0.4056 -0.1547
 6685SOL    HW231689   1.941   4.404   6.139 -0.7747  0.1311  0.0729
 6686SOL     OW31690   2.268   1.834  15.427 -0.0018  0.1751  0.7645
 6686SOL    HW131691   2.229   1.898  15.486 -1.1067  0.8811 -0.7363
 6686SOL    HW231692   2.210   1.759  15.442  0.6751 -0.3722  0.6835
 6687SOL     OW31693   3.151   4.712   2.152 -0.6468  0.1895  0.3423
 6687SOL    HW131694   3.239   4.682   2.174 -1.6273 -1.3550  2.1598
 6687SOL    HW231695   3.134   0.041   2.220  2.0972 -0.2526  1.4569
 6688SOL     OW31696   0.695   1.349   2.079  0.1523  0.4322 -0.3415
 6688SOL    HW131697   0.632   1.421   2.072  0.4060  0.4274 -2.7209
 6688SOL    HW231698   0.772   1.403   2.096  1.7397 -1.5329 -1.3783
 6689SOL     OW31699   1.618   2.679   3.696 -0.0426 -0.0341  0.4040
 6689SOL    HW131700   1.541   2.659   3.643 -0.9596 -1.0465  2.1350
 6689SOL    HW231701   1.599   2.629   3.775 -0.8207  0.1918  0.3562
 6690SOL     OW31702   1.534   0.297  15.225  0.2911 -0.3132  0.3165
 6690SOL    HW131703   1.485   0.325  15.148 -0.5405 -0.2851  0.8507
 6690SOL    HW231704   1.507   0.363  15.288 -0.0846 -0.4781  0.3285
 6691SOL     OW31705   3.749   1.153  16.535  0.0501 -0.5207 -0.0727
 6691SOL    HW131706   3.839   1.131  16.561  0.1003 -0.9889 -0.6233
 6691SOL    HW231707   3.762   1.223  16.470  1.3288 -0.3598  0.3489
 6692SOL     OW31708   2.632   3.785   7.480  0.0225  0.7624 -0.2622
 6692SOL    HW131709   2.659   3.716   7.420  1.5944 -0.6128  2.0531
 6692SOL    HW231710   2.572   3.734   7.535  1.2587  0.4559  0.7844
 6693SOL     OW31711   2.588   2.398   6.234 -0.2427 -0.8091  0.1243
 6693SOL    HW131712   2.505   2.407   6.187  0.3496 -0.1469 -0.7979
 6693SOL    HW231713   2.569   2.321   6.288 -1.1920  0.1608  1.1630
 6694SOL     OW31714   0.408   4.070  12.931  0.6275  0.2462 -0.3519
 6694SOL    HW131715   0.387   4.149  12.882 -1.1722  1.4281  2.3749
 6694SOL    HW231716   0.351   4.082  13.007  1.6134  0.5502  0.3439
 6695SOL     OW31717   1.104   4.003   4.423 -0.2874  0.3393 -0.2129
 6695SOL    HW131718   1.102   3.992   4.518  0.1598 -1.9618 -0.4731
 6695SOL    HW231719   1.014   4.033   4.410 -0.2853  0.5227  0.2023
 6696SOL     OW31720   0.095   3.170  13.764  0.1929 -0.0562  0.1939
 6696SOL    HW131721   0.053   3.255  13.775  1.1730  0.5051 -0.3829
 6696SOL    HW231722   0.018   3.113  13.762  0.2754 -0.1322 -0.9944
 6697SOL     OW31723   4.147   2.377   4.834 -0.4730  0.0383 -0.2648
 6697SOL    HW131724   4.091   2.454   4.831 -0.8847 -0.2809 -0.8474
 6697SOL    HW231725   4.106   2.335   4.910  1.4892 -1.0562  0.1836
 6698SOL     OW31726   0.788   3.079   2.026 -0.0227 -0.4280 -0.5819
 6698SOL    HW131727   0.739   2.999   2.047 -1.0635  0.3619  0.0197
 6698SOL    HW231728   0.802   3.064   1.933 -3.5810  0.9269 -1.3540
 6699SOL     OW31729   2.950   1.184   4.189  0.1075 -0.6881  0.0807
 6699SOL    HW131730   2.946   1.149   4.278  0.1963  0.1928  0.4359
 6699SOL    HW231731   3.043   1.198   4.170 -0.0019  0.4083  0.3885
 6700SOL     OW31732   1.332   1.140   8.017  0.3583  0.2245 -0.0988
 6700SOL    HW131733   1.396   1.194   7.971  1.5920 -0.1842  1.1242
 6700SOL    HW231734   1.248   1.183   7.997  0.7301  1.1220  0.2581
 6701SOL     OW31735   1.796   3.199   2.350 -0.1094 -0.5981 -0.9840
 6701SOL    HW131736   1.865   3.237   2.296  0.7380  0.6940  1.0074
 6701SOL    HW231737   1.839   3.127   2.395 -0.1774  0.7388  1.1859
 6702SOL     OW31738   1.254   3.285  16.420  0.6059 -0.0666  0.0084
 6702SOL    HW131739   1.262   3.311  16.328 -0.1631 -0.5482 -0.1926
 6702SOL    HW231740   1.168   3.244  16.416 -0.2259  1.7495 -0.2328
 6703SOL     OW31741   2.568   1.154   8.875 -0.2722 -0.0060  0.1832
 6703SOL    HW131742   2.603   1.070   8.847 -0.7749  0.0827 -0.7238
 6703SOL    HW231743   2.516   1.168   8.796 -0.9103  1.2320  0.8154
 6704SOL     OW31744   2.654   2.907   3.229 -1.2147  0.4195  0.1779
 6704SOL    HW131745   2.618   2.863   3.151 -1.7392  0.0333  0.6352
 6704SOL    HW231746   2.745   2.878   3.226 -1.7499 -1.3574  1.0260
 6705SOL     OW31747   0.492   0.117   7.159  0.1210  0.8832  0.4145
 6705SOL    HW131748   0.464   0.042   7.211 -0.0608 -0.9956 -2.4084
 6705SOL    HW231749   0.417   0.146   7.108 -0.7377  0.8050  1.6161
 6706SOL     OW31750   1.370   2.714   2.979 -0.5850  0.3953 -0.0597
 6706SOL    HW131751   1.403   2.785   3.034 -2.6256 -0.8244  2.6843
 6706SOL    HW231752   1.326   2.769   2.914 -0.6372 -0.6551 -0.9037
 6707SOL     OW31753   3.872   3.032   5.511 -0.7432 -0.6664  0.5860
 6707SOL    HW131754   3.954   3.018   5.463 -2.0403  0.0348 -1.8755
 6707SOL    HW231755   3.814   3.046   5.436  1.5959 -0.5540 -1.2115
 6708SOL     OW31756   4.268   4.387   3.256 -0.0004  0.3328 -0.5007
 6708SOL    HW131757   4.289   4.294   3.269  2.4549  0.9837  0.1012
 6708SOL    HW231758   4.180   4.392   3.294 -0.6613 -0.9269 -1.8264
 6709SOL     OW31759   4.083   0.922   8.379 -0.1657 -0.2063 -0.3346
 6709SOL    HW131760   4.155   0.859   8.381  0.5780  0.6072 -1.6170
 6709SOL    HW231761   4.043   0.897   8.462 -0.4113 -0.6481 -0.5838
 6710SOL     OW31762   2.667   3.471   9.780  0.0622  0.1845  0.2437
 6710SOL    HW131763   2.716   3.552   9.764  1.0227 -0.4434 -0.0216
 6710SOL    HW231764   2.700   3.444   9.866 -0.9912 -0.3841  0.4643
 6711SOL     OW31765   4.149   1.917  13.926  0.2794 -0.1403 -0.3810
 6711SOL    HW131766   4.119   1.947  14.011  2.3954 -0.2773  0.4123
 6711SOL    HW231767   4.076   1.860  13.902 -0.1034  0.4475 -0.5991
 6712SOL     OW31768   3.666   0.952   0.320 -0.4688 -0.0991  0.1764
 6712SOL    HW131769   3.674   0.979   0.411  0.8069  1.5497 -0.4331
 6712SOL    HW231770   3.614   0.871   0.325  2.7636 -2.2069 -0.3886
 6713SOL     OW31771   1.704   0.542   1.934  0.3764 -0.1379  0.2564
 6713SOL    HW131772   1.721   0.448   1.940  0.9316 -0.0536  0.0735
 6713SOL    HW231773   1.774   0.576   1.878  0.8791 -0.4567  0.6785
 6714SOL     OW31774   3.403   1.730  12.634 -0.6730 -0.0089 -0.5606
 6714SOL    HW131775   3.494   1.750  12.653 -0.7133 -0.8116  0.4764
 6714SOL    HW231776   3.356   1.801  12.680  0.5298  0.5562 -0.2061
 6715SOL     OW31777   4.573   0.518   2.628 -0.4909 -0.1482 -0.7889
 6715SOL    HW131778   4.508   0.587   2.615 -0.1526  0.5039  1.0476
 6715SOL    HW231779   4.552   0.489   2.716 -0.5156 -0.6547 -0.9636
 6716SOL     OW31780   2.624   2.768   9.720  0.1608  0.4466  0.2453
 6716SOL    HW131781   2.546   2.760   9.665  0.3033 -0.1683  0.1364
 6716SOL    HW231782   2.605   2.699   9.784 -1.3373 -0.0306 -0.7033
 6717SOL     OW31783   2.085   3.322   1.145  0.5489  0.2260 -0.0136
 6717SOL    HW131784   2.010   3.365   1.104 -0.0851 -0.5294  0.3473
 6717SOL    HW231785   2.050   3.324   1.235  1.3284 -1.0971  0.3257
 6718SOL     OW31786   0.550   3.108  14.222  0.2733 -0.1475 -0.1028
 6718SOL    HW131787   0.496   3.125  14.299  0.2334  0.8715 -0.3451
 6718SOL    HW231788   0.499   3.036  14.185 -0.3444  0.3870 -0.2940
 6719SOL     OW31789   1.589   0.450   8.307  0.4778  0.1927 -0.4107
 6719SOL    HW131790   1.540   0.404   8.239 -0.9078  1.1978 -0.0804
 6719SOL    HW231791   1.672   0.402   8.306  0.5504  0.2712  2.2022
 6720SOL     OW31792   1.212   2.792   8.430 -0.5192 -0.0207 -0.2155
 6720SOL    HW131793   1.255   2.877   8.420 -2.7727  1.2984  1.3243
 6720SOL    HW231794   1.167   2.786   8.346 -1.0871  0.2366  0.0651
 6721SOL     OW31795   0.304   4.498   1.874 -0.3654 -0.3954 -0.0325
 6721SOL    HW131796   0.221   4.544   1.860  0.1150  0.4250 -0.1344
 6721SOL    HW231797   0.283   4.423   1.931  3.2966 -1.3871  0.0020
 6722SOL     OW31798   2.054   4.260   6.748 -0.0927  0.2131  0.0001
 6722SOL    HW131799   1.996   4.234   6.819 -1.4825 -0.0530 -1.2248
 6722SOL    HW231800   2.031   4.352   6.737 -1.1077  0.0331  0.6870
 6723SOL     OW31801   0.793   4.438   7.238  0.4753  0.3194 -0.4493
 6723SOL    HW131802   0.834   4.401   7.159  0.5626 -1.6420  0.5079
 6723SOL    HW231803   0.702   4.455   7.212  1.2861  2.0237 -2.1887
 6724SOL     OW31804   1.302   2.755  10.547 -0.0504  0.1515 -0.0145
 6724SOL    HW131805   1.389   2.789  10.564 -0.7339  2.1051 -0.4707
 6724SOL    HW231806   1.281   2.798  10.464  0.6081  3.5765  1.6038
 6725SOL     OW31807   1.312   1.392   3.645 -0.6569  0.7339 -0.1594
 6725SOL    HW131808   1.346   1.393   3.735  0.2973  3.5071 -0.5229
 6725SOL    HW231809   1.251   1.318   3.651  0.4307 -0.1863 -0.6080
 6726SOL     OW31810   0.069   4.415   4.142  0.8035 -0.0421  0.2049
 6726SOL    HW131811   0.022   4.336   4.114  0.3428  0.4727 -0.4758
 6726SOL    HW231812   0.076   4.471   4.065  1.0727  2.1192  1.7699
 6727SOL     OW31813   3.883   2.414   2.321 -0.3151 -0.1862  0.1656
 6727SOL    HW131814   3.921   2.500   2.309  0.2835 -0.4105  0.4498
 6727SOL    HW231815   3.789   2.431   2.323 -0.4029 -0.5884 -0.9794
 6728SOL     OW31816   1.610   0.697   7.073  0.7002  0.0222  0.2486
 6728SOL    HW131817   1.677   0.763   7.091 -1.1530  2.1835 -0.6890
 6728SOL    HW231818   1.651   0.628   7.125 -1.4173 -1.5228 -0.1435
 6729SOL     OW31819   2.181   2.542   7.633 -0.0847  0.0581  0.2678
 6729SOL    HW131820   2.207   2.634   7.639  0.1893  0.0274 -0.4100
 6729SOL    HW231821   2.238   2.505   7.700  1.5332  1.5533 -0.2866
 6730SOL     OW31822   2.533   4.232   5.526  0.1328 -0.4632  0.5564
 6730SOL    HW131823   2.478   4.169   5.572 -0.6008 -1.3161 -1.4819
 6730SOL    HW231824   2.619   4.197   5.550  0.8554  1.1317  0.2772
 6731SOL     OW31825   3.485   0.555  15.685 -0.6797 -0.1707 -0.3143
 6731SOL    HW131826   3.435   0.518  15.613 -0.6242 -0.3508 -0.2587
 6731SOL    HW231827   3.521   0.634  15.644 -0.9795 -0.9046 -2.0199
 6732SOL     OW31828   1.840   0.964  16.035  0.2503 -0.2306 -0.1545
 6732SOL    HW131829   1.802   1.036  15.984  2.4019  1.3453  0.4297
 6732SOL    HW231830   1.907   0.930  15.976 -0.6306  0.6110 -1.6510
 6733SOL     OW31831   0.941   1.685   6.255 -0.0586  0.2073 -0.5405
 6733SOL    HW131832   0.953   1.649   6.343  1.6981 -0.1133 -0.9305
 6733SOL    HW231833   1.012   1.648   6.203  0.5114 -0.4488  0.7206
 6734SOL     OW31834   2.810   4.706   7.719 -0.2757  0.0920  0.8363
 6734SOL    HW131835   2.899   4.736   7.738  0.3363 -0.0426 -1.7919
 6734SOL    HW231836   2.814   4.613   7.737  0.6709 -0.5095 -2.4789
 6735SOL     OW31837   3.413   3.746   7.722 -0.3864  0.4169 -0.0420
 6735SOL    HW131838   3.438   3.773   7.634  0.5299  0.7343  0.3198
 6735SOL    HW231839   3.489   3.783   7.767 -1.5614  0.6327  1.7851
 6736SOL     OW31840   2.475   4.533   7.399  0.3956  0.4464 -0.2809
 6736SOL    HW131841   2.542   4.586   7.442  0.1752  0.8635 -0.4546
 6736SOL    HW231842   2.400   4.591   7.390 -2.7402 -3.3183  2.0130
 6737SOL     OW31843   2.152   1.350  15.421  0.3316  0.8421 -0.5382
 6737SOL    HW131844   2.204   1.333  15.500  2.6034  2.2377 -1.7569
 6737SOL    HW231845   2.064   1.322  15.447 -0.1030  1.5814 -1.2018
 6738SOL     OW31846   2.210   2.532   7.352 -0.4522  0.2288 -0.1295
 6738SOL    HW131847   2.275   2.597   7.323  0.7444 -0.8529  0.1122
 6738SOL    HW231848   2.200   2.543   7.447 -0.2761  0.6163 -0.1555
 6739SOL     OW31849   1.579   1.401  14.541  0.2908 -0.2089  0.1862
 6739SOL    HW131850   1.636   1.359  14.477 -3.2320 -3.8670 -0.5728
 6739SOL    HW231851   1.612   1.367  14.624  0.6540 -2.0398 -0.7057
 6740SOL     OW31852   3.243   1.184   7.065 -0.0523  0.2362  0.6446
 6740SOL    HW131853   3.265   1.215   6.977 -0.6266  0.7402  0.6830
 6740SOL    HW231854   3.329   1.189   7.107  0.6457 -0.7497 -0.6564
 6741SOL     OW31855   3.698   2.882   7.441  0.1967 -0.1293  0.6562
 6741SOL    HW131856   3.765   2.936   7.483  0.1536  0.9732 -0.7003
 6741SOL    HW231857   3.693   2.911   7.351 -2.0501  1.8902  1.4362
 6742SOL     OW31858   3.934   1.279  15.773 -0.2126 -0.2252  0.0910
 6742SOL    HW131859   3.984   1.203  15.743  0.1592  0.5839 -1.3249
 6742SOL    HW231860   3.966   1.335  15.703 -0.7472  0.4683  0.4000
 6743SOL     OW31861   3.755   1.357  16.347  0.3922 -0.3645  0.1929
 6743SOL    HW131862   3.800   1.334  16.266 -1.0187  2.6722 -1.4609
 6743SOL    HW231863   3.774   1.450  16.359 -1.4743  0.5087 -3.5006
 6744SOL     OW31864   3.130   2.765   3.481 -0.3532  0.0935  0.4560
 6744SOL    HW131865   3.087   2.749   3.565 -2.0555 -0.8022 -0.5714
 6744SOL    HW231866   3.177   2.682   3.467 -0.5890  0.1294 -0.5201
 6745SOL     OW31867   3.243   0.352   4.186  0.3291 -0.3210 -0.1041
 6745SOL    HW131868   3.319   0.407   4.205  2.5076 -2.9717 -1.0106
 6745SOL    HW231869   3.174   0.413   4.210  0.8992  0.6364 -0.9184
 6746SOL     OW31870   1.298   2.211   6.280 -0.1910 -0.1780  1.1532
 6746SOL    HW131871   1.204   2.217   6.299 -0.9215 -1.0180 -2.3141
 6746SOL    HW231872   1.308   2.211   6.185 -1.5740  1.6481  0.9981
 6747SOL     OW31873   1.250   0.471   4.078 -0.2138  0.0354 -0.2198
 6747SOL    HW131874   1.213   0.557   4.100  0.6274  0.0625  1.0608
 6747SOL    HW231875   1.248   0.495   3.985  1.0942  1.8571  0.2098
 6748SOL     OW31876   2.988   2.726   6.461 -0.6300 -0.1947 -0.2423
 6748SOL    HW131877   2.901   2.686   6.470 -1.9355  3.0144  1.4059
 6748SOL    HW231878   3.025   2.659   6.404 -1.1920 -0.1180 -0.6966
 6749SOL     OW31879   1.184   0.632   7.282  0.0922  0.3589 -0.0629
 6749SOL    HW131880   1.221   0.719   7.264 -0.5528  0.4239 -1.0847
 6749SOL    HW231881   1.147   0.611   7.197  1.0134  2.1655 -0.9071
 6750SOL     OW31882   4.534   4.533   5.555  0.2307 -0.7067  0.4968
 6750SOL    HW131883   4.602   4.551   5.620  0.8481 -0.5064 -0.1993
 6750SOL    HW231884   4.502   4.623   5.550 -1.1780 -1.2329  0.1471
 6751SOL     OW31885   3.178   4.083  13.685 -0.4492 -0.4585 -0.3040
 6751SOL    HW131886   3.209   4.163  13.728  0.0588  0.1532 -1.7938
 6751SOL    HW231887   3.260   4.035  13.674 -1.0658 -0.7953 -3.3130
 6752SOL     OW31888   4.136   4.680   1.686  0.0799 -0.2006  0.2403
 6752SOL    HW131889   4.222   4.637   1.679 -0.5808 -1.4401 -0.2294
 6752SOL    HW231890   4.090   4.600   1.710  0.3776 -0.3221  0.4125
 6753SOL     OW31891   2.459   3.939   9.548 -0.8980 -0.3802  0.5781
 6753SOL    HW131892   2.485   3.893   9.469  0.3897 -2.2527  2.0918
 6753SOL    HW231893   2.367   3.944   9.523 -0.9128 -1.3088  0.4520
 6754SOL     OW31894   3.597   3.568   7.065 -0.3514 -0.3868 -0.2814
 6754SOL    HW131895   3.539   3.618   7.007 -0.6575  0.9195  1.1458
 6754SOL    HW231896   3.554   3.482   7.066 -0.0257 -0.5709 -1.6622
 6755SOL     OW31897   3.266   1.433   1.437  0.5081  0.2077  0.7282
 6755SOL    HW131898   3.215   1.494   1.384  0.0238 -1.3818 -0.6356
 6755SOL    HW231899   3.204   1.362   1.456  0.5704  0.0061  0.1754
 6756SOL     OW31900   1.321   2.425   3.444  0.1627  0.6021  0.1281
 6756SOL    HW131901   1.263   2.455   3.373 -0.4555 -0.1723  0.3085
 6756SOL    HW231902   1.398   2.389   3.400 -0.5275 -2.4203  1.4064
 6757SOL     OW31903   3.701   1.110   4.265  0.7866 -0.0351  0.3967
 6757SOL    HW131904   3.692   1.205   4.273 -0.5095  0.0023 -1.3297
 6757SOL    HW231905   3.618   1.070   4.292 -0.5193  2.5726  0.2694
 6758SOL     OW31906   2.723   0.863   8.692 -0.0420 -0.2964  0.2698
 6758SOL    HW131907   2.651   0.818   8.648 -0.0885 -0.0751  0.1226
 6758SOL    HW231908   2.702   0.849   8.784 -1.1882 -0.7927 -0.0724
 6759SOL     OW31909   0.853   2.467   4.841 -0.3398  0.2719  0.1234
 6759SOL    HW131910   0.841   2.536   4.775 -0.3105 -1.4557 -1.6899
 6759SOL    HW231911   0.761   2.468   4.869  0.0094  2.9675  1.2278
 6760SOL     OW31912   4.732   3.755   7.052 -0.2813  0.1645 -0.1464
 6760SOL    HW131913   4.644   3.785   7.029 -0.5679 -0.1415  0.5274
 6760SOL    HW231914   4.709   3.666   7.082 -1.7602  0.7379  0.4339
 6761SOL     OW31915   4.492   0.076   2.838  0.3773 -0.0553 -0.4625
 6761SOL    HW131916   4.525   0.016   2.905 -1.4624 -0.7847 -0.2155
 6761SOL    HW231917   4.563   0.060   2.775 -0.3999 -0.9327 -1.1175
 6762SOL     OW31918   4.460   1.687   7.107  0.0848 -0.1633  0.0894
 6762SOL    HW131919   4.481   1.756   7.044 -2.1118  0.2617 -0.1837
 6762SOL    HW231920   4.505   1.608   7.079  1.6121 -0.2100  2.6828
 6763SOL     OW31921   1.068   2.065   4.888  0.2002  0.4813 -0.4935
 6763SOL    HW131922   1.086   2.159   4.895  0.5234  0.4363 -0.6953
 6763SOL    HW231923   0.973   2.061   4.876 -0.0178  1.0825  1.0418
 6764SOL     OW31924   4.137   4.026   8.621  0.1371  0.0075 -0.0172
 6764SOL    HW131925   4.141   4.043   8.716  1.8036  0.1588 -0.1107
 6764SOL    HW231926   4.205   4.085   8.588  0.1093 -0.0686 -0.2058
 6765SOL     OW31927   1.405   3.167  10.661  0.3265 -0.4281  0.3459
 6765SOL    HW131928   1.461   3.152  10.737 -0.0803  0.3940  0.8002
 6765SOL    HW231929   1.335   3.215  10.705  0.6559  0.4523 -0.0912
 6766SOL     OW31930   2.073   3.902  11.971  0.3056  0.4534  0.4754
 6766SOL    HW131931   2.068   3.882  12.065  0.6514 -0.0278  0.3927
 6766SOL    HW231932   2.138   3.840  11.937 -0.5539 -0.3841  0.3656
 6767SOL     OW31933   4.412   3.259   4.198  0.1058 -0.3840 -0.7848
 6767SOL    HW131934   4.459   3.270   4.281 -0.1733  1.8873 -0.9165
 6767SOL    HW231935   4.419   3.166   4.178 -2.0316 -0.6381 -0.3523
 6768SOL     OW31936   3.729   2.343  10.450  0.3497  0.4175  0.3686
 6768SOL    HW131937   3.667   2.386  10.392  1.4676  0.3289 -0.8891
 6768SOL    HW231938   3.682   2.337  10.533 -0.2649  1.8442  0.1229
 6769SOL     OW31939   2.286   2.383   9.934  0.4259  0.4547 -0.2297
 6769SOL    HW131940   2.353   2.315   9.928 -0.5038 -0.5065  0.1836
 6769SOL    HW231941   2.309   2.424  10.017 -1.5807 -0.5636  0.8333
 6770SOL     OW31942   2.514   2.387   9.354  0.0021  0.0364  0.4692
 6770SOL    HW131943   2.550   2.328   9.420  2.8810 -1.0878 -2.1243
 6770SOL    HW231944   2.595   2.413   9.310 -1.0324  2.3432 -0.1102
 6771SOL     OW31945   3.807   3.254   2.568 -0.3040 -0.0489 -0.6846
 6771SOL    HW131946   3.770   3.335   2.605 -3.4081 -2.9019  2.4141
 6771SOL    HW231947   3.736   3.231   2.508 -0.4175  2.5484 -1.5668
 6772SOL     OW31948   2.842   2.716   0.619 -0.5067  0.2930  0.1157
 6772SOL    HW131949   2.888   2.737   0.538  1.3944 -2.0566  0.5919
 6772SOL    HW231950   2.895   2.765   0.682  0.1353 -1.9974  1.3493
 6773SOL     OW31951   4.501   2.948   7.140 -0.2528  0.0505  0.0779
 6773SOL    HW131952   4.499   2.942   7.044 -0.0130  0.3927  0.0523
 6773SOL    HW231953   4.514   3.042   7.145 -2.8342  0.3498  1.0305
 6774SOL     OW31954   2.703   1.896   2.741 -0.0554  0.1792 -0.1300
 6774SOL    HW131955   2.745   1.938   2.816 -2.2707 -2.2794  2.4931
 6774SOL    HW231956   2.763   1.824   2.724 -2.0179 -1.3406 -0.6101
 6775SOL     OW31957   2.503   1.337   0.048 -0.6177 -0.5606 -0.4508
 6775SOL    HW131958   2.466   1.290   0.123 -1.4560  0.8697  0.0242
 6775SOL    HW231959   2.596   1.320   0.064 -0.3541  1.5948  0.2746
 6776SOL     OW31960   1.841   4.729   8.306 -0.9276  1.4002  0.3126
 6776SOL    HW131961   1.894   4.659   8.346 -4.2363 -0.9202  0.6573
 6776SOL    HW231962   1.765   4.680   8.277  1.1382 -2.8475  2.0307
 6777SOL     OW31963   3.391   4.599   6.680  0.4731 -0.1579 -0.0766
 6777SOL    HW131964   3.373   4.578   6.588 -2.1237 -0.8073  0.5681
 6777SOL    HW231965   3.433   4.520   6.714 -0.6645 -1.2732 -1.2599
 6778SOL     OW31966   1.444   0.745  12.582 -0.2031  0.0832 -0.3231
 6778SOL    HW131967   1.393   0.784  12.653  1.3839 -3.6202  2.8649
 6778SOL    HW231968   1.482   0.673  12.632 -0.3025 -0.1882 -0.6408
 6779SOL     OW31969   3.018   0.952  11.697 -0.3040 -0.8711 -0.2322
 6779SOL    HW131970   3.040   0.981  11.785 -1.7490 -0.3506 -0.0320
 6779SOL    HW231971   2.922   0.946  11.704 -0.4603  2.8004  0.7803
 6780SOL     OW31972   4.561   0.410  12.321  0.3046 -0.1420 -0.4340
 6780SOL    HW131973   4.613   0.406  12.401  2.3530 -2.5172 -1.8814
 6780SOL    HW231974   4.631   0.416  12.256  0.1556  2.1979 -0.3647
 6781SOL     OW31975   0.650   1.102   3.567 -0.2033 -0.5505 -0.2466
 6781SOL    HW131976   0.556   1.093   3.582 -0.1780 -0.3196  0.0716
 6781SOL    HW231977   0.640   1.074   3.476 -2.0022  1.1351 -0.5731
 6782SOL     OW31978   0.878   4.461   1.836 -0.4337  0.2377 -0.0060
 6782SOL    HW131979   0.842   4.482   1.749  0.5471  0.2570 -0.4089
 6782SOL    HW231980   0.819   4.515   1.889 -0.5562 -2.9046  3.0931
 6783SOL     OW31981   1.768   0.244   9.923 -0.2810 -0.0941 -0.4209
 6783SOL    HW131982   1.734   0.183   9.987 -1.5433 -0.5460 -1.5192
 6783SOL    HW231983   1.687   0.286   9.893 -0.9348 -0.4850  0.8120
 6784SOL     OW31984   0.286   1.636  13.920 -0.1698  0.0546 -0.0458
 6784SOL    HW131985   0.294   1.562  13.981 -1.1308 -0.1190 -0.1174
 6784SOL    HW231986   0.353   1.603  13.860 -0.9921  1.5995 -1.8034
 6785SOL     OW31987   0.039   3.470  17.054 -0.3670 -0.3010 -0.3135
 6785SOL    HW131988   0.064   3.391  17.101  0.7784  1.0002  1.2581
 6785SOL    HW231989   4.700   3.430  17.012 -0.8509 -1.9158  2.1430
 6786SOL     OW31990   4.085   0.887   7.748 -0.8084  0.0584  0.0715
 6786SOL    HW131991   4.011   0.945   7.730 -1.8673 -1.4622 -0.4328
 6786SOL    HW231992   4.126   0.898   7.662  1.7345 -4.2053  0.7747
 6787SOL     OW31993   2.009   0.428  13.656 -0.7016  0.3488 -0.0583
 6787SOL    HW131994   1.944   0.427  13.726 -0.8553 -0.0307 -0.2098
 6787SOL    HW231995   2.091   0.449  13.701 -0.5582 -0.5590  0.0931
 6788SOL     OW31996   3.047   4.637   3.253  0.8050  0.1584  0.7452
 6788SOL    HW131997   3.132   4.675   3.231  0.0967  0.3583 -1.6053
 6788SOL    HW231998   3.074   4.546   3.262  0.7979  0.2332  1.5441
 6789SOL     OW31999   4.501   1.544  12.020  0.2128  0.2714 -0.3780
 6789SOL    HW132000   4.501   1.466  12.076 -0.3424 -0.2812 -1.1436
 6789SOL    HW232001   4.557   1.507  11.952  0.0936  1.0692 -0.8976
 6790SOL     OW32002   0.869   1.701   8.649  0.0693  0.1587 -0.5871
 6790SOL    HW132003   0.893   1.615   8.617 -1.6682 -0.5319 -0.0226
 6790SOL    HW232004   0.881   1.757   8.572 -0.2508 -0.3557 -1.0038
 6791SOL     OW32005   2.444   1.800   3.422 -0.0112 -0.2795  0.1236
 6791SOL    HW132006   2.452   1.888   3.385 -0.6563  0.5323  1.9197
 6791SOL    HW232007   2.349   1.794   3.431 -0.1393 -0.3148 -1.1867
 6792SOL     OW32008   4.470   0.745   2.390 -0.1352  0.3128  0.6358
 6792SOL    HW132009   4.536   0.814   2.393  0.3398 -0.1878  1.9295
 6792SOL    HW232010   4.455   0.740   2.295  0.0783  0.2491  0.6035
 6793SOL     OW32011   3.771   3.840   8.894  0.1358 -0.0532 -0.3994
 6793SOL    HW132012   3.830   3.809   8.825  1.8869  1.1995  0.5598
 6793SOL    HW232013   3.819   3.828   8.976 -2.7406  0.2249  1.3173
 6794SOL     OW32014   0.455   1.252   3.975 -0.8352  0.2528 -0.0440
 6794SOL    HW132015   0.524   1.187   3.961 -1.2558 -0.0326 -0.7735
 6794SOL    HW232016   0.446   1.250   4.071 -0.9145  0.4648 -0.0453
 6795SOL     OW32017   3.435   0.168   2.441  0.2303 -0.1078  1.0648
 6795SOL    HW132018   3.519   0.187   2.485  2.1334 -1.0887 -2.1945
 6795SOL    HW232019   3.435   0.073   2.456 -2.2393 -0.2909 -0.2377
 6796SOL     OW32020   4.412   4.205   0.589 -0.0353  0.0676 -0.0548
 6796SOL    HW132021   4.417   4.280   0.529  1.4949  0.2244  0.2867
 6796SOL    HW232022   4.494   4.203   0.638  0.5656 -2.1654 -1.1642
 6797SOL     OW32023   3.761   2.159  17.556  0.1442  0.0840 -0.4371
 6797SOL    HW132024   3.701   2.113  17.498  0.7275 -1.1489 -0.0712
 6797SOL    HW232025   3.701   2.193  17.622  0.2529  1.9397 -1.2979
 6798SOL     OW32026   1.999   0.402   9.931 -0.5058 -0.0018 -0.0901
 6798SOL    HW132027   1.923   0.347   9.913  0.7406 -1.6220 -0.3974
 6798SOL    HW232028   1.950   0.484   9.922 -1.1130  0.0370  3.4545
 6799SOL     OW32029   2.789   3.797  16.584 -0.6749  0.9706  0.2558
 6799SOL    HW132030   2.794   3.892  16.582  0.1284  0.9607  1.7580
 6799SOL    HW232031   2.699   3.781  16.555 -0.4937  2.0051 -0.8809
 6800SOL     OW32032   1.472   3.922   6.628  0.1359 -0.0657  0.0283
 6800SOL    HW132033   1.456   4.016   6.624 -0.2497 -0.1563 -0.5451
 6800SOL    HW232034   1.449   3.897   6.717  1.3546  0.0739  0.3825
 6801SOL     OW32035   4.441   2.592   3.426  0.1689 -0.3258  0.0849
 6801SOL    HW132036   4.535   2.601   3.408  0.0138  0.3239 -0.3666
 6801SOL    HW232037   4.422   2.614   3.335 -3.0446 -0.1606  0.8040
 6802SOL     OW32038   0.366   0.843   2.498  0.2481  0.1346  0.0819
 6802SOL    HW132039   0.445   0.790   2.510  0.4251  0.5139  0.6269
 6802SOL    HW232040   0.402   0.906   2.436  3.2750 -0.2828  1.3815
 6803SOL     OW32041   2.137   2.321  11.409 -0.0257  0.0341 -0.4788
 6803SOL    HW132042   2.162   2.340  11.500 -0.8826  0.6497 -0.3683
 6803SOL    HW232043   2.151   2.407  11.370 -0.8783 -0.1112 -1.1061
 6804SOL     OW32044   2.266   1.886   8.893 -0.0994 -0.5558 -0.0017
 6804SOL    HW132045   2.194   1.900   8.956 -0.1367 -0.6705 -0.0186
 6804SOL    HW232046   2.238   1.917   8.807 -2.9439  1.2188  1.5652
 6805SOL     OW32047   3.372   1.138   3.544  0.2042  0.0067  0.4731
 6805SOL    HW132048   3.380   1.131   3.639 -5.3364  0.2916  0.9841
 6805SOL    HW232049   3.465   1.127   3.524  0.7247  2.3264  1.6859
 6806SOL     OW32050   0.078   3.314   5.072  0.0824  0.4886  0.2852
 6806SOL    HW132051   0.030   3.395   5.050 -1.0782  0.4016  2.4420
 6806SOL    HW232052   0.125   3.345   5.150 -0.0938  2.1794 -0.2746
 6807SOL     OW32053   0.811   0.216  16.260 -0.1934 -0.0201 -0.2797
 6807SOL    HW132054   0.733   0.241  16.310 -1.3619 -1.3507 -1.4260
 6807SOL    HW232055   0.804   0.286  16.195  1.4762  0.3744 -0.0315
 6808SOL     OW32056   1.516   0.705   8.352  0.6216 -0.0252 -0.0936
 6808SOL    HW132057   1.532   0.611   8.349 -1.7626 -0.4617  0.6540
 6808SOL    HW232058   1.543   0.722   8.262 -1.3423 -0.8232 -0.8375
 6809SOL     OW32059   2.641   2.710  11.302 -0.1976  0.4549  0.3230
 6809SOL    HW132060   2.641   2.621  11.268 -2.8333  0.2777  0.8320
 6809SOL    HW232061   2.625   2.748  11.216 -0.2087  0.9669  0.5511
 6810SOL     OW32062   3.364   3.285   9.156 -0.6459 -0.3323  0.3182
 6810SOL    HW132063   3.434   3.300   9.220 -1.8514  0.5608  1.4119
 6810SOL    HW232064   3.381   3.361   9.099 -0.5412 -0.1919  0.5397
 6811SOL     OW32065   4.156   0.445   6.260 -0.0927 -0.3238  0.2595
 6811SOL    HW132066   4.237   0.448   6.208  0.6245  3.8340  1.6144
 6811SOL    HW232067   4.171   0.512   6.326  0.7961 -0.5594  0.3073
 6812SOL     OW32068   4.510   4.300   8.225 -0.0940 -0.1477 -0.0561
 6812SOL    HW132069   4.450   4.230   8.251  0.1923  0.6008  2.5174
 6812SOL    HW232070   4.516   4.349   8.306 -1.0206 -1.5403  0.8549
 6813SOL     OW32071   4.381   0.895   8.746  0.4846  0.1644  0.8867
 6813SOL    HW132072   4.393   0.955   8.673 -1.8052  1.4551  1.5802
 6813SOL    HW232073   4.440   0.829   8.711 -1.9599 -1.8654  0.6237
 6814SOL     OW32074   3.942   2.372   6.461  0.0085 -0.0590  0.2174
 6814SOL    HW132075   4.015   2.314   6.437 -0.7845 -1.1482  0.4182
 6814SOL    HW232076   3.931   2.407   6.373 -1.5844  0.1695  0.5123
 6815SOL     OW32077   0.366   4.658   7.305 -0.8814  0.3709  0.2724
 6815SOL    HW132078   0.346   4.565   7.310  1.5563 -0.1576  0.1242
 6815SOL    HW232079   0.275   4.686   7.296 -1.2549 -1.1136 -0.5749
 6816SOL     OW32080   1.778   4.057   9.164 -0.5588 -0.0229  0.1737
 6816SOL    HW132081   1.784   4.136   9.111  1.7190  0.0956  0.5694
 6816SOL    HW232082   1.774   4.093   9.253 -0.5654  1.5291 -0.4543
 6817SOL     OW32083   2.604   1.608   2.351  0.3529 -0.5373  0.0345
 6817SOL    HW132084   2.595   1.642   2.440 -1.7144 -0.7248 -0.1109
 6817SOL    HW232085   2.695   1.581   2.340 -0.3164 -1.9446 -2.1103
 6818SOL     OW32086   4.601   0.562  16.474  0.4618 -0.4483 -0.6047
 6818SOL    HW132087   4.631   0.644  16.512 -0.4252 -0.1405 -0.5676
 6818SOL    HW232088   4.660   0.542  16.401  0.3765 -1.3261 -0.4371
 6819SOL     OW32089   2.944   1.700  14.046 -0.2420  0.5990 -0.6899
 6819SOL    HW132090   2.998   1.657  13.980  1.3322 -0.5430  1.3593
 6819SOL    HW232091   2.893   1.627  14.081  0.8347  1.5021  2.7320
 6820SOL     OW32092   0.003   2.198   6.805  0.1326 -0.2072 -0.1730
 6820SOL    HW132093   0.035   2.182   6.716  2.2588  0.7448  0.4109
 6820SOL    HW232094   0.077   2.163   6.855  1.4509  2.0076 -0.5603
 6821SOL     OW32095   2.213   1.748  10.594  0.1944 -0.4509 -0.2904
 6821SOL    HW132096   2.130   1.700  10.587 -0.5923  0.7586  0.6179
 6821SOL    HW232097   2.204   1.794  10.678  2.1908 -0.3464 -0.1515
 6822SOL     OW32098   0.436   4.390   9.013  0.0103  0.0405  0.3423
 6822SOL    HW132099   0.391   4.317   9.056 -0.4572 -0.1834 -0.5244
 6822SOL    HW232100   0.522   4.378   9.054  0.0545 -1.9748 -0.3101
 6823SOL     OW32101   2.803   1.065   1.552  0.5400 -0.0133  0.5898
 6823SOL    HW132102   2.890   1.105   1.548  0.2864  0.6413  1.6435
 6823SOL    HW232103   2.808   0.987   1.606  1.5655 -0.5764 -0.3193
 6824SOL     OW32104   1.741   1.192   7.239  0.0310  0.7282  0.0099
 6824SOL    HW132105   1.700   1.112   7.273  0.1791  0.4444 -0.4756
 6824SOL    HW232106   1.830   1.161   7.256  0.5813  1.9209 -0.7145
 6825SOL     OW32107   0.567   4.410  11.646 -0.1465  0.3890  0.2507
 6825SOL    HW132108   0.616   4.444  11.720 -0.4052 -0.1913  0.6869
 6825SOL    HW232109   0.596   4.468  11.575  1.6594 -1.5325 -0.5671
 6826SOL     OW32110   4.389   3.440   0.329  0.2031  0.3174 -0.2876
 6826SOL    HW132111   4.372   3.486   0.246  1.4366 -1.1049 -1.3299
 6826SOL    HW232112   4.396   3.520   0.381  0.4166  0.2996 -0.2867
 6827SOL     OW32113   1.796   3.631   5.583 -0.2896 -0.3574 -0.3863
 6827SOL    HW132114   1.834   3.708   5.540 -0.8614 -0.5420 -1.2089
 6827SOL    HW232115   1.770   3.579   5.507  0.4946  0.2411 -1.0605
 6828SOL     OW32116   0.463   3.871   8.076 -0.8309  0.0267 -0.4893
 6828SOL    HW132117   0.395   3.871   8.008 -0.6842 -1.1593 -0.6274
 6828SOL    HW232118   0.412   3.897   8.153  0.5049  1.9671 -0.2664
 6829SOL     OW32119   0.495   3.415   5.082 -0.3797  0.5710 -0.6708
 6829SOL    HW132120   0.436   3.423   5.007  0.0569  0.2971 -1.0390
 6829SOL    HW232121   0.552   3.490   5.066 -0.2262  0.8632  1.1478
 6830SOL     OW32122   0.024   1.853   6.369  0.5867 -0.2666  0.0517
 6830SOL    HW132123   4.673   1.872   6.334  0.7740  0.8614  0.1856
 6830SOL    HW232124   0.075   1.906   6.307  1.7892 -1.8865 -0.3399
 6831SOL     OW32125   3.614   0.317   8.472  0.2075  0.1554 -0.0013
 6831SOL    HW132126   3.695   0.266   8.475  1.6946  2.6002  1.2284
 6831SOL    HW232127   3.550   0.248   8.490  0.7368 -0.6786 -1.3504
 6832SOL     OW32128   3.560   0.915  16.923 -0.1672  0.0648 -0.2036
 6832SOL    HW132129   3.559   0.840  16.983  0.3212  0.5988  0.4729
 6832SOL    HW232130   3.498   0.879  16.860 -1.1189 -0.1898  0.8712
 6833SOL     OW32131   1.258   1.867   6.645  0.1104 -0.0319  0.4467
 6833SOL    HW132132   1.176   1.867   6.693 -0.1334  1.4364  0.0238
 6833SOL    HW232133   1.275   1.960   6.655 -2.1552  0.0728  3.2451
 6834SOL     OW32134   0.731   3.954   3.034 -0.6510  1.0903  0.7242
 6834SOL    HW132135   0.644   3.951   3.074 -1.4470  1.6009 -0.9764
 6834SOL    HW232136   0.761   3.865   3.053 -1.7054 -0.0687 -2.9646
 6835SOL     OW32137   2.681   1.963   6.933  0.1203 -0.0232 -0.0606
 6835SOL    HW132138   2.652   2.043   6.889  0.2637 -0.2779 -0.6266
 6835SOL    HW232139   2.597   1.929   6.965 -0.6467  1.3466 -0.6105
 6836SOL     OW32140   1.532   1.887  17.712 -0.4209 -0.5779  0.3317
 6836SOL    HW132141   1.589   1.932  17.649 -0.6063 -0.6812  0.0914
 6836SOL    HW232142   1.474   1.960  17.732  0.1502  0.3196 -1.2702
 6837SOL     OW32143   1.998   4.136   1.269 -0.1499 -0.3765 -0.4507
 6837SOL    HW132144   2.087   4.172   1.267  0.4860 -1.9332  0.0773
 6837SOL    HW232145   1.978   4.150   1.176  0.7776  1.7618 -0.3201
 6838SOL     OW32146   2.061   0.393   3.538  0.2903  0.1265  0.0567
 6838SOL    HW132147   2.097   0.373   3.625  2.6263 -2.4231 -1.5028
 6838SOL    HW232148   2.147   0.396   3.497 -0.8341 -1.9818 -2.4854
 6839SOL     OW32149   1.139   2.949  12.269 -0.1209 -0.8590  0.3472
 6839SOL    HW132150   1.069   2.994  12.318 -0.4360 -0.5805 -0.3594
 6839SOL    HW232151   1.089   2.905  12.200  3.3309 -0.8647 -2.1364
 6840SOL     OW32152   3.673   3.807   5.427 -0.7138  0.1273 -0.7393
 6840SOL    HW132153   3.641   3.818   5.517  0.3866 -1.2220 -0.1783
 6840SOL    HW232154   3.620   3.736   5.391  0.6059 -1.3006  0.1226
 6841SOL     OW32155   0.678   2.013  12.272 -0.3201  0.0858  0.4782
 6841SOL    HW132156   0.702   1.940  12.330  2.2664 -0.4675 -1.2846
 6841SOL    HW232157   0.614   2.066  12.319  2.6147  2.8942  1.3425
 6842SOL     OW32158   2.076   0.176  15.650 -0.0988 -0.0567 -0.0446
 6842SOL    HW132159   2.131   0.103  15.621 -1.0689 -1.0323  0.5859
 6842SOL    HW232160   2.043   0.198  15.563 -0.2975 -1.0121 -0.2158
 6843SOL     OW32161   2.062   2.827   7.883  0.0603 -0.8086 -0.3045
 6843SOL    HW132162   2.110   2.833   7.800  0.5664 -2.0901 -0.1120
 6843SOL    HW232163   2.076   2.734   7.898  0.4801 -0.4596  1.3998
 6844SOL     OW32164   0.273   1.944   2.631  0.4719 -0.0946 -0.1077
 6844SOL    HW132165   0.234   2.026   2.662 -0.8841 -1.1636  1.0095
 6844SOL    HW232166   0.213   1.925   2.559  0.1045 -0.9564  0.4230
 6845SOL     OW32167   4.411   0.928  10.911 -0.3449  0.3011  0.3829
 6845SOL    HW132168   4.382   1.011  10.873 -1.6735  0.1225  1.0245
 6845SOL    HW232169   4.503   0.947  10.895 -0.3753  0.6367  0.6093
 6846SOL     OW32170   3.492   3.256  13.452 -0.2981 -0.2328 -0.2386
 6846SOL    HW132171   3.478   3.251  13.547  0.7371 -0.0461 -0.0770
 6846SOL    HW232172   3.404   3.240  13.416 -1.0900 -0.2495  1.6950
 6847SOL     OW32173   3.281   1.845   4.929 -0.2898  0.1460  0.2118
 6847SOL    HW132174   3.188   1.832   4.913 -0.1429 -0.0376 -0.5006
 6847SOL    HW232175   3.278   1.876   5.020 -1.7695 -0.1262  0.2538
 6848SOL     OW32176   0.136   2.445   7.056 -0.3643 -0.2760 -0.4524
 6848SOL    HW132177   0.106   2.357   7.080 -1.4574  0.9366  2.7226
 6848SOL    HW232178   0.052   2.492   7.057 -0.4445 -0.3699 -3.7542
 6849SOL     OW32179   3.459   1.690  16.365 -0.5583  0.2946  0.3894
 6849SOL    HW132180   3.497   1.613  16.409  4.3504  1.9915 -0.8024
 6849SOL    HW232181   3.520   1.752  16.405  1.4301 -1.0251 -0.5911
 6850SOL     OW32182   0.807   1.313   8.143  0.0219  0.3398  0.3812
 6850SOL    HW132183   0.714   1.294   8.156  0.3276 -2.1636 -1.1320
 6850SOL    HW232184   0.797   1.316   8.048  1.8926  1.0233  0.2088
 6851SOL     OW32185   1.124   0.601   4.918 -0.0195 -0.6957 -0.4448
 6851SOL    HW132186   1.174   0.678   4.946  1.6338 -1.8872 -0.1455
 6851SOL    HW232187   1.184   0.532   4.945 -0.0566 -0.8758 -0.8336
 6852SOL     OW32188   3.243   4.693   8.660 -0.0800 -0.3833  0.2560
 6852SOL    HW132189   3.152   4.671   8.640 -0.8632  2.0728  1.1613
 6852SOL    HW232190   3.264   4.629   8.728  1.7925 -0.0496  0.0002
 6853SOL     OW32191   0.075   1.374   4.987 -0.3675 -0.2947 -0.2703
 6853SOL    HW132192   0.140   1.328   5.040 -0.5861 -0.6408 -0.3098
 6853SOL    HW232193   0.129   1.394   4.910 -2.4883  0.2682 -1.6163
 6854SOL     OW32194   0.386   4.419  10.099  0.7594  0.5267 -0.7259
 6854SOL    HW132195   0.343   4.374  10.170  0.6032  0.4461 -0.8715
 6854SOL    HW232196   0.359   4.365  10.025  2.0611  0.5630 -1.2424
 6855SOL     OW32197   0.496   2.070   2.527 -0.1980  0.2439 -0.3242
 6855SOL    HW132198   0.408   2.037   2.545 -0.0387 -0.0468 -0.0752
 6855SOL    HW232199   0.507   2.130   2.601 -1.3301  1.9883 -1.5821
 6856SOL     OW32200   4.194   2.827   7.874  0.2976  0.1133  0.2260
 6856SOL    HW132201   4.270   2.771   7.859  0.3347  0.0887  0.5102
 6856SOL    HW232202   4.171   2.830   7.781  0.5860 -2.6954  0.0618
 6857SOL     OW32203   2.349   2.016   1.821 -0.0420 -0.4368  0.1737
 6857SOL    HW132204   2.271   2.008   1.876  1.2390 -0.4557  1.9894
 6857SOL    HW232205   2.396   2.092   1.857  2.2221 -2.3622  1.2963
 6858SOL     OW32206   0.794   0.323   9.320 -0.3335 -0.4220 -0.1304
 6858SOL    HW132207   0.735   0.257   9.284 -2.1980  0.0141  2.1025
 6858SOL    HW232208   0.866   0.303   9.261  0.1961 -2.8300  1.3225
 6859SOL     OW32209   4.684   1.862  11.118  0.4237 -0.3903 -0.0943
 6859SOL    HW132210   4.654   1.874  11.208  0.8608 -1.4001  0.1878
 6859SOL    HW232211   0.041   1.864  11.136  0.2452 -0.9381  0.9191
 6860SOL     OW32212   2.793   0.965   0.305 -0.5093 -0.5149 -0.2264
 6860SOL    HW132213   2.843   1.023   0.362  2.3491 -2.5651 -0.6253
 6860SOL    HW232214   2.828   0.879   0.329  2.2423  0.2710 -1.3701
 6861SOL     OW32215   2.326   3.570   4.046 -0.1840  0.1281 -0.2328
 6861SOL    HW132216   2.351   3.551   4.136 -0.4127  1.5902  0.1476
 6861SOL    HW232217   2.339   3.664   4.063 -0.7185 -0.1788  1.8663
 6862SOL     OW32218   4.474   0.196   1.507 -0.3439 -0.5024  0.4533
 6862SOL    HW132219   4.387   0.180   1.470 -1.2652 -1.3151  2.9557
 6862SOL    HW232220   4.506   0.278   1.470  1.3041 -0.6904  1.4432
 6863SOL     OW32221   2.199   2.661   3.671 -0.1557 -0.2988  0.2624
 6863SOL    HW132222   2.150   2.627   3.746  0.7906 -1.2425  0.4383
 6863SOL    HW232223   2.202   2.755   3.689 -1.2287 -0.1685 -0.2372
 6864SOL     OW32224   4.309   2.412   7.751 -0.3364  0.1428 -0.0118
 6864SOL    HW132225   4.263   2.487   7.789  1.3793  1.6720 -0.9583
 6864SOL    HW232226   4.375   2.409   7.820  0.7375 -0.9914 -1.1022
 6865SOL     OW32227   0.440   3.135  15.256 -0.2756  0.1014  0.2402
 6865SOL    HW132228   0.524   3.097  15.228  0.2280 -1.2859  3.6046
 6865SOL    HW232229   0.375   3.071  15.227  0.4029 -0.8636  0.8368
 6866SOL     OW32230   3.653   0.251  13.723  0.0733  0.1863  0.0691
 6866SOL    HW132231   3.612   0.170  13.752  1.4067 -0.6819 -0.4419
 6866SOL    HW232232   3.714   0.265  13.795  1.6974 -1.6012 -0.9467
 6867SOL     OW32233   0.562   1.182   8.191  0.6254 -0.7082  0.0277
 6867SOL    HW132234   0.559   1.173   8.286  1.7668 -2.7220 -0.1148
 6867SOL    HW232235   0.598   1.099   8.159 -0.7467 -0.4420 -2.2068
 6868SOL     OW32236   3.225   1.359  11.535  0.5855  0.3814 -0.7792
 6868SOL    HW132237   3.140   1.326  11.565  0.4467  1.7653  0.3689
 6868SOL    HW232238   3.277   1.278  11.538 -0.6234 -0.4242 -1.5099
 6869SOL     OW32239   1.417   1.976   7.561 -0.3700 -0.2130 -0.5325
 6869SOL    HW132240   1.496   1.976   7.616 -1.9914  1.8250  1.7878
 6869SOL    HW232241   1.351   1.940   7.620  0.2565 -0.4405  0.0360
 6870SOL     OW32242   0.050   0.488   2.373 -1.0040  0.3713  0.5229
 6870SOL    HW132243   0.120   0.478   2.437 -0.9641 -2.0013  0.1263
 6870SOL    HW232244   4.702   0.503   2.414 -0.9191 -0.6843  1.0874
 6871SOL     OW32245   0.910   0.717  16.277  0.6146  0.2856  0.4447
 6871SOL    HW132246   0.839   0.660  16.307  0.0529  0.9273  0.3171
 6871SOL    HW232247   0.957   0.648  16.229  2.8011  2.4584 -0.5576
 6872SOL     OW32248   4.309   2.101   8.112 -0.2169  0.4756  0.0640
 6872SOL    HW132249   4.340   2.185   8.079 -2.0259  1.1634  0.1133
 6872SOL    HW232250   4.354   2.034   8.061 -2.4089 -0.3112 -0.8494
 6873SOL     OW32251   1.341   0.295   8.753  0.7338  0.0189 -1.0390
 6873SOL    HW132252   1.308   0.217   8.798  1.5468  1.0869  1.4100
 6873SOL    HW232253   1.360   0.265   8.664  3.5470 -1.1502 -0.0337
 6874SOL     OW32254   2.206   2.043   6.764 -0.1174  0.2536  0.2430
 6874SOL    HW132255   2.146   1.989   6.816  0.2752 -0.2349  0.1964
 6874SOL    HW232256   2.211   2.120   6.821 -1.2612  0.6967 -0.2663
 6875SOL     OW32257   3.028   3.436   9.042 -0.1168 -0.0462  0.4199
 6875SOL    HW132258   2.949   3.467   9.087  0.8412  1.0982  1.3030
 6875SOL    HW232259   3.057   3.359   9.090  2.0346 -0.5950 -1.7894
 6876SOL     OW32260   3.109   1.681   2.503 -0.1879 -0.1221  0.1942
 6876SOL    HW132261   3.161   1.688   2.423 -3.5433 -0.3095 -1.9828
 6876SOL    HW232262   3.158   1.625   2.564  1.2745  0.7496 -0.2060
 6877SOL     OW32263   0.123   0.480   7.535  0.0596  0.2760  0.6493
 6877SOL    HW132264   0.137   0.500   7.443 -0.6748  3.2641  1.1791
 6877SOL    HW232265   0.184   0.408   7.550  1.3131  1.0347 -0.8469
 6878SOL     OW32266   0.202   0.383   2.603  0.1967  0.2737  0.0269
 6878SOL    HW132267   0.111   0.356   2.596 -0.1939  1.4963  0.4179
 6878SOL    HW232268   0.189   0.441   2.678  0.9976 -0.0533  0.4192
 6879SOL     OW32269   0.622   2.224   9.205  0.1634 -0.0082  0.1214
 6879SOL    HW132270   0.570   2.150   9.236  0.7206  0.3876  2.0508
 6879SOL    HW232271   0.545   2.280   9.192  1.5046  2.0194  0.8974
 6880SOL     OW32272   2.048   3.842  16.274 -0.3462  0.4280  0.4448
 6880SOL    HW132273   2.078   3.912  16.332 -1.6394  0.5582  0.9567
 6880SOL    HW232274   2.101   3.853  16.195 -0.0070  0.6818  0.7065
 6881SOL     OW32275   0.874   0.339   5.636 -0.2647  0.2326 -0.0182
 6881SOL    HW132276   0.940   0.390   5.589 -2.7816 -0.5794 -4.4571
 6881SOL    HW232277   0.911   0.342   5.724 -0.7676  2.6589  0.1077
 6882SOL     OW32278   1.567   3.258   4.280  0.0383  0.4212 -0.0566
 6882SOL    HW132279   1.627   3.255   4.206  1.0986 -3.6328  0.9419
 6882SOL    HW232280   1.539   3.166   4.286 -3.3063  1.5815  2.3600
 6883SOL     OW32281   3.621   1.290   6.732  0.2259 -0.0922 -0.3974
 6883SOL    HW132282   3.616   1.290   6.636 -1.8471 -1.5967 -0.2680
 6883SOL    HW232283   3.710   1.319   6.754  0.0689 -0.9431  1.3164
 6884SOL     OW32284   1.157   1.001  14.205 -0.1317 -0.0631  0.0115
 6884SOL    HW132285   1.092   0.939  14.237  2.5994 -2.1499  1.4124
 6884SOL    HW232286   1.092   1.052  14.156 -0.1843  0.1249  0.2772
 6885SOL     OW32287   2.876   1.997   8.694  0.2052 -0.2023  0.8171
 6885SOL    HW132288   2.877   2.068   8.757  0.3598  0.1449  0.4291
 6885SOL    HW232289   2.960   1.956   8.715  1.2118  2.3639  1.7338
 6886SOL     OW32290   2.811   3.462   6.193 -0.0351  0.4723  0.5186
 6886SOL    HW132291   2.726   3.496   6.165  0.1096  0.6220  0.2666
 6886SOL    HW232292   2.868   3.456   6.117  1.4569  0.6828  1.6124
 6887SOL     OW32293   4.559   0.288   3.747  0.3229 -0.5801  0.1430
 6887SOL    HW132294   4.615   0.253   3.816 -0.1767  1.6598  1.6888
 6887SOL    HW232295   4.478   0.237   3.741 -1.0723  1.4766  1.6248
 6888SOL     OW32296   2.886   4.144   3.983  0.7167 -0.1664  0.2414
 6888SOL    HW132297   2.828   4.069   3.997 -0.9025  1.3061  1.4212
 6888SOL    HW232298   2.896   4.169   4.075  0.1914 -0.3409  0.3508
 6889SOL     OW32299   3.575   1.752  17.101  0.0996 -0.5085  0.3955
 6889SOL    HW132300   3.617   1.828  17.060 -0.1927 -0.3704  0.3580
 6889SOL    HW232301   3.639   1.693  17.061 -0.9891 -1.3813 -0.0609
 6890SOL     OW32302   2.790   0.177   7.102  0.1355 -0.0341 -0.2238
 6890SOL    HW132303   2.716   0.125   7.133 -0.1738  0.4071 -0.2170
 6890SOL    HW232304   2.768   0.183   7.009  0.0697  3.5426  0.0172
 6891SOL     OW32305   2.916   0.388  10.244  0.1243 -0.4053 -0.2077
 6891SOL    HW132306   3.000   0.367  10.283  0.7738 -0.8096 -1.8158
 6891SOL    HW232307   2.882   0.299  10.229  1.5643 -0.9436 -0.2581
 6892SOL     OW32308   3.374   2.988  11.867 -0.3493 -0.1977  0.3946
 6892SOL    HW132309   3.441   2.943  11.815  0.3004  2.1973 -0.8803
 6892SOL    HW232310   3.317   3.006  11.792  1.5834 -1.3131 -1.3536
 6893SOL     OW32311   0.085   4.623   0.953 -0.2691  0.5470 -0.2091
 6893SOL    HW132312   0.077   4.707   0.906 -1.1863  1.1400  1.0128
 6893SOL    HW232313   0.080   4.655   1.043 -0.8556  0.1509 -0.0994
 6894SOL     OW32314   4.430   1.126   1.414 -0.0080 -0.2103  0.5396
 6894SOL    HW132315   4.469   1.212   1.425  0.1054 -0.2365  0.3383
 6894SOL    HW232316   4.335   1.138   1.403  0.3120 -0.1639 -2.1418
 6895SOL     OW32317   0.949   2.604  14.638 -0.3677 -0.0551 -0.2748
 6895SOL    HW132318   0.915   2.692  14.620 -1.9962 -0.9027 -1.3300
 6895SOL    HW232319   0.877   2.545  14.614 -1.7667  1.7238 -0.4622
 6896SOL     OW32320   0.512   0.074   1.805 -0.3077 -0.0766  0.3133
 6896SOL    HW132321   0.437   0.096   1.860 -1.2150  0.4372 -1.1418
 6896SOL    HW232322   0.584   0.119   1.850  1.3498 -1.5848 -0.8255
 6897SOL     OW32323   4.028   2.927   6.407  0.0446  0.0943  0.0527
 6897SOL    HW132324   4.031   3.004   6.463 -0.2572  0.8460 -0.9566
 6897SOL    HW232325   3.967   2.956   6.339  3.1161  1.3301 -2.1846
 6898SOL     OW32326   4.203   3.062  14.708 -0.2182 -0.0655 -0.1039
 6898SOL    HW132327   4.151   2.983  14.724  0.8652 -1.0411 -1.4140
 6898SOL    HW232328   4.153   3.100  14.636 -0.3375  3.9012  2.1028
 6899SOL     OW32329   1.976   4.055   3.575  0.4534 -0.1845 -0.5481
 6899SOL    HW132330   1.933   4.137   3.598 -1.0250 -0.9589 -0.5918
 6899SOL    HW232331   1.901   4.001   3.550 -0.3237  1.4652 -1.7594
 6900SOL     OW32332   0.852   3.454   6.318 -0.3042  0.0182  0.1641
 6900SOL    HW132333   0.909   3.525   6.288  2.2692 -0.8303  3.0836
 6900SOL    HW232334   0.797   3.456   6.241 -0.0160 -0.7187 -0.0597
 6901SOL     OW32335   3.329   4.240   2.859  0.4401  0.0104 -0.2705
 6901SOL    HW132336   3.380   4.303   2.808 -0.8748  0.9434 -0.4079
 6901SOL    HW232337   3.268   4.214   2.790 -0.3046  1.7997 -0.2745
 6902SOL     OW32338   1.486   2.140   1.391  0.0875 -0.3757  0.2139
 6902SOL    HW132339   1.532   2.221   1.409 -1.0402  0.4795 -0.7341
 6902SOL    HW232340   1.489   2.101   1.479  1.1366 -0.2416  0.2370
 6903SOL     OW32341   1.239   4.020   2.292 -0.9224  0.4384  0.4035
 6903SOL    HW132342   1.311   4.061   2.243  0.1130  0.6044  2.0468
 6903SOL    HW232343   1.175   4.090   2.283 -0.9516  0.4445  0.6707
 6904SOL     OW32344   0.808   2.197  14.224  0.3098 -0.0547  0.0151
 6904SOL    HW132345   0.748   2.194  14.299 -0.3444  1.0340 -0.4682
 6904SOL    HW232346   0.737   2.194  14.160 -1.0082  0.1879  1.4777
 6905SOL     OW32347   1.965   2.243   2.402 -0.0013 -0.5358 -0.4988
 6905SOL    HW132348   2.000   2.267   2.487  0.9304  0.1671 -1.0839
 6905SOL    HW232349   2.011   2.161   2.387 -0.4592 -1.1323  1.3665
 6906SOL     OW32350   1.248   0.096   9.741  0.0997 -0.2069  0.0234
 6906SOL    HW132351   1.291   0.073   9.823  2.1051  1.1951 -0.6197
 6906SOL    HW232352   1.174   0.151   9.767  0.7619  0.7884 -0.1682
 6907SOL     OW32353   2.544   2.829   7.598  0.2375 -0.6946  0.0794
 6907SOL    HW132354   2.612   2.803   7.660  0.9499 -0.7171 -0.7027
 6907SOL    HW232355   2.479   2.762   7.622 -0.6556 -0.0787 -0.6069
 6908SOL     OW32356   0.599   1.621  13.837 -0.3319  0.0589 -0.5298
 6908SOL    HW132357   0.674   1.615  13.897  1.0431  0.4077 -2.2269
 6908SOL    HW232358   0.570   1.530  13.837  0.5132 -0.2069 -0.7012
 6909SOL     OW32359   3.069   1.521   6.098 -0.0806 -0.3664 -0.2096
 6909SOL    HW132360   3.158   1.502   6.068 -0.7303 -0.0031 -2.3785
 6909SOL    HW232361   3.049   1.604   6.055  2.6214  0.3626 -0.0519
 6910SOL     OW32362   2.118   2.791   0.934 -0.0640 -0.1349 -0.5144
 6910SOL    HW132363   2.075   2.863   0.980 -0.5116  0.5106 -1.9558
 6910SOL    HW232364   2.171   2.848   0.878 -0.9452 -0.4764 -1.6969
 6911SOL     OW32365   2.515   3.834   2.333 -0.2233  0.0775  0.0325
 6911SOL    HW132366   2.552   3.756   2.290 -2.3304  0.0576 -1.7313
 6911SOL    HW232367   2.491   3.797   2.418  0.0348  0.6529  0.3546
 6912SOL     OW32368   4.587   3.952   7.295 -0.6915 -0.0512 -0.0990
 6912SOL    HW132369   4.629   3.868   7.309 -1.7498 -0.2236  1.9462
 6912SOL    HW232370   4.531   3.962   7.372 -0.2054 -1.2976  0.4049
 6913SOL     OW32371   0.446   1.706   5.181 -0.3146  0.4747 -0.0626
 6913SOL    HW132372   0.506   1.635   5.159 -3.1773 -1.6242 -1.1417
 6913SOL    HW232373   0.414   1.669   5.263  0.7587  0.5685  0.3942
 6914SOL     OW32374   4.596   2.007   8.345  0.4710  1.0107 -0.7333
 6914SOL    HW132375   4.555   1.924   8.367  1.3569  0.8840  0.4924
 6914SOL    HW232376   4.639   1.982   8.263 -2.1102 -0.5798 -1.5708
 6915SOL     OW32377   2.144   3.937   2.067  0.3728  0.8890 -0.0971
 6915SOL    HW132378   2.201   3.965   2.138  0.8687  0.1412 -0.2023
 6915SOL    HW232379   2.186   3.854   2.045  1.1482  1.1710  0.3188
 6916SOL     OW32380   1.052   2.154   7.708 -0.4954  0.0376 -0.0950
 6916SOL    HW132381   1.100   2.204   7.643  0.9515  2.0864  2.5432
 6916SOL    HW232382   1.122   2.114   7.760  0.5619  0.4315 -1.2276
 6917SOL     OW32383   0.041   0.698   3.429  0.9995 -0.1191  0.6465
 6917SOL    HW132384   4.734   0.613   3.436  1.4100 -0.3525  0.3726
 6917SOL    HW232385   4.709   0.760   3.451  3.3387  2.5391  0.4385
 6918SOL     OW32386   1.978   3.327  10.661 -0.3370  0.2874  0.1897
 6918SOL    HW132387   1.923   3.273  10.604  1.2930 -1.4449  0.2556
 6918SOL    HW232388   1.923   3.329  10.739  0.0235  2.6791  0.3997
 6919SOL     OW32389   3.184   0.467   5.559  0.0649  0.0303  0.1455
 6919SOL    HW132390   3.122   0.532   5.528  2.6767  0.4223 -4.2635
 6919SOL    HW232391   3.213   0.434   5.474 -3.2388 -1.3460 -0.4314
 6920SOL     OW32392   1.407   3.803   8.304 -0.3192  0.2278 -0.0168
 6920SOL    HW132393   1.423   3.896   8.318 -1.0907  0.7081 -2.3911
 6920SOL    HW232394   1.440   3.802   8.214 -0.7181  0.8745 -0.1705
 6921SOL     OW32395   4.166   1.917   3.853  0.1688 -0.2110 -0.2651
 6921SOL    HW132396   4.177   1.849   3.786 -0.0255 -0.1956 -0.3127
 6921SOL    HW232397   4.075   1.945   3.842  0.2614  0.6099  1.0680
 6922SOL     OW32398   1.248   3.135   4.713  0.4911  0.4252 -0.5832
 6922SOL    HW132399   1.228   3.149   4.806 -0.9228 -0.2451 -0.7858
 6922SOL    HW232400   1.202   3.209   4.673 -3.5002 -1.2539  0.8341
 6923SOL     OW32401   1.664   0.236  16.246 -0.2430 -0.5762 -0.1368
 6923SOL    HW132402   1.710   0.277  16.173 -1.2922 -1.3294 -1.2121
 6923SOL    HW232403   1.574   0.229  16.214  0.1698  1.3936 -1.6948
 6924SOL     OW32404   2.281   3.458   4.550 -0.2121  0.5812 -0.1800
 6924SOL    HW132405   2.189   3.483   4.542  0.2883  2.5378  0.4033
 6924SOL    HW232406   2.324   3.522   4.607  2.4849 -0.1342 -1.3988
 6925SOL     OW32407   1.474   3.134   5.674 -0.0261  0.5868 -0.5979
 6925SOL    HW132408   1.476   3.106   5.583  2.7452 -2.1423  0.2862
 6925SOL    HW232409   1.408   3.203   5.668  0.2930  0.7229 -2.7487
 6926SOL     OW32410   1.344   3.460   6.828 -0.0588  0.5331  0.3734
 6926SOL    HW132411   1.265   3.418   6.794 -0.0804  2.4928 -1.9947
 6926SOL    HW232412   1.320   3.487   6.916 -2.3935 -0.6082  0.0716
 6927SOL     OW32413   4.370   2.957  14.902 -0.3823 -0.2727  0.2971
 6927SOL    HW132414   4.439   2.929  14.842  0.7671  0.3444  1.3058
 6927SOL    HW232415   4.309   3.003  14.845  2.2353  1.7668 -0.8565
 6928SOL     OW32416   0.713   1.527   4.221  0.1603 -0.2510 -0.8538
 6928SOL    HW132417   0.700   1.436   4.193 -2.3508  0.2207 -1.2541
 6928SOL    HW232418   0.808   1.530   4.209  0.2938 -1.6975 -0.1727
 6929SOL     OW32419   0.241   2.655   4.520 -0.3523  0.0949  0.2117
 6929SOL    HW132420   0.207   2.726   4.466  0.2413 -0.4923 -0.9377
 6929SOL    HW232421   0.330   2.690   4.534  1.3165 -3.7351 -0.9122
 6930SOL     OW32422   2.996   0.681  12.363  0.1557  0.3829  0.2300
 6930SOL    HW132423   3.018   0.603  12.312  3.4768  0.6615  1.2705
 6930SOL    HW232424   3.072   0.693  12.420 -0.9249  0.0292  1.7304
 6931SOL     OW32425   2.592   1.001   8.417  0.1279 -0.4043 -0.0294
 6931SOL    HW132426   2.622   1.035   8.333  0.9172  0.1192  0.4666
 6931SOL    HW232427   2.617   0.909   8.403  1.6634 -0.0959  0.6828
 6932SOL     OW32428   0.009   2.133   2.420  0.4429  0.4908  0.2160
 6932SOL    HW132429   0.042   2.047   2.396 -0.9987 -0.3120  1.1412
 6932SOL    HW232430   0.085   2.182   2.451  0.2638  0.2731  0.9868
 6933SOL     OW32431   0.550   3.506   4.377  0.0287  0.6047  0.4214
 6933SOL    HW132432   0.491   3.550   4.438  0.4130  4.3624 -1.9005
 6933SOL    HW232433   0.510   3.425   4.347  0.4435  0.5781 -0.0595
 6934SOL     OW32434   0.716   3.287   7.438 -0.2497 -0.2291 -0.2451
 6934SOL    HW132435   0.737   3.256   7.526 -3.5890 -0.5908  0.4373
 6934SOL    HW232436   0.785   3.239   7.392  0.1976 -3.2444  3.5683
 6935SOL     OW32437   3.400   2.733   8.494 -0.4502  0.2600 -0.0223
 6935SOL    HW132438   3.354   2.703   8.416 -0.1069 -0.2926 -0.0116
 6935SOL    HW232439   3.445   2.651   8.514 -0.6901  0.1196 -0.0681
 6936SOL     OW32440   3.995   2.730  16.299 -0.5676  0.0440 -0.6337
 6936SOL    HW132441   3.994   2.825  16.303  1.4025  0.1132 -1.7269
 6936SOL    HW232442   4.084   2.729  16.335 -1.1304  0.6272  0.7709
 6937SOL     OW32443   3.925   1.553   4.712 -0.1876  0.0445  0.0418
 6937SOL    HW132444   4.020   1.563   4.724 -0.5160 -0.3983  3.1120
 6937SOL    HW232445   3.902   1.582   4.800  1.4120 -1.6629  1.0397
 6938SOL     OW32446   3.889   0.095   2.760  0.0192 -0.3910  0.2601
 6938SOL    HW132447   3.823   0.120   2.826  1.0749  1.6936  0.5385
 6938SOL    HW232448   3.948   0.035   2.807  0.6401  0.3432  0.4178
 6939SOL     OW32449   1.073   3.234   1.546 -0.2165 -0.1517  0.6926
 6939SOL    HW132450   1.088   3.248   1.639 -0.8975  0.4218  0.7158
 6939SOL    HW232451   0.981   3.211   1.537 -0.2461 -0.0052  0.6155
 6940SOL     OW32452   1.781   4.517  16.262  0.0506 -0.4850  0.2691
 6940SOL    HW132453   1.782   4.454  16.334  1.2358 -1.5721 -0.6978
 6940SOL    HW232454   1.722   4.588  16.288  1.1477  0.8279 -0.8279
 6941SOL     OW32455   3.441   4.525  10.180  0.3241 -0.0324  0.0498
 6941SOL    HW132456   3.384   4.527  10.257  1.8731 -2.8673  1.2631
 6941SOL    HW232457   3.526   4.530  10.225  0.7995 -0.3599 -0.8096
 6942SOL     OW32458   2.855   4.628   9.340 -1.1465 -0.2144  0.0864
 6942SOL    HW132459   2.878   4.708   9.293 -0.5477 -0.3881  0.0889
 6942SOL    HW232460   2.790   4.594   9.279  0.1451  1.4510 -2.2347
 6943SOL     OW32461   2.542   3.616  12.562  0.6539  0.1936  0.2436
 6943SOL    HW132462   2.580   3.535  12.528 -1.7467 -0.9680  0.3360
 6943SOL    HW232463   2.535   3.666  12.481 -1.8182  0.2752  0.4952
 6944SOL     OW32464   0.021   3.476  11.047  0.7284  0.0626  0.2233
 6944SOL    HW132465   4.674   3.452  11.006  0.3061 -0.9578  1.7067
 6944SOL    HW232466   0.061   3.391  11.063  1.9455  0.7245  0.6432
 6945SOL     OW32467   3.538   3.693   5.665 -0.2631  0.1135  1.0386
 6945SOL    HW132468   3.461   3.746   5.645 -0.1530 -0.8254 -1.8728
 6945SOL    HW232469   3.568   3.739   5.744  1.7101 -0.4962  0.6289
 6946SOL     OW32470   2.264   1.040   3.502  0.3438 -0.5518 -0.0883
 6946SOL    HW132471   2.276   1.028   3.597  2.2960  2.8973  0.0750
 6946SOL    HW232472   2.214   0.959   3.489  0.3111 -0.9902  2.5757
 6947SOL     OW32473   0.719   2.941   1.265 -0.5997 -0.0608 -0.1653
 6947SOL    HW132474   0.697   3.034   1.260 -1.8923 -0.4205 -1.0082
 6947SOL    HW232475   0.633   2.904   1.283 -1.6666  2.3182 -0.2766
 6948SOL     OW32476   1.632   0.706   9.478 -0.8091  0.1124 -0.9054
 6948SOL    HW132477   1.705   0.752   9.436  0.6025 -1.1588  0.1319
 6948SOL    HW232478   1.647   0.613   9.459  2.4873  0.4115  0.1205
 6949SOL     OW32479   1.420   2.347   4.801  0.0026 -0.0461  0.2194
 6949SOL    HW132480   1.498   2.402   4.803 -0.3784  0.5643 -1.1077
 6949SOL    HW232481   1.352   2.409   4.830 -0.1940 -0.7559  1.2646
 6950SOL     OW32482   2.168   3.366   9.103 -0.3375 -0.4854 -0.0657
 6950SOL    HW132483   2.108   3.293   9.113  0.6195 -1.2663 -0.0203
 6950SOL    HW232484   2.183   3.380   9.009  0.6163  0.1189  0.1628
 6951SOL     OW32485   2.892   4.645  12.673 -0.0855  0.5129 -0.4311
 6951SOL    HW132486   2.961   4.675  12.613  0.8624 -1.0073 -0.0954
 6951SOL    HW232487   2.831   4.716  12.653 -0.2970  0.3464 -0.3706
 6952SOL     OW32488   4.374   4.718   3.887 -0.3021 -0.3515 -0.2965
 6952SOL    HW132489   4.350   4.654   3.821 -0.6204  0.3694 -0.8824
 6952SOL    HW232490   4.436   0.035   3.839  1.7884 -1.2410  1.4150
 6953SOL     OW32491   2.509   2.311   2.003  0.3916 -0.8331 -0.3450
 6953SOL    HW132492   2.582   2.291   2.062  1.3722  1.4867 -0.7871
 6953SOL    HW232493   2.555   2.323   1.920 -0.6347 -1.2811 -0.9724
 6954SOL     OW32494   1.975   3.154   2.073  0.0969 -0.5141 -0.0118
 6954SOL    HW132495   2.035   3.094   2.029 -0.6006 -0.7262 -0.6756
 6954SOL    HW232496   1.998   3.240   2.040 -0.9003 -0.3022 -0.1639
 6955SOL     OW32497   2.382   4.075   1.922  0.3086  0.1943 -0.3048
 6955SOL    HW132498   2.340   4.112   1.844 -1.5265 -1.8838 -0.2910
 6955SOL    HW232499   2.319   4.008   1.949 -0.4342  1.0701  0.1464
 6956SOL     OW32500   3.428   1.133   5.455 -0.3368  0.0584  0.3592
 6956SOL    HW132501   3.444   1.079   5.377 -1.0872  0.9523 -0.4150
 6956SOL    HW232502   3.399   1.212   5.409  0.4743  0.6235  0.8352
 6957SOL     OW32503   4.506   1.923   6.896 -0.2529  0.1485 -0.0924
 6957SOL    HW132504   4.589   1.900   6.854 -0.1434 -2.3734  1.4629
 6957SOL    HW232505   4.455   1.923   6.814 -0.2873  0.4690 -0.0707
 6958SOL     OW32506   3.927   2.516   7.541  0.2617 -0.4356  0.3733
 6958SOL    HW132507   3.982   2.468   7.478 -1.7046 -1.9023 -0.2293
 6958SOL    HW232508   3.977   2.504   7.621  0.8585  0.2000  0.0965
 6959SOL     OW32509   4.305   0.550   8.217  0.3030 -0.0403 -0.1660
 6959SOL    HW132510   4.318   0.456   8.220 -2.3844 -0.4729 -1.9390
 6959SOL    HW232511   4.393   0.578   8.190  0.5062 -0.9149 -0.4141
 6960SOL     OW32512   1.308   0.181   2.242 -0.2942 -0.2223 -0.4326
 6960SOL    HW132513   1.258   0.106   2.272  2.4294 -1.0228  2.0942
 6960SOL    HW232514   1.286   0.246   2.309  1.0216  0.4505 -0.6470
 6961SOL     OW32515   4.421   2.723   9.564 -0.2361  0.1930 -0.5884
 6961SOL    HW132516   4.500   2.750   9.519 -1.0361  2.5661 -0.5788
 6961SOL    HW232517   4.439   2.760   9.651  1.3523  2.5498 -1.9375
 6962SOL     OW32518   0.829   1.264   4.147 -0.4983  0.1193  0.2882
 6962SOL    HW132519   0.839   1.259   4.242 -4.3783 -0.3480  0.6715
 6962SOL    HW232520   0.762   1.197   4.133 -0.6913 -0.0272  1.8270
 6963SOL     OW32521   1.721   1.787   0.155 -0.2323  0.1753 -0.2378
 6963SOL    HW132522   1.651   1.821   0.099 -0.2558  1.1124  0.3617
 6963SOL    HW232523   1.671   1.742   0.223  1.6455  2.7827  2.8318
 6964SOL     OW32524   2.553   3.393  11.690  0.6262  0.2057  0.9115
 6964SOL    HW132525   2.559   3.394  11.595  0.7746  1.1234  0.9314
 6964SOL    HW232526   2.477   3.336  11.702 -1.7413  2.8240 -1.7975
 6965SOL     OW32527   4.311   2.325   8.342 -0.1442  0.0001  0.1567
 6965SOL    HW132528   4.320   2.317   8.247  0.4036  0.6710  0.1540
 6965SOL    HW232529   4.215   2.324   8.336 -0.1597  2.1520  0.1813
 6966SOL     OW32530   0.088   2.530   0.770  0.3259 -1.0556 -0.1071
 6966SOL    HW132531   0.069   2.595   0.838  1.8229 -0.6284 -0.0966
 6966SOL    HW232532   0.108   2.453   0.824 -1.0060 -1.3955 -0.0997
 6967SOL     OW32533   4.604   4.519   4.330  0.5069 -0.6958  0.6142
 6967SOL    HW132534   4.543   4.562   4.270  1.4687 -0.7681 -0.4221
 6967SOL    HW232535   4.681   4.488   4.283 -0.6630 -2.3482 -0.1937
 6968SOL     OW32536   4.686   3.605  17.508 -0.0952 -0.3232 -0.3065
 6968SOL    HW132537   0.006   3.627  17.434  0.8545 -1.5760  0.0371
 6968SOL    HW232538   4.726   3.540  17.566 -1.6058 -1.3334 -0.3898
 6969SOL     OW32539   3.277   2.048  17.677  0.3867  0.2878 -0.3774
 6969SOL    HW132540   3.264   1.962  17.638  0.7918 -0.3299  0.8376
 6969SOL    HW232541   3.221   2.046   0.008  0.0301 -1.5710 -0.6887
 6970SOL     OW32542   2.847   3.683   0.778 -0.0678 -0.3388 -0.5833
 6970SOL    HW132543   2.800   3.602   0.761  1.0592 -1.2598  0.6863
 6970SOL    HW232544   2.795   3.742   0.723 -0.4608  1.1533  1.3817
 6971SOL     OW32545   0.833   4.072   9.166 -0.4958 -0.2513 -0.2526
 6971SOL    HW132546   0.790   4.093   9.083 -1.5831 -1.4374  0.0195
 6971SOL    HW232547   0.925   4.070   9.140 -0.7863  0.2253 -1.3424
 6972SOL     OW32548   4.366   4.643   1.081 -0.4715  0.3456  0.3866
 6972SOL    HW132549   4.275   4.618   1.070  0.2088 -1.5410 -1.0467
 6972SOL    HW232550   4.364   4.643   1.177  2.3494  1.1577  0.4554
 6973SOL     OW32551   4.322   2.992   4.928  0.0341  0.2195  0.0812
 6973SOL    HW132552   4.230   3.015   4.918 -0.8819 -2.4876  2.4597
 6973SOL    HW232553   4.378   3.069   4.914 -1.7774  1.4875 -0.2217
 6974SOL     OW32554   3.162   2.992  15.739 -0.1598  0.2477 -0.1999
 6974SOL    HW132555   3.229   2.977  15.673  0.7113  1.8739  0.2948
 6974SOL    HW232556   3.205   3.070  15.775 -1.0471  0.7313 -0.1986
 6975SOL     OW32557   4.491   1.579  10.506  0.0921  0.3248 -0.2586
 6975SOL    HW132558   4.421   1.641  10.525 -0.6077  0.1234 -2.1261
 6975SOL    HW232559   4.461   1.535  10.426  1.2728 -0.7049 -0.1399
 6976SOL     OW32560   2.591   4.364   6.715  0.3957  0.2269  0.4651
 6976SOL    HW132561   2.613   4.289   6.771 -0.4910  1.5009  2.5310
 6976SOL    HW232562   2.588   4.427   6.787  1.5601  0.4786  0.2965
 6977SOL     OW32563   2.924   3.738   2.445 -0.0833 -0.0502  0.0439
 6977SOL    HW132564   2.831   3.724   2.462 -0.1849  0.5430 -0.0274
 6977SOL    HW232565   2.957   3.652   2.472  0.6135  0.0347 -0.5395
 6978SOL     OW32566   0.752   4.452   2.928 -0.1665  0.2922 -0.2723
 6978SOL    HW132567   0.815   4.383   2.946  1.0469  1.2618 -0.8210
 6978SOL    HW232568   0.680   4.431   2.988  2.3790  0.9648  3.0136
 6979SOL     OW32569   3.414   1.067   3.823  0.2823  0.3385  0.0275
 6979SOL    HW132570   3.379   1.021   3.899 -2.2308  0.2324 -1.1960
 6979SOL    HW232571   3.506   1.067   3.850  0.0011  1.3362  1.0175
 6980SOL     OW32572   4.225   0.948  11.134  0.2259 -0.1896  0.8620
 6980SOL    HW132573   4.312   0.967  11.170  0.3866 -1.1400  0.9693
 6980SOL    HW232574   4.235   0.942  11.039  1.9286 -0.4358  1.0731
 6981SOL     OW32575   2.793   1.659   8.888  0.0641  0.0151  0.3283
 6981SOL    HW132576   2.742   1.697   8.817 -0.9608  1.2134  1.7046
 6981SOL    HW232577   2.731   1.676   8.959  1.0560  0.8731  0.9870
 6982SOL     OW32578   3.694   0.832   8.488  0.2486 -0.6653 -0.0395
 6982SOL    HW132579   3.754   0.760   8.470 -1.4121 -1.8151 -1.0101
 6982SOL    HW232580   3.757   0.897   8.517 -0.7030  0.6810 -1.0331
 6983SOL     OW32581   1.893   4.610   3.875 -0.4326  0.3688 -0.0444
 6983SOL    HW132582   1.978   4.641   3.846 -2.1198  3.7303 -1.3289
 6983SOL    HW232583   1.873   4.682   3.935 -1.1832 -0.2888  0.5068
 6984SOL     OW32584   3.304   1.416   4.986 -0.0655 -0.0799 -0.4587
 6984SOL    HW132585   3.274   1.332   4.951  1.1092 -0.2217 -1.1134
 6984SOL    HW232586   3.370   1.450   4.925  0.2041 -0.8526 -0.5923
 6985SOL     OW32587   0.140   2.291  15.190  0.0156  0.5423 -0.6436
 6985SOL    HW132588   0.130   2.202  15.157  0.8368  0.1096  0.2677
 6985SOL    HW232589   0.128   2.334  15.106  1.1966  3.4236  0.6484
 6986SOL     OW32590   3.255   0.967   1.104  0.5208  0.1099  0.4370
 6986SOL    HW132591   3.202   0.906   1.155 -1.0944  1.7688  0.7732
 6986SOL    HW232592   3.234   0.935   1.017 -2.2831  0.1425  1.1072
 6987SOL     OW32593   3.723   0.603   9.529 -0.4431 -0.3308  0.2667
 6987SOL    HW132594   3.720   0.523   9.476  0.5473  0.7567 -1.3937
 6987SOL    HW232595   3.732   0.669   9.461  2.0738  0.1661  1.0833
 6988SOL     OW32596   1.014   3.151  15.913 -0.3316  0.0449  0.0748
 6988SOL    HW132597   0.958   3.102  15.854 -0.3053 -1.2774  1.1384
 6988SOL    HW232598   1.055   3.087  15.972 -2.5658 -0.0570  1.5075
 6989SOL     OW32599   2.240   3.807   7.195 -0.8616  0.0278 -0.2995
 6989SOL    HW132600   2.319   3.854   7.170 -0.8807  1.0845  1.5948
 6989SOL    HW232601   2.187   3.877   7.235  0.0284  1.5943 -1.9040
 6990SOL     OW32602   1.211   0.429   6.220 -0.3307 -0.0272  0.1164
 6990SOL    HW132603   1.272   0.485   6.172 -0.3871  1.7889  2.1955
 6990SOL    HW232604   1.142   0.490   6.245 -0.5412  0.5663 -1.8779
 6991SOL     OW32605   4.127   3.775   7.205 -0.1840  0.0235 -0.1044
 6991SOL    HW132606   4.132   3.778   7.301  1.6798 -1.3214 -0.1540
 6991SOL    HW232607   4.160   3.688   7.181  1.4192  1.1672 -1.9760
 6992SOL     OW32608   2.020   3.534   4.501  0.5120  0.5658 -0.3549
 6992SOL    HW132609   1.989   3.465   4.442 -0.3334  1.6887 -1.2451
 6992SOL    HW232610   1.937   3.573   4.529 -0.2946 -1.4090 -0.0218
 6993SOL     OW32611   1.841   2.719   2.803  0.2463  0.3182 -0.6851
 6993SOL    HW132612   1.790   2.793   2.770 -1.9238 -0.7737  0.1653
 6993SOL    HW232613   1.767   2.670   2.840  1.4732 -0.1764  1.0835
 6994SOL     OW32614   1.607   1.377   5.485  0.1882 -0.0845 -0.0710
 6994SOL    HW132615   1.693   1.395   5.447  0.8990 -1.9907  0.6616
 6994SOL    HW232616   1.570   1.456   5.445 -0.9645 -0.7011 -0.2245
 6995SOL     OW32617   2.149   1.711   4.191  0.6298 -0.0804 -0.6383
 6995SOL    HW132618   2.107   1.652   4.128 -2.0194  1.8479 -0.6696
 6995SOL    HW232619   2.092   1.689   4.265  1.8579 -2.1854 -0.3036
 6996SOL     OW32620   1.827   3.376  12.029  0.8844 -0.4844 -0.1271
 6996SOL    HW132621   1.918   3.402  12.046  0.1900  2.4727 -0.9349
 6996SOL    HW232622   1.840   3.340  11.941  0.0936  1.3613 -0.9965
 6997SOL     OW32623   0.606   1.076   9.056  0.1834 -0.4108 -0.2100
 6997SOL    HW132624   0.661   1.044   9.128  0.8297  0.7152 -0.2129
 6997SOL    HW232625   0.625   1.168   9.040 -0.3790 -0.3526 -0.5407
 6998SOL     OW32626   3.913   0.815   6.010 -0.0632 -0.2607 -0.4225
 6998SOL    HW132627   3.939   0.886   5.952  0.0865 -0.5175 -0.6714
 6998SOL    HW232628   3.843   0.860   6.058  0.4996  1.3036 -1.0671
 6999SOL     OW32629   2.540   3.639   3.180  0.0885 -0.1967  0.3886
 6999SOL    HW132630   2.545   3.701   3.108  0.0950 -0.5443  0.0870
 6999SOL    HW232631   2.490   3.688   3.245 -0.2622 -1.8457  1.3776
 7000SOL     OW32632   1.137   1.650   9.808 -0.2830 -0.3395  0.5692
 7000SOL    HW132633   1.067   1.695   9.854 -0.3630 -0.5474  0.6472
 7000SOL    HW232634   1.195   1.721   9.778 -1.4590  0.7958  0.9788
 7001SOL     OW32635   1.080   2.611  14.906  0.2743 -0.2180  0.0279
 7001SOL    HW132636   1.112   2.701  14.896  1.5506 -0.7192 -0.4221
 7001SOL    HW232637   1.035   2.593  14.824  1.3510  0.9039 -0.8059
 7002SOL     OW32638   0.427   4.337   3.506 -0.5393 -0.0973  0.0737
 7002SOL    HW132639   0.456   4.272   3.571  0.0755 -0.3383 -0.4368
 7002SOL    HW232640   0.340   4.302   3.491 -0.0143 -1.0163 -0.8486
 7003SOL     OW32641   0.392   3.384   8.469 -0.2826  0.6784  0.1735
 7003SOL    HW132642   0.330   3.434   8.522 -1.0472 -0.1973  0.1071
 7003SOL    HW232643   0.469   3.402   8.522  0.9043 -1.7532 -0.7207
 7004SOL     OW32644   0.009   4.556   3.771 -0.4758 -0.1397 -0.6400
 7004SOL    HW132645   0.038   4.468   3.796  1.1777  0.0159 -1.9704
 7004SOL    HW232646   4.663   4.535   3.727 -1.8513 -0.6482  2.1977
 7005SOL     OW32647   4.623   1.443  11.259  0.2455  0.2417  0.1699
 7005SOL    HW132648   4.642   1.386  11.184 -0.9399 -0.1566  0.1664
 7005SOL    HW232649   4.658   1.385  11.326  0.8820 -1.7449 -1.8845
 7006SOL     OW32650   1.695   0.294  12.530 -0.2730 -0.3335  0.0691
 7006SOL    HW132651   1.633   0.277  12.460  2.2683  1.5514 -2.6440
 7006SOL    HW232652   1.742   0.365  12.486 -0.3840 -0.0034  0.4871
 7007SOL     OW32653   0.798   1.564   7.275  0.0122  0.7815  0.2083
 7007SOL    HW132654   0.760   1.477   7.264 -1.1339  1.0527  2.0048
 7007SOL    HW232655   0.879   1.548   7.228 -0.1877 -0.2279  0.2027
 7008SOL     OW32656   0.017   0.103   2.646 -0.8964  0.3892 -0.1843
 7008SOL    HW132657   0.025   0.008   2.654 -2.6989  0.1213 -1.5532
 7008SOL    HW232658   4.689   0.123   2.578  0.1743  1.0778 -0.9988
 7009SOL     OW32659   3.638   4.301   3.676 -0.1819  0.1953  0.7872
 7009SOL    HW132660   3.622   4.208   3.692  1.4636 -0.0923  0.7727
 7009SOL    HW232661   3.685   4.327   3.756 -1.7665  1.6557  1.2499
 7010SOL     OW32662   1.112   3.905   3.861 -0.0798 -0.5529 -1.1461
 7010SOL    HW132663   1.093   3.875   3.951 -0.5764 -1.1254 -1.4368
 7010SOL    HW232664   1.033   3.958   3.851 -0.1676  0.1091  3.0545
 7011SOL     OW32665   0.832   1.138  16.053  0.1362  0.1946  0.6949
 7011SOL    HW132666   0.794   1.095  16.129  1.7390 -2.0066  0.2648
 7011SOL    HW232667   0.813   1.229  16.077  1.9755  0.8721 -0.3677
 7012SOL     OW32668   2.357   4.303   3.635 -0.2407  0.0462  0.6108
 7012SOL    HW132669   2.315   4.367   3.578 -0.8994 -0.3789  0.6116
 7012SOL    HW232670   2.435   4.280   3.585  0.4915  2.2378  0.7408
 7013SOL     OW32671   2.745   4.620  16.301 -1.1386  0.0572 -0.1433
 7013SOL    HW132672   2.816   4.650  16.245 -0.7602 -1.7316 -0.6348
 7013SOL    HW232673   2.684   4.574  16.244 -1.6313  0.4323  0.0770
 7014SOL     OW32674   2.423   2.098   3.591  0.4222 -0.5570  0.7465
 7014SOL    HW132675   2.503   2.103   3.643  0.5402  3.2378  0.1814
 7014SOL    HW232676   2.454   2.068   3.506  1.4816 -2.7901  1.9050
 7015SOL     OW32677   0.128   4.099   1.538  0.3723 -0.5311 -0.2561
 7015SOL    HW132678   0.083   4.044   1.602 -1.5172  0.3632 -0.7890
 7015SOL    HW232679   0.111   4.057   1.453 -1.8713 -0.9646  0.4026
 7016SOL     OW32680   3.485   2.642   7.181 -0.4071  0.7533 -0.1130
 7016SOL    HW132681   3.486   2.561   7.232 -1.7412  0.2099 -0.9398
 7016SOL    HW232682   3.566   2.687   7.203  0.5577 -0.5491 -0.9939
 7017SOL     OW32683   1.386   2.824   9.144  0.3126 -0.9439 -0.7819
 7017SOL    HW132684   1.345   2.783   9.220  0.3358  0.0898 -0.2218
 7017SOL    HW232685   1.466   2.771   9.139  0.8470 -0.5208  3.6170
 7018SOL     OW32686   2.320   4.343   2.756  0.0668 -0.1015 -0.2716
 7018SOL    HW132687   2.235   4.319   2.719 -0.0899 -2.2691  1.4977
 7018SOL    HW232688   2.356   4.254   2.762 -2.0849 -0.9373  0.1351
 7019SOL     OW32689   4.504   2.598   0.095 -0.2126  0.0088 -0.1301
 7019SOL    HW132690   4.518   2.672   0.037  1.2479 -1.0179 -1.0653
 7019SOL    HW232691   4.595   2.572   0.105  0.2419  2.1501  1.5049
 7020SOL     OW32692   2.012   0.234   1.647  0.4695  0.4605 -0.4699
 7020SOL    HW132693   2.102   0.209   1.668  0.8194  0.8220 -1.5305
 7020SOL    HW232694   2.029   0.316   1.601  3.0087 -0.6961 -1.6014
 7021SOL     OW32695   2.566   2.155   4.659  0.1206 -0.3764 -0.2551
 7021SOL    HW132696   2.516   2.198   4.589 -1.1452 -2.5950 -0.7080
 7021SOL    HW232697   2.637   2.215   4.682  0.1823 -1.6051  2.7242
 7022SOL     OW32698   1.532   3.400  10.019  0.0261  0.2448  0.4464
 7022SOL    HW132699   1.520   3.334   9.950 -1.4845 -1.0058  1.8956
 7022SOL    HW232700   1.545   3.342  10.094 -0.5132  0.9534  1.0753
 7023SOL     OW32701   4.457   1.622   6.491 -0.0578 -0.0667  0.0680
 7023SOL    HW132702   4.521   1.570   6.441  1.7205  1.5495  0.6771
 7023SOL    HW232703   4.488   1.595   6.577  2.0961  2.3594  0.0511
 7024SOL     OW32704   2.961   1.034  11.414 -0.3367  0.2957  0.3077
 7024SOL    HW132705   3.005   1.079  11.343 -1.2486  0.9971  0.1752
 7024SOL    HW232706   2.990   1.086  11.489 -2.8390 -0.6263  1.9343
 7025SOL     OW32707   0.632   2.214   5.080  0.0091  0.4738  0.2927
 7025SOL    HW132708   0.617   2.308   5.096 -0.9862  0.4194 -0.3449
 7025SOL    HW232709   0.671   2.191   5.165 -0.8579 -0.2244  0.4954
 7026SOL     OW32710   3.053   0.424   3.971 -0.2751  0.0096 -0.0037
 7026SOL    HW132711   3.140   0.464   3.961 -0.1251 -0.2007  0.4899
 7026SOL    HW232712   3.015   0.454   3.888 -0.0463  0.9952  0.2530
 7027SOL     OW32713   4.488   2.670  16.509  0.2795 -0.7318  0.5816
 7027SOL    HW132714   4.536   2.598  16.551  1.7566  1.0766  1.9930
 7027SOL    HW232715   4.421   2.680  16.576  0.8569 -2.5133  1.4366
 7028SOL     OW32716   3.887   2.333   8.447 -0.3041 -0.4274  0.0023
 7028SOL    HW132717   3.813   2.280   8.416  0.2021 -2.0908  1.7032
 7028SOL    HW232718   3.946   2.275   8.495 -2.1333 -0.6761  1.9442
 7029SOL     OW32719   4.152   3.497   2.667 -0.0991  0.4428  0.1473
 7029SOL    HW132720   4.215   3.546   2.719  0.5810  0.9009 -1.1132
 7029SOL    HW232721   4.131   3.567   2.606  1.8099 -0.1295 -1.1633
 7030SOL     OW32722   1.253   2.643   9.339  0.7045 -0.0910  0.3651
 7030SOL    HW132723   1.254   2.557   9.380 -2.0683 -0.3798 -0.1637
 7030SOL    HW232724   1.177   2.633   9.281  1.6761 -0.4582 -0.8334
 7031SOL     OW32725   1.331   0.470   3.186  0.4363  0.7003 -0.0395
 7031SOL    HW132726   1.424   0.492   3.194  0.4757  0.2552  0.7563
 7031SOL    HW232727   1.342   0.404   3.117  1.0729  0.5674  0.1835
 7032SOL     OW32728   1.490   4.254   1.196 -0.1799  0.6366  0.1745
 7032SOL    HW132729   1.424   4.196   1.235 -0.4760  0.5407 -0.4602
 7032SOL    HW232730   1.564   4.194   1.186  0.5625  1.8828 -1.7511
 7033SOL     OW32731   4.656   4.673  11.569  0.3526 -0.0895  0.3073
 7033SOL    HW132732   4.705   4.593  11.587 -0.2584 -0.5416 -0.0254
 7033SOL    HW232733   4.708   4.699  11.493  0.4237 -0.8327  0.1004
 7034SOL     OW32734   4.537   4.146   1.719 -0.4257 -0.2047  0.1116
 7034SOL    HW132735   4.538   4.236   1.685  0.1029  0.2140  1.2357
 7034SOL    HW232736   4.506   4.095   1.645 -0.2349 -2.0216  1.2911
 7035SOL     OW32737   3.250   3.494   2.421  0.1382  0.1917  0.4162
 7035SOL    HW132738   3.242   3.481   2.515 -0.2275  1.2173  0.5214
 7035SOL    HW232739   3.243   3.589   2.421 -2.6117 -0.0222  0.8673
 7036SOL     OW32740   0.046   2.704  17.402  0.5661  0.7072  0.1657
 7036SOL    HW132741   0.106   2.683  17.331 -0.9134 -1.5273 -0.4432
 7036SOL    HW232742   0.077   2.680  17.489  0.5716 -0.6101 -0.2030
 7037SOL     OW32743   3.474   4.058   6.895 -0.6691  0.0473  0.4497
 7037SOL    HW132744   3.386   4.060   6.856 -0.9313  0.9170  1.0663
 7037SOL    HW232745   3.485   4.144   6.936 -0.6265 -0.3393  1.2535
 7038SOL     OW32746   3.136   0.831   8.467  0.6304 -0.2183 -0.3419
 7038SOL    HW132747   3.051   0.797   8.493  0.0130  0.3302 -1.6550
 7038SOL    HW232748   3.159   0.750   8.420 -1.4618  0.4477 -2.5078
 7039SOL     OW32749   3.696   1.565   1.970  0.1806  0.4727 -0.1349
 7039SOL    HW132750   3.657   1.499   1.912  3.6681 -0.8098 -0.9920
 7039SOL    HW232751   3.676   1.521   2.053 -0.7050  1.5799  0.2401
 7040SOL     OW32752   3.402   0.712   2.648  0.4935  0.0101  0.5269
 7040SOL    HW132753   3.367   0.622   2.649  0.0185  0.1893 -1.3256
 7040SOL    HW232754   3.473   0.703   2.585 -0.2591  0.0959 -0.3356
 7041SOL     OW32755   0.662   0.767   4.345 -0.5239  0.6505 -0.2486
 7041SOL    HW132756   0.623   0.686   4.313  0.8244 -0.7089  1.5651
 7041SOL    HW232757   0.591   0.797   4.402  0.2252  0.8954  0.5555
 7042SOL     OW32758   4.175   1.943  16.940 -0.0958 -0.1798 -0.5022
 7042SOL    HW132759   4.242   2.010  16.943 -1.1766  0.8661  0.2493
 7042SOL    HW232760   4.162   1.924  17.033 -0.7088 -0.6577 -0.6817
 7043SOL     OW32761   1.934   0.502  14.008 -0.1525 -0.4643  0.3779
 7043SOL    HW132762   1.984   0.512  14.089 -0.7582 -1.7764  0.9051
 7043SOL    HW232763   1.910   0.410  14.018 -0.6722 -0.4359 -0.5904
 7044SOL     OW32764   1.571   4.368   1.489 -0.5868 -0.0017 -0.1079
 7044SOL    HW132765   1.505   4.300   1.504 -1.7275  0.9328 -0.9165
 7044SOL    HW232766   1.653   4.323   1.511  0.2659  0.9100 -1.4958
 7045SOL     OW32767   3.578   4.204   7.655 -0.6539 -0.5706 -0.0960
 7045SOL    HW132768   3.617   4.291   7.666 -0.2519 -0.7576 -0.0450
 7045SOL    HW232769   3.549   4.190   7.745 -0.0879  0.3281  0.2255
 7046SOL     OW32770   4.335   3.109   5.461 -0.1495  0.4725  0.0915
 7046SOL    HW132771   4.308   3.101   5.552 -0.2723 -0.0600  0.0056
 7046SOL    HW232772   4.404   3.175   5.461  1.0130 -0.7472  0.6933
 7047SOL     OW32773   0.960   2.287   4.025  0.4981  0.1588 -0.0329
 7047SOL    HW132774   0.892   2.249   4.079  0.4210  1.4626  0.7821
 7047SOL    HW232775   0.948   2.233   3.947  2.1327 -1.7226  1.0145
 7048SOL     OW32776   0.538   1.193   5.277 -0.5702  0.1747  0.2245
 7048SOL    HW132777   0.565   1.155   5.194  2.4464 -0.3479  1.4251
 7048SOL    HW232778   0.617   1.202   5.331  0.7982  1.2120 -1.9535
 7049SOL     OW32779   3.862   0.111  14.225  0.0535 -0.2382  0.0373
 7049SOL    HW132780   3.939   0.118  14.281  0.0169 -0.5928  0.1315
 7049SOL    HW232781   3.809   0.172  14.276  1.4179  0.6810  0.3638
 7050SOL     OW32782   0.875   4.302   6.984 -0.5665  0.5160 -0.2055
 7050SOL    HW132783   0.890   4.372   6.921  3.3408 -1.7839 -1.8308
 7050SOL    HW232784   0.795   4.259   6.955 -0.4701  1.2740 -1.5681
 7051SOL     OW32785   0.900   1.878   3.235 -0.2672  0.4220 -0.3830
 7051SOL    HW132786   0.984   1.830   3.237 -0.0913  0.6492 -1.9093
 7051SOL    HW232787   0.876   1.855   3.145  0.5141 -0.5962 -0.3385
 7052SOL     OW32788   4.665   0.195  15.669  0.1229  0.7783  0.1254
 7052SOL    HW132789   0.008   0.157  15.633 -0.5190  0.4948 -0.9944
 7052SOL    HW232790   4.675   0.178  15.763 -2.9173  1.2978  0.5378
 7053SOL     OW32791   2.102   3.426   6.799 -0.1193 -0.4711 -0.5905
 7053SOL    HW132792   2.172   3.362   6.787  0.5092 -0.0294  0.6945
 7053SOL    HW232793   2.082   3.455   6.710 -0.6402  0.2261 -0.2424
 7054SOL     OW32794   3.105   1.057   2.228 -0.0717 -0.1634  0.5400
 7054SOL    HW132795   3.029   1.054   2.287 -0.1429  2.4906  0.5866
 7054SOL    HW232796   3.173   1.024   2.287 -0.8684 -0.9577  1.0184
 7055SOL     OW32797   1.049   3.931   7.016 -0.5246  0.1133  0.0415
 7055SOL    HW132798   0.975   3.974   7.059  1.3227  2.2952  1.0489
 7055SOL    HW232799   1.007   3.845   7.004 -1.1102  0.7542 -2.5626
 7056SOL     OW32800   4.237   4.118  15.331  0.4263  0.6205  0.0311
 7056SOL    HW132801   4.261   4.051  15.395 -2.1192 -0.3093  0.0404
 7056SOL    HW232802   4.305   4.102  15.266  0.2369  0.4503 -0.1276
 7057SOL     OW32803   0.186   4.013  15.394 -0.0237  0.5740 -0.0858
 7057SOL    HW132804   0.276   4.046  15.392  0.6631 -1.3170  0.5130
 7057SOL    HW232805   0.193   3.959  15.316  3.1035  0.7161  0.1058
 7058SOL     OW32806   3.601   4.621   5.613 -0.1121  0.0496 -0.2746
 7058SOL    HW132807   3.654   4.692   5.649 -2.2508  1.3398  0.2701
 7058SOL    HW232808   3.669   4.557   5.590 -1.9141 -1.7646 -0.5620
 7059SOL     OW32809   3.814   3.153   8.114 -0.8137  0.0665  0.8702
 7059SOL    HW132810   3.819   3.098   8.192 -2.2823  0.3654  1.1722
 7059SOL    HW232811   3.725   3.133   8.085 -0.8243 -1.1365  1.7094
 7060SOL     OW32812   3.533   1.444   9.891  0.0952 -0.1730  0.1874
 7060SOL    HW132813   3.475   1.518   9.872 -0.4756 -0.9172 -0.9881
 7060SOL    HW232814   3.472   1.371   9.876 -0.0889 -0.5125  2.6816
 7061SOL     OW32815   2.703   2.192   8.613  0.2990 -0.0780 -0.5782
 7061SOL    HW132816   2.748   2.110   8.635 -0.5568 -0.2547  0.5299
 7061SOL    HW232817   2.728   2.201   8.521 -0.4211 -0.8211 -0.8517
 7062SOL     OW32818   3.406   0.778   0.707 -0.0746  0.2851 -0.1796
 7062SOL    HW132819   3.358   0.841   0.760 -1.5490 -0.0324 -1.1356
 7062SOL    HW232820   3.409   0.824   0.623 -3.4824 -0.1660 -0.5310
 7063SOL     OW32821   0.147   4.672   0.053 -0.1838  0.3983 -0.1934
 7063SOL    HW132822   0.113   4.667  17.710  0.7504  0.4258 -0.5461
 7063SOL    HW232823   0.093   4.603   0.091  1.4783 -0.1384  1.2039
 7064SOL     OW32824   4.316   3.309   7.147 -0.3824  0.2563 -0.0877
 7064SOL    HW132825   4.389   3.285   7.203  0.1357 -1.6361 -1.5883
 7064SOL    HW232826   4.358   3.279   7.066  1.4011  1.7756  0.2899
 7065SOL     OW32827   3.743   4.191   6.717  0.1305 -0.5974  0.3854
 7065SOL    HW132828   3.740   4.099   6.691 -1.5478 -0.2649 -0.6158
 7065SOL    HW232829   3.800   4.233   6.652 -0.5344  1.2223  0.9914
 7066SOL     OW32830   1.495   3.634  14.157  0.3717 -0.2139 -0.2883
 7066SOL    HW132831   1.427   3.570  14.134  0.3202 -0.5208  0.7320
 7066SOL    HW232832   1.445   3.695  14.210 -1.2946  0.7152 -2.9346
 7067SOL     OW32833   3.297   2.377   9.102  0.2739  0.3955  0.3530
 7067SOL    HW132834   3.324   2.378   9.011 -1.3591  0.1461 -0.1432
 7067SOL    HW232835   3.374   2.344   9.148  0.9798  0.9392 -0.4385
 7068SOL     OW32836   2.585   2.560  10.877 -0.1783 -0.1743  0.1253
 7068SOL    HW132837   2.660   2.600  10.834  0.4696  0.3519  1.7654
 7068SOL    HW232838   2.612   2.471  10.898  1.1435 -0.2434 -1.8412
 7069SOL     OW32839   0.445   4.541   8.397  0.1311  0.1833  0.0390
 7069SOL    HW132840   0.462   4.616   8.454 -0.0919 -0.8467  1.4345
 7069SOL    HW232841   0.486   4.569   8.315 -0.5162  0.4732 -0.1864
 7070SOL     OW32842   3.040   0.902  10.508  0.4094 -0.2538 -0.9345
 7070SOL    HW132843   3.038   0.963  10.581  1.6539 -0.8360 -0.4186
 7070SOL    HW232844   2.955   0.858  10.503  0.0713 -0.0048  2.8585
 7071SOL     OW32845   0.879   0.165   4.340 -0.6110 -0.2393 -0.4995
 7071SOL    HW132846   0.864   0.078   4.303 -1.9493 -1.1228  2.0614
 7071SOL    HW232847   0.929   0.202   4.268 -1.6987  2.8053  0.3004
 7072SOL     OW32848   4.219   3.377   6.060 -0.6655  0.9220 -0.1216
 7072SOL    HW132849   4.307   3.399   6.028  0.1762 -1.9875  0.1953
 7072SOL    HW232850   4.174   3.413   5.984 -0.4723 -1.6111 -1.4124
 7073SOL     OW32851   2.213   2.343   4.758  0.0851  0.1935  0.1916
 7073SOL    HW132852   2.137   2.380   4.713 -0.4691 -1.2647 -0.0704
 7073SOL    HW232853   2.205   2.383   4.845  1.8235  0.5806  0.1761
 7074SOL     OW32854   2.052   1.094   2.927  0.6011  0.0870 -0.3895
 7074SOL    HW132855   1.997   1.017   2.944 -0.7254  1.1653  0.1663
 7074SOL    HW232856   2.136   1.051   2.915 -0.3559 -0.8988 -3.5638
 7075SOL     OW32857   4.171   4.638  17.531 -0.0602 -0.3275  0.3156
 7075SOL    HW132858   4.205   4.638  17.441 -1.5959  0.8650 -0.2581
 7075SOL    HW232859   4.112   4.713  17.530  1.2286  0.6756 -0.3991
 7076SOL     OW32860   0.912   2.846   9.189  0.4909  0.3840 -0.1040
 7076SOL    HW132861   0.943   2.780   9.126 -0.9931 -1.1819  0.8188
 7076SOL    HW232862   0.959   2.814   9.265  0.2964 -0.8895 -0.5206
 7077SOL     OW32863   4.286   3.722   5.158 -0.0640  0.0048 -0.3521
 7077SOL    HW132864   4.261   3.754   5.245  0.6055  0.4076 -0.3083
 7077SOL    HW232865   4.325   3.800   5.118  0.3092  0.6863  1.3330
 7078SOL     OW32866   1.415   1.675  17.065  0.5442  0.4930  0.1666
 7078SOL    HW132867   1.507   1.657  17.086  0.4922  3.4438  2.8324
 7078SOL    HW232868   1.427   1.676  16.970  0.8867  0.8542  0.2152
 7079SOL     OW32869   4.222   0.875   2.499  0.3495 -0.0338  0.0004
 7079SOL    HW132870   4.280   0.881   2.423  0.7577 -1.2836  0.2072
 7079SOL    HW232871   4.148   0.840   2.450  1.1586 -1.7780 -0.0085
 7080SOL     OW32872   2.494   0.820   2.464 -0.2090 -0.4807  0.2760
 7080SOL    HW132873   2.464   0.771   2.388 -0.2933 -1.9264  1.2546
 7080SOL    HW232874   2.565   0.760   2.487  1.4088  1.8357  1.3786
 7081SOL     OW32875   4.730   0.437  10.928  0.4329  0.0051 -0.6315
 7081SOL    HW132876   4.714   0.525  10.894  0.0805  0.1474 -0.0921
 7081SOL    HW232877   0.059   0.458  10.994 -0.2498  0.2525 -0.0292
 7082SOL     OW32878   0.935   0.803   4.388 -0.2724  0.0929  0.3457
 7082SOL    HW132879   0.839   0.797   4.388 -0.1538 -1.9310  2.2991
 7082SOL    HW232880   0.958   0.824   4.479  2.8906 -0.2510 -0.3797
 7083SOL     OW32881   2.139   1.056   4.961  0.2734 -0.0444  0.3302
 7083SOL    HW132882   2.215   1.025   5.009  0.1437 -0.8855 -0.0140
 7083SOL    HW232883   2.089   0.975   4.951 -2.9327  1.8657  0.7765
 7084SOL     OW32884   2.141   2.983   4.991  0.0711 -0.0451 -0.0548
 7084SOL    HW132885   2.193   2.984   4.910 -1.2088  1.1865 -0.8804
 7084SOL    HW232886   2.052   2.960   4.965  0.6036 -0.3429 -1.6342
 7085SOL     OW32887   2.953   4.218   3.606 -0.0136  0.2839 -0.1451
 7085SOL    HW132888   2.873   4.217   3.659  0.4779 -3.5198  0.5903
 7085SOL    HW232889   2.988   4.130   3.623 -0.2484 -0.0131 -1.2210
 7086SOL     OW32890   2.771   2.508   6.816  0.1120 -0.3892 -0.1031
 7086SOL    HW132891   2.815   2.588   6.787 -0.9436 -0.0430 -0.7403
 7086SOL    HW232892   2.785   2.516   6.910 -2.2142 -1.0533  0.2973
 7087SOL     OW32893   1.902   0.517  10.546  0.3246 -0.3410  0.1447
 7087SOL    HW132894   1.987   0.523  10.588  0.8329  1.1511 -1.1001
 7087SOL    HW232895   1.837   0.565  10.598 -0.5271  0.0701 -1.2744
 7088SOL     OW32896   1.519   2.991  13.272 -0.3157  0.3402  0.3358
 7088SOL    HW132897   1.485   2.908  13.240  3.0699  0.1769 -2.8063
 7088SOL    HW232898   1.591   2.967  13.332 -0.5454 -2.6877 -0.5879
 7089SOL     OW32899   3.617   1.977   9.076  0.4765 -0.1980  0.0343
 7089SOL    HW132900   3.590   1.945   9.162  1.6856 -1.2058  0.0309
 7089SOL    HW232901   3.698   1.927   9.067  2.1302  2.3391  0.8327
 7090SOL     OW32902   0.911   0.522  11.808  0.7330 -0.5146 -0.5358
 7090SOL    HW132903   0.910   0.575  11.728  0.1117 -0.4858 -0.5067
 7090SOL    HW232904   0.870   0.586  11.866 -0.3967  0.7687 -2.7418
 7091SOL     OW32905   2.322   3.987   8.570 -0.2648  0.2660  0.6030
 7091SOL    HW132906   2.373   3.960   8.494  0.5121 -1.3176  1.7105
 7091SOL    HW232907   2.245   3.932   8.559 -0.7833  1.3687 -1.3886
 7092SOL     OW32908   0.345   1.223  16.599 -0.1850  0.6595  0.2361
 7092SOL    HW132909   0.262   1.221  16.646  0.7690  0.4786  1.9043
 7092SOL    HW232910   0.344   1.313  16.567 -2.0498  1.0957  1.5576
 7093SOL     OW32911   0.552   4.672   8.174 -0.5218  0.5017  0.9369
 7093SOL    HW132912   0.609   4.712   8.108 -0.6614 -0.2269  0.3782
 7093SOL    HW232913   0.483   0.001   8.185  0.2829  1.5633 -0.3007
 7094SOL     OW32914   2.416   2.291   8.133  0.1978 -0.5000 -0.1394
 7094SOL    HW132915   2.353   2.363   8.132 -1.7285 -2.2174 -0.9913
 7094SOL    HW232916   2.408   2.255   8.222 -1.2988 -2.5715 -1.1154
 7095SOL     OW32917   1.451   2.683   7.239 -0.0460 -0.4717 -0.0280
 7095SOL    HW132918   1.541   2.657   7.215 -0.2849 -0.9776 -0.3768
 7095SOL    HW232919   1.468   2.777   7.249 -0.3092 -0.6283  1.8318
 7096SOL     OW32920   2.748   1.028  11.748  0.3624 -0.8140  0.2803
 7096SOL    HW132921   2.780   1.012  11.836 -0.4101  1.5224  0.9621
 7096SOL    HW232922   2.656   1.029  11.772  0.5348 -1.0803  0.9446
 7097SOL     OW32923   0.478   4.120  16.735 -0.3875 -1.0673 -0.0460
 7097SOL    HW132924   0.411   4.056  16.760 -1.1764  1.2415  3.6966
 7097SOL    HW232925   0.521   4.076  16.661 -0.0185 -2.5037  1.0327
 7098SOL     OW32926   3.492   3.037   9.061 -0.6326 -0.0124  0.5933
 7098SOL    HW132927   3.559   3.094   9.100  0.2587  0.3781 -1.5118
 7098SOL    HW232928   3.409   3.067   9.098 -0.0297  1.5026  0.7477
 7099SOL     OW32929   1.574   2.939  10.089 -0.1979  0.1897  0.0692
 7099SOL    HW132930   1.566   2.854  10.132  1.5726 -0.1469 -0.2571
 7099SOL    HW232931   1.614   2.914  10.006  1.3279 -3.8222  2.0500
 7100SOL     OW32932   4.543   2.150  12.170 -0.3451 -0.4522 -0.0536
 7100SOL    HW132933   4.636   2.139  12.152 -0.0073 -2.0843  2.7522
 7100SOL    HW232934   4.508   2.170  12.083  0.5709  1.7063  0.0864
 7101SOL     OW32935   1.414   1.527   7.844  0.1415 -0.0715  0.0596
 7101SOL    HW132936   1.401   1.518   7.750  0.2056  0.2223  0.0210
 7101SOL    HW232937   1.335   1.572   7.873  0.6166 -0.7832  2.5008
 7102SOL     OW32938   1.784   2.689   4.400  0.4061 -0.5946 -0.0664
 7102SOL    HW132939   1.808   2.600   4.427 -2.2624 -0.5300  2.5153
 7102SOL    HW232940   1.689   2.676   4.405  0.3566  0.0699  0.7134
 7103SOL     OW32941   0.762   1.685   7.722  0.1546 -0.2543  0.1394
 7103SOL    HW132942   0.719   1.648   7.645 -1.5600 -0.0595  1.0060
 7103SOL    HW232943   0.711   1.645   7.793  2.3453  0.3996  2.0790
 7104SOL     OW32944   2.748   0.117  12.573  0.0023 -0.3655 -0.2484
 7104SOL    HW132945   2.657   0.090  12.569 -0.3568  0.7373  0.4299
 7104SOL    HW232946   2.733   0.196  12.625 -0.1783 -0.2320 -0.5054
 7105SOL     OW32947   1.697   2.559   7.182  0.2164  0.2297 -0.3763
 7105SOL    HW132948   1.676   2.482   7.235  1.2533  0.5155  0.4514
 7105SOL    HW232949   1.784   2.584   7.212 -0.3451 -0.2021  1.5856
 7106SOL     OW32950   2.709   0.879   8.955 -0.0582 -0.1110 -0.3049
 7106SOL    HW132951   2.772   0.951   8.961 -1.0778  0.7257  0.3671
 7106SOL    HW232952   2.728   0.854   9.046 -0.1654  1.3067  0.1117
 7107SOL     OW32953   2.236   2.724   9.111 -0.1965  0.1454  0.1132
 7107SOL    HW132954   2.170   2.756   9.051 -0.5617  2.2994  1.6498
 7107SOL    HW232955   2.312   2.728   9.053  1.0876 -1.4862  1.6958
 7108SOL     OW32956   0.617   4.419   9.802  0.5173 -0.3285  0.3190
 7108SOL    HW132957   0.646   4.433   9.712  0.4094  1.4744  0.5668
 7108SOL    HW232958   0.541   4.362   9.792 -0.1956  0.8966 -1.2260
 7109SOL     OW32959   1.116   0.819   9.420  0.1656  0.2202 -1.0902
 7109SOL    HW132960   1.188   0.756   9.417  0.5322  0.7270 -3.1696
 7109SOL    HW232961   1.075   0.794   9.503  0.8449  1.3560 -0.4193
 7110SOL     OW32962   3.257   3.195   5.922 -0.4390 -0.0307 -0.2361
 7110SOL    HW132963   3.287   3.221   5.834  2.1087 -0.1878  0.5913
 7110SOL    HW232964   3.337   3.200   5.974 -1.3433 -1.0036  1.2282
 7111SOL     OW32965   2.520   4.560  13.560 -0.4050 -0.0142 -0.0076
 7111SOL    HW132966   2.543   4.475  13.596 -1.5775 -0.4355 -0.2337
 7111SOL    HW232967   2.589   4.608  13.605  1.4371 -2.5812 -0.1246
 7112SOL     OW32968   4.011   2.287   0.073 -0.2585 -0.4342  0.2730
 7112SOL    HW132969   4.005   2.327  17.733  0.6701 -1.3739 -0.2415
 7112SOL    HW232970   4.049   2.353   0.131  2.1646 -1.5893  0.0044
 7113SOL     OW32971   2.871   0.848   5.778 -0.1938 -0.0170 -0.1464
 7113SOL    HW132972   2.819   0.796   5.717 -3.1492  2.3996  0.3608
 7113SOL    HW232973   2.929   0.779   5.813 -0.4562 -0.1398  0.0457
 7114SOL     OW32974   3.782   2.643   8.424 -0.0235  0.2999  0.3169
 7114SOL    HW132975   3.731   2.568   8.456  1.3763 -2.6205 -4.3042
 7114SOL    HW232976   3.769   2.701   8.499  0.7008 -0.3046  0.9118
 7115SOL     OW32977   3.122   2.462   8.095 -0.1937  0.1029  0.3600
 7115SOL    HW132978   3.074   2.541   8.069  1.9827  1.8229  1.6264
 7115SOL    HW232979   3.157   2.495   8.177  1.5147  0.8049 -0.6482
 7116SOL     OW32980   4.218   4.216   8.251  0.1667 -0.1200  0.3667
 7116SOL    HW132981   4.235   4.299   8.207 -2.6889 -0.6547 -1.7787
 7116SOL    HW232982   4.185   4.174   8.172  0.5601  1.7430 -0.7714
 7117SOL     OW32983   0.110   2.809  13.714  0.3200 -0.2454 -0.4845
 7117SOL    HW132984   0.156   2.870  13.657 -0.1558  0.1787 -0.4142
 7117SOL    HW232985   0.143   2.836  13.800 -1.5053 -2.1773  0.8576
 7118SOL     OW32986   3.894   4.625  11.091 -0.1252  0.2540 -0.3773
 7118SOL    HW132987   3.899   4.647  11.184  1.0913  2.4976 -0.9626
 7118SOL    HW232988   3.898   4.530  11.092  0.7540  0.2927 -0.5762
 7119SOL     OW32989   2.910   1.318   1.294  0.1540 -0.4812 -0.4239
 7119SOL    HW132990   2.849   1.341   1.365 -0.8114 -0.8410 -1.1389
 7119SOL    HW232991   2.952   1.404   1.284 -0.2002 -0.4152 -1.2812
 7120SOL     OW32992   3.135   3.624   6.595 -0.3841  0.1751 -0.0132
 7120SOL    HW132993   3.220   3.616   6.551 -0.2165  0.1200  0.3219
 7120SOL    HW232994   3.091   3.542   6.572 -0.3508  0.4946 -1.2365
 7121SOL     OW32995   4.018   4.496   2.581  0.1125 -0.2978  0.4320
 7121SOL    HW132996   3.953   4.566   2.575 -0.2470 -0.9132 -2.5279
 7121SOL    HW232997   4.019   4.479   2.675 -0.0936 -1.7849  0.1620
 7122SOL     OW32998   2.920   0.868   1.711  0.2878  0.2578 -0.1115
 7122SOL    HW132999   2.954   0.905   1.792  1.0148  1.9958 -1.1949
 7122SOL    HW233000   3.002   0.827   1.681  0.2137 -1.1643  1.6306
 7123SOL     OW33001   4.232   4.358   9.185  0.7512 -0.2968  0.5431
 7123SOL    HW133002   4.197   4.433   9.139  4.8044  1.2146 -0.1147
 7123SOL    HW233003   4.161   4.337   9.245 -0.9892  0.3264 -1.3204
 7124SOL     OW33004   2.386   1.806   2.815  0.5656  0.1142 -0.4419
 7124SOL    HW133005   2.308   1.769   2.774  1.8024 -1.2633 -1.5946
 7124SOL    HW233006   2.385   1.893   2.777  0.7417  0.7759  1.0752
 7125SOL     OW33007   2.852   4.532   1.213 -0.8343 -0.0793 -0.0268
 7125SOL    HW133008   2.768   4.528   1.259 -1.5371  2.1242 -1.0640
 7125SOL    HW233009   2.818   4.570   1.132  1.2799  1.2782 -0.2885
 7126SOL     OW33010   3.124   2.688   7.523 -0.1807  0.0655 -0.3214
 7126SOL    HW133011   3.144   2.779   7.541 -0.6438  0.4001 -1.5028
 7126SOL    HW233012   3.147   2.648   7.607  2.3834  0.3098 -0.8850
 7127SOL     OW33013   4.681   2.688   9.881  0.0916 -0.2746 -0.1435
 7127SOL    HW133014   4.697   2.645   9.965  0.8517 -1.5871 -0.9616
 7127SOL    HW233015   4.712   2.624   9.817 -0.0179  0.0054 -0.4768
 7128SOL     OW33016   0.289   0.002   2.860 -0.1810  0.0215  0.2655
 7128SOL    HW133017   0.249   0.088   2.858  1.9066  1.0002  0.1404
 7128SOL    HW233018   0.379   0.020   2.889 -0.9273 -0.5383  2.9827
 7129SOL     OW33019   1.878   2.198   0.578  0.0369  1.0603  0.5450
 7129SOL    HW133020   1.922   2.182   0.494  1.9837  0.1478  1.7342
 7129SOL    HW233021   1.888   2.294   0.582 -2.5862  1.3086  0.9902
 7130SOL     OW33022   4.523   1.362   1.503 -0.3824 -0.1391 -0.2216
 7130SOL    HW133023   4.538   1.388   1.413  2.1630 -0.0032  0.2378
 7130SOL    HW233024   4.493   1.447   1.537 -0.0427 -0.3957  0.7370
 7131SOL     OW33025   2.397   0.130   5.121 -0.2569 -0.2557 -0.5412
 7131SOL    HW133026   2.479   0.094   5.090  1.1003  1.8945  0.5218
 7131SOL    HW233027   2.379   0.193   5.051 -1.4310 -0.3357 -0.3105
 7132SOL     OW33028   0.284   2.122   9.983 -0.3711 -0.3883  0.0069
 7132SOL    HW133029   0.332   2.040   9.990  0.9602  0.6425  3.0124
 7132SOL    HW233030   0.349   2.182   9.945 -1.6768  1.8237  1.2516
 7133SOL     OW33031   0.601   1.467   4.746  0.1443 -0.4429 -0.2422
 7133SOL    HW133032   0.530   1.408   4.768 -0.4920  1.1275  1.8777
 7133SOL    HW233033   0.669   1.406   4.717 -0.8182 -1.6446  0.0488
 7134SOL     OW33034   2.125   4.049   2.843  0.5237 -0.1088  0.7552
 7134SOL    HW133035   2.211   4.064   2.805 -0.2499 -3.0722 -2.1366
 7134SOL    HW233036   2.146   3.989   2.914 -0.5682 -1.8775 -0.4344
 7135SOL     OW33037   0.604   0.955   0.393 -0.5679  0.6037  0.0881
 7135SOL    HW133038   0.543   0.928   0.462 -0.2058  0.5343  0.3814
 7135SOL    HW233039   0.661   1.013   0.444  0.0509  0.3740 -0.3333
 7136SOL     OW33040   1.685   4.707   5.127 -0.4514  0.4651  0.3026
 7136SOL    HW133041   1.698   4.622   5.170  0.4677  0.8387  0.7695
 7136SOL    HW233042   1.754   0.025   5.165 -1.7199  3.2021 -1.3401
 7137SOL     OW33043   0.795   2.592   6.771 -0.3782 -0.5164 -0.4906
 7137SOL    HW133044   0.820   2.678   6.740 -0.6504 -0.5279 -0.7396
 7137SOL    HW233045   0.795   2.615   6.864  1.0735 -0.4546 -0.5054
 7138SOL     OW33046   1.060   2.225  10.756 -0.0115  0.3192 -0.1621
 7138SOL    HW133047   1.080   2.191  10.844 -1.1238 -0.7549 -0.3243
 7138SOL    HW233048   1.030   2.313  10.780  1.2937  0.6236  0.3423
 7139SOL     OW33049   2.377   2.440   4.088  0.1646 -0.0437  0.2959
 7139SOL    HW133050   2.364   2.422   4.181 -0.3621 -3.5114 -0.4585
 7139SOL    HW233051   2.305   2.387   4.056  1.6219 -0.3795 -2.4338
 7140SOL     OW33052   2.559   1.031   7.941 -0.3104 -0.2200 -0.6550
 7140SOL    HW133053   2.603   0.951   7.913 -0.2451 -0.7297  0.8898
 7140SOL    HW233054   2.577   1.083   7.862 -0.5059 -0.5799 -0.9385
 7141SOL     OW33055   3.492   1.014   6.300 -0.5561 -0.1732  0.3425
 7141SOL    HW133056   3.563   1.010   6.364  1.2939  1.1424 -1.6536
 7141SOL    HW233057   3.446   1.094   6.326  0.4797  0.2594  0.8537
 7142SOL     OW33058   0.913   0.569   1.468  0.6985 -0.1568  0.2022
 7142SOL    HW133059   0.833   0.599   1.426  0.7775 -0.5648 -0.2561
 7142SOL    HW233060   0.937   0.630   1.537 -2.5248  0.9999  0.2915
 7143SOL     OW33061   2.734   1.685   5.806  0.0408 -0.4654  0.7020
 7143SOL    HW133062   2.668   1.755   5.797  0.4043 -0.2382 -0.2205
 7143SOL    HW233063   2.684   1.606   5.787 -1.4733  0.1167  2.2491
 7144SOL     OW33064   0.980   2.792  15.742  0.0522  0.2360  0.1345
 7144SOL    HW133065   0.983   2.759  15.831  0.1771 -1.0518 -0.3473
 7144SOL    HW233066   1.066   2.768  15.709 -0.9972 -1.1252 -1.6223
 7145SOL     OW33067   1.662   2.808   6.528  0.2472  0.4135  0.6221
 7145SOL    HW133068   1.634   2.879   6.470  0.1328  0.9387  1.3081
 7145SOL    HW233069   1.690   2.751   6.456  0.3005  0.2327  0.7859
 7146SOL     OW33070   4.159   0.581  12.057 -0.0621  0.1011  0.2947
 7146SOL    HW133071   4.189   0.587  11.966 -0.7375  2.5195  0.2493
 7146SOL    HW233072   4.248   0.586  12.091  0.3522  0.0447 -0.7768
 7147SOL     OW33073   3.592   0.477  10.799 -0.7711 -0.0400  0.0314
 7147SOL    HW133074   3.671   0.427  10.782 -1.5644 -1.6154  0.9787
 7147SOL    HW233075   3.521   0.412  10.799 -0.1968 -0.6634 -0.9414
 7148SOL     OW33076   3.767   1.808  16.257 -0.1050 -0.1736 -0.2103
 7148SOL    HW133077   3.775   1.718  16.227  0.1429  0.3629 -1.7915
 7148SOL    HW233078   3.703   1.835  16.191 -2.2970 -2.5997  0.9632
 7149SOL     OW33079   3.077   0.937   6.397 -0.0852 -0.0957  0.0884
 7149SOL    HW133080   3.072   0.870   6.466  1.4997  0.4206  0.6978
 7149SOL    HW233081   3.137   0.900   6.333  2.2770  2.0987  1.0200
 7150SOL     OW33082   4.159   1.449   1.617 -0.2635 -0.4147 -0.3128
 7150SOL    HW133083   4.218   1.513   1.577 -0.1849 -0.1483  0.2322
 7150SOL    HW233084   4.224   1.398   1.666  2.9189  2.5017 -1.5293
 7151SOL     OW33085   0.058   0.153   0.848 -0.1014 -0.1778  0.3682
 7151SOL    HW133086   0.078   0.240   0.816 -1.1329  0.0529  0.3300
 7151SOL    HW233087   0.018   0.174   0.933 -0.9368  0.4165 -0.1707
 7152SOL     OW33088   2.649   3.754   5.146  0.2911 -0.3854  0.5570
 7152SOL    HW133089   2.713   3.823   5.162 -0.3108  0.3131 -0.0658
 7152SOL    HW233090   2.609   3.790   5.067  1.5308 -1.1206 -0.4142
 7153SOL     OW33091   0.640   4.315   9.224 -0.3721 -0.0855 -0.2534
 7153SOL    HW133092   0.733   4.316   9.247 -0.6440  0.1959  0.8534
 7153SOL    HW233093   0.651   4.245   9.161 -0.2140 -1.7847  1.6474
 7154SOL     OW33094   1.806   0.535   6.687 -0.5195 -0.4027  0.4968
 7154SOL    HW133095   1.781   0.470   6.753  0.0150 -0.9334  0.1773
 7154SOL    HW233096   1.759   0.611   6.722 -0.4927  0.7273 -1.9177
 7155SOL     OW33097   1.931   1.126   4.675  0.4580 -0.4647 -0.2900
 7155SOL    HW133098   1.897   1.143   4.763 -2.1846  0.2650 -1.4614
 7155SOL    HW233099   2.022   1.156   4.679  0.6494 -1.0560 -0.3102
 7156SOL     OW33100   1.686   1.790   1.780  0.1236  0.2253  0.4051
 7156SOL    HW133101   1.653   1.862   1.834 -0.7660 -0.2765  0.5318
 7156SOL    HW233102   1.684   1.716   1.840  3.6134 -0.8604 -0.8318
 7157SOL     OW33103   0.148   1.031   1.868 -0.0110 -0.1996  0.0477
 7157SOL    HW133104   0.168   1.039   1.961  0.8190 -0.9091 -0.0718
 7157SOL    HW233105   0.233   1.060   1.837 -0.4723 -0.2112 -1.2362
 7158SOL     OW33106   3.002   2.740   8.374  0.2197  0.6243  0.7453
 7158SOL    HW133107   3.010   2.664   8.432 -0.7782  0.6592  0.9335
 7158SOL    HW233108   2.948   2.806   8.418 -2.1415  0.1332 -1.4068
 7159SOL     OW33109   2.629   3.308   2.474  0.0033  0.9185  0.3284
 7159SOL    HW133110   2.635   3.262   2.390  0.2493  1.1364  0.2264
 7159SOL    HW233111   2.570   3.245   2.516 -0.6343  1.3004  0.0079
 7160SOL     OW33112   1.085   0.378   9.419 -0.1793  0.0559 -0.0919
 7160SOL    HW133113   1.026   0.376   9.495  0.0069  0.9221  0.0819
 7160SOL    HW233114   1.173   0.374   9.456 -0.3110  1.1739  0.3465
 7161SOL     OW33115   2.649   3.091   5.760 -0.3921  0.3941  0.3120
 7161SOL    HW133116   2.667   3.114   5.668  1.6057 -2.1219  0.0734
 7161SOL    HW233117   2.727   3.047   5.794 -0.3627  2.0315  2.3325
 7162SOL     OW33118   2.849   0.944   7.837 -0.3030 -0.4287 -0.3186
 7162SOL    HW133119   2.907   1.002   7.886  0.0941 -0.4289 -0.7861
 7162SOL    HW233120   2.891   0.933   7.752  0.9924  1.3405  0.0856
 7163SOL     OW33121   1.283   0.720   7.023 -0.1580 -0.3222 -0.2400
 7163SOL    HW133122   1.280   0.815   7.019 -1.2272 -0.3568 -0.0657
 7163SOL    HW233123   1.376   0.707   7.045  0.2016  0.6127 -1.2283
 7164SOL     OW33124   2.433   2.743   2.841 -0.0916  0.3884 -0.4196
 7164SOL    HW133125   2.463   2.827   2.806 -2.3781  0.9073 -1.0976
 7164SOL    HW233126   2.395   2.699   2.766  0.3375 -0.3944 -0.1824
 7165SOL     OW33127   1.455   2.460  11.278 -0.4125  0.4287 -0.0447
 7165SOL    HW133128   1.405   2.491  11.353 -1.4544 -0.3440 -0.4126
 7165SOL    HW233129   1.485   2.545  11.247 -1.1773  0.7972  0.2433
 7166SOL     OW33130   0.654   3.353   5.353  0.1613 -0.3592  0.3239
 7166SOL    HW133131   0.747   3.333   5.348  0.7001  1.4047  3.1175
 7166SOL    HW233132   0.634   3.374   5.262  1.9345 -0.0051  0.0231
 7167SOL     OW33133   2.015   1.658   5.433  0.4322  0.2297  0.0143
 7167SOL    HW133134   2.045   1.650   5.343 -1.9264 -0.5321 -0.7047
 7167SOL    HW233135   2.093   1.643   5.486  1.4464  0.5930 -1.3998
 7168SOL     OW33136   3.447   4.690   3.425 -0.0371  0.4550  0.5151
 7168SOL    HW133137   3.394   0.030   3.402 -0.6786  0.1664  0.9966
 7168SOL    HW233138   3.376   4.629   3.445  0.0326 -0.3654 -1.8655
 7169SOL     OW33139   4.368   0.336   8.404 -0.4511  0.5594 -0.1757
 7169SOL    HW133140   4.457   0.369   8.415  0.5166 -1.7479 -0.9865
 7169SOL    HW233141   4.338   0.315   8.492  0.1073  0.5063  0.0045
 7170SOL     OW33142   3.368   3.164  15.945  0.0794 -0.7314  0.5204
 7170SOL    HW133143   3.377   3.132  16.035  0.7076  4.0666  2.1454
 7170SOL    HW233144   3.405   3.252  15.947  1.9756 -1.5334  1.4926
 7171SOL     OW33145   3.103   0.114  14.507  0.2723 -0.1961 -0.1508
 7171SOL    HW133146   3.022   0.098  14.458 -0.7341  0.8712  1.1645
 7171SOL    HW233147   3.087   0.047  14.573 -0.5912 -0.0046 -0.1686
 7172SOL     OW33148   0.995   0.369   7.196 -0.1671 -0.2733 -0.2335
 7172SOL    HW133149   0.974   0.459   7.171 -0.5513 -0.5915 -1.0574
 7172SOL    HW233150   0.908   0.338   7.223 -1.1055  1.5669 -1.1605
 7173SOL     OW33151   0.373   4.379   5.732 -0.3863 -0.2369 -0.1335
 7173SOL    HW133152   0.445   4.318   5.749  0.1944  1.1593  2.3713
 7173SOL    HW233153   0.352   4.355   5.642  0.3512 -2.0407  0.1707
 7174SOL     OW33154   0.857   2.802   0.183 -0.2121  0.7213  0.0174
 7174SOL    HW133155   0.849   2.878   0.241 -0.4664  0.0203  0.9066
 7174SOL    HW233156   0.772   2.760   0.195 -0.1603  0.8771  0.9671
 7175SOL     OW33157   0.306   1.797   3.774  0.0351 -0.7329  0.2796
 7175SOL    HW133158   0.331   1.804   3.866 -1.1363  0.0960  0.5447
 7175SOL    HW233159   0.388   1.829   3.737 -0.9940  0.6559 -0.8424
 7176SOL     OW33160   1.733   0.956  12.706 -0.0176  0.4907 -0.1047
 7176SOL    HW133161   1.756   0.868  12.734  0.8385  0.8764  0.3957
 7176SOL    HW233162   1.822   0.978  12.680 -0.4222  1.7463 -0.4536
 7177SOL     OW33163   3.140   2.383   6.560 -0.0551  0.0497 -0.2240
 7177SOL    HW133164   3.187   2.442   6.501 -0.5594  0.3348 -0.3408
 7177SOL    HW233165   3.064   2.360   6.507  1.9100 -2.6314 -1.8062
 7178SOL     OW33166   2.838   3.970   7.474  0.4096 -0.0956 -0.6888
 7178SOL    HW133167   2.812   4.061   7.462 -1.1086 -0.6337 -1.4499
 7178SOL    HW233168   2.758   3.921   7.456  1.1935 -2.2204  1.5371
 7179SOL     OW33169   3.986   4.079   3.756  0.5485  0.9040  0.4088
 7179SOL    HW133170   3.907   4.124   3.786  0.2500 -0.0676  1.0586
 7179SOL    HW233171   3.957   4.057   3.667  0.2143  1.3510  0.4072
 7180SOL     OW33172   3.271   4.107  14.748  0.0880  0.5493  0.4790
 7180SOL    HW133173   3.362   4.117  14.722  0.1579 -1.9613 -0.2851
 7180SOL    HW233174   3.228   4.068  14.672 -0.7181  0.6286  0.8958
 7181SOL     OW33175   0.879   4.068   9.599  0.0686  0.0722  0.7281
 7181SOL    HW133176   0.925   4.008   9.540  0.2320 -1.2505  2.2183
 7181SOL    HW233177   0.877   4.015   9.678 -2.5745 -1.5463 -0.4073
 7182SOL     OW33178   0.096   1.574   3.482 -0.0825 -0.0330 -0.1627
 7182SOL    HW133179   0.036   1.520   3.430 -0.3168 -1.6071  1.7748
 7182SOL    HW233180   0.177   1.522   3.482 -0.0003  0.0964  1.0701
 7183SOL     OW33181   3.501   1.743   6.052 -0.3380  0.3586 -0.1270
 7183SOL    HW133182   3.490   1.741   6.147  0.1787  0.6691 -0.0612
 7183SOL    HW233183   3.595   1.753   6.036  0.1503 -0.7320  2.0452
 7184SOL     OW33184   2.913   2.527   4.247 -0.1619  0.3556  0.6434
 7184SOL    HW133185   2.933   2.532   4.153 -0.2850 -0.7740  0.5622
 7184SOL    HW233186   2.824   2.494   4.235  0.8134 -1.7718 -0.6711
 7185SOL     OW33187   4.210   3.546  15.164 -0.1651  0.0594 -0.2060
 7185SOL    HW133188   4.271   3.474  15.151 -1.1823 -0.4990 -1.8489
 7185SOL    HW233189   4.275   3.615  15.155  0.9156 -0.8554  0.5808
 7186SOL     OW33190   4.242   2.388  16.208  0.4422 -0.7193 -0.5464
 7186SOL    HW133191   4.182   2.426  16.143  0.5014  0.8087  0.2849
 7186SOL    HW233192   4.300   2.460  16.234 -1.3547  1.1537 -1.6941
 7187SOL     OW33193   4.231   2.795  16.407  0.1148  0.3269  0.2461
 7187SOL    HW133194   4.259   2.859  16.341  0.0969  0.8647  0.7529
 7187SOL    HW233195   4.313   2.782  16.454 -0.2039 -0.6604  0.5164
 7188SOL     OW33196   3.420   2.317   7.096 -0.6449 -0.5045  0.0940
 7188SOL    HW133197   3.445   2.239   7.147 -0.7631 -1.9069 -1.9937
 7188SOL    HW233198   3.489   2.322   7.030  1.6496  0.5775  2.5624
 7189SOL     OW33199   3.821   4.257   8.801  0.3426 -0.2534 -0.3055
 7189SOL    HW133200   3.894   4.200   8.823  0.7087  0.1447 -0.4730
 7189SOL    HW233201   3.848   4.339   8.843  0.8210 -0.3190 -0.4878
 7190SOL     OW33202   2.489   1.840   3.936  0.8864 -0.6783  0.0772
 7190SOL    HW133203   2.557   1.878   3.880  0.8356 -1.7644 -0.7148
 7190SOL    HW233204   2.542   1.772   3.978  3.1481  1.5574  0.8851
 7191SOL     OW33205   3.434   3.043  16.181  0.0413 -0.7050 -0.2180
 7191SOL    HW133206   3.483   2.961  16.189  1.4846  0.4254  2.6304
 7191SOL    HW233207   3.477   3.098  16.247 -0.3602  0.2344 -0.7535
 7192SOL     OW33208   2.999   1.550   7.110 -0.0225  0.8657 -0.3539
 7192SOL    HW133209   2.994   1.465   7.067 -1.3234  0.0208  1.4392
 7192SOL    HW233210   2.926   1.592   7.065  0.2217  0.7214 -0.8795
 7193SOL     OW33211   2.571   0.838  15.787  0.1857  0.3710  0.1344
 7193SOL    HW133212   2.547   0.929  15.800 -2.9966 -0.3793 -0.5699
 7193SOL    HW233213   2.658   0.826  15.825 -1.3559  0.2812  3.6226
 7194SOL     OW33214   2.751   1.267   6.246  0.4475 -0.4087 -0.4112
 7194SOL    HW133215   2.788   1.179   6.237 -0.9977 -1.3104  2.4362
 7194SOL    HW233216   2.738   1.302   6.158 -0.6124 -0.6568 -0.3562
 7195SOL     OW33217   0.092   0.824  16.796 -0.4495 -0.0969  0.0559
 7195SOL    HW133218   0.024   0.831  16.863 -0.1188  2.3247  0.1496
 7195SOL    HW233219   0.044   0.832  16.714  0.2437 -1.1624 -0.4525
 7196SOL     OW33220   4.337   1.666   9.158 -0.0229 -0.1533 -0.2709
 7196SOL    HW133221   4.355   1.636   9.248 -1.0553 -0.6266 -0.2262
 7196SOL    HW233222   4.265   1.611   9.128  1.3631 -1.7220 -0.7660
 7197SOL     OW33223   3.007   0.238   6.751  0.1652  0.3818  0.1434
 7197SOL    HW133224   3.035   0.236   6.843  1.3992 -0.7288 -0.2564
 7197SOL    HW233225   3.038   0.151   6.726 -1.4599  0.0214 -0.5954
 7198SOL     OW33226   1.095   2.740   0.841 -0.8202 -0.3817 -0.7967
 7198SOL    HW133227   1.019   2.799   0.833 -2.3713 -2.2977 -0.2153
 7198SOL    HW233228   1.149   2.775   0.912 -0.9983 -0.0255 -0.8347
 7199SOL     OW33229   3.912   2.133  11.186 -0.2402  0.1852  0.0196
 7199SOL    HW133230   3.949   2.053  11.224 -1.3675 -0.8613 -1.0815
 7199SOL    HW233231   3.970   2.200  11.223  0.0391 -0.4965  0.8322
 7200SOL     OW33232   2.231   3.794   2.749  0.0390 -0.9902 -0.0598
 7200SOL    HW133233   2.238   3.834   2.835 -2.3360  0.1163 -0.3877
 7200SOL    HW233234   2.146   3.751   2.754 -1.6015  2.3135  0.2435
 7201SOL     OW33235   2.822   4.572   4.029 -0.2057  0.4409  0.0926
 7201SOL    HW133236   2.851   4.525   4.107 -1.6117 -2.1807 -0.9595
 7201SOL    HW233237   2.756   4.633   4.061 -0.6076 -0.0315  0.1554
 7202SOL     OW33238   4.430   2.976  16.343 -0.4900 -0.7008  0.4453
 7202SOL    HW133239   4.444   3.062  16.303 -2.4808  0.9812  3.3886
 7202SOL    HW233240   4.421   3.005  16.433 -1.5963 -1.2048  0.4989
 7203SOL     OW33241   2.525   3.416   5.032  0.3370 -0.1123  0.0326
 7203SOL    HW133242   2.449   3.452   5.077  0.7763 -0.9847  1.4747
 7203SOL    HW233243   2.486   3.328   5.027 -2.7388  1.4327 -3.2848
 7204SOL     OW33244   2.940   1.182   3.117  0.0477  0.5682 -0.2785
 7204SOL    HW133245   2.864   1.158   3.064 -0.9270  0.0800  1.3456
 7204SOL    HW233246   2.967   1.095   3.147  2.9668  1.4742 -0.1813
 7205SOL     OW33247   1.946   2.451   7.023 -0.4231 -0.0762  0.4171
 7205SOL    HW133248   1.951   2.492   7.110 -1.9724 -1.3172  1.0933
 7205SOL    HW233249   1.888   2.375   7.026 -2.9865  1.7641 -1.7512
 7206SOL     OW33250   2.343   2.595   5.400  0.2370  0.1001 -0.0684
 7206SOL    HW133251   2.402   2.521   5.402  0.4261  0.2129 -1.5155
 7206SOL    HW233252   2.399   2.664   5.364  0.5964 -0.8533 -1.3050
 7207SOL     OW33253   3.739   0.473  13.912  0.5566 -0.1527 -0.5084
 7207SOL    HW133254   3.703   0.529  13.980 -0.1976 -1.6569  0.3236
 7207SOL    HW233255   3.762   0.395  13.962  0.5680  0.4020  0.3517
 7208SOL     OW33256   0.781   1.148   5.413  0.2744  0.0801  0.1445
 7208SOL    HW133257   0.854   1.116   5.359 -0.8041 -2.7939  0.3515
 7208SOL    HW233258   0.804   1.113   5.499  1.5486  2.0394  0.5954
 7209SOL     OW33259   0.299   1.577   2.317 -0.9726  0.2637 -0.0466
 7209SOL    HW133260   0.323   1.534   2.235 -2.9702 -0.2283 -0.3801
 7209SOL    HW233261   0.246   1.643   2.273 -0.7017  0.7312  0.3293
 7210SOL     OW33262   4.211   3.965   7.031  0.0128  0.7132 -0.2891
 7210SOL    HW133263   4.149   3.980   6.959 -1.5749 -3.0988  0.3344
 7210SOL    HW233264   4.159   3.897   7.073  2.0281 -0.3980  0.3970
 7211SOL     OW33265   3.862   1.858   4.035  0.1615 -0.4861 -0.0080
 7211SOL    HW133266   3.797   1.870   4.105  0.7229  1.2389  0.2230
 7211SOL    HW233267   3.881   1.950   4.014 -0.3611 -0.5673 -0.8246
 7212SOL     OW33268   4.167   2.383   7.060 -0.0428 -0.0729 -0.5893
 7212SOL    HW133269   4.129   2.296   7.051  0.2686 -0.2224 -0.4646
 7212SOL    HW233270   4.250   2.364   7.017  0.4559 -1.7803  1.1411
 7213SOL     OW33271   3.908   2.454   6.199  0.4208 -0.7023  0.2188
 7213SOL    HW133272   3.843   2.500   6.145  0.8786  2.4804  2.3627
 7213SOL    HW233273   3.924   2.377   6.145  0.9508 -0.1170 -0.4497
 7214SOL     OW33274   1.864   0.149  17.321  0.6516 -0.4028  0.5257
 7214SOL    HW133275   1.949   0.128  17.359  1.6573  0.1637 -1.4606
 7214SOL    HW233276   1.839   0.058  17.306 -0.2650 -0.2253  0.9550
 7215SOL     OW33277   4.088   2.579  16.056  0.1940  0.0413 -0.7709
 7215SOL    HW133278   4.049   2.644  15.997  0.9748 -0.2788 -1.6338
 7215SOL    HW233279   4.036   2.592  16.136  1.2147  2.3212 -0.4557
 7216SOL     OW33280   3.230   0.231   7.312  0.1219 -0.2231 -0.5006
 7216SOL    HW133281   3.241   0.213   7.219 -1.0498  0.5653 -0.7948
 7216SOL    HW233282   3.174   0.309   7.313  3.4287  2.1656 -1.5958
 7217SOL     OW33283   0.260   2.537   6.242 -0.5141  0.0381 -0.8721
 7217SOL    HW133284   0.197   2.587   6.294  0.3854  0.6492 -0.3589
 7217SOL    HW233285   0.335   2.552   6.299 -0.7682  0.7251 -0.7188
 7218SOL     OW33286   1.396   1.170   6.300 -0.6739 -0.2244  0.6427
 7218SOL    HW133287   1.476   1.125   6.328 -0.1526  1.3358  1.6448
 7218SOL    HW233288   1.420   1.195   6.211 -4.1402  0.2154 -0.1581
 7219SOL     OW33289   2.055   2.871   8.977 -0.1535  0.3073 -0.0248
 7219SOL    HW133290   2.010   2.865   9.061  0.5038  0.2260  0.3235
 7219SOL    HW233291   2.117   2.944   8.986 -0.2536  0.6008 -1.7194
 7220SOL     OW33292   4.726   1.651   4.983  0.0423  0.1088  0.2049
 7220SOL    HW133293   0.008   1.560   4.959 -0.2053  0.2311 -0.4550
 7220SOL    HW233294   4.701   1.691   4.899  1.6117  3.3897  1.3218
 7221SOL     OW33295   3.193   4.406   8.461  0.2553 -0.5277 -0.4169
 7221SOL    HW133296   3.194   4.444   8.549  2.7912  0.6945 -0.9637
 7221SOL    HW233297   3.113   4.355   8.465 -0.3057  0.5574  2.3616
 7222SOL     OW33298   3.742   0.867   5.623 -0.1773 -0.5056  0.6983
 7222SOL    HW133299   3.681   0.938   5.644 -0.6271 -1.1079  1.4319
 7222SOL    HW233300   3.820   0.912   5.653 -0.8460  0.4426  1.0042
 7223SOL     OW33301   3.387   3.269   9.860  0.5393  0.0407  0.5494
 7223SOL    HW133302   3.377   3.178   9.890  1.5328  0.3550  1.8692
 7223SOL    HW233303   3.300   3.297   9.889 -0.1386 -0.0661 -1.4078
 7224SOL     OW33304   3.554   1.712   7.985  0.0007  0.1178  0.3757
 7224SOL    HW133305   3.518   1.798   8.008  0.0256 -0.3710  2.2503
 7224SOL    HW233306   3.501   1.651   8.037 -0.4377  0.0820 -0.1131
 7225SOL     OW33307   1.126   1.491   8.401 -0.0139 -0.0706 -0.2744
 7225SOL    HW133308   1.076   1.514   8.323 -0.5373  2.1102  0.7250
 7225SOL    HW233309   1.053   1.472   8.459  1.4819 -2.6067  0.7792
 7226SOL     OW33310   2.938   3.138   6.276  0.0165  0.1958 -0.0275
 7226SOL    HW133311   2.957   3.154   6.183  1.4481 -1.4597 -0.0199
 7226SOL    HW233312   2.993   3.063   6.295  1.4564  0.6570 -2.2652
 7227SOL     OW33313   2.058   3.272   8.477 -0.4785  0.1749  0.2587
 7227SOL    HW133314   1.978   3.224   8.496  0.3836 -0.5725  2.0570
 7227SOL    HW233315   2.113   3.213   8.426 -0.5346 -0.2657  0.7122
 7228SOL     OW33316   3.668   3.087   6.005 -0.2370 -1.0702 -0.1718
 7228SOL    HW133317   3.694   3.092   5.913  0.3010 -0.6987  0.0030
 7228SOL    HW233318   3.583   3.043   5.998 -0.7803  0.3359 -2.3784
 7229SOL     OW33319   4.371   2.952   1.890 -0.2554  0.3531  0.3230
 7229SOL    HW133320   4.341   2.897   1.962  0.0123 -0.9773 -0.5852
 7229SOL    HW233321   4.466   2.951   1.903  0.0335 -2.2982 -1.9751
 7230SOL     OW33322   3.647   2.928   4.411  0.3409  0.3367  0.5305
 7230SOL    HW133323   3.621   2.952   4.500 -0.7843 -0.6359  0.4738
 7230SOL    HW233324   3.564   2.947   4.368  1.5170  2.6194 -0.7666
 7231SOL     OW33325   4.318   0.208   5.349 -0.4389 -0.1492 -0.4897
 7231SOL    HW133326   4.252   0.277   5.350  1.2069  1.3951  0.8215
 7231SOL    HW233327   4.264   0.140   5.391 -2.1226  1.2412 -0.4066
 7232SOL     OW33328   2.698   0.105   5.895 -0.1718  0.4820 -0.1657
 7232SOL    HW133329   2.630   0.166   5.867 -2.8584 -2.6783 -0.5094
 7232SOL    HW233330   2.783   0.147   5.887 -0.9425  1.5916 -2.6305
 7233SOL     OW33331   4.118   2.662   6.163  0.3974 -0.3880  0.0763
 7233SOL    HW133332   4.051   2.696   6.104 -0.4190  1.9426  2.3351
 7233SOL    HW233333   4.074   2.579   6.179 -3.9659  1.1979 -3.6878
 7234SOL     OW33334   2.568   4.604  16.868  0.6701 -0.3147 -0.1923
 7234SOL    HW133335   2.485   4.588  16.912  0.4192  0.8793 -0.2345
 7234SOL    HW233336   2.583   4.524  16.816  1.1611  1.7858 -3.2911
 7235SOL     OW33337   1.508   1.629   4.521 -0.6595 -0.3612  0.3560
 7235SOL    HW133338   1.490   1.715   4.559  3.2229  0.0239  1.2592
 7235SOL    HW233339   1.425   1.582   4.522 -1.9625  1.9045  0.2842
 7236SOL     OW33340   1.794   0.017   8.768 -0.4092 -0.1914  0.2314
 7236SOL    HW133341   1.808   0.112   8.772 -1.0472 -0.1404  1.2361
 7236SOL    HW233342   1.882   4.717   8.770  0.1839  1.1534 -1.1439
 7237SOL     OW33343   2.075   2.990   1.888 -0.1379  0.2517  0.5362
 7237SOL    HW133344   2.157   2.942   1.899 -0.2301  0.0087  0.1853
 7237SOL    HW233345   2.041   2.954   1.806 -0.5174 -1.3147  1.3833
 7238SOL     OW33346   0.442   3.692  13.487  0.3488  0.4557 -0.5336
 7238SOL    HW133347   0.530   3.663  13.513  0.3207  1.0497  0.2145
 7238SOL    HW233348   0.417   3.615  13.436  0.4297 -0.7649  1.2564
 7239SOL     OW33349   4.584   3.839   4.096  0.1454  0.1391 -0.5927
 7239SOL    HW133350   4.613   3.848   4.005 -0.7474  1.9521 -0.6876
 7239SOL    HW233351   4.499   3.882   4.097  0.5512  0.9166  1.0042
 7240SOL     OW33352   4.112   3.541   8.289  0.2883  0.1810 -1.0220
 7240SOL    HW133353   4.092   3.456   8.251 -0.0851  0.6815 -1.9528
 7240SOL    HW233354   4.026   3.581   8.305 -1.1411 -2.5565 -1.9024
 7241SOL     OW33355   3.840   1.214   1.283 -0.1894  0.3062 -0.4694
 7241SOL    HW133356   3.874   1.143   1.229  0.6430  0.5071 -0.2137
 7241SOL    HW233357   3.887   1.286   1.240  1.8433  0.7424  2.4450
 7242SOL     OW33358   2.456   2.362  10.337  0.1183 -0.6554 -0.0639
 7242SOL    HW133359   2.445   2.417  10.414  1.9214 -0.2935 -0.0600
 7242SOL    HW233360   2.433   2.278  10.377  0.4019  0.2625  1.9973
 7243SOL     OW33361   3.165   4.338  15.604 -0.0405  0.3978  0.2273
 7243SOL    HW133362   3.155   4.290  15.522 -2.4837  0.0571  0.7320
 7243SOL    HW233363   3.081   4.381  15.591 -1.9039 -3.2158  0.2415
 7244SOL     OW33364   0.357   1.032   6.096 -0.0083 -0.4832 -0.3712
 7244SOL    HW133365   0.312   0.977   6.160 -1.4605  1.3016  0.1602
 7244SOL    HW233366   0.386   0.964   6.036  0.1507 -0.9659  0.2499
 7245SOL     OW33367   1.546   2.554   8.739 -0.0864 -0.6713 -0.3040
 7245SOL    HW133368   1.505   2.472   8.765 -1.8672  0.9712  2.0003
 7245SOL    HW233369   1.470   2.601   8.705  0.0113  0.5136  1.1201
 7246SOL     OW33370   3.372   0.612   0.497 -0.3931  0.1171  0.3623
 7246SOL    HW133371   3.320   0.537   0.525 -0.5217 -0.2694 -0.9114
 7246SOL    HW233372   3.389   0.654   0.581  1.0829 -1.5964  0.9295
 7247SOL     OW33373   4.123   1.741   6.917  0.4242  0.1626  0.3411
 7247SOL    HW133374   4.077   1.753   7.000 -1.0878 -1.2820 -0.2908
 7247SOL    HW233375   4.120   1.828   6.877 -0.5117 -0.4557 -0.9407
 7248SOL     OW33376   0.649   3.493   2.810  0.0368  0.5473  0.6904
 7248SOL    HW133377   0.702   3.418   2.838 -1.0013 -0.3287  0.3558
 7248SOL    HW233378   0.559   3.467   2.829 -0.4360  2.0460  0.4864
 7249SOL     OW33379   4.632   0.583   4.268 -0.5459 -0.1023  0.0499
 7249SOL    HW133380   4.648   0.499   4.312 -0.9792  0.5039  1.3862
 7249SOL    HW233381   4.607   0.635   4.344 -1.9187 -1.3401  0.4624
 7250SOL     OW33382   1.269   0.545   8.805  0.3069 -0.2530  1.0283
 7250SOL    HW133383   1.278   0.450   8.795  1.9737  0.3385 -3.2733
 7250SOL    HW233384   1.264   0.570   8.713 -2.1056 -1.4455  0.8306
 7251SOL     OW33385   4.539   1.610  15.193 -0.1808 -0.1000  0.5729
 7251SOL    HW133386   4.615   1.568  15.234  2.3427  1.1628 -2.7647
 7251SOL    HW233387   4.535   1.693  15.240 -0.1231 -0.1738  0.7070
 7252SOL     OW33388   3.923   2.837   4.438  0.3256  0.0608 -0.5894
 7252SOL    HW133389   3.950   2.906   4.500 -1.8829 -0.0993  0.5315
 7252SOL    HW233390   3.830   2.861   4.434  0.4125  0.2081 -1.8485
 7253SOL     OW33391   4.272   2.481   6.622 -0.1074 -0.4773  0.0315
 7253SOL    HW133392   4.263   2.538   6.545 -3.9636  1.2033  1.7407
 7253SOL    HW233393   4.260   2.552   6.685  0.5696  0.2916 -0.6990
 7254SOL     OW33394   0.152   2.026   6.208 -0.1799  0.0052 -0.3815
 7254SOL    HW133395   0.183   2.117   6.214  0.0304 -0.0873 -0.0878
 7254SOL    HW233396   0.125   2.021   6.116  0.2266  1.1651 -0.5637
 7255SOL     OW33397   1.547   2.473   6.958  0.4354 -0.0415 -0.5706
 7255SOL    HW133398   1.533   2.559   6.919 -0.2762 -0.7858 -1.9712
 7255SOL    HW233399   1.592   2.497   7.039  1.2222  0.7511 -1.2613
 7256SOL     OW33400   2.781   1.307   2.423 -0.7355  0.1609  0.5013
 7256SOL    HW133401   2.857   1.354   2.459 -0.2609 -1.1853  1.2886
 7256SOL    HW233402   2.716   1.336   2.487 -2.3290  1.8293 -1.9324
 7257SOL     OW33403   0.036   1.404   3.921  0.4543  0.1730 -0.2868
 7257SOL    HW133404   0.053   1.476   3.860  0.3732  0.3055 -0.1532
 7257SOL    HW233405   4.692   1.426   3.968 -0.4301 -2.2675 -0.6683
 7258SOL     OW33406   0.451   3.812   2.379 -0.4515  0.2294  0.4021
 7258SOL    HW133407   0.425   3.859   2.458 -0.2348  2.6516 -0.9502
 7258SOL    HW233408   0.404   3.854   2.306 -1.2451 -0.3499  0.5810
 7259SOL     OW33409   2.405   1.726   8.703  0.5530  0.1441  0.1219
 7259SOL    HW133410   2.486   1.779   8.698  1.0220 -0.4931  1.0141
 7259SOL    HW233411   2.373   1.765   8.784  1.1216 -1.6592  1.1955
 7260SOL     OW33412   0.335   2.568  15.001  0.2320 -0.3375 -0.3984
 7260SOL    HW133413   0.412   2.551  15.055 -0.2501 -1.0342  0.0724
 7260SOL    HW233414   0.373   2.568  14.913  1.7773  0.4415  0.2870
 7261SOL     OW33415   0.032   2.680   3.473 -0.2161  0.1924  0.6941
 7261SOL    HW133416   4.718   2.661   3.552  0.1566  1.2114  1.1818
 7261SOL    HW233417   0.109   2.727   3.504 -0.6420 -0.4810  2.7537
 7262SOL     OW33418   2.292   0.978  12.185 -0.4482  0.0894 -0.2395
 7262SOL    HW133419   2.212   1.030  12.184 -1.5095 -1.5315 -0.0954
 7262SOL    HW233420   2.350   1.041  12.227 -0.0718 -0.0950 -0.4881
 7263SOL     OW33421   2.400   2.542   2.046 -0.2932  0.0150  0.3053
 7263SOL    HW133422   2.450   2.461   2.037  1.7708  1.3570 -0.2067
 7263SOL    HW233423   2.336   2.520   1.978 -0.4813 -1.3449  0.9134
 7264SOL     OW33424   4.049   2.375   8.235 -0.5204 -0.3081 -0.0541
 7264SOL    HW133425   3.972   2.368   8.291  0.2578 -0.4760  0.9907
 7264SOL    HW233426   4.014   2.323   8.163 -1.4406 -0.3215  0.4105
 7265SOL     OW33427   4.567   1.051   3.877  0.0093 -0.7462 -0.1912
 7265SOL    HW133428   4.498   0.998   3.917 -0.5798  1.6694  1.9460
 7265SOL    HW233429   4.606   1.095   3.953 -0.6801  1.2897 -1.0328
 7266SOL     OW33430   2.135   2.882   2.821 -0.2037 -0.6684  0.2621
 7266SOL    HW133431   2.213   2.849   2.867 -1.1669 -0.1307  2.2909
 7266SOL    HW233432   2.098   2.803   2.784  0.6375 -1.7935  1.8266
 7267SOL     OW33433   0.981   1.041   9.114 -0.3861  0.2389 -0.3064
 7267SOL    HW133434   0.888   1.046   9.089 -0.4574 -1.5614 -0.4055
 7267SOL    HW233435   1.015   0.991   9.040  1.2381  0.1923  0.4680
 7268SOL     OW33436   1.509   4.347   7.408 -0.1545 -0.3177 -0.5502
 7268SOL    HW133437   1.512   4.264   7.360  1.5966 -1.0168  0.7613
 7268SOL    HW233438   1.562   4.391   7.341  0.2165  0.5025  0.2810
 7269SOL     OW33439   4.694   3.643   2.581 -0.3008  0.1555 -0.5441
 7269SOL    HW133440   0.013   3.720   2.595 -0.6214 -0.2170  2.6814
 7269SOL    HW233441   4.720   3.591   2.657  1.1723 -3.6015 -3.6631
 7270SOL     OW33442   4.232   1.531   0.293  0.2325 -0.2806 -0.4275
 7270SOL    HW133443   4.156   1.490   0.251 -1.3010  1.1540  0.9282
 7270SOL    HW233444   4.265   1.580   0.217 -0.8912  0.9080 -0.1444
 7271SOL     OW33445   2.989   0.911   9.695  0.1131 -0.7154  0.0405
 7271SOL    HW133446   2.913   0.938   9.643  0.7387 -0.8158 -0.9380
 7271SOL    HW233447   2.978   0.817   9.707 -0.0584 -0.4057  2.3613
 7272SOL     OW33448   0.257   2.826   3.544 -0.2508 -0.4777 -0.2245
 7272SOL    HW133449   0.241   2.911   3.503  0.2364  0.5521  1.7304
 7272SOL    HW233450   0.352   2.822   3.530 -0.5850 -2.6507 -1.8717
 7273SOL     OW33451   3.567   3.912   8.439  0.3835 -0.5383  0.0008
 7273SOL    HW133452   3.524   3.930   8.524  2.4256  2.7534  0.3510
 7273SOL    HW233453   3.568   3.818   8.454  0.6317 -0.7030 -1.0806
 7274SOL     OW33454   4.457   4.204   3.954  0.0167  0.0446  0.4742
 7274SOL    HW133455   4.383   4.263   3.967 -0.2179  0.0413 -0.8486
 7274SOL    HW233456   4.437   4.140   3.886 -2.3059 -0.0028  1.1947
 7275SOL     OW33457   4.147   3.776   7.492  1.0852  0.0842 -0.5090
 7275SOL    HW133458   4.170   3.733   7.574 -0.2548  2.7015  1.2306
 7275SOL    HW233459   4.052   3.770   7.488  0.9876  1.2909 -0.0762
 7276SOL     OW33460   4.045   4.168  17.381  0.2934  0.6402  0.0893
 7276SOL    HW133461   4.109   4.178  17.311  0.6586  1.0503  0.4814
 7276SOL    HW233462   3.978   4.233  17.358 -0.7607 -0.4204  0.1548
 7277SOL     OW33463   1.067   2.127   2.684  0.6493  0.1766  0.0837
 7277SOL    HW133464   1.027   2.057   2.633  1.5731  0.4692 -1.0366
 7277SOL    HW233465   0.995   2.177   2.724 -0.6759  0.0776 -2.2068
 7278SOL     OW33466   3.536   2.299   5.207  0.4040 -0.0562 -0.0382
 7278SOL    HW133467   3.501   2.245   5.135  1.1750 -1.1418  0.3961
 7278SOL    HW233468   3.476   2.274   5.277 -1.5468 -0.6579 -1.9101
 7279SOL     OW33469   3.520   2.422   5.569  0.3913 -0.2302  0.3062
 7279SOL    HW133470   3.467   2.365   5.625 -1.6935  0.8182 -0.5849
 7279SOL    HW233471   3.458   2.461   5.508  1.1307 -1.3712 -1.2041
 7280SOL     OW33472   2.772   0.683  10.378  0.3348 -0.2843 -0.5002
 7280SOL    HW133473   2.791   0.774  10.356 -0.9670  0.2935  0.7351
 7280SOL    HW233474   2.853   0.635  10.361 -1.0890 -2.5193 -1.0576
 7281SOL     OW33475   2.347   2.121  12.651  0.4286 -0.6014 -0.6192
 7281SOL    HW133476   2.294   2.188  12.694  1.5570  0.0087 -0.1811
 7281SOL    HW233477   2.432   2.165  12.661 -0.3616  0.9448 -0.6932
 7282SOL     OW33478   1.029   0.433   0.221  0.0214  0.4975  0.2115
 7282SOL    HW133479   0.941   0.438   0.185  0.6918  0.5702 -1.4175
 7282SOL    HW233480   1.026   0.356   0.278 -0.9250 -0.1146 -0.6698
 7283SOL     OW33481   1.415   4.214   6.528 -0.4568  0.2161 -0.2530
 7283SOL    HW133482   1.397   4.273   6.455 -2.7317  0.1969  0.2933
 7283SOL    HW233483   1.327   4.177   6.531 -0.7299  1.0305  1.8007
 7284SOL     OW33484   2.326   3.289   6.708  0.4373 -0.8710  0.5234
 7284SOL    HW133485   2.357   3.220   6.767  0.4653 -0.7695  0.6261
 7284SOL    HW233486   2.408   3.303   6.660 -1.2761  0.3244 -2.0562
 7285SOL     OW33487   2.892   0.226  14.780  0.6201 -0.0975  0.3954
 7285SOL    HW133488   2.841   0.306  14.787  0.8848  0.1466 -0.3649
 7285SOL    HW233489   2.939   0.213  14.862 -0.0800 -0.4890  0.7372
 7286SOL     OW33490   4.624   4.301   7.286 -0.1189  0.1506  0.0758
 7286SOL    HW133491   4.604   4.394   7.277 -0.6445  0.2013  1.8638
 7286SOL    HW233492   4.538   4.263   7.268  0.1974 -0.8486  0.6586
 7287SOL     OW33493   3.508   1.199   1.990  0.3202  0.2577 -0.1255
 7287SOL    HW133494   3.530   1.278   2.040 -0.3881  0.4499 -0.1109
 7287SOL    HW233495   3.506   1.134   2.060 -0.6992 -1.7437 -2.0399
 7288SOL     OW33496   2.542   3.025   9.504 -0.3382 -0.8009  0.1070
 7288SOL    HW133497   2.583   3.107   9.529  0.3176 -1.3108  0.7120
 7288SOL    HW233498   2.589   2.969   9.566 -1.8321 -1.5142  0.6053
 7289SOL     OW33499   1.803   1.907   4.338  0.1269  0.1018 -0.2047
 7289SOL    HW133500   1.764   1.931   4.422  0.1862 -1.3801  0.2324
 7289SOL    HW233501   1.890   1.948   4.346 -1.3681  2.5740  3.5508
 7290SOL     OW33502   2.429   3.021   8.260 -0.1025  0.0737 -0.4251
 7290SOL    HW133503   2.495   2.989   8.322 -1.3171  0.0561  0.8597
 7290SOL    HW233504   2.417   2.945   8.204  0.7756 -1.5017  1.4980
 7291SOL     OW33505   4.332   2.667  10.427 -0.3770  0.3453  0.0626
 7291SOL    HW133506   4.304   2.601  10.364 -2.0714  1.1182  0.0038
 7291SOL    HW233507   4.416   2.640  10.463 -0.2560  2.3557  1.2743
 7292SOL     OW33508   0.202   2.802   7.038  0.2813 -1.0884 -0.0751
 7292SOL    HW133509   0.200   2.868   7.107  1.1135 -0.3263 -0.7759
 7292SOL    HW233510   0.181   2.721   7.085  1.3298 -2.1126 -1.3665
 7293SOL     OW33511   0.757   4.064   3.354 -0.3564 -0.1714 -0.0620
 7293SOL    HW133512   0.842   4.096   3.324 -0.8159  1.8139  0.7390
 7293SOL    HW233513   0.788   4.005   3.424 -0.8311  1.5662  1.6159
 7294SOL     OW33514   3.472   1.090   1.761 -0.1476 -0.9694 -0.3812
 7294SOL    HW133515   3.557   1.048   1.748  0.8232  0.7866  0.3388
 7294SOL    HW233516   3.484   1.138   1.843  1.1553 -1.3078 -0.3683
 7295SOL     OW33517   3.808   4.696   8.620 -0.1745 -0.1411  0.6674
 7295SOL    HW133518   3.723   4.689   8.664 -0.2380 -1.4471  0.3262
 7295SOL    HW233519   3.819   4.605   8.594 -0.9543 -0.1484  0.3443
 7296SOL     OW33520   0.679   1.315   7.423 -0.9060  0.5524  0.0868
 7296SOL    HW133521   0.772   1.313   7.449 -0.6710 -0.7401 -0.8409
 7296SOL    HW233522   0.693   1.290   7.332 -0.0494  1.2436  0.0302
 7297SOL     OW33523   0.135   0.776   5.892 -0.2432  0.0197 -0.0821
 7297SOL    HW133524   0.229   0.793   5.904 -0.2971  0.7527 -0.6364
 7297SOL    HW233525   0.138   0.709   5.960 -0.6373 -0.8175 -0.8896
 7298SOL     OW33526   4.505   3.351   1.701  0.0898 -0.0350 -0.2583
 7298SOL    HW133527   4.553   3.277   1.740 -1.0949 -0.7790 -0.1994
 7298SOL    HW233528   4.569   3.418   1.677  1.1284 -1.0926 -0.4290
 7299SOL     OW33529   1.376   3.174   6.175 -0.4729  0.4362  0.3119
 7299SOL    HW133530   1.291   3.137   6.200  1.1221 -3.2798  0.1432
 7299SOL    HW233531   1.408   3.187   6.264  1.5688 -1.8707 -0.0765
 7300SOL     OW33532   1.954   3.195  14.845 -0.3490 -0.0746  0.2958
 7300SOL    HW133533   2.029   3.248  14.818  1.8427 -2.9127  0.8955
 7300SOL    HW233534   1.907   3.193  14.761 -0.9380  0.2907  0.6148
 7301SOL     OW33535   0.727   4.668   9.525 -0.6066  0.1702 -0.2955
 7301SOL    HW133536   0.662   4.710   9.581 -2.0260 -0.9183 -1.1154
 7301SOL    HW233537   0.701   4.576   9.527 -0.2341  0.0898  1.0956
 7302SOL     OW33538   4.647   3.853   0.101  0.0638  0.0062  0.2016
 7302SOL    HW133539   4.682   3.941   0.093 -3.7077  1.5604  0.6557
 7302SOL    HW233540   4.560   3.869   0.064  0.0092 -1.4925 -0.3268
 7303SOL     OW33541   2.942   4.190   8.294  0.1181 -0.1769  0.6954
 7303SOL    HW133542   2.995   4.219   8.220  1.1615 -0.8953  1.1590
 7303SOL    HW233543   2.996   4.114   8.315 -0.4740 -0.6987  0.2841
 7304SOL     OW33544   1.129   1.515   3.409  0.3908  0.2005  0.1657
 7304SOL    HW133545   1.145   1.425   3.438  2.4956  1.1667  2.0601
 7304SOL    HW233546   1.164   1.566   3.483 -0.1042 -1.5284  1.5793
 7305SOL     OW33547   3.068   2.382  12.344  0.2200 -0.4512 -0.3629
 7305SOL    HW133548   3.163   2.395  12.346  0.0254  1.0891 -1.1813
 7305SOL    HW233549   3.042   2.417  12.260  0.0283 -0.2150 -0.2041
 7306SOL     OW33550   2.991   2.007   3.441 -1.1021  0.2209 -0.1057
 7306SOL    HW133551   2.947   2.051   3.513 -1.1462 -0.9703  0.5955
 7306SOL    HW233552   3.021   1.928   3.488 -2.0921 -0.6377 -0.9193
 7307SOL     OW33553   3.195   3.046   3.471 -0.7906  0.4033  0.0288
 7307SOL    HW133554   3.238   3.049   3.557 -2.3512 -3.0416  0.8880
 7307SOL    HW233555   3.148   2.964   3.478 -0.8233  0.3349 -0.9624
 7308SOL     OW33556   3.916   2.405  17.588 -0.4791  1.0305 -0.3856
 7308SOL    HW133557   3.874   2.321  17.570  1.5600  0.1120 -0.7529
 7308SOL    HW233558   3.905   2.450  17.504  1.7975  2.8496  0.3060
 7309SOL     OW33559   2.579   0.364   3.118  0.7319  0.4064  0.9318
 7309SOL    HW133560   2.653   0.312   3.150 -0.6469 -2.6623 -0.8510
 7309SOL    HW233561   2.560   0.436   3.178 -1.3247  1.5675 -1.1168
 7310SOL     OW33562   4.566   4.356  17.190  0.0532 -0.2940  0.8160
 7310SOL    HW133563   4.640   4.362  17.130 -0.2541 -0.0996  0.4591
 7310SOL    HW233564   4.525   4.439  17.169 -2.7343 -1.2941  2.2930
 7311SOL     OW33565   0.675   4.011  13.336 -0.1609 -0.1137  0.2788
 7311SOL    HW133566   0.740   3.963  13.386 -0.4023 -0.5247  0.1952
 7311SOL    HW233567   0.668   4.089  13.391 -1.0737 -1.0338  1.4623
 7312SOL     OW33568   1.640   2.229   9.021  0.1184 -0.3308  0.0879
 7312SOL    HW133569   1.562   2.177   9.004 -1.2789  1.9276 -0.4135
 7312SOL    HW233570   1.618   2.259   9.109 -1.7279 -0.7137 -0.2445
 7313SOL     OW33571   2.415   2.676  16.169 -0.5675  0.0027  0.2063
 7313SOL    HW133572   2.485   2.632  16.120 -1.2907 -0.7441 -0.1539
 7313SOL    HW233573   2.384   2.738  16.104 -0.0205 -1.7428 -1.7490
 7314SOL     OW33574   1.161   3.459  13.784  0.0945 -0.5167  0.1928
 7314SOL    HW133575   1.111   3.456  13.703 -0.2409 -0.8381  0.4138
 7314SOL    HW233576   1.092   3.455  13.850  0.2899 -0.9769  0.3758
 7315SOL     OW33577   3.013   3.776   5.443  0.0279  0.3347 -0.4588
 7315SOL    HW133578   3.022   3.854   5.389 -0.7317  0.9972  0.3599
 7315SOL    HW233579   2.921   3.750   5.439  0.0694  0.0202  0.6172
 7316SOL     OW33580   0.285   0.175   3.167 -0.0786 -0.5379 -0.0735
 7316SOL    HW133581   0.236   0.207   3.092  1.3634  0.8738 -0.4060
 7316SOL    HW233582   0.335   0.099   3.138  1.5552  0.7782 -0.7096
 7317SOL     OW33583   1.489   2.324   5.382  0.0979 -0.1745  0.6425
 7317SOL    HW133584   1.425   2.261   5.348  0.1636  0.1369 -0.0550
 7317SOL    HW233585   1.559   2.315   5.317 -0.2571  0.8006  0.1293
 7318SOL     OW33586   2.099   3.558   9.595  0.0342 -0.1588  0.8005
 7318SOL    HW133587   2.046   3.638   9.591  1.4133  0.8800  3.1669
 7318SOL    HW233588   2.188   3.590   9.580 -0.7154  1.9536  0.8070
 7319SOL     OW33589   0.899   2.938  17.608  0.0338 -0.1306  0.3822
 7319SOL    HW133590   0.909   2.999  17.681 -1.5145  2.6142 -1.7037
 7319SOL    HW233591   0.804   2.942  17.594  0.1989 -0.6503 -0.8613
 7320SOL     OW33592   1.947   1.252   4.393 -0.3160  0.5536  0.6231
 7320SOL    HW133593   1.927   1.165   4.359 -2.0041  0.6379  1.3612
 7320SOL    HW233594   1.878   1.259   4.459  0.0051 -1.9453  1.2167
 7321SOL     OW33595   3.039   3.099   2.457  0.2987  0.8646 -0.4533
 7321SOL    HW133596   3.038   3.004   2.444 -2.1149  0.6436  1.3366
 7321SOL    HW233597   3.130   3.122   2.439  0.8017 -1.6540 -1.1267
 7322SOL     OW33598   0.225   1.185   3.851 -0.7991 -0.1664  0.2485
 7322SOL    HW133599   0.181   1.263   3.883  0.8792 -0.8629  4.1972
 7322SOL    HW233600   0.317   1.210   3.865 -0.3694 -1.5593 -0.1153
 7323SOL     OW33601   0.714   2.311   8.221  0.4228 -0.4698  0.1689
 7323SOL    HW133602   0.709   2.232   8.167  2.5629  1.1600 -2.4391
 7323SOL    HW233603   0.755   2.273   8.299  1.1162  1.3194  0.6731
 7324SOL     OW33604   1.000   1.865   7.457 -0.5439 -0.1364 -0.0712
 7324SOL    HW133605   1.058   1.825   7.392 -1.9590  1.5156 -2.3479
 7324SOL    HW233606   1.012   1.955   7.426  2.5976 -0.4266  0.2871
 7325SOL     OW33607   0.010   0.663  11.506  0.1678 -0.0071  0.2965
 7325SOL    HW133608   0.084   0.615  11.469 -1.0827 -0.8178 -1.1557
 7325SOL    HW233609   4.687   0.593  11.532  1.8141 -2.2929 -2.0557
 7326SOL     OW33610   1.052   2.830   3.102 -0.5333 -0.1378  0.3077
 7326SOL    HW133611   1.013   2.916   3.088  0.3791  0.1999 -0.1397
 7326SOL    HW233612   1.036   2.814   3.196 -0.1007  1.5361  0.6650
 7327SOL     OW33613   4.651   3.190   2.743  0.7882 -0.3343 -0.2572
 7327SOL    HW133614   4.705   3.194   2.822 -2.0602  0.6650  1.6295
 7327SOL    HW233615   4.693   3.254   2.686  1.3645 -1.1476 -0.7392
 7328SOL     OW33616   2.810   1.561   3.472  0.3214  0.7121  0.6627
 7328SOL    HW133617   2.812   1.473   3.511  0.1530  0.1008 -0.6841
 7328SOL    HW233618   2.757   1.553   3.392  2.5859  1.7195 -0.9403
 7329SOL     OW33619   2.483   2.184  15.508 -0.0154 -0.3472 -0.3933
 7329SOL    HW133620   2.548   2.115  15.521 -0.5634 -0.5834  1.1480
 7329SOL    HW233621   2.399   2.140  15.491 -1.0176  1.1507  0.7100
 7330SOL     OW33622   1.811   1.524   8.924 -0.1287 -0.1475 -0.0596
 7330SOL    HW133623   1.885   1.471   8.954  0.4312  1.1760  0.9016
 7330SOL    HW233624   1.822   1.515   8.829  2.0995  0.7253  0.1312
 7331SOL     OW33625   0.453   1.647   8.604  0.1456 -0.2601 -0.2691
 7331SOL    HW133626   0.360   1.661   8.623  0.5915  0.2597  1.4638
 7331SOL    HW233627   0.496   1.708   8.664  1.3625  0.4627 -1.8542
 7332SOL     OW33628   4.005   3.326   8.145 -0.1561 -0.2912  0.1514
 7332SOL    HW133629   4.079   3.266   8.146  0.0325 -0.0925 -1.2050
 7332SOL    HW233630   3.946   3.253   8.123 -1.3599  0.8666 -0.4721
 7333SOL     OW33631   3.747   2.495   2.597  0.0371 -0.4199  0.0273
 7333SOL    HW133632   3.754   2.568   2.659  0.2977 -1.1269  0.8318
 7333SOL    HW233633   3.749   2.545   2.516  1.2810  0.8106  0.8160
 7334SOL     OW33634   0.345   3.473   6.032 -0.5218  0.1084 -0.4322
 7334SOL    HW133635   0.341   3.384   6.067 -0.5243  0.2539 -0.0616
 7334SOL    HW233636   0.318   3.458   5.941 -3.3728  0.8588  0.2955
 7335SOL     OW33637   1.475   2.949   3.408 -0.1783 -0.1981 -0.0704
 7335SOL    HW133638   1.504   3.016   3.471 -0.0054 -1.3666  1.0962
 7335SOL    HW233639   1.542   2.881   3.403 -1.3760 -1.5181  1.7079
 7336SOL     OW33640   1.862   2.923  10.675  0.5059  0.1989  0.4220
 7336SOL    HW133641   1.888   2.895  10.763  0.5373 -0.9487  0.0602
 7336SOL    HW233642   1.790   2.861  10.657  0.9237  0.4423 -2.0726
 7337SOL     OW33643   4.467   0.910   6.471 -0.0560  0.3302  0.0807
 7337SOL    HW133644   4.460   1.001   6.441  1.3643 -0.4621 -2.6442
 7337SOL    HW233645   4.437   0.910   6.562  0.1756 -1.4735  0.1559
 7338SOL     OW33646   2.968   4.472   7.028 -0.3743  0.4415  0.1857
 7338SOL    HW133647   3.057   4.499   7.049  0.0065 -0.1990 -0.6189
 7338SOL    HW233648   2.932   4.423   7.102  0.5354 -0.8898 -0.2772
 7339SOL     OW33649   3.562   2.846   4.895 -0.3869  0.5581 -0.4640
 7339SOL    HW133650   3.588   2.891   4.975  1.3391 -3.9857  1.5123
 7339SOL    HW233651   3.589   2.755   4.905 -0.7208  0.6717  1.3824
 7340SOL     OW33652   0.999   2.786   2.063  0.8232 -0.3043  0.0835
 7340SOL    HW133653   1.049   2.766   1.984  1.2420  1.6616 -0.1468
 7340SOL    HW233654   0.927   2.844   2.039  0.8484 -0.5960 -0.6830
 7341SOL     OW33655   4.533   2.190   4.911  0.4500  0.4906 -0.3820
 7341SOL    HW133656   4.468   2.257   4.893 -0.7059 -0.9235 -1.4419
 7341SOL    HW233657   4.577   2.218   4.992  0.9174  0.7335 -0.7210
 7342SOL     OW33658   0.765   1.861   5.644 -0.5323 -0.5944 -0.0903
 7342SOL    HW133659   0.795   1.894   5.729 -0.0600 -0.0549 -0.4722
 7342SOL    HW233660   0.770   1.767   5.661  0.8907 -0.5809 -0.4923
 7343SOL     OW33661   2.009   2.187   4.350 -0.3218  0.0319  0.1219
 7343SOL    HW133662   2.029   2.131   4.425 -1.5076  1.6143  1.6078
 7343SOL    HW233663   2.051   2.131   4.284  1.0709 -0.2417  1.2640
 7344SOL     OW33664   0.115   3.257  12.934 -0.0386 -0.0223 -0.0545
 7344SOL    HW133665   0.040   3.229  12.880 -1.3478  0.4434  1.5244
 7344SOL    HW233666   0.190   3.212  12.895 -0.2523  0.9664 -1.6539
 7345SOL     OW33667   0.113   0.809   4.442 -0.0373  0.2120  0.2172
 7345SOL    HW133668   0.097   0.854   4.358 -0.3531  2.5265  1.5044
 7345SOL    HW233669   0.102   0.716   4.423 -1.9108  0.7069 -1.1783
 7346SOL     OW33670   2.534   2.204   9.627  0.3411 -0.7931  0.4313
 7346SOL    HW133671   2.446   2.193   9.592  0.3582 -1.3523  0.5698
 7346SOL    HW233672   2.542   2.300   9.625 -1.2717 -0.6881 -0.9125
 7347SOL     OW33673   2.674   2.555   4.553  0.4931  0.6312 -0.1452
 7347SOL    HW133674   2.626   2.635   4.531 -0.9738  0.4784  2.4688
 7347SOL    HW233675   2.602   2.493   4.541  0.5368  0.2064  1.8129
 7348SOL     OW33676   3.458   2.703   7.844 -0.2779 -0.0233 -0.1993
 7348SOL    HW133677   3.501   2.764   7.784 -1.3510  0.3972 -0.5485
 7348SOL    HW233678   3.535   2.658   7.879  0.2444  0.7873 -0.3006
 7349SOL     OW33679   4.237   3.920   8.049 -0.1307  0.0368 -0.3189
 7349SOL    HW133680   4.314   3.867   8.028 -1.3382 -1.1863 -1.7241
 7349SOL    HW233681   4.229   3.897   8.142  1.6949  0.0844 -0.1615
 7350SOL     OW33682   1.095   0.357   4.716 -0.0777 -0.0195 -0.0718
 7350SOL    HW133683   1.160   0.302   4.671 -0.1475  0.1909 -0.4264
 7350SOL    HW233684   1.039   0.385   4.644 -1.5462 -1.9667  0.3204
 7351SOL     OW33685   3.960   3.777   8.360 -0.3758 -0.2592  0.0610
 7351SOL    HW133686   3.922   3.731   8.435  1.0316  0.1974  1.0366
 7351SOL    HW233687   3.915   3.861   8.358 -0.1572 -0.0816  2.3753
 7352SOL     OW33688   2.691   4.413  10.216 -0.0835  0.1786 -0.2096
 7352SOL    HW133689   2.746   4.369  10.150 -0.5478  3.3373 -2.7257
 7352SOL    HW233690   2.621   4.449  10.160 -0.1296  0.2243 -0.1217
 7353SOL     OW33691   0.070   0.305   7.963 -0.4719 -0.6504  0.3666
 7353SOL    HW133692   0.113   0.379   7.921 -1.1724  0.5754  1.8252
 7353SOL    HW233693   0.124   0.292   8.040  0.1823  0.4098  0.0854
 7354SOL     OW33694   1.016   1.679   7.633  0.3845  0.0041 -0.3564
 7354SOL    HW133695   0.922   1.666   7.645  0.5044  1.2013  1.8343
 7354SOL    HW233696   0.998   1.757   7.581 -1.0762  0.8457  1.4165
 7355SOL     OW33697   4.372   2.462  10.103  0.2040 -0.3652 -0.1243
 7355SOL    HW133698   4.320   2.391  10.140  1.1202 -0.9887 -0.0355
 7355SOL    HW233699   4.452   2.451  10.154  1.5012  3.1456 -1.4150
 7356SOL     OW33700   0.941   0.435  13.535  0.4200  0.1052  0.1115
 7356SOL    HW133701   1.009   0.412  13.598 -0.7912 -0.0852  1.3656
 7356SOL    HW233702   0.962   0.521  13.497 -0.7209  0.9864  1.4426
 7357SOL     OW33703   4.096   1.261  14.982 -0.2057  0.2362 -0.8056
 7357SOL    HW133704   4.024   1.251  14.920 -0.6988  3.9320 -0.8353
 7357SOL    HW233705   4.109   1.355  14.975 -2.9694  0.6765 -0.1162
 7358SOL     OW33706   2.294   1.722  12.991  0.3649 -0.0169 -0.2248
 7358SOL    HW133707   2.214   1.683  12.955 -1.4237  2.4027  1.1956
 7358SOL    HW233708   2.313   1.792  12.929 -1.3318 -0.3228 -1.0950
 7359SOL     OW33709   3.740   3.345  13.655  0.0532 -0.3191 -0.0049
 7359SOL    HW133710   3.753   3.371  13.746 -2.5415 -0.5439  0.4262
 7359SOL    HW233711   3.759   3.252  13.665  1.2754 -0.1096 -0.2883
 7360SOL     OW33712   3.618   1.581   5.391  0.3458  0.4942 -0.1498
 7360SOL    HW133713   3.673   1.528   5.449 -2.6221 -0.3962  1.8805
 7360SOL    HW233714   3.539   1.585   5.446  0.2388  2.3382 -0.4587
 7361SOL     OW33715   3.630   0.239   5.563 -0.1358 -0.3137  0.0914
 7361SOL    HW133716   3.689   0.178   5.519  0.1577  0.9712 -1.2829
 7361SOL    HW233717   3.693   0.300   5.602  0.7575 -0.9676 -0.3463
 7362SOL     OW33718   0.467   1.553   1.798  0.0424  0.5111 -0.6626
 7362SOL    HW133719   0.561   1.539   1.810  0.3415  3.1878  0.1248
 7362SOL    HW233720   0.473   1.632   1.744 -1.8319  0.7472 -0.5145
 7363SOL     OW33721   0.744   3.202   4.900  0.1470 -0.4825 -0.1515
 7363SOL    HW133722   0.686   3.217   4.825 -3.5252  0.8957  2.9280
 7363SOL    HW233723   0.780   3.115   4.885  1.1936  0.5586 -3.5315
 7364SOL     OW33724   2.907   0.619   7.320 -0.0968  0.5223  0.5333
 7364SOL    HW133725   2.847   0.689   7.347 -1.7378 -1.2279  1.4567
 7364SOL    HW233726   2.847   0.546   7.301  0.0307 -0.2865  3.2354
 7365SOL     OW33727   0.515   1.197  14.969  0.1871  0.1050  0.7581
 7365SOL    HW133728   0.518   1.252  14.891 -0.7610 -0.9482 -0.0357
 7365SOL    HW233729   0.530   1.112  14.926 -1.4082  0.4496 -0.4937
 7366SOL     OW33730   3.202   1.782   1.595  0.2669 -0.1878  0.2548
 7366SOL    HW133731   3.279   1.738   1.630  0.5433  2.2689  2.7725
 7366SOL    HW233732   3.133   1.743   1.649 -0.0619 -1.0643 -0.7961
 7367SOL     OW33733   2.468   4.153  15.555  0.0005 -0.6518 -0.1848
 7367SOL    HW133734   2.552   4.110  15.537  1.3280  2.6667 -1.8567
 7367SOL    HW233735   2.487   4.239  15.518  0.8819 -1.3718 -1.4090
 7368SOL     OW33736   0.329   1.545   6.797  0.1865 -0.4980 -0.2844
 7368SOL    HW133737   0.309   1.451   6.801 -0.6801 -0.3519 -1.4963
 7368SOL    HW233738   0.396   1.545   6.729  0.2059  0.6079 -0.2630
 7369SOL     OW33739   1.998   4.258  13.170 -0.1152  0.3594  0.5080
 7369SOL    HW133740   2.006   4.349  13.200  0.6253  0.6909 -0.7087
 7369SOL    HW233741   2.050   4.255  13.090 -2.4321  1.5566 -1.0421
 7370SOL     OW33742   2.723   0.424  14.701  0.0866  0.0300 -0.1172
 7370SOL    HW133743   2.712   0.482  14.626  1.6116  0.8852  0.3351
 7370SOL    HW233744   2.710   0.338  14.660  0.0970 -0.4258  0.8385
 7371SOL     OW33745   3.224   0.116   4.488  0.1241 -0.0208 -0.6652
 7371SOL    HW133746   3.146   0.171   4.475  0.5892  0.6369 -0.6582
 7371SOL    HW233747   3.226   0.110   4.584 -0.8299  0.9862 -0.5721
 7372SOL     OW33748   2.594   1.376   5.434 -0.3694 -0.9656 -0.1849
 7372SOL    HW133749   2.603   1.288   5.471  1.3301 -1.4095 -1.6276
 7372SOL    HW233750   2.517   1.366   5.378  0.2687 -0.9046 -1.0682
 7373SOL     OW33751   0.606   3.399  13.193  0.3793 -0.2105 -0.3334
 7373SOL    HW133752   0.550   3.417  13.117 -1.0305 -2.6441  0.1228
 7373SOL    HW233753   0.574   3.312  13.219  1.8030 -1.1680 -1.7893
 7374SOL     OW33754   0.698   0.077   7.980  0.0809 -0.4702  0.1856
 7374SOL    HW133755   0.721   0.071   7.887  0.4574  2.8421  0.0865
 7374SOL    HW233756   0.757   0.144   8.015  0.2656 -0.1543 -0.7266
 7375SOL     OW33757   0.460   4.294  11.159  0.3829 -0.1980  0.2078
 7375SOL    HW133758   0.541   4.297  11.107 -0.5126  0.0667 -1.1658
 7375SOL    HW233759   0.467   4.212  11.208 -3.1080 -0.4072  0.3540
 7376SOL     OW33760   3.976   2.533   5.821  0.1163 -0.0976 -0.0245
 7376SOL    HW133761   3.978   2.438   5.809 -2.7037  0.1286 -2.1820
 7376SOL    HW233762   3.898   2.550   5.769 -0.3739  0.5559  0.9233
 7377SOL     OW33763   0.743   0.079   4.567  0.5552 -0.5701 -0.3423
 7377SOL    HW133764   0.719   0.148   4.629  0.9791  0.3765 -1.2306
 7377SOL    HW233765   0.803   0.125   4.509  0.8913 -1.1933 -0.4946
 7378SOL     OW33766   1.132   2.804   6.306  0.2239  0.4824 -0.0285
 7378SOL    HW133767   1.149   2.720   6.347  0.2114 -0.1101 -1.2175
 7378SOL    HW233768   1.222   2.833   6.292  0.6330 -0.7284  0.1577
 7379SOL     OW33769   0.259   4.666  14.605  0.2032  0.1851  0.1086
 7379SOL    HW133770   0.235   4.693  14.694 -0.4911 -0.8009  0.2185
 7379SOL    HW233771   0.288   4.576  14.620  1.1710  0.1292 -2.0961
 7380SOL     OW33772   4.462   0.715   3.799 -0.0608  0.0469  0.1666
 7380SOL    HW133773   4.372   0.689   3.819  0.4742 -1.1365  1.0278
 7380SOL    HW233774   4.488   0.738   3.888  0.6792 -0.1407  0.0029
 7381SOL     OW33775   0.816   4.716   5.427  0.2724 -0.2024 -0.1927
 7381SOL    HW133776   0.869   0.016   5.356 -1.1550  2.4218  0.0908
 7381SOL    HW233777   0.777   4.638   5.387  0.7360  0.9694 -2.9528
 7382SOL     OW33778   2.113   2.045   2.578  0.0445  0.0688  0.0994
 7382SOL    HW133779   2.065   1.965   2.558  0.4525 -0.2988  0.5859
 7382SOL    HW233780   2.127   2.038   2.673  0.3730 -2.2032 -0.0967
 7383SOL     OW33781   0.240   4.612   8.075  0.5470 -0.0230 -0.1568
 7383SOL    HW133782   0.159   4.620   8.025  0.2318  1.1426  0.5405
 7383SOL    HW233783   0.223   4.690   8.129 -1.7694 -1.1264  0.6763
 7384SOL     OW33784   0.340   1.047   7.826  0.0935  0.0462  0.5260
 7384SOL    HW133785   0.279   1.034   7.899 -2.1848 -2.3426 -1.7913
 7384SOL    HW233786   0.398   0.975   7.850 -1.2048 -1.1488  0.1094
 7385SOL     OW33787   3.857   4.458   6.257 -0.0031  0.3963 -0.4220
 7385SOL    HW133788   3.872   4.377   6.208  0.7461  1.1055 -1.3769
 7385SOL    HW233789   3.766   4.474   6.231 -0.1820  1.9670  1.1764
 7386SOL     OW33790   0.072   1.948   9.989  0.1635 -0.2016 -0.5341
 7386SOL    HW133791   0.076   1.939  10.085 -0.0415 -2.1110 -0.7105
 7386SOL    HW233792   0.147   2.005   9.974 -1.1291  1.7493  0.3058
 7387SOL     OW33793   3.034   2.598   9.912  0.2322 -0.0745  0.2306
 7387SOL    HW133794   3.088   2.583   9.835  0.6041  1.3321  0.2211
 7387SOL    HW233795   2.965   2.532   9.898 -0.8511  0.8201  1.4222
 7388SOL     OW33796   2.281   0.594   3.609 -0.3433  0.6448  0.6062
 7388SOL    HW133797   2.343   0.649   3.656 -0.5270 -0.8907  2.6162
 7388SOL    HW233798   2.284   0.525   3.675  0.9625  0.4040  0.2895
 7389SOL     OW33799   3.436   2.860  13.809  0.2400  0.4844  0.0943
 7389SOL    HW133800   3.491   2.915  13.753  1.4831 -2.6592 -1.7766
 7389SOL    HW233801   3.499   2.829  13.873 -1.2714 -0.8947  0.9008
 7390SOL     OW33802   4.144   4.537   9.005  0.1902 -0.0144  0.1388
 7390SOL    HW133803   4.173   4.458   8.960  1.6108 -0.1621  1.2802
 7390SOL    HW233804   4.057   4.561   8.975  0.3106 -0.7947 -0.8053
 7391SOL     OW33805   2.664   4.676   9.736 -0.3489  0.0468 -0.6108
 7391SOL    HW133806   2.656   0.030   9.709 -0.2735 -0.5076 -2.5581
 7391SOL    HW233807   2.580   4.649   9.699 -1.9470  1.6396  1.8355
 7392SOL     OW33808   0.675   2.053  13.827  0.2989  1.1023  0.4675
 7392SOL    HW133809   0.687   2.068  13.921  1.5552 -0.0731  0.5007
 7392SOL    HW233810   0.580   2.050  13.819  0.3688 -0.8121  0.4324
 7393SOL     OW33811   4.471   2.195  17.204  0.1070 -0.1051  0.1289
 7393SOL    HW133812   4.474   2.103  17.230 -0.1791 -0.1682 -0.0725
 7393SOL    HW233813   4.435   2.194  17.116  0.5583 -3.2929 -0.0205
 7394SOL     OW33814   2.096   1.471   7.686  0.4414  0.5663  0.1057
 7394SOL    HW133815   2.072   1.511   7.602 -2.3500  0.4282  0.8143
 7394SOL    HW233816   2.008   1.450   7.718  0.8773  1.1632  1.6871
 7395SOL     OW33817   0.579   0.082   8.455  0.1523 -0.2423  0.0461
 7395SOL    HW133818   0.598   0.164   8.411  0.3639 -0.0043  0.5873
 7395SOL    HW233819   0.510   0.096   8.520 -1.8867  0.0054 -2.1977
 7396SOL     OW33820   4.708   1.518   6.966 -0.1440  0.2497  0.4526
 7396SOL    HW133821   0.040   1.563   6.918 -1.1223  0.6916 -0.5476
 7396SOL    HW233822   0.012   1.478   7.042 -0.7305 -1.0915  0.0687
 7397SOL     OW33823   3.332   1.630   9.863 -0.0563 -0.1284  0.1516
 7397SOL    HW133824   3.346   1.713   9.817 -1.2250  0.2328  0.4589
 7397SOL    HW233825   3.340   1.655   9.955 -0.3767 -0.1005  0.1706
 7398SOL     OW33826   4.449   4.182   3.578  0.2439  0.3865  0.1487
 7398SOL    HW133827   4.474   4.257   3.632 -0.1240 -0.4190  1.4275
 7398SOL    HW233828   4.507   4.197   3.503 -1.8302 -1.0273 -1.7117
 7399SOL     OW33829   3.400   1.626   1.069 -0.2539 -0.0562  0.0315
 7399SOL    HW133830   3.372   1.640   1.159  2.4097  0.4523  0.7935
 7399SOL    HW233831   3.324   1.654   1.019  0.4693  1.4015 -0.2710
 7400SOL     OW33832   3.270   0.293   4.980 -0.6098 -0.0736 -0.7225
 7400SOL    HW133833   3.349   0.249   4.949  0.3922  1.3432 -0.1643
 7400SOL    HW233834   3.277   0.380   4.941  0.9311 -0.1103 -0.5244
 7401SOL     OW33835   1.631   3.481  13.063  0.4773 -0.1097 -0.0507
 7401SOL    HW133836   1.590   3.395  13.074 -0.7874  0.5227  0.2073
 7401SOL    HW233837   1.566   3.520  13.004  0.8879  0.9320  0.1748
 7402SOL     OW33838   3.871   1.210   7.194 -0.0480 -0.0868 -0.4903
 7402SOL    HW133839   3.875   1.285   7.253  1.3547 -0.4077 -0.1618
 7402SOL    HW233840   3.793   1.233   7.145  0.5818  1.2141 -0.8620
 7403SOL     OW33841   2.374   0.776   8.212  0.1944  0.3958 -0.0845
 7403SOL    HW133842   2.439   0.733   8.157 -2.4744 -4.0139  0.1912
 7403SOL    HW233843   2.366   0.710   8.281  1.6957  2.4416  2.0321
 7404SOL     OW33844   3.177   0.965   5.719 -0.3685 -0.2805 -0.0087
 7404SOL    HW133845   3.218   1.017   5.789 -2.5433  0.5370  0.6628
 7404SOL    HW233846   3.254   0.937   5.669 -0.3210  1.2178 -0.8068
 7405SOL     OW33847   0.212   2.162   4.398  0.1731  0.0517  0.0295
 7405SOL    HW133848   0.144   2.227   4.416 -0.1570 -0.2972  0.0472
 7405SOL    HW233849   0.286   2.185   4.455 -0.7613 -0.1661  1.3483
 7406SOL     OW33850   2.393   3.039   3.917 -0.1103  0.1733 -0.1285
 7406SOL    HW133851   2.439   2.966   3.958  1.0996  1.9082  1.6493
 7406SOL    HW233852   2.464   3.070   3.862 -1.0242 -0.0074 -1.4108
 7407SOL     OW33853   0.601   3.225   4.465 -0.2829  0.1949 -0.2994
 7407SOL    HW133854   0.621   3.142   4.421 -2.5319 -0.9227  0.7523
 7407SOL    HW233855   0.666   3.211   4.533 -1.1306  2.3419  0.9524
 7408SOL     OW33856   2.284   2.617   4.906 -0.1333  0.3040  0.3101
 7408SOL    HW133857   2.369   2.657   4.890 -1.2510  2.8301  0.7596
 7408SOL    HW233858   2.222   2.670   4.857 -1.0498  0.5105  1.6889
 7409SOL     OW33859   4.395   3.956   5.140 -0.1899 -0.4388 -0.2598
 7409SOL    HW133860   4.480   3.987   5.172  0.1993  0.8948 -2.5323
 7409SOL    HW233861   4.375   4.025   5.076 -2.6501 -0.4076  0.5401
 7410SOL     OW33862   2.181   0.515   7.407  0.0739 -0.4354  0.7645
 7410SOL    HW133863   2.267   0.508   7.451  0.8359  0.3492 -0.6100
 7410SOL    HW233864   2.129   0.473   7.475  2.2467 -2.1314  1.3993
 7411SOL     OW33865   4.522   2.674   6.590 -0.4446  0.0890 -0.2018
 7411SOL    HW133866   4.582   2.628   6.531  0.1455 -0.0823  0.5441
 7411SOL    HW233867   4.470   2.719   6.524  0.2510 -0.7332 -1.3254
 7412SOL     OW33868   2.976   0.105   8.370  0.2932  0.4779  0.0047
 7412SOL    HW133869   2.909   0.065   8.313  0.1644 -0.1001  0.5638
 7412SOL    HW233870   2.972   0.194   8.335 -1.4877  1.2119  2.0999
 7413SOL     OW33871   1.390   3.252   5.184 -0.1562  0.7081 -0.7070
 7413SOL    HW133872   1.448   3.258   5.260 -2.7882  0.6774  1.2921
 7413SOL    HW233873   1.442   3.182   5.146 -1.2179  0.3886 -1.5748
 7414SOL     OW33874   4.006   3.067   7.886 -0.0183 -0.4815 -0.1311
 7414SOL    HW133875   4.002   2.971   7.882 -4.5889 -0.1394 -3.7014
 7414SOL    HW233876   3.940   3.083   7.954  1.3986 -0.2557  1.1931
 7415SOL     OW33877   2.088   4.416   9.452  0.1223 -0.0884 -0.2928
 7415SOL    HW133878   2.117   4.504   9.479 -0.4158 -0.0523  0.1629
 7415SOL    HW233879   2.006   4.445   9.411 -0.0831 -0.2025  0.0390
 7416SOL     OW33880   2.058   4.453   5.241  0.3702 -0.2138  0.5630
 7416SOL    HW133881   2.104   4.369   5.238  1.6319  0.4882  0.1614
 7416SOL    HW233882   2.127   4.510   5.208 -0.4104  0.0901 -0.5105
 7417SOL     OW33883   1.971   4.132   5.378  0.2040  0.0301 -0.1185
 7417SOL    HW133884   2.025   4.174   5.445 -0.1789 -2.9666  2.1010
 7417SOL    HW233885   2.040   4.118   5.314 -0.3777  0.5520 -0.8628
 7418SOL     OW33886   3.558   2.962   9.513 -0.4289 -0.4979  0.4074
 7418SOL    HW133887   3.652   2.949   9.512 -0.4154 -0.2281 -1.6300
 7418SOL    HW233888   3.551   3.057   9.507  1.1107 -0.4992 -1.1862
 7419SOL     OW33889   1.881   2.089   7.969  0.1767  0.1319 -0.1550
 7419SOL    HW133890   1.797   2.133   7.980  0.0747 -0.3163  0.8986
 7419SOL    HW233891   1.926   2.085   8.053  1.2768  1.8785 -0.6829
 7420SOL     OW33892   3.422   3.321   3.230  0.3085  0.0781 -0.0794
 7420SOL    HW133893   3.391   3.250   3.174  0.7114  1.2492 -1.8138
 7420SOL    HW233894   3.337   3.362   3.244 -0.2729 -1.4220  0.6815
 7421SOL     OW33895   1.183   1.563   1.959 -0.0458  0.9195 -0.2420
 7421SOL    HW133896   1.187   1.517   2.043 -1.3195 -1.2393 -1.3666
 7421SOL    HW233897   1.221   1.647   1.985  0.8579 -0.1749  1.9955
 7422SOL     OW33898   2.335   2.892   7.062  0.4478 -0.1726 -0.1000
 7422SOL    HW133899   2.364   2.832   6.993 -2.0490  0.4028 -1.6658
 7422SOL    HW233900   2.242   2.904   7.041  0.1020 -1.0489  0.9723
 7423SOL     OW33901   1.505   1.959   3.767 -0.0061  0.5006 -0.0137
 7423SOL    HW133902   1.493   1.905   3.688  1.1734 -0.0154  0.1582
 7423SOL    HW233903   1.600   1.970   3.762  0.1210  0.0639  1.4715
 7424SOL     OW33904   4.002   4.477   0.927 -0.2194  0.2417 -0.1897
 7424SOL    HW133905   3.913   4.454   0.899  0.0394  1.2929 -1.8693
 7424SOL    HW233906   4.038   4.388   0.923  1.3960  0.8844  0.3140
 7425SOL     OW33907   0.657   4.719   5.798 -0.2097  0.0371  0.1991
 7425SOL    HW133908   0.607   0.032   5.734 -0.3734 -0.7693 -0.3125
 7425SOL    HW233909   0.599   4.647   5.825  1.9344 -2.0105 -0.6018
 7426SOL     OW33910   1.760   4.267  13.047  0.5726  0.0145 -0.2259
 7426SOL    HW133911   1.829   4.265  13.114 -1.8958 -2.6884  2.2159
 7426SOL    HW233912   1.706   4.343  13.063 -1.6679 -1.6974  0.3243
 7427SOL     OW33913   2.355   0.377   6.911  0.4834 -0.0489  0.8109
 7427SOL    HW133914   2.339   0.320   6.836  3.2479  1.6451 -1.1204
 7427SOL    HW233915   2.273   0.426   6.910  0.6066  0.1385 -0.5886
 7428SOL     OW33916   0.706   1.986  13.488  0.3191  0.1594 -0.5744
 7428SOL    HW133917   0.756   1.956  13.564 -1.0096 -2.2162 -0.6580
 7428SOL    HW233918   0.777   1.977  13.425  0.2259  1.2933 -0.8320
 7429SOL     OW33919   0.574   4.058  12.569 -0.0450 -0.1948 -0.2466
 7429SOL    HW133920   0.662   4.076  12.535 -0.4328  1.0509 -0.5835
 7429SOL    HW233921   0.560   4.140  12.617  0.1708 -0.3886  0.1487
 7430SOL     OW33922   4.358   2.257  11.661 -0.2138  0.8103  0.4328
 7430SOL    HW133923   4.431   2.255  11.599  0.0475  0.2940  0.7610
 7430SOL    HW233924   4.311   2.179  11.631 -0.1805  1.1987 -0.6210
 7431SOL     OW33925   0.385   1.140   1.763 -0.1595  0.5137  0.0848
 7431SOL    HW133926   0.429   1.210   1.714 -0.9047  0.6820 -0.3460
 7431SOL    HW233927   0.461   1.105   1.809  0.9741  0.8668 -1.5489
 7432SOL     OW33928   0.135   0.142   9.080 -0.0778  0.5992 -0.8525
 7432SOL    HW133929   0.148   0.236   9.066  1.1745  0.6948  1.1132
 7432SOL    HW233930   0.040   0.128   9.085  0.5291 -2.4475  2.2900
 7433SOL     OW33931   3.324   3.918   7.084  0.5527  0.4722 -0.1871
 7433SOL    HW133932   3.375   3.918   7.165  0.3655 -1.1022 -0.0603
 7433SOL    HW233933   3.391   3.935   7.018  2.0946  0.2081  1.3034
 7434SOL     OW33934   4.711   4.692   6.711  1.1528  0.1228 -0.5012
 7434SOL    HW133935   0.068   4.705   6.724  0.9614  1.7064 -0.6882
 7434SOL    HW233936   4.678   0.026   6.766  2.3138  1.4695 -1.5296
 7435SOL     OW33937   3.796   0.602  15.610 -0.2609 -0.4188 -0.3176
 7435SOL    HW133938   3.758   0.555  15.684 -1.5320 -1.1053 -1.3913
 7435SOL    HW233939   3.851   0.664  15.657  0.3233 -0.3988 -1.0227
 7436SOL     OW33940   2.109   2.487   8.197  0.1620  0.0669  0.2103
 7436SOL    HW133941   2.114   2.407   8.249 -1.3585 -1.1121 -1.4696
 7436SOL    HW233942   2.150   2.545   8.262  0.5491  0.2138 -0.1630
 7437SOL     OW33943   4.318   2.390   4.341 -0.4615 -0.2319  0.2291
 7437SOL    HW133944   4.406   2.392   4.303 -1.1418 -1.0689 -1.4006
 7437SOL    HW233945   4.329   2.465   4.399 -0.2323  0.3011 -0.5138
 7438SOL     OW33946   0.341   1.409  15.013 -0.5040  0.5130  0.0233
 7438SOL    HW133947   0.399   1.478  15.045 -0.6008  1.3300 -1.5579
 7438SOL    HW233948   0.398   1.332  15.016 -0.6718  0.4544  1.4503
 7439SOL     OW33949   2.961   2.272   9.928  0.1582 -0.0555 -0.0175
 7439SOL    HW133950   2.901   2.198   9.933  0.4362 -0.3398 -0.8836
 7439SOL    HW233951   2.896   2.338   9.906 -1.1230 -1.8810 -1.6381
 7440SOL     OW33952   3.857   2.886   3.725 -0.3196  0.0826  0.1643
 7440SOL    HW133953   3.864   2.980   3.704 -0.1120 -0.1721 -0.8951
 7440SOL    HW233954   3.761   2.884   3.723 -0.2545 -1.5280 -0.8148
 7441SOL     OW33955   2.137   3.054   1.202  0.2825  0.1845 -0.2995
 7441SOL    HW133956   2.113   3.141   1.171 -1.3295 -0.6525 -1.4266
 7441SOL    HW233957   2.064   3.007   1.161 -0.8032  0.0953  1.7284
 7442SOL     OW33958   0.952   2.524  11.128 -0.1306  0.0100 -0.1390
 7442SOL    HW133959   1.045   2.538  11.113 -0.2373  0.1576 -0.6780
 7442SOL    HW233960   0.933   2.617  11.143 -1.4234 -0.0517 -1.2822
 7443SOL     OW33961   2.501   3.281   8.197  0.4699 -0.5326  0.3053
 7443SOL    HW133962   2.512   3.192   8.228 -2.7787 -1.6377 -1.7072
 7443SOL    HW233963   2.552   3.338   8.255  1.0660 -0.3017 -0.4403
 7444SOL     OW33964   0.527   0.011  11.989  0.3072  0.4722 -0.2406
 7444SOL    HW133965   0.561   0.097  11.964  1.1639  0.0911 -0.4023
 7444SOL    HW233966   0.572   4.688  11.930 -0.4031  1.1643 -1.4779
 7445SOL     OW33967   2.183   0.225   8.438 -0.1503  0.1369  0.0493
 7445SOL    HW133968   2.111   0.272   8.480 -1.0940  0.0356 -1.4172
 7445SOL    HW233969   2.250   0.293   8.449  1.2766 -1.1375 -0.8409
 7446SOL     OW33970   2.373   4.677   3.829 -0.2851  0.9898  0.6877
 7446SOL    HW133971   2.458   4.663   3.786 -1.0712  2.2039 -1.2332
 7446SOL    HW233972   2.344   4.589   3.853 -1.2136  1.1164  0.0379
 7447SOL     OW33973   4.192   1.270   3.693 -0.3078 -0.6237  0.0210
 7447SOL    HW133974   4.186   1.351   3.743  0.2083  0.3619 -1.4882
 7447SOL    HW233975   4.136   1.294   3.619 -2.7822 -0.4757  1.9715
 7448SOL     OW33976   3.531   2.248  16.663 -0.3743  0.5912 -0.3107
 7448SOL    HW133977   3.554   2.263  16.755  1.4225  0.7937 -0.8023
 7448SOL    HW233978   3.530   2.153  16.655 -0.0723  0.4962  0.8035
 7449SOL     OW33979   3.935   0.592   2.665 -0.1599  0.5668  0.1751
 7449SOL    HW133980   3.917   0.536   2.741  1.8515  0.6793  0.7380
 7449SOL    HW233981   4.010   0.638   2.702 -0.3456 -0.4740  1.8884
 7450SOL     OW33982   1.645   1.707   7.172  0.0494  0.1379 -0.5089
 7450SOL    HW133983   1.570   1.651   7.147  0.7776 -2.2461  2.6576
 7450SOL    HW233984   1.617   1.742   7.257  0.9465  0.1137 -0.2070
 7451SOL     OW33985   3.796   4.305   2.012 -0.1426  0.1834 -0.2225
 7451SOL    HW133986   3.858   4.233   2.021  2.1151  1.9943 -1.6153
 7451SOL    HW233987   3.750   4.301   2.096  1.8571 -3.3943  0.6910
 7452SOL     OW33988   1.572   3.778  11.700 -0.0498  0.2854  0.1583
 7452SOL    HW133989   1.531   3.726  11.769 -0.5648 -0.3430 -0.6165
 7452SOL    HW233990   1.526   3.861  11.704 -2.4156 -1.0426  0.8015
 7453SOL     OW33991   2.880   0.456   2.709 -0.0916 -0.1534  0.2391
 7453SOL    HW133992   2.950   0.491   2.655  1.7115 -1.6786  1.6038
 7453SOL    HW233993   2.915   0.445   2.797  1.7610 -1.4369 -0.6616
 7454SOL     OW33994   4.264   1.010   7.076 -0.1796  0.1308 -0.1420
 7454SOL    HW133995   4.274   1.034   7.168  1.9000 -1.2346 -0.0131
 7454SOL    HW233996   4.169   1.004   7.080 -0.0311 -1.9267  0.4603
 7455SOL     OW33997   0.794   1.920   5.219 -0.9757 -0.9670  0.3195
 7455SOL    HW133998   0.830   1.844   5.266  0.2401  0.4060  1.6246
 7455SOL    HW233999   0.800   1.900   5.126  2.5982 -1.8857  0.7396
 7456SOL     OW34000   3.586   3.657   2.332  0.1880  0.8047 -0.1550
 7456SOL    HW134001   3.506   3.699   2.363 -0.0592 -0.4327  0.8586
 7456SOL    HW234002   3.653   3.709   2.377  1.8354 -3.1937  1.9243
 7457SOL     OW34003   4.432   2.333   6.438 -0.2067 -0.2444 -0.2811
 7457SOL    HW134004   4.431   2.360   6.530  3.1902 -1.0221  0.0051
 7457SOL    HW234005   4.504   2.387   6.406  1.3386 -0.7534  2.3237
 7458SOL     OW34006   4.291   3.414   4.753  0.0621  0.2302 -0.0715
 7458SOL    HW134007   4.295   3.391   4.846  0.6180  0.5819 -0.0034
 7458SOL    HW234008   4.245   3.336   4.723 -1.3992  0.5280  1.3659
 7459SOL     OW34009   4.562   1.028   0.056  0.1252 -0.6121  0.4449
 7459SOL    HW134010   4.544   1.112   0.016 -0.3801 -0.8941  0.0908
 7459SOL    HW234011   4.513   0.965   0.003  0.5288 -0.2166 -0.3923
 7460SOL     OW34012   0.783   0.754   7.449 -0.8816  1.2219 -0.3744
 7460SOL    HW134013   0.758   0.681   7.392  0.5432  0.7786 -0.4165
 7460SOL    HW234014   0.829   0.802   7.380 -4.2925  0.5289 -3.1363
 7461SOL     OW34015   2.611   2.624   3.458 -0.0553  0.4040 -0.0551
 7461SOL    HW134016   2.553   2.646   3.385  0.7586 -0.8048 -1.0816
 7461SOL    HW234017   2.547   2.611   3.528 -0.1319  2.8045  0.3109
 7462SOL     OW34018   1.978   2.988   4.162 -0.2250  0.5950 -0.0212
 7462SOL    HW134019   1.952   2.984   4.254 -0.0425  0.9493  0.0486
 7462SOL    HW234020   2.073   2.985   4.161 -0.2097  0.8072  0.4540
 7463SOL     OW34021   1.848   0.629   6.421 -0.2049 -1.0191 -0.2055
 7463SOL    HW134022   1.844   0.598   6.512 -0.2110 -0.2508  0.0582
 7463SOL    HW234023   1.871   0.544   6.383 -0.7042 -0.6551 -1.2989
 7464SOL     OW34024   3.779   1.205   5.027  0.1920 -0.2634 -0.3766
 7464SOL    HW134025   3.705   1.204   5.088 -1.0128  1.8458 -1.7779
 7464SOL    HW234026   3.815   1.288   5.058 -1.2703 -0.9633  3.2516
 7465SOL     OW34027   0.476   3.803   1.741  0.3299 -0.0478  0.2814
 7465SOL    HW134028   0.447   3.840   1.824 -2.0138 -0.3500 -0.4104
 7465SOL    HW234029   0.422   3.860   1.687 -1.8797 -1.1802  1.2882
 7466SOL     OW34030   2.848   2.895   9.061 -0.4576  1.0127 -0.2880
 7466SOL    HW134031   2.762   2.870   9.095  0.2683 -0.8867  0.1770
 7466SOL    HW234032   2.902   2.837   9.114  0.0296 -0.4028 -2.3279
 7467SOL     OW34033   1.848   3.409   9.657  0.1303 -0.0282 -0.2461
 7467SOL    HW134034   1.939   3.432   9.637  1.0826 -1.9053  1.8943
 7467SOL    HW234035   1.842   3.432   9.750 -0.8880 -0.0137 -0.3194
 7468SOL     OW34036   0.252   2.989  13.572  0.3475  0.1716 -0.2556
 7468SOL    HW134037   0.223   3.075  13.602  1.8134  0.0653  1.4329
 7468SOL    HW234038   0.284   2.997  13.482  0.3149  0.6851 -0.2252
 7469SOL     OW34039   1.034   3.439  13.551  0.0826  0.7507 -0.1259
 7469SOL    HW134040   1.023   3.503  13.480 -0.5869  0.8924  0.1019
 7469SOL    HW234041   0.946   3.401  13.549  0.7179 -0.6245 -1.5131
 7470SOL     OW34042   0.887   2.546   8.678 -0.5816 -0.3155  0.2563
 7470SOL    HW134043   0.925   2.464   8.708  1.1902  0.0161 -1.0671
 7470SOL    HW234044   0.966   2.600   8.674  0.5723 -1.8734  2.1630
 7471SOL     OW34045   2.708   4.663  16.552  0.0669  0.5429 -0.2439
 7471SOL    HW134046   2.713   4.641  16.459 -0.2706  1.0702 -0.3925
 7471SOL    HW234047   2.781   4.722  16.571  1.5756 -0.8834 -1.6721
 7472SOL     OW34048   2.686   4.381  10.795  0.0524  0.2302  0.0166
 7472SOL    HW134049   2.714   4.337  10.715 -0.3096  0.1439 -0.0595
 7472SOL    HW234050   2.641   4.458  10.759 -1.6214 -0.9013 -0.2881
 7473SOL     OW34051   4.177   1.517   7.532 -0.2639 -0.1826 -0.0289
 7473SOL    HW134052   4.232   1.565   7.471  2.0317  0.3707  2.4944
 7473SOL    HW234053   4.100   1.573   7.538  0.7722  1.3735 -1.1339
 7474SOL     OW34054   4.621   3.691  16.983 -0.7453  0.3953  0.2222
 7474SOL    HW134055   4.709   3.654  16.976 -0.0860  2.2497 -1.2797
 7474SOL    HW234056   4.587   3.660  17.067 -0.5069  3.8779  1.6314
 7475SOL     OW34057   4.153   3.561  10.171 -0.2249  0.0700  0.3460
 7475SOL    HW134058   4.233   3.509  10.181  0.0354  0.2042 -1.0302
 7475SOL    HW234059   4.096   3.514  10.111  0.6333 -1.7426  0.9373
 7476SOL     OW34060   1.129   3.869   1.163  0.5761  0.1300 -0.3239
 7476SOL    HW134061   1.113   3.840   1.073 -0.1977 -0.5945  0.0541
 7476SOL    HW234062   1.145   3.781   1.197 -0.3687  0.6522  1.4696
 7477SOL     OW34063   1.816   4.228   3.024  0.0084 -0.4382 -0.3053
 7477SOL    HW134064   1.856   4.211   2.939 -1.1053  2.0551 -1.3457
 7477SOL    HW234065   1.744   4.283   2.993 -1.3410 -0.7291  2.2337
 7478SOL     OW34066   2.321   3.682  10.632 -0.1799  0.4092 -0.5217
 7478SOL    HW134067   2.231   3.657  10.650  0.2072  0.3636  1.4349
 7478SOL    HW234068   2.368   3.604  10.662  1.9340  2.0161  0.3391
 7479SOL     OW34069   4.087   2.827   9.293  0.3063  0.1862 -0.3337
 7479SOL    HW134070   4.053   2.748   9.335  1.0502 -0.9532 -1.8727
 7479SOL    HW234071   4.005   2.857   9.254  0.6169 -1.0030 -1.8926
 7480SOL     OW34072   0.941   4.260   7.409 -0.3724 -0.5595 -0.2622
 7480SOL    HW134073   0.925   4.259   7.504  1.3530 -2.2065 -0.0084
 7480SOL    HW234074   0.878   4.329   7.387  0.2902  0.0818 -0.1538
 7481SOL     OW34075   0.922   0.958   2.639 -0.0768 -0.4446 -0.5960
 7481SOL    HW134076   0.839   0.937   2.598  0.2286  0.3219 -1.6089
 7481SOL    HW234077   0.954   0.881   2.687  1.4729  0.0997 -0.7499
 7482SOL     OW34078   3.519   0.918   3.017 -0.4834 -0.2556  0.4453
 7482SOL    HW134079   3.484   0.926   3.106  0.5112 -1.3928  0.9275
 7482SOL    HW234080   3.497   0.826   3.003  0.4165 -0.5488  0.9473
 7483SOL     OW34081   2.841   3.718   6.787  0.5985 -0.0876  0.3356
 7483SOL    HW134082   2.764   3.750   6.740 -0.2884 -0.3254  1.6297
 7483SOL    HW234083   2.804   3.719   6.875 -1.6983  1.8870 -0.6294
 7484SOL     OW34084   1.621   3.520   5.061 -0.0836  0.2994 -0.4453
 7484SOL    HW134085   1.527   3.506   5.069 -0.2410  0.9706 -1.1942
 7484SOL    HW234086   1.644   3.550   5.149  1.0540 -1.1991 -0.2369
 7485SOL     OW34087   4.380   3.216  13.361  0.3956 -0.2829  0.5299
 7485SOL    HW134088   4.435   3.180  13.292  0.1469  2.7412 -1.2924
 7485SOL    HW234089   4.352   3.143  13.416 -2.4626  0.4718  0.0974
 7486SOL     OW34090   4.388   0.532   4.118 -0.0189 -0.2583  0.0947
 7486SOL    HW134091   4.385   0.626   4.138  0.9454 -0.4776  1.2756
 7486SOL    HW234092   4.482   0.515   4.117  0.2123  0.9452  1.0284
 7487SOL     OW34093   4.396   4.140  13.375  0.0679  0.3693  0.2183
 7487SOL    HW134094   4.459   4.161  13.306  0.4372 -2.6049 -0.3641
 7487SOL    HW234095   4.401   4.211  13.438 -0.8977  0.2550  0.4269
 7488SOL     OW34096   2.572   0.710   5.941 -0.3352  0.4103 -0.5182
 7488SOL    HW134097   2.625   0.642   5.983 -0.7342  1.2386  1.3055
 7488SOL    HW234098   2.507   0.718   6.010  1.3363  0.8974  1.0109
 7489SOL     OW34099   4.495   3.970  15.569  0.0302 -0.0892 -0.1673
 7489SOL    HW134100   4.405   3.936  15.561  0.4191 -1.2785  0.5517
 7489SOL    HW234101   4.512   3.935  15.656 -0.3266 -1.9831 -0.8491
 7490SOL     OW34102   2.067   2.302   3.681 -0.0029 -0.4692  0.7223
 7490SOL    HW134103   2.011   2.227   3.704 -0.9613 -0.5222 -1.8538
 7490SOL    HW234104   2.001   2.353   3.635  0.2819 -1.2958 -0.5967
 7491SOL     OW34105   1.835   3.863   3.911  0.5055  0.4468 -0.2260
 7491SOL    HW134106   1.816   3.951   3.878  0.5755  0.1264 -1.1148
 7491SOL    HW234107   1.875   3.812   3.841 -1.9104  1.1026 -2.0793
 7492SOL     OW34108   3.160   2.461   4.345 -0.0311  0.0803 -0.2725
 7492SOL    HW134109   3.086   2.502   4.300  1.2904  1.3335 -1.2863
 7492SOL    HW234110   3.125   2.428   4.428  0.4348  1.0113  0.2920
 7493SOL     OW34111   3.199   2.695   2.280  0.1616  0.3840 -0.1357
 7493SOL    HW134112   3.209   2.616   2.227 -1.6272 -0.6395  1.0633
 7493SOL    HW234113   3.274   2.741   2.243  0.5028 -1.1700 -1.3719
 7494SOL     OW34114   0.740   2.593   2.802 -0.0905 -0.2308  0.3312
 7494SOL    HW134115   0.700   2.538   2.735 -1.0032 -1.2197  1.7007
 7494SOL    HW234116   0.699   2.555   2.879 -1.9753  2.7080  0.7803
 7495SOL     OW34117   0.448   2.159   7.714  0.6379 -0.6017 -0.3235
 7495SOL    HW134118   0.488   2.220   7.776 -1.7707 -0.5895  1.1988
 7495SOL    HW234119   0.528   2.117   7.681  2.0353  1.9303 -0.1774
 7496SOL     OW34120   4.484   1.162   4.186 -0.4055 -0.3496  0.1036
 7496SOL    HW134121   4.437   1.238   4.152 -1.4769 -0.5275  1.1883
 7496SOL    HW234122   4.415   1.096   4.186 -0.1857 -0.5974 -1.5980
 7497SOL     OW34123   4.017   0.187   2.230  0.3948  0.3142 -0.1072
 7497SOL    HW134124   4.078   0.247   2.187  1.3413  0.9339  2.0681
 7497SOL    HW234125   4.067   0.150   2.303  0.3624  1.4189  0.4696
 7498SOL     OW34126   3.779   3.121   3.654  0.3196  0.0659 -0.1708
 7498SOL    HW134127   3.692   3.133   3.615  0.8357 -0.2475 -1.4049
 7498SOL    HW234128   3.838   3.157   3.589 -2.0070 -0.1610 -2.4086
 7499SOL     OW34129   0.750   3.348  16.312  0.3508  0.7023  0.4624
 7499SOL    HW134130   0.837   3.358  16.274 -0.5166  0.2217 -1.6662
 7499SOL    HW234131   0.718   3.437  16.325 -1.6101  0.4211 -2.4141
 7500SOL     OW34132   2.227   2.964   4.718 -0.0367 -0.3992  0.2750
 7500SOL    HW134133   2.171   2.889   4.736 -2.1293  0.5828 -2.3173
 7500SOL    HW234134   2.230   2.954   4.623 -0.6404 -2.0030  0.4244
 7501SOL     OW34135   1.703   1.246   4.136  0.1068  0.0807  0.2114
 7501SOL    HW134136   1.744   1.181   4.080 -2.4508 -0.5728 -0.8849
 7501SOL    HW234137   1.779   1.298   4.162 -0.7295  1.5207 -0.2385
 7502SOL     OW34138   4.412   0.374   0.764  0.3300 -0.0461 -0.1905
 7502SOL    HW134139   4.451   0.401   0.847  2.0760 -0.1693 -0.9701
 7502SOL    HW234140   4.409   0.281   0.785 -0.5002 -0.0590 -0.3471
 7503SOL     OW34141   0.415   1.253   3.150  0.3659  0.2318  0.5624
 7503SOL    HW134142   0.451   1.303   3.077  1.9317 -0.8739  0.5813
 7503SOL    HW234143   0.363   1.195   3.094  0.1026  2.2947 -1.3080
 7504SOL     OW34144   0.598   1.730  16.673 -0.3275 -0.5017 -0.1880
 7504SOL    HW134145   0.505   1.738  16.692 -0.5703 -0.0243 -1.5600
 7504SOL    HW234146   0.631   1.817  16.653 -0.9735 -0.2881 -0.3281
 7505SOL     OW34147   2.819   2.048  17.270 -0.2042  0.6162 -0.5102
 7505SOL    HW134148   2.846   2.081  17.356 -1.1195  2.6480 -0.9828
 7505SOL    HW234149   2.902   2.052  17.224  0.2216  1.1884  0.3101
 7506SOL     OW34150   0.318   0.477  13.368  0.3810  0.1540  0.5068
 7506SOL    HW134151   0.303   0.427  13.448 -0.2496  2.5286  1.8805
 7506SOL    HW234152   0.385   0.431  13.318  0.2936  2.7971 -2.0359
 7507SOL     OW34153   2.465   2.698  13.280 -0.0901 -0.7074 -0.1534
 7507SOL    HW134154   2.483   2.792  13.288  0.8819 -0.8882 -0.1710
 7507SOL    HW234155   2.526   2.662  13.345 -0.1574 -0.1005  0.2434
 7508SOL     OW34156   3.357   0.719   1.773 -0.3913  0.1024 -0.0278
 7508SOL    HW134157   3.286   0.780   1.754  1.0094  1.5159 -0.6478
 7508SOL    HW234158   3.346   0.656   1.701  1.7661  1.2073 -1.3296
 7509SOL     OW34159   2.732   2.427   9.898  0.0405 -0.5558 -0.2883
 7509SOL    HW134160   2.642   2.443   9.871 -0.2761 -1.8072  0.0306
 7509SOL    HW234161   2.713   2.397   9.987 -1.3950 -0.8310 -0.6866
 7510SOL     OW34162   2.678   0.650  14.256  0.1013  0.1494 -0.2767
 7510SOL    HW134163   2.665   0.650  14.351  1.8183 -2.0554 -0.0288
 7510SOL    HW234164   2.656   0.739  14.229 -1.4166  0.0647  0.6914
 7511SOL     OW34165   0.610   3.145   8.801 -0.1428 -0.6828 -0.6202
 7511SOL    HW134166   0.672   3.186   8.740 -1.4912  2.1139 -0.1028
 7511SOL    HW234167   0.665   3.084   8.851  1.7518  0.9268 -0.7298
 7512SOL     OW34168   3.184   1.607   0.459  0.1057  0.2026  0.0390
 7512SOL    HW134169   3.206   1.657   0.537 -1.0010  0.0922  0.4248
 7512SOL    HW234170   3.129   1.672   0.416  1.5285  0.2996 -1.6262
 7513SOL     OW34171   1.210   3.080  16.704  0.2839 -0.0265  0.1757
 7513SOL    HW134172   1.260   3.014  16.656 -2.0844 -0.4386 -1.6911
 7513SOL    HW234173   1.122   3.051  16.680 -0.2016  0.4581  1.3513
 7514SOL     OW34174   0.345   2.895   9.578  0.1174  0.3527 -0.8876
 7514SOL    HW134175   0.307   2.811   9.552 -0.8384  0.8418 -1.0698
 7514SOL    HW234176   0.437   2.872   9.567  0.4423  1.1963  0.1546
 7515SOL     OW34177   0.936   1.826   4.333  0.3143  0.7862  0.6141
 7515SOL    HW134178   0.865   1.832   4.397 -0.1452 -0.5165  0.2130
 7515SOL    HW234179   1.011   1.868   4.377 -0.4132  3.6449 -0.8395
 7516SOL     OW34180   4.058   2.746   7.332  0.1051  0.5147  0.1853
 7516SOL    HW134181   4.003   2.820   7.358 -2.0297 -0.4375 -1.6032
 7516SOL    HW234182   4.128   2.786   7.281 -2.1423  4.8569  0.4696
 7517SOL     OW34183   1.317   4.314  13.779 -0.6329  0.3977 -0.2224
 7517SOL    HW134184   1.365   4.338  13.858  0.9645  0.4302 -1.2233
 7517SOL    HW234185   1.232   4.280  13.808  0.2709 -1.8707 -0.2758
 7518SOL     OW34186   3.028   0.489   5.150 -0.4498  0.0279 -0.2184
 7518SOL    HW134187   3.073   0.488   5.065  1.7182 -1.1887  0.9655
 7518SOL    HW234188   2.965   0.418   5.136 -1.6885  0.7974  1.4637
 7519SOL     OW34189   1.615   0.288  13.449 -0.1150 -0.0536 -0.3154
 7519SOL    HW134190   1.702   0.248  13.454  0.2596  0.8261  0.1895
 7519SOL    HW234191   1.631   0.381  13.466 -1.5703 -0.1998  1.9086
 7520SOL     OW34192   3.321   3.482   4.406  0.2263  0.1610 -0.0543
 7520SOL    HW134193   3.274   3.561   4.432  0.6646  0.5884 -0.5379
 7520SOL    HW234194   3.300   3.422   4.477 -0.4039 -3.1366 -3.0096
 7521SOL     OW34195   4.668   0.590   6.280  0.8954  0.4051  0.4190
 7521SOL    HW134196   4.703   0.644   6.351  2.0923  0.5037 -0.2358
 7521SOL    HW234197   4.721   0.510   6.284  0.8836  0.5139  2.8366
 7522SOL     OW34198   0.129   2.943   5.463  1.0038 -0.1482 -0.1033
 7522SOL    HW134199   0.155   2.893   5.540 -0.0650  1.2683  1.2019
 7522SOL    HW234200   0.035   2.958   5.477  0.8966  0.4596 -1.4504
 7523SOL     OW34201   4.657   2.566   4.013  0.2404 -0.0912  0.7131
 7523SOL    HW134202   4.639   2.474   4.029 -0.6844 -0.1374 -0.6891
 7523SOL    HW234203   4.697   2.580   3.927 -1.0638  1.0957  0.2991
 7524SOL     OW34204   0.091   3.010  14.120  0.2787 -0.1985 -0.0897
 7524SOL    HW134205   0.059   3.100  14.113 -0.5101 -0.6744 -2.4438
 7524SOL    HW234206   0.007   2.969  14.139  1.0479 -0.3026  3.0165
 7525SOL     OW34207   2.675   2.401   4.148  0.0335  0.1284  0.4350
 7525SOL    HW134208   2.596   2.451   4.126 -0.9631 -1.3798  0.6240
 7525SOL    HW234209   2.705   2.364   4.065  1.2774  1.1857  0.3993
 7526SOL     OW34210   0.835   1.964  16.550  0.3964  0.2281 -0.6798
 7526SOL    HW134211   0.750   1.963  16.507 -0.4770 -1.8902  1.1052
 7526SOL    HW234212   0.875   1.881  16.523 -0.2289  0.1648 -1.3999
 7527SOL     OW34213   3.838   1.824   0.024 -0.0129 -1.0310  0.2646
 7527SOL    HW134214   3.828   1.901   0.081  1.2440  0.1917 -1.1820
 7527SOL    HW234215   3.933   1.816   0.019 -0.1941 -1.7973 -1.7142
 7528SOL     OW34216   2.894   2.868  11.476  0.9833  0.1754  0.0186
 7528SOL    HW134217   2.907   2.849  11.569  1.1439  0.3304  0.0271
 7528SOL    HW234218   2.863   2.782  11.446 -1.2958  1.1572 -0.4051
 7529SOL     OW34219   2.556   1.260   4.703  0.1079  0.0741  0.7063
 7529SOL    HW134220   2.550   1.351   4.732  0.5079  0.9599 -1.9589
 7529SOL    HW234221   2.625   1.258   4.636 -1.5105 -0.3551 -0.9379
 7530SOL     OW34222   3.554   0.634  15.348 -0.0590 -0.0470  0.3197
 7530SOL    HW134223   3.482   0.577  15.376  0.6751 -1.2231 -0.1927
 7530SOL    HW234224   3.513   0.686  15.279  0.4689 -0.8100 -0.5590
 7531SOL     OW34225   0.468   0.374   9.172 -0.0300  0.4666 -0.0165
 7531SOL    HW134226   0.457   0.468   9.189  1.4962  0.5043  0.7415
 7531SOL    HW234227   0.508   0.349   9.255  0.1329  1.5965  0.2446
 7532SOL     OW34228   2.409   3.696   6.506 -0.9695 -0.4631 -0.4308
 7532SOL    HW134229   2.330   3.748   6.525  1.0697  1.9785  1.4311
 7532SOL    HW234230   2.460   3.720   6.583  2.3840 -1.7474 -2.2770
 7533SOL     OW34231   4.462   3.987  10.930  0.4261 -0.0443 -0.3865
 7533SOL    HW134232   4.427   4.023  11.011  1.4139 -2.4609  1.0976
 7533SOL    HW234233   4.494   4.069  10.893  0.0531 -0.5608 -1.8569
 7534SOL     OW34234   3.238   3.336   3.481  0.3868  0.0036 -0.0085
 7534SOL    HW134235   3.181   3.394   3.430  2.1514 -0.5651 -2.6355
 7534SOL    HW234236   3.210   3.246   3.462 -0.9790 -0.4565  4.2034
 7535SOL     OW34237   1.000   4.694   0.437  0.4079  0.6443 -0.0130
 7535SOL    HW134238   1.010   0.045   0.400  0.7825  1.1200  1.2245
 7535SOL    HW234239   0.958   4.639   0.371  0.0275  0.6988  0.1840
 7536SOL     OW34240   3.259   3.095   3.732 -0.2626  0.5164  1.0855
 7536SOL    HW134241   3.212   3.161   3.783  3.3026  3.5106  0.5347
 7536SOL    HW234242   3.293   3.036   3.799  0.8671  0.7910  0.7572
 7537SOL     OW34243   3.996   0.360   4.192 -0.3918 -0.1551 -0.0580
 7537SOL    HW134244   4.047   0.371   4.112 -0.4792  0.9155  0.0444
 7537SOL    HW234245   4.044   0.420   4.249  1.5544 -0.8068 -1.0322
 7538SOL     OW34246   3.599   1.373   2.173 -0.1497 -0.1420  0.2580
 7538SOL    HW134247   3.677   1.345   2.220 -0.0532  1.2122  0.9282
 7538SOL    HW234248   3.533   1.384   2.242 -0.1083  1.1443  0.1028
 7539SOL     OW34249   0.502   2.192   2.763 -0.3739 -0.1302  0.0166
 7539SOL    HW134250   0.429   2.248   2.787  0.4208  2.1742 -2.9696
 7539SOL    HW234251   0.473   2.116   2.813  0.2478 -0.7707 -0.6027
 7540SOL     OW34252   2.458   0.017  16.589 -0.4476 -0.4412  0.3544
 7540SOL    HW134253   2.540   4.706  16.582 -0.5525 -0.8001  1.6540
 7540SOL    HW234254   2.484   0.109  16.586 -0.0097 -0.6207 -1.6710
 7541SOL     OW34255   0.461   3.913   3.120  0.0460  0.1620  0.4179
 7541SOL    HW134256   0.368   3.936   3.129  0.4836  2.8729 -2.3500
 7541SOL    HW234257   0.452   3.818   3.128  1.2749 -0.0535 -0.9894
 7542SOL     OW34258   3.548   4.239   7.367 -0.0130  0.7307 -0.6989
 7542SOL    HW134259   3.573   4.204   7.452 -3.5306  1.2926  0.5439
 7542SOL    HW234260   3.619   4.196   7.319  0.1707  1.3505 -0.9826
 7543SOL     OW34261   2.690   3.179  11.876 -0.3499  0.5581  0.1846
 7543SOL    HW134262   2.747   3.202  11.950  0.2884  0.0528 -0.1475
 7543SOL    HW234263   2.692   3.249  11.812  1.7006  1.2924  1.0381
 7544SOL     OW34264   2.512   4.657   8.548 -0.3110 -0.2198 -0.2586
 7544SOL    HW134265   2.523   4.713   8.471  0.3163  0.9062  0.6325
 7544SOL    HW234266   2.571   4.700   8.611 -0.9898  0.9892 -0.4399
 7545SOL     OW34267   3.106   2.523  12.087  0.0218  0.2078  0.6357
 7545SOL    HW134268   3.188   2.572  12.091 -0.0881  0.4082  0.4243
 7545SOL    HW234269   3.104   2.502  11.993  1.9278 -0.2365  0.6915
 7546SOL     OW34270   3.547   1.396   4.104 -0.2133 -0.1620 -0.7211
 7546SOL    HW134271   3.609   1.369   4.036  1.5273 -0.0010  0.8011
 7546SOL    HW234272   3.609   1.406   4.176 -0.0190  3.9587 -1.4256
 7547SOL     OW34273   0.811   3.698  13.808 -0.5443  0.2916  0.1868
 7547SOL    HW134274   0.771   3.721  13.724  0.8034  0.1729 -0.4834
 7547SOL    HW234275   0.736   3.654  13.848 -2.9574  3.3728 -0.9474
 7548SOL     OW34276   3.895   1.215   0.601 -0.3083  0.4642  0.0298
 7548SOL    HW134277   3.921   1.151   0.666  3.3643  0.7844 -1.0762
 7548SOL    HW234278   3.832   1.266   0.652  0.6951  1.0087  0.7145
 7549SOL     OW34279   4.655   0.158   7.404 -0.0444 -0.3428 -0.4032
 7549SOL    HW134280   4.589   0.091   7.420 -1.3397  0.9655 -0.2106
 7549SOL    HW234281   4.607   0.236   7.431  0.8227 -0.4865  1.5563
 7550SOL     OW34282   3.835   0.222  13.958 -0.2260 -0.2709 -0.3903
 7550SOL    HW134283   3.845   0.181  14.044  2.1254 -0.5092 -0.7794
 7550SOL    HW234284   3.926   0.222  13.929  0.1049  0.4251  0.6373
 7551SOL     OW34285   4.516   1.930   9.499 -0.6044  0.1952  0.0876
 7551SOL    HW134286   4.442   1.985   9.474 -0.6862 -0.0767 -0.2743
 7551SOL    HW234287   4.504   1.916   9.593 -1.4097 -0.1646 -0.0717
 7552SOL     OW34288   4.327   1.908  10.822 -0.0054 -0.1722  0.1118
 7552SOL    HW134289   4.376   1.838  10.864  2.0919  1.4839  0.4331
 7552SOL    HW234290   4.248   1.916  10.876 -0.6916  2.8668 -1.3177
 7553SOL     OW34291   0.452   2.889   5.343 -0.0916  0.2314  0.4693
 7553SOL    HW134292   0.382   2.950   5.318  2.2160  2.4150 -0.7158
 7553SOL    HW234293   0.399   2.810   5.346  1.0466 -0.5384  0.2661
 7554SOL     OW34294   1.472   3.711   1.947 -0.4294 -0.1456  0.2482
 7554SOL    HW134295   1.432   3.719   2.034 -0.4518  0.8886  0.1384
 7554SOL    HW234296   1.475   3.617   1.929  2.3229  0.0960 -0.5216
 7555SOL     OW34297   3.407   3.995   2.999  0.9198  0.3226 -0.2265
 7555SOL    HW134298   3.321   3.967   3.030  2.5098 -2.4857  1.7314
 7555SOL    HW234299   3.391   4.083   2.966  0.0695 -0.1274 -1.0080
 7556SOL     OW34300   1.040   1.929   5.566 -0.0062 -0.1893  0.0313
 7556SOL    HW134301   1.091   1.853   5.594 -0.4032 -0.9067 -1.2407
 7556SOL    HW234302   0.951   1.895   5.575 -0.1311 -0.1874 -1.2554
 7557SOL     OW34303   4.176   2.705   3.012  0.6558  0.0729  0.8933
 7557SOL    HW134304   4.097   2.749   3.043  0.4151  0.5233 -0.3836
 7557SOL    HW234305   4.149   2.676   2.925 -1.6690  1.3321  1.2161
 7558SOL     OW34306   4.562   1.395  12.752 -0.7774 -0.3373 -0.0571
 7558SOL    HW134307   4.610   1.400  12.670 -1.1629  0.5477 -0.2253
 7558SOL    HW234308   4.478   1.356  12.728 -0.9188  0.8119 -1.4460
 7559SOL     OW34309   1.402   3.312   8.111  0.2335  0.3853  0.0732
 7559SOL    HW134310   1.484   3.262   8.116  0.3871  0.5801 -0.4438
 7559SOL    HW234311   1.407   3.385   8.173  1.2323  0.3362  0.0524
 7560SOL     OW34312   2.422   1.249   8.264  0.6255 -0.3524  0.0756
 7560SOL    HW134313   2.390   1.175   8.213  1.1431 -0.3077 -0.3151
 7560SOL    HW234314   2.515   1.238   8.246  1.0913 -1.4885  3.1077
 7561SOL     OW34315   1.988   0.323   7.262  0.5447 -0.8238 -0.2262
 7561SOL    HW134316   1.971   0.406   7.218  2.0424 -1.7326 -2.5250
 7561SOL    HW234317   1.988   0.366   7.348  1.6463  1.9130 -1.5955
 7562SOL     OW34318   1.776   2.201   9.354  0.7033 -0.3410 -0.1502
 7562SOL    HW134319   1.786   2.283   9.305 -1.1577  0.4492  0.7966
 7562SOL    HW234320   1.682   2.187   9.341 -0.0320  2.8444  1.7750
 7563SOL     OW34321   1.141   2.140   6.592 -0.2974  0.0568 -0.1818
 7563SOL    HW134322   1.102   2.212   6.542  0.9629  1.8577  1.4348
 7563SOL    HW234323   1.062   2.092   6.618  0.2538 -1.8780 -2.0139
 7564SOL     OW34324   3.359   4.668   4.257  0.4798  0.9181  0.3464
 7564SOL    HW134325   3.406   0.011   4.282 -0.5986  1.7916 -0.3505
 7564SOL    HW234326   3.268   4.698   4.258 -0.3230 -1.4539 -1.6474
 7565SOL     OW34327   0.798   0.523   3.265  0.5386  0.3272  0.0990
 7565SOL    HW134328   0.709   0.532   3.231  0.7634 -0.9399 -0.8256
 7565SOL    HW234329   0.854   0.514   3.188 -1.1455 -0.8047 -1.0051
 7566SOL     OW34330   1.999   2.088   0.019  0.0064  0.9747 -0.3451
 7566SOL    HW134331   2.078   2.090   0.073 -0.4247  1.3396  0.2715
 7566SOL    HW234332   1.999   2.001  17.726  0.7583  0.7793  0.0772
 7567SOL     OW34333   2.830   3.923   9.394  0.4380  0.4370 -0.3731
 7567SOL    HW134334   2.832   3.882   9.308  1.9588 -1.2333  0.4391
 7567SOL    HW234335   2.826   3.847   9.452  0.5983  1.9437  1.6264
 7568SOL     OW34336   1.829   2.491  11.205 -0.0781  0.0490  0.0010
 7568SOL    HW134337   1.846   2.461  11.116 -1.3142 -0.1608 -0.1536
 7568SOL    HW234338   1.917   2.471  11.238 -0.8063 -0.3969  1.6759
 7569SOL     OW34339   3.759   2.577   3.021  0.3276  0.3939  0.0160
 7569SOL    HW134340   3.824   2.531   2.968  1.1569 -2.4475  3.4688
 7569SOL    HW234341   3.799   2.565   3.108 -0.7259 -0.8956  0.3337
 7570SOL     OW34342   1.915   0.832   2.977  0.2118 -0.5475 -0.2160
 7570SOL    HW134343   1.972   0.755   2.976  0.6190 -0.2604  1.8552
 7570SOL    HW234344   1.892   0.826   3.069  0.1830  0.9540 -0.1208
 7571SOL     OW34345   4.437   0.333  10.313  0.4629 -0.0730  0.0332
 7571SOL    HW134346   4.427   0.244  10.281 -0.0582 -0.6617  1.8162
 7571SOL    HW234347   4.409   0.319  10.404 -0.6527  2.5817  0.1099
 7572SOL     OW34348   1.680   3.578   1.331  0.2507 -1.3357 -0.0303
 7572SOL    HW134349   1.719   3.590   1.244 -0.2977  0.3906 -0.0340
 7572SOL    HW234350   1.682   3.666   1.368  0.5799 -1.1074 -0.5911
 7573SOL     OW34351   1.070   4.689   6.180  0.1792 -0.0260  0.3890
 7573SOL    HW134352   1.038   4.669   6.268 -0.0181 -1.8865 -0.1087
 7573SOL    HW234353   0.993   4.721   6.134 -1.0419 -2.6058  0.6417
 7574SOL     OW34354   4.294   2.423  12.937 -0.5329 -0.2796  1.0804
 7574SOL    HW134355   4.222   2.360  12.936 -1.1526  0.4197  1.5683
 7574SOL    HW234356   4.290   2.454  12.847 -1.4414 -1.8580  0.5818
 7575SOL     OW34357   2.275   0.740  12.307 -0.4455  0.2087  0.0644
 7575SOL    HW134358   2.300   0.813  12.251  1.3809 -0.7231 -0.3311
 7575SOL    HW234359   2.273   0.660  12.255 -0.1477  0.0432  0.3045
 7576SOL     OW34360   2.605   1.485   7.668 -0.1290 -0.6489 -0.2512
 7576SOL    HW134361   2.598   1.578   7.690 -1.2015 -0.4732 -1.3529
 7576SOL    HW234362   2.517   1.458   7.640 -1.2829  2.7018  0.1303
 7577SOL     OW34363   1.671   3.413   5.853 -0.2042 -0.1233 -0.0021
 7577SOL    HW134364   1.661   3.342   5.917  1.6454  0.5549  1.0238
 7577SOL    HW234365   1.602   3.471   5.885 -0.3091 -0.4188  0.3120
 7578SOL     OW34366   1.626   1.695   7.442 -0.4121  0.0703  0.3761
 7578SOL    HW134367   1.653   1.729   7.527 -0.2689  0.2014  0.2781
 7578SOL    HW234368   1.704   1.643   7.420 -0.6901 -0.3049  0.2740
 7579SOL     OW34369   4.308   2.634  13.096 -0.0749  0.1037 -0.8810
 7579SOL    HW134370   4.295   2.560  13.037  0.9904 -0.3843 -0.4899
 7579SOL    HW234371   4.369   2.683  13.041  0.7064  0.1979  0.0855
 7580SOL     OW34372   3.156   0.124  12.135  0.2579 -0.4550 -0.3141
 7580SOL    HW134373   3.097   0.190  12.173  2.7797  0.3481  2.2514
 7580SOL    HW234374   3.106   0.100  12.058  0.4285  0.3011 -0.6610
 7581SOL     OW34375   4.163   3.374   9.062 -0.3558 -0.1966 -0.6111
 7581SOL    HW134376   4.146   3.365   8.968 -0.7621  0.1897 -0.5739
 7581SOL    HW234377   4.097   3.312   9.092  0.3668 -0.0092  1.3866
 7582SOL     OW34378   2.710   2.358  15.823 -0.2097  0.0458  0.2904
 7582SOL    HW134379   2.759   2.312  15.755 -0.8282 -0.3566  0.1213
 7582SOL    HW234380   2.773   2.354  15.895  2.0807 -1.7070 -1.8252
 7583SOL     OW34381   2.526   0.266  15.379 -0.2793  0.0645 -0.3130
 7583SOL    HW134382   2.578   0.330  15.329 -1.1993  2.0951  1.3107
 7583SOL    HW234383   2.432   0.283  15.369 -0.0437  1.5639 -0.0109
 7584SOL     OW34384   4.237   2.045  14.805  0.9120  0.4265  0.0272
 7584SOL    HW134385   4.312   2.042  14.864  0.4972 -0.3467  0.5155
 7584SOL    HW234386   4.245   2.140  14.793 -1.5798  0.1642 -3.8400
 7585SOL     OW34387   3.628   2.583   4.934 -0.0003  0.1065  0.3101
 7585SOL    HW134388   3.656   2.585   5.026 -1.3361 -1.1386  0.7372
 7585SOL    HW234389   3.605   2.491   4.928 -1.5081  0.6394 -1.9395
 7586SOL     OW34390   1.780   4.040   1.385 -0.3175 -0.1868 -0.4884
 7586SOL    HW134391   1.754   4.098   1.456 -0.3685 -3.1715  1.9460
 7586SOL    HW234392   1.858   4.079   1.346  0.6765 -0.2871  1.4267
 7587SOL     OW34393   2.949   3.015   7.388 -0.0368  0.3707 -0.4526
 7587SOL    HW134394   2.966   3.042   7.479 -0.9137  0.5998 -0.3639
 7587SOL    HW234395   2.858   2.987   7.390  0.5064 -1.4219  0.1869
 7588SOL     OW34396   1.311   2.321   3.841 -0.3839  0.0047 -0.0560
 7588SOL    HW134397   1.247   2.393   3.842 -1.1098 -0.6834  3.3080
 7588SOL    HW234398   1.394   2.364   3.824 -1.5480  1.9530 -0.8285
 7589SOL     OW34399   1.764   2.369   4.165 -0.2778 -0.4951 -0.3023
 7589SOL    HW134400   1.671   2.370   4.144 -0.1569 -1.3039 -0.8569
 7589SOL    HW234401   1.761   2.339   4.256  0.3092 -0.4928 -0.2831
 7590SOL     OW34402   4.528   0.802   4.718 -0.1262 -0.0073  0.0677
 7590SOL    HW134403   4.572   0.869   4.666 -0.6855 -1.7774 -2.6858
 7590SOL    HW234404   4.494   0.861   4.785 -0.4022 -0.6895  0.5333
 7591SOL     OW34405   3.085   3.426   9.559  0.2608 -0.4595 -0.0037
 7591SOL    HW134406   3.172   3.429   9.521 -0.3625  1.2152 -1.2878
 7591SOL    HW234407   3.083   3.508   9.609 -1.4352  0.4974 -1.6203
 7592SOL     OW34408   3.109   1.970  13.787  0.5274 -0.7183  0.2024
 7592SOL    HW134409   3.143   2.060  13.790 -0.4244 -0.2168 -3.6828
 7592SOL    HW234410   3.113   1.940  13.878 -1.4770  2.8770  1.4742
 7593SOL     OW34411   2.237   1.817   3.876  0.2527  0.4906 -0.0866
 7593SOL    HW134412   2.331   1.826   3.893  0.3139 -3.1887  1.5702
 7593SOL    HW234413   2.213   1.762   3.951 -0.0575  1.7957  0.7760
 7594SOL     OW34414   3.914   1.275  10.773 -0.4441  0.4247 -0.5702
 7594SOL    HW134415   3.953   1.208  10.829 -1.0770 -0.2563 -0.9427
 7594SOL    HW234416   3.970   1.259  10.697  0.4032  2.3015 -0.3495
 7595SOL     OW34417   2.004   1.817   2.491 -0.6191  0.2725  0.4073
 7595SOL    HW134418   1.973   1.764   2.417 -0.6039  0.3327  0.3576
 7595SOL    HW234419   1.923   1.842   2.534  0.4763 -0.8005  3.0659
 7596SOL     OW34420   3.504   2.171   2.467  0.0835 -0.7963 -0.4773
 7596SOL    HW134421   3.504   2.266   2.462 -0.8099 -0.7849 -0.3522
 7596SOL    HW234422   3.581   2.157   2.521 -0.3417  3.0293  1.0684
 7597SOL     OW34423   1.325   1.285   5.636  0.1550  0.1944 -0.1996
 7597SOL    HW134424   1.286   1.221   5.695  2.7659 -0.8925  0.3367
 7597SOL    HW234425   1.302   1.368   5.678 -1.3661 -0.8895  1.1088
 7598SOL     OW34426   1.163   0.746   2.104  0.0115 -0.2653  0.2339
 7598SOL    HW134427   1.158   0.835   2.139 -1.8919  0.6212 -2.2499
 7598SOL    HW234428   1.249   0.742   2.062  0.6786 -0.2589  1.6044
 7599SOL     OW34429   3.852   2.703  11.977  0.1346 -0.3037 -0.2886
 7599SOL    HW134430   3.868   2.693  12.071 -1.4144  1.3743  0.1403
 7599SOL    HW234431   3.884   2.789  11.951 -1.5149 -0.2087 -2.0247
 7600SOL     OW34432   2.671   0.705   1.737  0.5779  0.6932  0.2342
 7600SOL    HW134433   2.659   0.656   1.655 -2.6867 -1.9992  2.3199
 7600SOL    HW234434   2.745   0.760   1.712 -0.8883  1.8634 -1.6469
 7601SOL     OW34435   4.481   1.241  17.666 -0.6753  0.0848 -0.2739
 7601SOL    HW134436   4.395   1.258  17.704 -0.9409  1.4490 -1.5148
 7601SOL    HW234437   4.449   1.222  17.578  1.9652 -0.5033 -1.1080
 7602SOL     OW34438   4.630   0.540   8.788 -0.5497  0.2446  0.2424
 7602SOL    HW134439   4.684   0.463   8.772 -1.0390 -0.1843  0.6575
 7602SOL    HW234440   4.620   0.589   8.706 -0.5634  0.9441  0.6556
 7603SOL     OW34441   2.165   0.181  12.575 -0.1625 -0.3310  0.5825
 7603SOL    HW134442   2.146   0.264  12.619  0.6345  0.8616 -1.2983
 7603SOL    HW234443   2.179   0.221  12.489 -1.6957  1.8260  1.3573
 7604SOL     OW34444   1.429   0.363   4.559  0.6127  0.2970  0.0421
 7604SOL    HW134445   1.339   0.395   4.563  0.1950 -0.9353  0.6412
 7604SOL    HW234446   1.414   0.269   4.547  0.3061  0.4630 -0.8055
 7605SOL     OW34447   1.663   2.893   4.062  0.1616 -0.2395 -0.1216
 7605SOL    HW134448   1.650   2.918   3.970 -1.3387 -0.5341  0.0142
 7605SOL    HW234449   1.726   2.821   4.054  0.2234  0.0640 -2.4858
 7606SOL     OW34450   0.045   2.834   6.807 -0.1199 -0.1805 -0.1395
 7606SOL    HW134451   0.093   2.839   6.890  1.2521 -0.5916 -0.8924
 7606SOL    HW234452   0.039   2.740   6.789  0.2297 -0.2179 -0.0577
 7607SOL     OW34453   4.512   1.113  12.624 -0.1889  0.2200 -0.8196
 7607SOL    HW134454   4.579   1.164  12.580 -1.1033  1.1425 -1.1614
 7607SOL    HW234455   4.539   1.124  12.715  1.8957 -2.0985 -1.1727
 7608SOL     OW34456   4.250   2.125  17.461 -0.1979  0.7485 -0.2514
 7608SOL    HW134457   4.163   2.112  17.498 -0.1339 -0.8992 -0.6853
 7608SOL    HW234458   4.292   2.041  17.441  1.8042  1.9799 -1.2182
 7609SOL     OW34459   3.376   3.639   1.561  0.0580 -0.0988 -0.2422
 7609SOL    HW134460   3.407   3.722   1.597  0.5403 -1.0530  1.5160
 7609SOL    HW234461   3.322   3.665   1.486  1.2570  0.7168 -0.8233
 7610SOL     OW34462   3.607   1.605   4.866  0.3037 -0.1023 -0.2599
 7610SOL    HW134463   3.651   1.687   4.888 -0.1725  0.7581 -2.5206
 7610SOL    HW234464   3.596   1.555   4.947  0.5484  0.2426 -0.0128
 7611SOL     OW34465   2.272   3.066   8.907 -0.1475 -0.4032  0.1246
 7611SOL    HW134466   2.317   3.057   8.822  0.8708 -3.2903  0.9731
 7611SOL    HW234467   2.211   3.136   8.883 -1.9196 -1.0202  2.8773
 7612SOL     OW34468   4.551   3.890   1.995 -0.2471  0.3043 -0.3227
 7612SOL    HW134469   4.509   3.886   1.910 -2.5035  2.2164  0.6957
 7612SOL    HW234470   4.476   3.901   2.054 -0.9967  1.5269 -1.5060
 7613SOL     OW34471   0.397   3.071   4.113  0.2698  0.7392 -0.1276
 7613SOL    HW134472   0.470   3.071   4.175 -0.5431 -0.3490  0.8293
 7613SOL    HW234473   0.401   2.989   4.065  1.1672  1.3026 -1.0316
 7614SOL     OW34474   3.310   0.790   8.102  0.0201  0.1741  0.3373
 7614SOL    HW134475   3.382   0.772   8.162  0.3133  0.8493  0.1896
 7614SOL    HW234476   3.317   0.722   8.036  0.5007 -0.4525  1.0360
 7615SOL     OW34477   1.650   0.133   3.606  0.6968 -0.3875 -0.0690
 7615SOL    HW134478   1.653   0.204   3.669  0.4389 -1.3351  1.0041
 7615SOL    HW234479   1.741   0.127   3.577  0.7885  4.4995 -0.8165
 7616SOL     OW34480   0.206   4.409   7.110 -0.1142 -0.0494  0.1485
 7616SOL    HW134481   0.119   4.420   7.070  0.2093  1.1659 -0.2201
 7616SOL    HW234482   0.178   4.371   7.193 -0.5058 -0.6926 -0.2747
 7617SOL     OW34483   3.367   4.201   5.559 -0.3773 -0.4191 -0.1016
 7617SOL    HW134484   3.437   4.247   5.607 -0.7893 -0.6433  0.7189
 7617SOL    HW234485   3.347   4.129   5.618  0.2819 -0.1048  0.5166
 7618SOL     OW34486   4.417   2.626  16.237 -0.3431 -0.2316 -0.2003
 7618SOL    HW134487   4.442   2.672  16.318 -0.7981 -1.3439  0.5627
 7618SOL    HW234488   4.408   2.692  16.168 -1.5653  1.3372  1.4550
 7619SOL     OW34489   2.698   3.990  10.470  0.5280 -0.2059  0.4699
 7619SOL    HW134490   2.619   4.019  10.425  0.0196 -1.8340  0.3038
 7619SOL    HW234491   2.667   3.942  10.546  0.7109 -0.3997  0.4206
 7620SOL     OW34492   4.538   2.427  10.345  0.1137 -0.1650  0.2080
 7620SOL    HW134493   4.493   2.346  10.324  1.4453 -0.5643 -1.1226
 7620SOL    HW234494   4.565   2.410  10.435 -0.2005  0.1661  0.3659
 7621SOL     OW34495   4.724   0.064  11.011 -1.0753 -0.6161  0.6387
 7621SOL    HW134496   4.640   0.024  11.029 -0.5055 -2.8440 -1.5991
 7621SOL    HW234497   0.043   4.725  11.025  1.8312  1.5949  1.0923
 7622SOL     OW34498   1.117   2.725   8.690 -0.2252 -0.0546  0.2643
 7622SOL    HW134499   1.145   2.757   8.604 -0.3018  2.1078  1.0538
 7622SOL    HW234500   1.161   2.785   8.750  0.8098  1.0496 -1.5850
 7623SOL     OW34501   2.653   2.351   1.448 -0.5616 -0.0694  0.0535
 7623SOL    HW134502   2.690   2.303   1.373  0.0232  0.1312  0.2159
 7623SOL    HW234503   2.709   2.428   1.439 -0.8342  0.2241  0.8714
 7624SOL     OW34504   1.421   4.395  11.071  0.9743 -0.3693  0.2554
 7624SOL    HW134505   1.398   4.474  11.022  1.4176  0.8725  2.0034
 7624SOL    HW234506   1.516   4.407  11.077  0.5331  2.3723  1.8950
 7625SOL     OW34507   1.147   4.322   7.776  0.6978  0.0885 -0.2578
 7625SOL    HW134508   1.119   4.407   7.744 -2.6820 -0.0661  2.3545
 7625SOL    HW234509   1.064   4.276   7.764  2.1172 -2.1458 -1.5780
 7626SOL     OW34510   0.129   3.868   2.653 -0.1075  0.3411 -0.3224
 7626SOL    HW134511   0.075   3.925   2.708 -1.8475 -0.0550 -1.6279
 7626SOL    HW234512   0.218   3.902   2.660 -0.3006  1.2552 -2.2231
 7627SOL     OW34513   0.671   2.927  17.263 -0.3223 -0.7447 -0.0617
 7627SOL    HW134514   0.724   2.889  17.193 -0.6695 -0.2969 -0.5658
 7627SOL    HW234515   0.697   3.019  17.265  0.2215 -0.9545  2.2059
 7628SOL     OW34516   0.128   2.774   7.719 -0.3208 -0.7292  0.5279
 7628SOL    HW134517   0.101   2.731   7.800 -1.1606 -1.6965 -0.2720
 7628SOL    HW234518   0.213   2.814   7.742 -1.5633  1.8362  0.6773
 7629SOL     OW34519   0.419   4.728   6.265 -0.3922 -0.2560  0.4917
 7629SOL    HW134520   0.451   4.648   6.222  0.1617  0.2860 -0.1004
 7629SOL    HW234521   0.325   4.708   6.267 -0.6433  0.8921 -0.1442
 7630SOL     OW34522   0.896   4.139  15.119 -0.1262 -0.2781 -0.0726
 7630SOL    HW134523   0.837   4.189  15.063 -1.3326 -0.1055  1.3465
 7630SOL    HW234524   0.959   4.209  15.137  1.9696 -2.1990  0.1266
 7631SOL     OW34525   3.409   1.458   1.761  0.0639  0.3099 -0.1519
 7631SOL    HW134526   3.434   1.542   1.722 -1.2109 -0.0392 -1.6966
 7631SOL    HW234527   3.486   1.406   1.737  0.4021  0.4446  0.6454
 7632SOL     OW34528   0.068   3.046   6.513 -0.0526 -0.1206  0.1212
 7632SOL    HW134529   4.714   3.026   6.535  0.3606 -1.7927  0.2915
 7632SOL    HW234530   0.085   3.120   6.572 -1.0336 -0.8519  1.3441
 7633SOL     OW34531   0.600   1.746   3.751  0.5178  0.5801  0.1174
 7633SOL    HW134532   0.628   1.717   3.664 -0.0623  1.5102 -0.3768
 7633SOL    HW234533   0.580   1.662   3.792 -1.8834  1.2480  0.3032
 7634SOL     OW34534   1.639   1.310   3.200  0.1397 -0.4422 -0.2919
 7634SOL    HW134535   1.693   1.348   3.270 -0.9839  2.4323 -0.9854
 7634SOL    HW234536   1.675   1.357   3.125  1.7844 -2.0043 -0.4596
 7635SOL     OW34537   0.237   2.674   5.377 -0.5155 -0.0047 -0.1612
 7635SOL    HW134538   0.222   2.615   5.451 -0.4752  2.0361  1.4973
 7635SOL    HW234539   0.146   2.702   5.366 -1.2085 -2.6580 -1.0330
 7636SOL     OW34540   2.702   0.061   0.077 -0.1649  0.6696  0.0135
 7636SOL    HW134541   2.761   0.025   0.011 -2.1691  1.3575 -2.1497
 7636SOL    HW234542   2.674   4.709   0.098  0.2463  0.5858  0.2264
 7637SOL     OW34543   4.374   2.549   9.353  0.0840 -0.2392  0.3859
 7637SOL    HW134544   4.291   2.512   9.383 -0.0430 -1.2800 -1.2399
 7637SOL    HW234545   4.409   2.595   9.430  0.4461  0.7211 -0.3488
 7638SOL     OW34546   2.156   4.424  15.219 -0.4036 -0.0075  0.4396
 7638SOL    HW134547   2.065   4.455  15.218 -0.6444 -0.6910  0.8157
 7638SOL    HW234548   2.205   4.505  15.228 -0.8333  0.3602 -0.5844
 7639SOL     OW34549   4.613   4.628   4.916  0.8296  0.0010 -0.2429
 7639SOL    HW134550   4.661   4.606   4.996  1.2955 -2.0041 -1.0735
 7639SOL    HW234551   4.529   4.590   4.941  1.4304 -0.8120  0.5104
 7640SOL     OW34552   0.311   0.664   5.160  0.5856 -0.2619  0.1062
 7640SOL    HW134553   0.222   0.668   5.126  1.7080 -0.2233 -2.7952
 7640SOL    HW234554   0.358   0.606   5.100  1.4768 -1.0369  1.5467
 7641SOL     OW34555   1.620   1.090   5.544  0.4994 -0.5675  0.1255
 7641SOL    HW134556   1.564   1.162   5.517 -0.6273 -1.4723  0.0316
 7641SOL    HW234557   1.707   1.125   5.525  0.0769  0.5062  0.1695
 7642SOL     OW34558   2.464   2.314  11.345  0.1039  0.3337 -0.0285
 7642SOL    HW134559   2.467   2.219  11.341  1.9537  0.4437 -1.2942
 7642SOL    HW234560   2.490   2.333  11.436 -1.1462 -0.0843  0.4168
 7643SOL     OW34561   1.529   2.188   0.486 -0.5311  0.1672 -0.2560
 7643SOL    HW134562   1.461   2.255   0.495 -0.1290  0.8251 -2.0653
 7643SOL    HW234563   1.604   2.244   0.468  0.8104 -1.8453 -0.9290
 7644SOL     OW34564   4.135   0.358   2.968  0.3845  0.1378  0.0535
 7644SOL    HW134565   4.228   0.349   2.949  0.2280 -0.9056 -0.2549
 7644SOL    HW234566   4.137   0.372   3.063  1.9590 -1.1943  0.2183
 7645SOL     OW34567   0.366   2.390   5.818  0.4738  0.0577  0.2159
 7645SOL    HW134568   0.401   2.307   5.849 -0.1873 -0.6629 -0.9365
 7645SOL    HW234569   0.441   2.447   5.835  0.4072 -0.5739  2.5673
 7646SOL     OW34570   1.414   1.849   3.143 -0.2579  1.0762 -0.6706
 7646SOL    HW134571   1.451   1.802   3.218  1.2903 -1.3042 -2.9498
 7646SOL    HW234572   1.402   1.933   3.188  2.2779  0.7828  0.5421
 7647SOL     OW34573   1.211   4.650   4.015 -0.2192  0.0895  0.4414
 7647SOL    HW134574   1.213   4.733   3.967  2.1396 -1.0971 -1.5022
 7647SOL    HW234575   1.131   4.617   3.976  1.0842 -0.0703 -2.0883
 7648SOL     OW34576   4.516   1.183  15.310 -0.0145 -0.7574  0.5955
 7648SOL    HW134577   4.435   1.150  15.271 -0.2714  0.5723  0.0251
 7648SOL    HW234578   4.576   1.168  15.237  0.9943  1.2715  1.0244
 7649SOL     OW34579   1.370   3.306   9.539 -0.1652  0.4430  0.1478
 7649SOL    HW134580   1.459   3.311   9.505  0.4715  0.7379  1.9042
 7649SOL    HW234581   1.372   3.361   9.617  1.0591 -0.3424  0.6606
 7650SOL     OW34582   2.176   1.737   3.518  0.2581  0.6863  0.3751
 7650SOL    HW134583   2.108   1.785   3.471 -1.5921 -0.4491  1.9281
 7650SOL    HW234584   2.157   1.761   3.609  0.7539 -4.5970  1.8629
 7651SOL     OW34585   3.054   4.023   6.135 -0.5743 -0.2919  0.0369
 7651SOL    HW134586   3.116   3.950   6.130  0.4073  0.2935  3.5756
 7651SOL    HW234587   2.981   3.970   6.168 -0.5996 -0.9352 -1.0536
 7652SOL     OW34588   3.296   1.298   5.294 -0.4529 -0.3340 -0.7014
 7652SOL    HW134589   3.267   1.386   5.317 -1.9558 -0.9181 -0.3579
 7652SOL    HW234590   3.222   1.269   5.240 -1.8902  1.9615  0.0178
 7653SOL     OW34591   0.278   3.537   1.896 -0.5449 -0.8299  0.0467
 7653SOL    HW134592   0.210   3.598   1.923  0.9129  0.9555 -0.2946
 7653SOL    HW234593   0.232   3.478   1.836 -1.3778  0.6212 -0.7396
 7654SOL     OW34594   2.594   3.528   6.852 -0.5451 -0.1178 -0.0965
 7654SOL    HW134595   2.554   3.447   6.882 -2.0726  0.6911  0.0188
 7654SOL    HW234596   2.620   3.567   6.936  2.9717 -2.3470 -0.1300
 7655SOL     OW34597   1.511   2.630   7.676 -0.3297 -0.5070 -0.1893
 7655SOL    HW134598   1.549   2.712   7.645 -0.9556 -0.6588 -1.3779
 7655SOL    HW234599   1.498   2.586   7.592 -0.9256 -1.9638  0.6670
 7656SOL     OW34600   0.003   2.513   3.229 -0.3152  0.0849  0.2652
 7656SOL    HW134601   4.682   2.442   3.257  0.8896 -0.6745  0.8148
 7656SOL    HW234602   0.015   2.555   3.314  1.1629 -0.1051  0.1430
 7657SOL     OW34603   1.768   3.167   5.009  0.1644  1.1366  0.3715
 7657SOL    HW134604   1.752   3.206   5.095  1.1364 -1.0401  1.5290
 7657SOL    HW234605   1.770   3.240   4.947  1.5433 -0.3205 -1.2635
 7658SOL     OW34606   4.156   2.124  16.211 -0.5787  0.5323 -0.2563
 7658SOL    HW134607   4.191   2.208  16.241 -0.1826  0.0498  0.6240
 7658SOL    HW234608   4.096   2.157  16.144  1.6601  0.1319 -2.4668
 7659SOL     OW34609   4.347   4.646   1.375 -0.0736  0.3614  0.5378
 7659SOL    HW134610   4.319   4.735   1.394  1.4925  0.8931  0.3351
 7659SOL    HW234611   4.441   4.655   1.390  0.2700  0.2908 -1.5047
 7660SOL     OW34612   1.524   4.138   9.269  0.6561 -0.0582  0.1557
 7660SOL    HW134613   1.467   4.146   9.345  0.6009 -0.2833  0.1383
 7660SOL    HW234614   1.609   4.170   9.298  0.9859 -2.4677  1.8133
 7661SOL     OW34615   0.603   0.506   3.494 -0.3238  0.4266  0.3940
 7661SOL    HW134616   0.586   0.600   3.485  1.7021  0.4421 -3.1232
 7661SOL    HW234617   0.658   0.494   3.417 -2.2138 -2.1424 -0.5783
 7662SOL     OW34618   2.623   0.321   6.918  0.6229 -0.1988 -0.2193
 7662SOL    HW134619   2.528   0.327   6.913  0.6075 -0.1564  0.1535
 7662SOL    HW234620   2.628   0.234   6.880  1.0268  0.4222 -1.5954
 7663SOL     OW34621   0.440   3.719   4.919 -0.2763  0.1098  0.4571
 7663SOL    HW134622   0.369   3.663   4.888  0.8397  0.0009 -1.9108
 7663SOL    HW234623   0.465   3.764   4.838 -2.0772 -1.9762 -1.2837
 7664SOL     OW34624   4.668   4.674  14.133  0.1421 -0.9590 -0.8421
 7664SOL    HW134625   4.598   4.684  14.198 -0.2479  1.4526 -1.6399
 7664SOL    HW234626   4.637   4.736  14.068  0.6358  0.1964  0.0258
 7665SOL     OW34627   4.569   1.768   2.498 -0.2669  0.6158 -0.5176
 7665SOL    HW134628   4.592   1.677   2.518 -0.9607  0.4448 -0.4879
 7665SOL    HW234629   4.507   1.743   2.429  2.4626 -1.9374 -2.0550
 7666SOL     OW34630   0.912   3.432   8.405 -0.5148  0.3750  0.0042
 7666SOL    HW134631   1.003   3.425   8.376 -0.2121  0.8358  0.8428
 7666SOL    HW234632   0.906   3.526   8.389 -2.1405  0.1662 -0.6254
 7667SOL     OW34633   2.277   2.597   0.973  0.0503  0.1208  0.7418
 7667SOL    HW134634   2.224   2.672   0.946 -0.4854 -0.5013  0.0710
 7667SOL    HW234635   2.225   2.523   0.941 -0.0990  0.3123  0.5406
 7668SOL     OW34636   2.979   3.792   4.567  0.0601 -0.3115 -0.4668
 7668SOL    HW134637   2.935   3.859   4.514  1.8646  0.0452 -1.4756
 7668SOL    HW234638   2.914   3.785   4.637  0.9985  0.5597  0.4867
 7669SOL     OW34639   2.948   2.605  16.009 -0.1250  0.5296  0.4894
 7669SOL    HW134640   2.992   2.627  15.927  0.6512  0.6801  0.9530
 7669SOL    HW234641   2.918   2.692  16.035  0.6521  1.1616 -0.7155
 7670SOL     OW34642   1.985   0.238   3.868 -0.5723  0.4703 -0.0747
 7670SOL    HW134643   2.002   0.145   3.850  1.4789  0.5234  1.5281
 7670SOL    HW234644   1.897   0.232   3.906 -0.4746 -0.8251 -0.0513
 7671SOL     OW34645   1.482   3.012   4.300 -0.0183 -0.5489 -0.2579
 7671SOL    HW134646   1.481   2.960   4.380  3.3290  0.5117  0.4407
 7671SOL    HW234647   1.546   2.968   4.245  1.0181  2.9433 -1.8638
 7672SOL     OW34648   3.969   1.684  16.525  0.2347 -0.4534 -0.1929
 7672SOL    HW134649   3.971   1.741  16.602 -1.4937 -3.3056  1.9576
 7672SOL    HW234650   3.877   1.660  16.533  0.3607 -1.5656 -1.9548
 7673SOL     OW34651   1.836   1.399   7.784 -0.3037 -0.1843  0.1862
 7673SOL    HW134652   1.775   1.408   7.857  1.6786 -0.3918  1.8427
 7673SOL    HW234653   1.841   1.305   7.769  2.6040  0.2209 -1.4289
 7674SOL     OW34654   2.709   4.669   2.817 -0.1146 -0.0274  0.3415
 7674SOL    HW134655   2.765   4.654   2.741  0.9884  0.5468  1.0526
 7674SOL    HW234656   2.626   4.626   2.794  0.0020 -0.0122 -0.1165
 7675SOL     OW34657   2.059   4.384   8.140 -0.1014 -0.1392  0.1094
 7675SOL    HW134658   2.101   4.337   8.068 -2.2822  0.3333 -1.4702
 7675SOL    HW234659   1.970   4.362   8.114  0.2509  2.5507 -3.4062
 7676SOL     OW34660   2.975   3.545   5.169 -0.1830  0.6669 -0.0932
 7676SOL    HW134661   2.939   3.627   5.133 -0.0277  1.7004  2.0733
 7676SOL    HW234662   2.892   3.497   5.176  0.5216 -0.9781 -3.2532
 7677SOL     OW34663   3.234   0.638   4.974 -0.4732  0.3368  0.8252
 7677SOL    HW134664   3.314   0.615   4.928 -1.1998  0.7956 -0.6782
 7677SOL    HW234665   3.165   0.583   4.938 -1.6700  1.5035  1.3133
 7678SOL     OW34666   1.140   4.679   4.274  0.2890  0.1670  0.3888
 7678SOL    HW134667   1.057   4.679   4.227  0.2385 -2.5711  0.4528
 7678SOL    HW234668   1.201   4.703   4.205 -0.4235  0.0649 -0.2689
 7679SOL     OW34669   3.102   4.304   6.177  0.2779 -0.2873 -0.2869
 7679SOL    HW134670   3.192   4.303   6.207  0.3264 -0.8808 -0.4569
 7679SOL    HW234671   3.082   4.212   6.195 -2.6981  0.2263 -1.0022
 7680SOL     OW34672   3.231   2.918   7.607 -0.8719  0.5597 -0.3300
 7680SOL    HW134673   3.168   2.982   7.642  1.0831  1.7341  1.0506
 7680SOL    HW234674   3.296   2.969   7.560 -0.4244 -1.1909 -1.5983
 7681SOL     OW34675   0.997   4.062   8.262  0.1777  0.0569  0.4783
 7681SOL    HW134676   0.995   4.015   8.178  1.1638  0.2171  0.3703
 7681SOL    HW234677   0.903   4.056   8.282 -0.1257  1.8924 -0.4641
 7682SOL     OW34678   3.015   1.692  17.386  0.6527  0.5405 -0.0086
 7682SOL    HW134679   2.948   1.726  17.445  1.9877 -2.1634  3.0855
 7682SOL    HW234680   2.971   1.703  17.302 -0.9625  2.2956  1.0738
 7683SOL     OW34681   3.375   4.510  10.870 -0.8698  0.0685 -0.2925
 7683SOL    HW134682   3.446   4.449  10.892  0.8016  1.3175 -2.2317
 7683SOL    HW234683   3.379   4.565  10.948 -0.6983  0.2937 -0.4581
 7684SOL     OW34684   2.855   0.627   3.318 -0.0005 -0.3615  0.4087
 7684SOL    HW134685   2.847   0.711   3.363  1.1207  0.3603 -0.7481
 7684SOL    HW234686   2.827   0.569   3.388 -0.4095  0.2165  0.7320
 7685SOL     OW34687   0.488   2.262   6.468  0.3640  0.1315  0.2300
 7685SOL    HW134688   0.407   2.249   6.419 -0.9175  1.3684  2.0587
 7685SOL    HW234689   0.471   2.344   6.513  0.4453 -0.0721  0.6306
 7686SOL     OW34690   3.299   2.044   9.968  0.0136  0.3661 -0.3168
 7686SOL    HW134691   3.372   2.056  10.028  0.4981  0.4655 -0.9288
 7686SOL    HW234692   3.227   2.018  10.026 -0.1658  0.7275 -0.3782
 7687SOL     OW34693   2.562   1.560   9.591 -0.4118 -0.2985 -0.3190
 7687SOL    HW134694   2.639   1.529   9.543  0.0800 -0.8745  0.8425
 7687SOL    HW234695   2.487   1.549   9.532 -1.3658  1.0844  0.6265
 7688SOL     OW34696   0.937   2.334   6.737 -0.1248  0.0617  0.1854
 7688SOL    HW134697   1.008   2.366   6.792  0.8360 -1.4146 -0.1980
 7688SOL    HW234698   0.892   2.418   6.736 -0.2801 -0.0385 -1.1573
 7689SOL     OW34699   4.567   2.458   7.858 -0.2370 -0.7729 -0.0009
 7689SOL    HW134700   4.571   2.468   7.763 -1.0493 -0.0638  0.0403
 7689SOL    HW234701   4.633   2.390   7.874  1.0573  0.8938  1.7433
 7690SOL     OW34702   2.854   3.160  12.077  0.2884 -0.4581 -0.2452
 7690SOL    HW134703   2.805   3.134  12.155 -1.4395  1.6397 -0.6375
 7690SOL    HW234704   2.939   3.165  12.120  0.5053  0.8718 -0.8425
 7691SOL     OW34705   3.105   2.089   8.208  0.1840  0.0796  0.3006
 7691SOL    HW134706   3.051   2.014   8.183  1.2772 -1.0658  1.3351
 7691SOL    HW234707   3.148   2.056   8.287  1.5132  3.4551  0.9934
 7692SOL     OW34708   4.416   3.724   3.592 -0.0498 -0.2372  0.0370
 7692SOL    HW134709   4.390   3.632   3.603 -0.7330  0.0820  0.9551
 7692SOL    HW234710   4.349   3.760   3.534 -1.1511  0.4216  1.7372
 7693SOL     OW34711   1.094   1.665   1.037  0.1990 -0.5015 -0.1589
 7693SOL    HW134712   1.030   1.596   1.052  1.4319 -0.8362  3.4401
 7693SOL    HW234713   1.122   1.658   0.946  2.0401  1.5909  0.2480
 7694SOL     OW34714   3.024   3.935   8.481 -0.2077 -0.4651  0.2010
 7694SOL    HW134715   2.979   3.885   8.413 -2.1563 -0.1882  1.2758
 7694SOL    HW234716   3.012   3.881   8.560  3.3938 -0.1082  0.9875
 7695SOL     OW34717   1.710   1.542   9.694  0.2405  0.7847  0.3446
 7695SOL    HW134718   1.628   1.550   9.744 -0.2280  1.7010 -0.5780
 7695SOL    HW234719   1.754   1.623   9.720 -1.3658  2.1480 -1.2330
 7696SOL     OW34720   3.657   0.022   3.843 -0.0234  0.4930 -0.3121
 7696SOL    HW134721   3.607   4.685   3.879  0.6713 -0.0995 -0.5637
 7696SOL    HW234722   3.640   0.010   3.750 -1.8420  0.1617  0.0577
 7697SOL     OW34723   1.041   0.653   6.177  0.1966  0.0218 -0.2336
 7697SOL    HW134724   1.032   0.747   6.167 -0.0349  0.1424  1.1397
 7697SOL    HW234725   1.016   0.627   6.088 -2.5569 -0.1491  0.6076
 7698SOL     OW34726   0.959   1.071   3.383 -0.2176  0.3516 -0.6767
 7698SOL    HW134727   0.933   0.979   3.382  0.5088  0.0795  2.5276
 7698SOL    HW234728   0.872   1.112   3.388 -1.4384 -2.3389  0.3877
 7699SOL     OW34729   3.893   0.029  13.497  0.0189 -0.5686 -0.0295
 7699SOL    HW134730   3.923   4.682  13.462 -0.2252 -1.3887  1.7645
 7699SOL    HW234731   3.973   0.050  13.545  0.1857 -0.3607 -0.4025
 7700SOL     OW34732   4.098   2.901   4.215 -0.2053  0.1148 -0.1229
 7700SOL    HW134733   4.053   2.940   4.290 -0.3328  2.4759 -1.4171
 7700SOL    HW234734   4.034   2.834   4.195 -0.5795  1.3149 -2.8604
 7701SOL     OW34735   2.300   0.527  12.091  0.0848 -0.0157 -0.0372
 7701SOL    HW134736   2.324   0.554  12.002  1.1401 -0.0510  0.2352
 7701SOL    HW234737   2.386   0.493  12.115  0.8442  1.2003 -1.0331
 7702SOL     OW34738   2.818   1.363  14.500 -0.0519 -0.2729  0.2695
 7702SOL    HW134739   2.878   1.398  14.435 -0.8300 -1.4985 -1.1170
 7702SOL    HW234740   2.867   1.359  14.582  2.6116 -2.5948 -1.4652
 7703SOL     OW34741   2.059   3.735   9.951  0.1264  0.5244  0.4855
 7703SOL    HW134742   2.145   3.701   9.976  0.7332  2.4398  0.9888
 7703SOL    HW234743   2.002   3.660   9.968  1.1250 -0.1209  0.9673
 7704SOL     OW34744   4.141   4.464   0.469 -0.5742  0.1399 -0.8306
 7704SOL    HW134745   4.125   4.501   0.382 -0.6855 -0.3165 -1.0030
 7704SOL    HW234746   4.209   4.524   0.502 -0.7148 -1.0138  1.5359
 7705SOL     OW34747   3.848   4.548  13.078  0.0973  0.0938  0.1451
 7705SOL    HW134748   3.790   4.595  13.138  0.1037  0.3409 -0.0427
 7705SOL    HW234749   3.867   4.469  13.129 -2.1250 -1.4273 -1.4085
 7706SOL     OW34750   2.833   0.010   7.438 -0.1526 -0.3243  0.6215
 7706SOL    HW134751   2.816   0.001   7.531  0.0676  1.0727  0.7851
 7706SOL    HW234752   2.927   4.727   7.434 -0.1014 -0.0880  0.6688
 7707SOL     OW34753   0.041   0.403   0.720  0.2742 -0.6364  0.2661
 7707SOL    HW134754   0.113   0.410   0.658 -0.2410  1.9985 -0.0090
 7707SOL    HW234755   0.054   0.489   0.760  0.9381 -0.2358 -0.7991
 7708SOL     OW34756   0.190   0.018  16.643 -0.0508 -0.4407 -0.2191
 7708SOL    HW134757   0.161   4.672  16.604 -0.0939  0.2469 -1.6377
 7708SOL    HW234758   0.132   0.081  16.602  1.7662  1.2181 -0.2416
 7709SOL     OW34759   2.875   4.160   2.719  0.3473  0.4926  0.5030
 7709SOL    HW134760   2.813   4.136   2.650  0.4003 -0.0720  0.6443
 7709SOL    HW234761   2.821   4.208   2.783  0.5772  2.0101 -0.4518
 7710SOL     OW34762   4.731   3.774   4.377 -0.5427  0.2852  0.3306
 7710SOL    HW134763   0.034   3.861   4.373 -0.6474  0.3205 -0.0237
 7710SOL    HW234764   4.682   3.780   4.295 -0.4071  0.2343  0.2459
 7711SOL     OW34765   3.519   2.016   4.434  0.2666 -0.5489  0.3888
 7711SOL    HW134766   3.555   2.067   4.361  0.0725 -0.4125  0.3908
 7711SOL    HW234767   3.574   1.938   4.441  0.4437 -0.3013  1.7348
 7712SOL     OW34768   2.393   3.538  14.301 -0.0991  0.2658 -0.0429
 7712SOL    HW134769   2.361   3.613  14.251  1.0335  0.5200 -0.3703
 7712SOL    HW234770   2.339   3.469  14.263 -1.6914  1.3113  0.3106
 7713SOL     OW34771   2.685   3.369   7.175  0.1540 -0.2316  0.1667
 7713SOL    HW134772   2.776   3.384   7.148  0.9155 -1.1769  2.2256
 7713SOL    HW234773   2.651   3.453   7.205  0.9540 -0.2025  0.9836
 7714SOL     OW34774   4.541   2.244  11.463 -0.3230  0.3564 -0.1361
 7714SOL    HW134775   4.552   2.213  11.373  1.0463  2.8282 -0.8215
 7714SOL    HW234776   4.633   2.259  11.486 -0.3489  1.1541 -0.5516
 7715SOL     OW34777   3.048   2.920  12.907 -0.2622 -0.1150 -0.4291
 7715SOL    HW134778   2.956   2.927  12.885  0.0065 -2.4715 -2.2863
 7715SOL    HW234779   3.083   3.009  12.911 -1.1522  0.1508  1.3264
 7716SOL     OW34780   0.329   2.225   3.219  0.6076 -0.7908  0.1037
 7716SOL    HW134781   0.373   2.147   3.185  3.2233  1.3225 -1.3698
 7716SOL    HW234782   0.322   2.207   3.312  1.0662 -1.3856  0.0252
 7717SOL     OW34783   0.880   1.962   6.161  0.4832 -0.2397 -0.1986
 7717SOL    HW134784   0.960   2.005   6.132 -0.7520  2.8783  0.9809
 7717SOL    HW234785   0.922   1.893   6.212  2.2833  0.9289 -0.1085
 7718SOL     OW34786   2.100   1.567   6.873 -0.6164 -0.1841  0.2696
 7718SOL    HW134787   2.007   1.588   6.864 -1.3539 -4.1447 -1.2573
 7718SOL    HW234788   2.120   1.510   6.799 -1.2344 -0.5599  0.3900
 7719SOL     OW34789   4.603   1.599   4.283 -0.1084 -0.3615 -0.2880
 7719SOL    HW134790   4.637   1.682   4.248 -1.3158 -0.6009 -2.0133
 7719SOL    HW234791   4.529   1.634   4.333  1.1590 -0.1716  1.4850
 7720SOL     OW34792   1.223   2.659  14.615 -0.1448 -0.1749  0.3495
 7720SOL    HW134793   1.129   2.644  14.606 -0.1699  0.2089 -0.0445
 7720SOL    HW234794   1.226   2.723  14.686  0.6793  0.1909 -0.0143
 7721SOL     OW34795   2.829   1.896  11.155  0.3965  0.4669  0.1445
 7721SOL    HW134796   2.757   1.838  11.178 -2.1048  3.5972  0.2874
 7721SOL    HW234797   2.873   1.842  11.089  0.2054  0.9012 -0.3379
 7722SOL     OW34798   3.532   1.981   8.093 -0.1986 -0.0364 -0.3770
 7722SOL    HW134799   3.471   2.051   8.067  1.2149  1.1479 -0.4938
 7722SOL    HW234800   3.505   1.984   8.185  1.1729  1.9161 -0.0266
 7723SOL     OW34801   3.169   0.819   1.981 -0.1610  0.3301  0.6982
 7723SOL    HW134802   3.260   0.792   1.989 -0.4153 -0.3787  1.2446
 7723SOL    HW234803   3.180   0.911   1.959  1.4945 -0.0166  0.0941
 7724SOL     OW34804   4.488   3.945  11.249  0.6370  0.3700  0.4061
 7724SOL    HW134805   4.543   3.997  11.308 -1.4883  0.6811  2.1026
 7724SOL    HW234806   4.537   3.863  11.239 -1.9495 -0.9890 -0.9336
 7725SOL     OW34807   3.509   1.766  11.021  0.2823 -0.5134  0.4098
 7725SOL    HW134808   3.497   1.671  11.029 -3.2716  0.1942  3.4851
 7725SOL    HW234809   3.603   1.782  11.020  0.0752  0.7128 -0.3268
 7726SOL     OW34810   3.675   2.717   8.185  0.1520  0.6135  0.0750
 7726SOL    HW134811   3.613   2.782   8.219  2.4014  2.7494  0.1179
 7726SOL    HW234812   3.699   2.667   8.263  1.9803 -1.7551 -2.0342
 7727SOL     OW34813   2.600   3.104   5.479  0.0840  0.4132  0.3403
 7727SOL    HW134814   2.583   3.196   5.460  2.9609  1.4510  2.8750
 7727SOL    HW234815   2.510   3.073   5.488 -0.3811  2.0091  1.1366
 7728SOL     OW34816   0.316   1.043  15.088  0.6204  0.2699  0.6585
 7728SOL    HW134817   0.371   1.105  15.039  0.5144 -0.0798  0.0875
 7728SOL    HW234818   0.290   1.094  15.164 -2.6223  0.5647 -0.6794
 7729SOL     OW34819   0.941   0.500  15.409 -0.0711  0.1488  0.2415
 7729SOL    HW134820   0.876   0.569  15.393  1.5675  1.8064  0.6815
 7729SOL    HW234821   0.991   0.544  15.478 -0.7639 -0.5949  1.2250
 7730SOL     OW34822   3.426   3.258   6.158  0.3861 -0.4969  0.3195
 7730SOL    HW134823   3.356   3.248   6.222  1.0675 -0.1133  1.1151
 7730SOL    HW234824   3.487   3.189   6.183 -0.0843 -0.5088  1.4116
 7731SOL     OW34825   3.794   4.214   5.385  0.0962 -0.3132 -0.1206
 7731SOL    HW134826   3.761   4.140   5.334  0.7463 -1.2142  0.7652
 7731SOL    HW234827   3.717   4.246   5.431  0.4530 -0.7076  0.7429
 7732SOL     OW34828   2.215   2.836  11.995 -0.0046  0.0744  0.5630
 7732SOL    HW134829   2.287   2.814  12.054  0.8351 -0.4050 -0.6398
 7732SOL    HW234830   2.163   2.758  12.014  1.6724 -1.3551 -0.7179
 7733SOL     OW34831   4.541   1.922   4.878  0.1361  0.1173  0.2303
 7733SOL    HW134832   4.451   1.908   4.848  0.0882  0.5575  0.1587
 7733SOL    HW234833   4.546   2.018   4.882  2.3550  0.0508 -1.4659
 7734SOL     OW34834   2.303   4.065   0.508  0.4050 -0.7838  0.8001
 7734SOL    HW134835   2.229   4.080   0.449  0.7054 -0.5056  0.4924
 7734SOL    HW234836   2.253   4.046   0.587  0.2026  0.2355  0.9216
 7735SOL     OW34837   2.921   2.899  14.369  0.1032  0.3158  0.3406
 7735SOL    HW134838   2.880   2.829  14.320  0.0386  2.3235 -2.4735
 7735SOL    HW234839   2.852   2.908  14.434  0.9759  3.4883  0.8398
 7736SOL     OW34840   3.768   1.050  15.549 -0.3429 -0.0098 -0.3464
 7736SOL    HW134841   3.696   1.111  15.568  0.7106  1.1501 -0.0482
 7736SOL    HW234842   3.844   1.086  15.594 -1.2836 -0.8721  1.8919
 7737SOL     OW34843   2.355   4.486  10.820 -0.1213  0.6589  0.4029
 7737SOL    HW134844   2.370   4.510  10.911  0.9517  0.8078  0.1875
 7737SOL    HW234845   2.265   4.457  10.809  0.3900 -0.5086 -0.7172
 7738SOL     OW34846   0.931   3.057  16.767 -0.0674  0.4508 -0.4255
 7738SOL    HW134847   0.854   3.102  16.731 -1.8427  0.0120  2.7757
 7738SOL    HW234848   0.888   3.012  16.840  2.1909 -0.4053  0.3513
 7739SOL     OW34849   4.519   4.592   6.007  0.4806  0.5717  0.1001
 7739SOL    HW134850   4.525   4.602   6.102  2.5725  0.9147 -0.0560
 7739SOL    HW234851   4.603   4.559   5.974  0.6269  0.7168  0.3315
 7740SOL     OW34852   3.565   1.823   1.292 -0.2572  0.3454 -0.1924
 7740SOL    HW134853   3.657   1.796   1.285 -0.7869 -1.6828  0.4272
 7740SOL    HW234854   3.532   1.766   1.362  0.0797 -0.8260 -0.9801
 7741SOL     OW34855   1.642   3.522   7.430 -0.2153 -0.0975 -0.7848
 7741SOL    HW134856   1.729   3.507   7.393  0.4272 -1.1073  1.1871
 7741SOL    HW234857   1.602   3.589   7.375  1.0333  0.3216 -1.1939
 7742SOL     OW34858   2.776   4.098   5.496 -0.1430  0.1038  0.4706
 7742SOL    HW134859   2.838   4.129   5.430  1.3959 -4.1878 -0.1212
 7742SOL    HW234860   2.809   4.020   5.540  3.7794  0.5203 -1.6600
 7743SOL     OW34861   4.729   1.570   4.547  0.3895 -0.2699 -0.1863
 7743SOL    HW134862   0.079   1.606   4.560 -0.6793  1.8772  1.0057
 7743SOL    HW234863   4.725   1.550   4.453 -1.4990  2.6821 -0.7526
 7744SOL     OW34864   1.247   3.048   2.966 -0.0485  0.3088 -0.2387
 7744SOL    HW134865   1.161   3.026   3.002  0.3035  0.8297  0.9273
 7744SOL    HW234866   1.306   3.004   3.027 -2.0533 -0.4678  1.1608
 7745SOL     OW34867   1.081   2.786  16.970 -0.0789  0.3643  0.2648
 7745SOL    HW134868   1.030   2.823  17.041 -0.4059 -0.5595  0.5164
 7745SOL    HW234869   1.168   2.791  17.010 -0.8933 -2.4421  2.4100
 7746SOL     OW34870   2.572   3.867   4.931 -0.0155  0.0964 -0.2366
 7746SOL    HW134871   2.625   3.919   4.870  0.0993  0.8330  0.4895
 7746SOL    HW234872   2.486   3.867   4.889 -0.5522  2.2165  0.8660
 7747SOL     OW34873   3.537   1.907   9.326 -0.3506  0.1638  0.0359
 7747SOL    HW134874   3.586   1.966   9.383  0.2554 -0.2757 -0.0266
 7747SOL    HW234875   3.451   1.934   9.359  0.8926  0.6787  2.8397
 7748SOL     OW34876   2.955   2.407   7.362 -0.0181  0.0887  0.2713
 7748SOL    HW134877   2.887   2.343   7.342  1.4723 -1.8283  1.4596
 7748SOL    HW234878   3.034   2.358   7.385 -0.6455 -0.2427  1.7358
 7749SOL     OW34879   2.861   4.337   6.571  0.3818 -0.2382  0.4672
 7749SOL    HW134880   2.766   4.335   6.560 -0.0413 -2.5311  4.5247
 7749SOL    HW234881   2.898   4.252   6.546 -2.4098 -1.7348  1.4761
 7750SOL     OW34882   0.868   4.499  10.859 -0.3138 -0.0189  0.1797
 7750SOL    HW134883   0.883   4.405  10.846  1.9634  0.2462  0.8494
 7750SOL    HW234884   0.796   4.508  10.922 -1.4564  0.1589 -1.1696
 7751SOL     OW34885   4.083   0.731   2.285 -0.1777 -0.6611 -0.6121
 7751SOL    HW134886   4.133   0.723   2.204  0.6662 -2.4395  0.0874
 7751SOL    HW234887   4.073   0.638   2.303 -3.0276 -0.7557 -2.8369
 7752SOL     OW34888   1.304   1.226   3.937 -0.3645 -0.6332  0.1769
 7752SOL    HW134889   1.356   1.300   3.969 -0.1797 -0.3941 -0.6817
 7752SOL    HW234890   1.221   1.274   3.934  0.3456  0.5469 -1.0142
 7753SOL     OW34891   2.869   1.857  15.731  0.2405  0.7195  0.4043
 7753SOL    HW134892   2.965   1.849  15.728 -0.0264 -1.8217 -1.7678
 7753SOL    HW234893   2.846   1.768  15.703  1.7749  0.8907 -1.3812
 7754SOL     OW34894   0.948   0.039   2.480 -0.3556  0.0764  0.5027
 7754SOL    HW134895   0.859   0.004   2.488  0.2058 -1.4395 -0.0469
 7754SOL    HW234896   0.997   4.708   2.526  2.3926  0.7106 -1.4885
 7755SOL     OW34897   4.651   1.798  11.886  0.5863  0.2770 -0.0102
 7755SOL    HW134898   4.666   1.807  11.980  0.4924  2.0132 -0.1698
 7755SOL    HW234899   4.726   1.744  11.861  0.9800  0.1777  1.4143
 7756SOL     OW34900   2.711   2.517   9.213 -0.3189  0.3641 -0.3449
 7756SOL    HW134901   2.660   2.578   9.159 -1.2264 -2.4036 -2.6114
 7756SOL    HW234902   2.738   2.579   9.281 -1.0394 -1.3741  1.5199
 7757SOL     OW34903   2.039   4.587  16.398  0.0468  0.1444 -0.4890
 7757SOL    HW134904   2.003   4.499  16.411 -1.5660  0.4502 -2.7971
 7757SOL    HW234905   2.133   4.567  16.398  0.3450  1.5571 -0.0617
 7758SOL     OW34906   1.302   1.898   4.008 -0.1463 -0.1488 -0.4164
 7758SOL    HW134907   1.331   1.901   4.099  0.2286 -1.8342 -0.4876
 7758SOL    HW234908   1.380   1.876   3.957  1.2532  1.7454  0.9293
 7759SOL     OW34909   0.056   4.640   1.822  0.3128 -0.1588 -0.0779
 7759SOL    HW134910   0.028   4.711   1.878  0.0228  0.4619 -1.0081
 7759SOL    HW234911   0.055   4.682   1.736  2.5282 -0.2379 -0.1381
 7760SOL     OW34912   4.617   3.430   3.555 -0.2083 -0.0204 -0.3853
 7760SOL    HW134913   4.640   3.339   3.576 -0.4157 -0.0499 -0.2837
 7760SOL    HW234914   4.657   3.444   3.469 -0.1332  0.5872 -0.2517
 7761SOL     OW34915   1.683   1.587   1.977 -0.3289  0.5727  0.0846
 7761SOL    HW134916   1.606   1.617   2.026  0.2046  1.6037  0.3006
 7761SOL    HW234917   1.687   1.500   2.017  3.2252  0.3909 -0.6427
 7762SOL     OW34918   3.799   1.705   6.595 -0.1441  0.1860 -0.1474
 7762SOL    HW134919   3.738   1.642   6.555 -0.0267 -0.0941  0.1134
 7762SOL    HW234920   3.858   1.742   6.529 -1.1553 -0.7929 -1.5942
 7763SOL     OW34921   4.535   3.679   4.810 -0.4286 -0.2687  0.0896
 7763SOL    HW134922   4.467   3.614   4.791 -2.7641  2.6696 -1.5605
 7763SOL    HW234923   4.548   3.720   4.725  0.0261 -2.1835 -0.7763
 7764SOL     OW34924   1.656   1.024   7.902 -0.3935  0.2862  0.2065
 7764SOL    HW134925   1.640   1.118   7.911 -0.7791  0.2756 -0.3611
 7764SOL    HW234926   1.616   0.974   7.973  0.8048  0.8595  1.2903
 7765SOL     OW34927   0.312   1.815  17.588 -0.1864 -0.2990 -0.5110
 7765SOL    HW134928   0.307   1.870  17.666  0.6477  0.3293 -0.8978
 7765SOL    HW234929   0.390   1.764  17.605  0.9712  0.5514 -3.1884
 7766SOL     OW34930   1.874   4.195  16.525 -0.1713  0.5593 -1.0206
 7766SOL    HW134931   1.931   4.212  16.599  0.6231 -0.7856 -1.3212
 7766SOL    HW234932   1.941   4.190  16.456 -1.0899  1.1148 -1.9440
 7767SOL     OW34933   2.222   3.375  10.773 -0.1713 -0.0860  0.1949
 7767SOL    HW134934   2.138   3.352  10.732 -0.3198 -0.2795  0.6080
 7767SOL    HW234935   2.226   3.319  10.850  0.3460 -0.1000  0.1525
 7768SOL     OW34936   4.153   1.683   3.163  0.1450  0.3399 -0.3663
 7768SOL    HW134937   4.139   1.603   3.113 -0.2432  0.2708 -0.1525
 7768SOL    HW234938   4.077   1.683   3.222  1.2498 -0.5786  1.0626
 7769SOL     OW34939   0.937   0.841   3.035  0.0749 -0.0223 -0.2601
 7769SOL    HW134940   1.026   0.806   3.034  0.2167  0.4175 -2.9078
 7769SOL    HW234941   0.891   0.786   2.972 -0.4186 -1.3791  1.3002
 7770SOL     OW34942   0.813   0.875   8.059  0.1874 -0.1927 -0.3655
 7770SOL    HW134943   0.895   0.865   8.107 -0.9068 -0.0205  1.5409
 7770SOL    HW234944   0.852   0.886   7.972 -0.9327  1.2003 -0.7016
 7771SOL     OW34945   3.658   1.351   1.428 -0.2490  0.1918  0.1788
 7771SOL    HW134946   3.591   1.303   1.477  1.4209 -1.4965  0.8359
 7771SOL    HW234947   3.703   1.287   1.373  0.4022  0.5342  0.3040
 7772SOL     OW34948   2.639   2.054   1.637  0.4197  0.1058  0.2473
 7772SOL    HW134949   2.701   2.011   1.696  0.2074  2.1849  1.9808
 7772SOL    HW234950   2.651   2.144   1.667 -0.0583 -0.0488  0.8820
 7773SOL     OW34951   0.651   1.730   4.776  0.0989 -0.4078  0.1331
 7773SOL    HW134952   0.618   1.644   4.750  0.2119 -0.5411  0.4307
 7773SOL    HW234953   0.590   1.764   4.842 -0.2221  1.5123 -1.1495
 7774SOL     OW34954   1.804   1.642   6.912 -0.2395  0.0798  0.2905
 7774SOL    HW134955   1.731   1.649   6.973 -1.0467 -0.1867 -0.6514
 7774SOL    HW234956   1.840   1.555   6.928 -1.2708 -0.5263 -0.7052
 7775SOL     OW34957   0.592   2.187  14.369  0.0023  0.4348 -0.1253
 7775SOL    HW134958   0.519   2.130  14.390  0.5950 -1.1624 -2.4402
 7775SOL    HW234959   0.574   2.246  14.443 -3.1274  1.3716 -1.6624
 7776SOL     OW34960   1.413   0.620   9.030 -0.2791  0.5025 -0.4929
 7776SOL    HW134961   1.345   0.608   8.963 -1.0635  2.0813  0.0205
 7776SOL    HW234962   1.442   0.707   9.004 -1.7945  1.0585 -0.3300
 7777SOL     OW34963   1.893   0.339   3.041 -0.4253 -0.3887 -0.0860
 7777SOL    HW134964   1.905   0.423   3.085 -3.1539  0.8279 -1.5971
 7777SOL    HW234965   1.963   0.291   3.085 -0.3923  0.0543  0.3382
 7778SOL     OW34966   4.243   2.252   6.772  0.3134 -0.3252  0.0830
 7778SOL    HW134967   4.333   2.283   6.785 -0.4629  0.7304  2.9285
 7778SOL    HW234968   4.233   2.314   6.699  1.0155  1.2949  1.3483
 7779SOL     OW34969   0.555   1.217  12.813  0.7833  0.3636 -0.0976
 7779SOL    HW134970   0.645   1.204  12.785  0.4406 -2.0046 -0.1189
 7779SOL    HW234971   0.521   1.226  12.724  0.1391  0.8593  0.1951
 7780SOL     OW34972   2.185   0.991   8.655 -0.0505 -0.0167 -0.5305
 7780SOL    HW134973   2.164   0.998   8.748 -0.0842 -1.9402 -0.3920
 7780SOL    HW234974   2.122   1.055   8.623 -1.8549 -1.2167  0.6458
 7781SOL     OW34975   3.563   3.159   0.111  0.0392  0.0319  0.8747
 7781SOL    HW134976   3.628   3.133   0.045  2.2626  3.2844  1.8102
 7781SOL    HW234977   3.481   3.126   0.074 -0.3697 -0.5773  2.3275
 7782SOL     OW34978   0.241   2.096   7.505  0.3100 -0.1549 -0.5279
 7782SOL    HW134979   0.327   2.068   7.536  0.1102  1.4946  1.4994
 7782SOL    HW234980   0.251   2.190   7.515 -1.0251 -0.4739  3.7453
 7783SOL     OW34981   0.659   3.441   6.775 -0.2154  0.5262 -0.1676
 7783SOL    HW134982   0.660   3.422   6.869 -0.5944  2.0035  0.1386
 7783SOL    HW234983   0.646   3.536   6.770 -1.9043  0.2561 -0.9003
 7784SOL     OW34984   3.715   0.122   4.695  0.2942  0.3389  0.4127
 7784SOL    HW134985   3.665   0.058   4.746 -0.7177  0.2767 -0.6587
 7784SOL    HW234986   3.778   0.064   4.652 -0.2326  0.9676 -1.2083
 7785SOL     OW34987   2.870   1.183   3.854 -0.1574 -0.0835 -0.0697
 7785SOL    HW134988   2.813   1.151   3.785 -0.6921  0.9866 -0.1260
 7785SOL    HW234989   2.949   1.219   3.813  0.2212 -1.5319 -0.5904
 7786SOL     OW34990   2.191   2.271   7.248  0.1379 -0.2119  0.9823
 7786SOL    HW134991   2.123   2.214   7.285  0.7178  0.2664  2.7869
 7786SOL    HW234992   2.183   2.340   7.314  0.1465  1.1656 -0.4363
 7787SOL     OW34993   1.243   1.089   0.604 -0.0456 -0.0814  0.3510
 7787SOL    HW134994   1.179   1.064   0.670  0.4648 -2.4495 -0.0787
 7787SOL    HW234995   1.245   1.008   0.553 -0.7655 -0.6590  1.2438
 7788SOL     OW34996   1.485   4.293  10.139  0.1447 -0.4563 -0.6187
 7788SOL    HW134997   1.446   4.323  10.057 -0.6019  2.8620  0.9572
 7788SOL    HW234998   1.537   4.223  10.099  0.3783 -0.7426  0.1860
 7789SOL     OW34999   2.593   4.146   8.419  0.2111 -0.3167  0.3374
 7789SOL    HW135000   2.579   4.146   8.324 -0.0024 -0.8887  0.3688
 7789SOL    HW235001   2.627   4.234   8.436 -0.6153 -0.0643  0.6485
 7790SOL     OW35002   0.770   3.706   3.284  0.0393 -0.4829 -1.1777
 7790SOL    HW135003   0.771   3.628   3.228  0.9778 -1.1077 -0.2985
 7790SOL    HW235004   0.840   3.758   3.245 -1.7943  2.0648 -1.0200
 7791SOL     OW35005   3.738   0.212   1.262 -0.2670 -0.1193  0.1845
 7791SOL    HW135006   3.756   0.305   1.254  0.0900 -0.5258 -3.9823
 7791SOL    HW235007   3.821   0.187   1.222 -1.4895 -1.9373 -1.2576
 7792SOL     OW35008   0.250   3.954   3.697  0.0139 -0.2377 -0.0850
 7792SOL    HW135009   0.332   4.002   3.709 -0.1007  0.6216 -2.8057
 7792SOL    HW235010   0.266   3.882   3.758  1.3630  1.4884  1.5954
 7793SOL     OW35011   1.703   2.830   8.408  0.5152  0.1465 -0.0635
 7793SOL    HW135012   1.780   2.827   8.351  0.2019 -1.7155 -0.3782
 7793SOL    HW235013   1.674   2.918   8.383  1.1753  0.3514 -0.1305
 7794SOL     OW35014   0.389   2.280  12.658 -0.1682 -0.4380 -0.1202
 7794SOL    HW135015   0.323   2.342  12.690  2.2002  2.4533 -0.8221
 7794SOL    HW235016   0.345   2.196  12.671  0.4668 -0.9140 -1.0890
 7795SOL     OW35017   4.326   4.180   8.502 -0.8092 -0.2325  0.2191
 7795SOL    HW135018   4.405   4.138   8.465 -0.8378 -0.4075  0.3574
 7795SOL    HW235019   4.278   4.203   8.422 -3.6531  0.1185  2.0458
 7796SOL     OW35020   4.040   1.660  17.042  0.0072  0.1965 -0.2181
 7796SOL    HW135021   4.074   1.739  17.085  0.6990 -0.4391  0.3994
 7796SOL    HW235022   4.119   1.615  17.012 -1.1264 -0.9166 -1.5454
 7797SOL     OW35023   4.656   2.360   5.523 -0.0258 -0.1757 -0.5129
 7797SOL    HW135024   4.683   2.410   5.446  1.4234 -1.5907 -0.9277
 7797SOL    HW235025   4.591   2.413   5.569 -0.4909 -1.7468  0.6414
 7798SOL     OW35026   4.539   0.583   7.790  0.4035 -0.4190  0.1769
 7798SOL    HW135027   4.450   0.619   7.800  0.1939  0.0163 -3.3976
 7798SOL    HW235028   4.526   0.548   7.702 -1.4657  0.8309 -0.0568
 7799SOL     OW35029   2.082   1.227   6.928 -0.2064 -0.7189  0.1186
 7799SOL    HW135030   2.147   1.255   6.993 -0.6721  1.1616 -0.2082
 7799SOL    HW235031   2.058   1.146   6.972 -1.7330 -0.1244  0.3757
 7800SOL     OW35032   0.762   1.827   8.031  0.5544 -0.2370  0.6543
 7800SOL    HW135033   0.669   1.846   8.017  1.0099  0.9150 -0.7520
 7800SOL    HW235034   0.740   1.751   8.085 -1.1693 -0.3399 -0.1589
 7801SOL     OW35035   0.762   3.350   4.038  0.2576  0.6882  0.0451
 7801SOL    HW135036   0.756   3.438   4.075  0.5175  0.7768 -0.1255
 7801SOL    HW235037   0.667   3.337   4.030  0.2028  0.2999  1.3262
 7802SOL     OW35038   1.125   1.645   7.012  0.0168  0.9449  0.1789
 7802SOL    HW135039   1.206   1.631   6.963  1.3263  0.4672  2.4935
 7802SOL    HW235040   1.084   1.703   6.948  3.0979  2.5640 -0.3144
 7803SOL     OW35041   2.396   3.865   8.316  0.1643  0.4257  0.9004
 7803SOL    HW135042   2.339   3.790   8.298  1.5969 -0.7435  1.3145
 7803SOL    HW235043   2.468   3.849   8.255 -0.7544 -0.5138  0.0420
 7804SOL     OW35044   3.029   4.189   6.856  0.7700  0.3183  0.0750
 7804SOL    HW135045   2.946   4.162   6.817  1.1922 -1.3062  0.3207
 7804SOL    HW235046   3.026   4.156   6.945 -1.0355  0.5215  0.0870
 7805SOL     OW35047   1.784   4.081   3.256 -1.1626  0.1295 -0.0501
 7805SOL    HW135048   1.802   4.151   3.192 -0.0468  0.0036  0.1175
 7805SOL    HW235049   1.694   4.060   3.232 -0.8790  1.0181 -1.8933
 7806SOL     OW35050   4.463   0.387   4.468  0.5163  0.3173  0.3065
 7806SOL    HW135051   4.398   0.438   4.420  1.1480 -0.6629 -1.5818
 7806SOL    HW235052   4.510   0.461   4.506  1.4522  0.8028 -1.8264
 7807SOL     OW35053   3.939   0.035  16.410  0.1214 -0.4389 -0.3895
 7807SOL    HW135054   3.871   0.084  16.364 -1.1334 -1.8724 -0.0366
 7807SOL    HW235055   3.878   4.731  16.471 -0.4637 -0.7747 -1.2067
 7808SOL     OW35056   3.849   2.950   9.581  0.4340  0.0515  0.0829
 7808SOL    HW135057   3.912   2.957   9.652  1.4705 -1.3858 -0.7163
 7808SOL    HW235058   3.859   2.861   9.548 -2.1874 -0.9739  2.0583
 7809SOL     OW35059   2.782   1.916   6.471 -0.0715  0.1176 -0.6809
 7809SOL    HW135060   2.713   1.858   6.439 -1.2341  1.1600 -0.0518
 7809SOL    HW235061   2.738   1.977   6.530  3.9361 -0.1436  2.5451
 7810SOL     OW35062   3.894   1.006   8.624 -0.2196 -0.5015  0.2254
 7810SOL    HW135063   3.967   0.950   8.650 -0.4975 -0.3982  1.2631
 7810SOL    HW235064   3.931   1.094   8.616  0.7479 -1.1555 -2.4228
 7811SOL     OW35065   0.299   4.483  10.371 -0.5627  0.0416  0.5777
 7811SOL    HW135066   0.357   4.467  10.446  0.4010 -0.3817 -0.2606
 7811SOL    HW235067   0.333   4.564  10.334 -1.1225 -0.5060 -1.1389
 7812SOL     OW35068   0.258   1.517  16.551  0.2269 -0.5604  0.7997
 7812SOL    HW135069   0.332   1.549  16.501 -0.9049  0.8184  0.0019
 7812SOL    HW235070   0.183   1.517  16.491 -0.6825  0.4913  1.9407
 7813SOL     OW35071   2.851   4.128  11.547  0.0117 -0.6141 -0.4238
 7813SOL    HW135072   2.783   4.181  11.590 -0.1849 -1.2723  0.0834
 7813SOL    HW235073   2.817   4.105  11.460 -2.0170  0.3095  0.1067
 7814SOL     OW35074   0.929   3.457  13.873  0.0723  0.1592 -0.4451
 7814SOL    HW135075   0.846   3.415  13.848  0.3614 -0.1386 -0.9143
 7814SOL    HW235076   0.906   3.549  13.859 -0.4931  0.0191 -0.4383
 7815SOL     OW35077   3.977   2.673  13.827 -0.4415  0.1059 -0.1001
 7815SOL    HW135078   3.989   2.718  13.743  2.1820  0.4003  0.4431
 7815SOL    HW235079   3.917   2.604  13.797 -0.4448  0.5096 -1.0095
 7816SOL     OW35080   0.688   2.426  16.940 -0.2759 -0.0030  0.1593
 7816SOL    HW135081   0.732   2.365  16.999 -1.5740 -0.2698  0.8427
 7816SOL    HW235082   0.749   2.436  16.867 -2.1543 -1.2964 -1.5846
 7817SOL     OW35083   4.181   0.772   4.156 -0.3183  0.3815  0.3689
 7817SOL    HW135084   4.106   0.827   4.176 -0.5279  1.2568 -2.8448
 7817SOL    HW235085   4.161   0.689   4.199  1.0887 -0.5261 -0.7468
 7818SOL     OW35086   4.499   4.555   0.595 -0.0867  0.4587  0.4236
 7818SOL    HW135087   4.526   4.637   0.638 -0.5843 -0.3695  2.3117
 7818SOL    HW235088   4.472   4.508   0.674 -0.4516 -0.3776 -0.2105
 7819SOL     OW35089   4.596   2.621  11.268 -0.0268  0.1321 -0.1261
 7819SOL    HW135090   4.547   2.640  11.348  0.5724  1.1217  0.0092
 7819SOL    HW235091   4.651   2.550  11.301  2.3400  1.9612 -0.1546
 7820SOL     OW35092   3.512   4.222   6.145 -0.6706 -0.2514 -0.5469
 7820SOL    HW135093   3.552   4.159   6.204  0.4000  0.5694 -0.4007
 7820SOL    HW235094   3.426   4.220   6.188 -1.2188  3.1713 -1.4715
 7821SOL     OW35095   0.190   3.075   6.025 -0.0984  0.0104 -0.1155
 7821SOL    HW135096   0.267   3.125   6.055 -0.0342 -1.8002  2.7259
 7821SOL    HW235097   0.112   3.125   6.047 -1.2109 -1.5789 -0.4851
 7822SOL     OW35098   0.000   3.919   6.803 -0.2241  0.0948 -0.1514
 7822SOL    HW135099   0.093   3.900   6.816 -0.3035 -1.5344 -1.9650
 7822SOL    HW235100   4.709   3.954   6.888  1.3816 -1.3839  0.9932
 7823SOL     OW35101   1.987   1.201  16.236 -0.3633  0.2438  0.3591
 7823SOL    HW135102   2.000   1.108  16.255 -2.3330  0.0160  0.5238
 7823SOL    HW235103   1.894   1.221  16.229 -0.2333  0.7069 -0.1166
 7824SOL     OW35104   0.672   0.344   4.697 -0.1063  0.0626 -0.2855
 7824SOL    HW135105   0.580   0.355   4.676  0.5188  0.9780 -2.5173
 7824SOL    HW235106   0.708   0.393   4.624  0.5496  0.8433  0.5645
 7825SOL     OW35107   2.562   3.382   6.575 -0.3701 -0.1854 -0.1407
 7825SOL    HW135108   2.596   3.422   6.655  0.5840  0.9758 -1.1318
 7825SOL    HW235109   2.530   3.454   6.521  0.0921 -0.6795 -1.0601
 7826SOL     OW35110   0.085   0.728   1.160 -0.2689  0.7224  0.1869
 7826SOL    HW135111   0.178   0.708   1.167 -0.1358  1.2763 -0.0010
 7826SOL    HW235112   0.048   0.689   1.239 -0.8527  0.1625 -0.3540
 7827SOL     OW35113   2.706   3.456   0.735 -0.5136  0.3061 -0.0301
 7827SOL    HW135114   2.621   3.461   0.779  0.4389  0.4792  1.7844
 7827SOL    HW235115   2.748   3.378   0.773 -1.6808  0.5749  1.8408
 7828SOL     OW35116   2.838   1.165  10.415  0.0787  0.2960 -0.5149
 7828SOL    HW135117   2.790   1.131  10.491 -1.8485  1.7114 -1.0951
 7828SOL    HW235118   2.764   1.176  10.355 -0.3567 -2.7764 -0.5640
 7829SOL     OW35119   4.026   1.615  11.083 -0.0317  0.0704 -0.2037
 7829SOL    HW135120   4.029   1.567  11.166  0.4322 -0.9555 -0.8090
 7829SOL    HW235121   4.082   1.555  11.032  2.3132 -0.1895  2.6370
 7830SOL     OW35122   1.874   1.421   5.381  0.5357 -0.5083 -0.0389
 7830SOL    HW135123   1.870   1.417   5.285 -2.0433 -1.3020  0.1189
 7830SOL    HW235124   1.926   1.500   5.396  0.1758  0.2219 -2.6612
 7831SOL     OW35125   2.910   0.001   8.897  0.1850  0.2519  0.3922
 7831SOL    HW135126   2.845   0.053   8.851 -1.1397  0.5792  2.6322
 7831SOL    HW235127   2.874   4.649   8.895  0.5521  0.0797  1.5930
 7832SOL     OW35128   0.953   0.872   3.648 -0.1865 -0.1057  0.5675
 7832SOL    HW135129   0.901   0.953   3.641 -1.0071 -0.6212  0.7053
 7832SOL    HW235130   1.008   0.879   3.570 -2.0181 -1.9521 -0.8846
 7833SOL     OW35131   1.027   1.404  16.076 -0.1994  0.4594  0.1812
 7833SOL    HW135132   1.079   1.332  16.113 -0.7396 -0.1967 -0.3316
 7833SOL    HW235133   0.945   1.379  16.118 -0.0589  0.1678  0.2812
 7834SOL     OW35134   1.377   1.275   6.993 -0.5691 -0.6187  0.0801
 7834SOL    HW135135   1.397   1.270   6.900 -1.4928  1.2191 -0.2226
 7834SOL    HW235136   1.429   1.350   7.022 -3.2043  2.7464 -3.7553
 7835SOL     OW35137   2.905   1.008   1.988 -0.4501  0.1488 -0.1388
 7835SOL    HW135138   2.935   1.085   2.035  0.4669  1.2397 -2.5028
 7835SOL    HW235139   2.919   0.937   2.051  0.7850  1.8911  1.5204
 7836SOL     OW35140   0.842   4.084   4.413  0.0585  0.1606  0.0460
 7836SOL    HW135141   0.819   4.007   4.465 -0.0477 -0.0131 -0.2538
 7836SOL    HW235142   0.762   4.136   4.426 -0.4473 -0.0993 -1.9643
 7837SOL     OW35143   1.965   0.295  12.364 -0.0383  0.0102  0.5385
 7837SOL    HW135144   1.958   0.363  12.431  2.8631  0.3086  0.5287
 7837SOL    HW235145   2.060   0.300  12.351 -0.4570 -0.5944 -2.8915
 7838SOL     OW35146   3.665   0.649   5.751  0.0541  0.1013  0.0910
 7838SOL    HW135147   3.713   0.719   5.707 -0.5082  0.9044  0.7336
 7838SOL    HW235148   3.737   0.609   5.801  0.8846 -1.2500 -2.1996
 7839SOL     OW35149   4.350   4.640  16.675  0.0545  0.1693 -0.2392
 7839SOL    HW135150   4.419   4.580  16.644 -0.3199  0.1203 -0.9803
 7839SOL    HW235151   4.292   4.648  16.599  2.1321 -0.0918 -1.8766
 7840SOL     OW35152   1.199   3.520   2.023 -0.2413  0.2039 -0.6306
 7840SOL    HW135153   1.120   3.471   2.046 -0.6393 -0.3299 -3.1446
 7840SOL    HW235154   1.189   3.607   2.062 -3.1959 -0.3656 -0.1256
 7841SOL     OW35155   0.932   0.875   5.329  0.0106 -0.6107  0.1488
 7841SOL    HW135156   0.986   0.896   5.405  1.0908  2.3082 -1.4150
 7841SOL    HW235157   0.860   0.825   5.366  0.0990  0.1567  1.3489
 7842SOL     OW35158   3.743   3.444  16.306 -0.3488  0.3438  0.4905
 7842SOL    HW135159   3.815   3.448  16.243  0.5076  0.2864  1.4666
 7842SOL    HW235160   3.738   3.538  16.320  0.1004  0.4741 -0.2209
 7843SOL     OW35161   0.188   0.169   1.342  0.2610 -0.2727  0.1595
 7843SOL    HW135162   0.229   0.221   1.411  2.7251 -0.6005 -1.0789
 7843SOL    HW235163   0.162   0.228   1.271 -4.6509 -0.8560  1.4199
 7844SOL     OW35164   0.549   4.103   9.724  0.0578  0.1095  0.1439
 7844SOL    HW135165   0.571   4.063   9.640  2.2229 -0.2269  0.8697
 7844SOL    HW235166   0.632   4.143   9.751  0.6057 -1.4663  0.7910
 7845SOL     OW35167   3.462   0.102   4.949 -0.0159  0.3046  0.6275
 7845SOL    HW135168   3.473   0.068   5.038  2.3739  0.0627  0.2458
 7845SOL    HW235169   3.530   0.065   4.893 -3.4754  0.2716 -3.4798
 7846SOL     OW35170   1.568   4.526   1.199 -0.3006  0.2472  0.1141
 7846SOL    HW135171   1.525   4.443   1.222 -1.2646  1.4149  2.5030
 7846SOL    HW235172   1.652   4.483   1.185  0.0282  1.2324 -0.8750
 7847SOL     OW35173   2.758   1.556   1.923  0.2867  0.4606 -0.1301
 7847SOL    HW135174   2.824   1.554   1.992 -1.4370 -1.4722  1.4893
 7847SOL    HW235175   2.785   1.492   1.858 -1.4444  0.1060 -0.5079
 7848SOL     OW35176   1.359   2.361   9.111 -0.2964 -0.1966 -0.0522
 7848SOL    HW135177   1.265   2.347   9.124 -0.2384  1.5123  2.1352
 7848SOL    HW235178   1.370   2.443   9.063 -0.9950  0.8944  1.6610
 7849SOL     OW35179   1.080   2.938   2.274  0.1785 -0.1343 -0.3269
 7849SOL    HW135180   1.054   2.857   2.230  0.2767 -0.1938 -0.2751
 7849SOL    HW235181   1.174   2.934   2.260  0.0404 -1.4856 -0.8062
 7850SOL     OW35182   1.039   2.008   9.082 -0.3974  0.2767  0.0712
 7850SOL    HW135183   1.038   1.951   9.005  2.2538  0.9700 -0.4695
 7850SOL    HW235184   0.944   2.015   9.091 -0.7553 -1.3080 -2.4707
 7851SOL     OW35185   2.924   1.971   6.806  0.0283  0.0184  0.2857
 7851SOL    HW135186   2.931   2.061   6.774 -0.3658 -0.5314 -1.3705
 7851SOL    HW235187   2.835   1.963   6.841 -0.0251 -2.4230 -0.4134
 7852SOL     OW35188   3.822   4.325  11.052  0.6073  0.3969  0.0670
 7852SOL    HW135189   3.735   4.355  11.027  0.7725  0.2882 -0.6450
 7852SOL    HW235190   3.824   4.244  11.000  2.4212  0.0103  0.7385
 7853SOL     OW35191   1.296   0.897   9.211 -0.5228  0.4388 -0.2677
 7853SOL    HW135192   1.206   0.906   9.240  0.1002  0.0320  1.7466
 7853SOL    HW235193   1.328   0.839   9.280  1.7101  2.4489  0.3884
 7854SOL     OW35194   0.464   2.158  13.508  0.1051  0.4032  0.5353
 7854SOL    HW135195   0.441   2.175  13.417  1.0064  4.6007  1.1166
 7854SOL    HW235196   0.549   2.118  13.490 -0.0472 -0.0282  0.7436
 7855SOL     OW35197   1.410   3.388   7.740  0.3418 -0.7315  0.4058
 7855SOL    HW135198   1.334   3.371   7.796  0.1225 -2.6773 -0.4672
 7855SOL    HW235199   1.363   3.440   7.674 -0.6864 -0.5364  1.2930
 7856SOL     OW35200   2.600   3.848   9.974  0.0733 -0.3369  0.2025
 7856SOL    HW135201   2.570   3.937   9.994  0.3191 -0.6420  1.9084
 7856SOL    HW235202   2.594   3.797  10.054 -2.6823  0.6750  0.6568
 7857SOL     OW35203   2.703   0.558   6.503  0.7142  0.6771 -0.2370
 7857SOL    HW135204   2.779   0.512   6.538 -1.1074 -1.8606  0.3695
 7857SOL    HW235205   2.640   0.486   6.498  0.9625  0.2304  2.7621
 7858SOL     OW35206   0.659   2.877  15.475 -0.3710  0.1824  0.1120
 7858SOL    HW135207   0.624   2.931  15.404 -1.1343  0.5845  0.7904
 7858SOL    HW235208   0.739   2.920  15.505 -0.4465  0.7863 -0.5551
 7859SOL     OW35209   2.065   0.612  10.760 -0.2021  0.0404  0.0074
 7859SOL    HW135210   1.996   0.563  10.806 -1.3925  2.1894  0.4992
 7859SOL    HW235211   2.141   0.579  10.808  1.4125 -0.0192 -2.6109
 7860SOL     OW35212   2.312   2.430   6.141  0.3569 -0.2821 -0.3774
 7860SOL    HW135213   2.340   2.516   6.109  2.0466 -0.4303  0.6528
 7860SOL    HW235214   2.297   2.448   6.234 -2.6762 -0.2294 -0.8985
 7861SOL     OW35215   3.190   1.940   6.792 -0.3235 -0.4409 -0.3656
 7861SOL    HW135216   3.223   1.874   6.853  0.9852  0.7568  0.2297
 7861SOL    HW235217   3.095   1.940   6.794 -0.3705 -1.3342 -2.1749
 7862SOL     OW35218   4.268   1.749  10.541 -0.1230  0.1191 -0.0926
 7862SOL    HW135219   4.263   1.800  10.622 -2.1627  0.4620 -0.4332
 7862SOL    HW235220   4.195   1.687  10.548 -0.7784  1.0986  1.8792
 7863SOL     OW35221   3.123   1.950   8.523  0.2458  0.2765 -0.0041
 7863SOL    HW135222   3.071   1.872   8.503  0.4974  0.1716 -0.2614
 7863SOL    HW235223   3.182   1.919   8.592 -2.3386 -2.4004  1.0197
 7864SOL     OW35224   2.963   0.613   9.467  0.3222  0.3872  0.7188
 7864SOL    HW135225   3.035   0.671   9.442  1.0183 -0.6747  0.1941
 7864SOL    HW235226   2.947   0.622   9.560  1.4470  1.2114  0.8271
 7865SOL     OW35227   0.183   4.276  16.560 -0.5407  0.1586  0.3982
 7865SOL    HW135228   0.173   4.190  16.602 -1.6938 -0.1104 -0.4184
 7865SOL    HW235229   0.160   4.251  16.470  0.7142  1.7772 -0.3851
 7866SOL     OW35230   3.877   2.794   8.887 -0.4188  0.3590 -0.4349
 7866SOL    HW135231   3.951   2.828   8.938  0.3149 -0.6513 -0.8227
 7866SOL    HW235232   3.811   2.835   8.942 -0.5153  1.9388 -1.6960
 7867SOL     OW35233   1.860   2.097   1.870  0.1739 -0.1029 -0.8198
 7867SOL    HW135234   1.772   2.117   1.839 -0.2465  0.6574  0.8647
 7867SOL    HW235235   1.918   2.107   1.795  0.3664 -0.1024 -0.6731
 7868SOL     OW35236   2.445   4.330   0.074 -0.5754  0.0738 -0.4575
 7868SOL    HW135237   2.376   4.318   0.139  1.2564 -0.3675  1.4172
 7868SOL    HW235238   2.402   4.398   0.022  0.7756  1.5253  0.3367
 7869SOL     OW35239   4.616   4.435   6.721  0.6839 -0.2618  0.4847
 7869SOL    HW135240   4.659   4.515   6.691  0.4379 -0.3450 -0.0980
 7869SOL    HW235241   4.573   4.408   6.640  1.1199 -0.0831  0.1980
 7870SOL     OW35242   0.717   3.321  13.742  0.3768  0.3714  0.4486
 7870SOL    HW135243   0.691   3.229  13.743 -0.4501  0.6199  1.2450
 7870SOL    HW235244   0.774   3.319  13.665 -1.7434 -0.0253 -1.1014
 7871SOL     OW35245   4.566   1.365  11.630 -0.3703  0.2415 -0.2612
 7871SOL    HW135246   4.471   1.367  11.628 -0.4061  0.4079  1.3899
 7871SOL    HW235247   4.585   1.365  11.724 -1.3443  1.4665 -0.0621
 7872SOL     OW35248   2.285   1.247   9.484  0.3244 -0.0283  0.5180
 7872SOL    HW135249   2.308   1.339   9.468 -1.0640  0.4364  1.1668
 7872SOL    HW235250   2.207   1.241   9.429 -0.1244  1.7623  0.9594
 7873SOL     OW35251   4.026   4.348   3.368 -0.4219 -0.3755  0.1657
 7873SOL    HW135252   3.983   4.405   3.432 -1.4799  0.1342 -0.9953
 7873SOL    HW235253   4.039   4.268   3.418  1.7944  0.3083  0.6689
 7874SOL     OW35254   1.341   3.431   2.553  0.1043  0.5275 -0.2675
 7874SOL    HW135255   1.360   3.346   2.514  0.9882 -0.0486  1.3840
 7874SOL    HW235256   1.304   3.470   2.474  1.9066  1.6797 -0.5449
 7875SOL     OW35257   1.704   1.061   1.546  0.0211 -0.7487  0.2271
 7875SOL    HW135258   1.620   1.076   1.590  0.5710 -0.9170  1.3570
 7875SOL    HW235259   1.749   1.141   1.574 -3.2145  0.8483  0.7758
 7876SOL     OW35260   2.533   0.704   5.536 -0.2869  0.0252 -0.1080
 7876SOL    HW135261   2.498   0.714   5.625 -1.9641 -0.9295 -0.6572
 7876SOL    HW235262   2.621   0.668   5.549  0.2712  1.0856 -0.9286
 7877SOL     OW35263   3.875   2.058   2.914 -0.3405  0.2936 -0.1777
 7877SOL    HW135264   3.952   2.089   2.867 -0.4453  1.8222  0.6235
 7877SOL    HW235265   3.884   2.100   3.000 -1.3692 -2.4857  1.2766
 7878SOL     OW35266   0.951   0.087   9.408  0.3232  0.7588  0.2761
 7878SOL    HW135267   0.872   0.033   9.418  0.2855  0.9716  1.0864
 7878SOL    HW235268   0.924   0.176   9.431  3.8092  1.5068  1.3905
 7879SOL     OW35269   0.222   0.279   6.684  0.0487  0.1472  0.0183
 7879SOL    HW135270   0.264   0.340   6.623  0.9944  1.8911  2.3779
 7879SOL    HW235271   0.294   0.220   6.704 -1.1959 -0.9249  1.3703
 7880SOL     OW35272   3.451   4.552   2.202 -0.1130 -0.0638  0.1952
 7880SOL    HW135273   3.444   4.581   2.292  0.0597  0.0072  0.1845
 7880SOL    HW235274   3.490   4.632   2.167  1.0996  0.4611  2.7748
 7881SOL     OW35275   1.934   2.696  17.305  0.2479  0.8466  0.6486
 7881SOL    HW135276   2.025   2.720  17.289  0.4616  0.9984  2.1555
 7881SOL    HW235277   1.940   2.676  17.398 -2.6448  0.3965  0.7371
 7882SOL     OW35278   1.169   2.381   2.051 -0.1168  0.7857 -0.1043
 7882SOL    HW135279   1.107   2.382   1.978 -0.3385  2.5619  0.1144
 7882SOL    HW235280   1.115   2.359   2.127 -0.1564 -0.2804 -0.4452
 7883SOL     OW35281   2.764   0.231  14.451  0.2172  0.0240 -0.3880
 7883SOL    HW135282   2.799   0.147  14.421 -0.3969  0.3121 -1.9217
 7883SOL    HW235283   2.738   0.273  14.369 -2.0026 -1.5049 -0.4837
 7884SOL     OW35284   2.378   3.309   6.132 -0.0899  0.4955  0.2453
 7884SOL    HW135285   2.450   3.286   6.072  0.3748  1.6800  0.3434
 7884SOL    HW235286   2.398   3.398   6.159  3.0435 -0.1282  0.0361
 7885SOL     OW35287   4.114   0.319   7.213  0.0802  0.6273 -0.2471
 7885SOL    HW135288   4.102   0.227   7.236 -0.8811  1.2080  1.5456
 7885SOL    HW235289   4.204   0.342   7.188 -0.9101  2.7769 -1.8200
 7886SOL     OW35290   1.801   0.389   8.632 -0.1190 -0.2013  0.1196
 7886SOL    HW135291   1.724   0.376   8.689  0.6455 -0.6093  1.0723
 7886SOL    HW235292   1.872   0.368   8.693  1.0614  1.6515 -0.6108
 7887SOL     OW35293   3.627   2.441   9.568 -0.6315 -0.3793  0.3712
 7887SOL    HW135294   3.542   2.412   9.602 -1.4139  0.5492 -0.7872
 7887SOL    HW235295   3.676   2.451   9.649 -0.4015 -2.3509  0.4719
 7888SOL     OW35296   2.307   0.717   1.818 -0.1421 -0.5384 -0.0106
 7888SOL    HW135297   2.324   0.764   1.900  0.9995 -0.0725 -0.5127
 7888SOL    HW235298   2.218   0.745   1.797  1.2357  2.3067 -1.9601
 7889SOL     OW35299   1.450   1.471   2.764  0.0901  0.8758  0.0484
 7889SOL    HW135300   1.464   1.514   2.849 -0.4424 -0.7482  0.9561
 7889SOL    HW235301   1.364   1.430   2.774  0.5309 -0.4409 -1.6142
 7890SOL     OW35302   3.006   1.626   3.265  0.3753 -0.4954 -0.7850
 7890SOL    HW135303   2.933   1.658   3.317 -0.2564  0.2821 -2.1529
 7890SOL    HW235304   2.983   1.662   3.179 -3.0092  2.6225  1.4537
 7891SOL     OW35305   4.677   1.098   8.704  0.1793 -0.2764  0.0282
 7891SOL    HW135306   4.701   1.182   8.743 -1.8976  0.9416 -1.3015
 7891SOL    HW235307   4.670   1.040   8.780 -0.5458 -1.5127 -0.9700
 7892SOL     OW35308   1.622   4.685   6.320 -0.0187  0.0200 -0.2941
 7892SOL    HW135309   1.648   4.593   6.318  1.5135  0.4350  0.6660
 7892SOL    HW235310   1.527   4.680   6.312  0.1035  0.7092 -2.2148
 7893SOL     OW35311   1.415   0.331   7.577  0.2026 -0.2747 -0.2828
 7893SOL    HW135312   1.483   0.267   7.554  0.1808 -0.3176 -0.2315
 7893SOL    HW235313   1.362   0.326   7.498  0.3430  0.3262 -0.4104
 7894SOL     OW35314   2.362   2.395  16.998 -0.8091 -0.0337  0.9252
 7894SOL    HW135315   2.365   2.353  16.911  1.3472  0.2096  0.8819
 7894SOL    HW235316   2.323   2.480  16.978  1.8452  0.5051 -2.0239
 7895SOL     OW35317   1.312   0.634  14.964  0.3334  0.7259  0.1072
 7895SOL    HW135318   1.276   0.721  14.946 -1.0375  0.2511  0.5311
 7895SOL    HW235319   1.251   0.578  14.915  0.7587 -0.4182  0.8741
 7896SOL     OW35320   3.475   3.268   4.702  0.4220  0.7829  0.1214
 7896SOL    HW135321   3.409   3.316   4.651 -2.0219 -2.0840  0.5817
 7896SOL    HW235322   3.420   3.231   4.771  0.6564  1.3732  0.6181
 7897SOL     OW35323   1.553   2.456   3.905  0.8753  0.3190 -0.2859
 7897SOL    HW135324   1.550   2.368   3.943 -1.3579  0.9811  1.0654
 7897SOL    HW235325   1.539   2.521   3.974 -1.9651  1.3697 -1.8578
 7898SOL     OW35326   0.399   2.744   8.181  0.2811  0.2691 -0.1345
 7898SOL    HW135327   0.424   2.713   8.268 -1.7675 -2.1563 -0.4244
 7898SOL    HW235328   0.339   2.818   8.194  1.2360  1.1014 -0.4132
 7899SOL     OW35329   4.408   1.702   4.469  0.2140 -0.1029 -0.1120
 7899SOL    HW135330   4.470   1.762   4.511  1.5125 -3.6660  3.0734
 7899SOL    HW235331   4.415   1.635   4.537  1.1284  0.6650  0.5648
 7900SOL     OW35332   2.812   3.419   4.444  0.0655  0.4889 -0.5690
 7900SOL    HW135333   2.813   3.389   4.535  1.5339  0.2310 -0.6736
 7900SOL    HW235334   2.762   3.349   4.400 -2.9299  1.4729  1.2380
 7901SOL     OW35335   4.487   2.759  12.960 -0.6885  0.4029 -0.3640
 7901SOL    HW135336   4.531   2.844  12.964  0.2132 -0.2222  3.0246
 7901SOL    HW235337   4.537   2.706  12.897 -0.4789 -0.7932  0.8042
 7902SOL     OW35338   0.388   3.985   1.545 -0.3866 -0.0188 -0.1995
 7902SOL    HW135339   0.399   4.055   1.480  0.3265 -0.2143 -0.2911
 7902SOL    HW235340   0.298   4.002   1.570 -0.2285  1.5054 -0.6576
 7903SOL     OW35341   0.276   0.809   9.390 -0.2314 -0.2131 -0.5545
 7903SOL    HW135342   0.258   0.795   9.483  0.0877 -1.7398 -0.7207
 7903SOL    HW235343   0.198   0.855   9.360  0.2848  0.3771 -0.9842
 7904SOL     OW35344   3.189   4.075  13.361  0.5386 -0.6862  0.0714
 7904SOL    HW135345   3.262   4.121  13.402 -0.8417 -1.3537  3.2307
 7904SOL    HW235346   3.228   4.073  13.274 -0.8994 -1.1697 -0.5587
 7905SOL     OW35347   2.332   0.195  16.281 -0.2712 -0.4161 -0.0529
 7905SOL    HW135348   2.305   0.248  16.356 -0.5060 -0.3332 -0.1952
 7905SOL    HW235349   2.246   0.185  16.241  0.8100  1.9467 -3.0171
 7906SOL     OW35350   3.661   3.497   6.218 -0.0034 -0.4467  0.0200
 7906SOL    HW135351   3.620   3.459   6.141 -1.4335  1.2870 -0.0719
 7906SOL    HW235352   3.750   3.462   6.221 -0.5202 -1.7839 -0.1257
 7907SOL     OW35353   1.146   1.577   8.000  0.0386 -0.3961 -0.0835
 7907SOL    HW135354   1.086   1.651   7.995 -0.1111 -0.4396  1.0325
 7907SOL    HW235355   1.199   1.596   8.078  1.0125  0.0629 -0.8666
 7908SOL     OW35356   0.400   2.287   2.249 -0.1763  0.0345  0.4028
 7908SOL    HW135357   0.420   2.348   2.178  2.2498 -1.0636  0.1335
 7908SOL    HW235358   0.317   2.321   2.282 -0.6395  0.4749 -1.2280
 7909SOL     OW35359   3.429   2.436   9.865  0.8401  0.1738 -0.5048
 7909SOL    HW135360   3.493   2.365   9.871  1.2487  0.5076 -0.8442
 7909SOL    HW235361   3.352   2.385   9.842 -0.6077  2.8101 -1.5244
 7910SOL     OW35362   0.673   1.411   3.614  0.6414 -0.3246  0.5747
 7910SOL    HW135363   0.705   1.387   3.527 -2.6817  0.7629 -0.9230
 7910SOL    HW235364   0.747   1.389   3.670  0.6659 -1.1479  0.2202
 7911SOL     OW35365   1.279   3.615   6.455 -0.3427 -0.1457 -0.1843
 7911SOL    HW135366   1.290   3.674   6.530 -1.0557  0.0787 -0.2557
 7911SOL    HW235367   1.183   3.617   6.451 -0.4007 -1.1334  0.6585
 7912SOL     OW35368   0.344   3.439   5.751  0.1503  0.3541  0.5883
 7912SOL    HW135369   0.315   3.487   5.673 -0.6344 -0.3913  0.4260
 7912SOL    HW235370   0.431   3.413   5.722  0.7467  1.0710  1.7327
 7913SOL     OW35371   0.687   0.145  15.243 -0.0221  0.2725 -0.0730
 7913SOL    HW135372   0.625   0.113  15.177 -0.1399  0.7771 -0.2120
 7913SOL    HW235373   0.672   0.103  15.327 -1.4610 -0.3399 -0.6243
 7914SOL     OW35374   0.367   0.721   0.922 -0.6109  0.5723 -0.2093
 7914SOL    HW135375   0.367   0.699   1.015 -0.6621  0.7816 -0.1584
 7914SOL    HW235376   0.285   0.680   0.894 -0.0871 -0.6953  0.1361
 7915SOL     OW35377   0.304   2.833   3.998 -0.3559 -0.8907 -0.4985
 7915SOL    HW135378   0.276   2.776   4.070  0.0900  2.5979  2.3868
 7915SOL    HW235379   0.226   2.826   3.944 -1.3237 -1.4597  0.9612
 7916SOL     OW35380   3.673   4.367   2.243  0.6192 -0.3480  0.2353
 7916SOL    HW135381   3.718   4.440   2.285  3.0079 -0.1160 -2.6648
 7916SOL    HW235382   3.581   4.389   2.235  0.8026  1.2870  2.9335
 7917SOL     OW35383   1.074   0.315   9.162  0.5326  0.1646 -0.1992
 7917SOL    HW135384   1.149   0.258   9.145  0.8901  0.8679 -0.9891
 7917SOL    HW235385   1.088   0.332   9.255  3.4760 -0.7023 -0.4570
 7918SOL     OW35386   1.342   2.417   0.501 -0.8046 -0.4468 -0.1700
 7918SOL    HW135387   1.316   2.474   0.574  0.7359  0.1024 -0.0614
 7918SOL    HW235388   1.297   2.467   0.432 -1.7811  0.3031  0.9851
 7919SOL     OW35389   3.208   4.539   4.492  0.6745  0.0074  0.1677
 7919SOL    HW135390   3.168   4.513   4.575 -1.7395  0.6730 -0.7890
 7919SOL    HW235391   3.222   4.634   4.494 -1.8624  0.3493  1.0758
 7920SOL     OW35392   2.324   1.546   8.258 -0.1986 -0.4766  0.4883
 7920SOL    HW135393   2.419   1.539   8.262 -0.2556 -0.2474  2.1677
 7920SOL    HW235394   2.288   1.458   8.245 -0.7126 -0.8113  4.0633
 7921SOL     OW35395   3.444   3.018   7.491  0.1503  0.1740  0.1656
 7921SOL    HW135396   3.503   2.966   7.435 -0.0246 -0.3034  0.4236
 7921SOL    HW235397   3.479   3.005   7.579  1.7145  1.1514 -0.3139
 7922SOL     OW35398   0.889   1.858   5.908 -0.0738  0.3171  0.6011
 7922SOL    HW135399   0.960   1.796   5.930  0.9055  1.3357  0.2836
 7922SOL    HW235400   0.853   1.882   5.994 -1.6085 -1.7062  0.5368
 7923SOL     OW35401   1.386   0.579  11.105 -0.1470 -0.1769  0.3873
 7923SOL    HW135402   1.382   0.667  11.144 -0.8029  0.2870 -0.7235
 7923SOL    HW235403   1.310   0.573  11.047  2.2842  1.2320 -2.9539
 7924SOL     OW35404   1.305   0.131   9.177  0.0292  0.3300  0.0382
 7924SOL    HW135405   1.231   0.091   9.131 -1.5323  1.0045  1.9663
 7924SOL    HW235406   1.378   0.083   9.138 -0.8452 -1.2180  0.3050
 7925SOL     OW35407   0.206   1.498   8.080 -0.3035 -0.3205 -0.1300
 7925SOL    HW135408   0.269   1.476   8.149 -1.2856  1.2547  1.2914
 7925SOL    HW235409   0.255   1.562   8.029 -0.5241 -0.8677 -1.0260
 7926SOL     OW35410   3.545   3.572   9.343  0.5195 -0.4066  0.1411
 7926SOL    HW135411   3.556   3.553   9.249  0.9547  0.9811 -0.0913
 7926SOL    HW235412   3.636   3.555   9.370  0.3082 -1.7720 -0.0254
 7927SOL     OW35413   3.245   1.070  11.575 -0.0979 -0.1094  0.1855
 7927SOL    HW135414   3.246   0.996  11.515  0.5533  0.0536 -0.0063
 7927SOL    HW235415   3.167   1.052  11.628  1.1690 -1.0741  1.7336
 7928SOL     OW35416   3.668   0.019   2.945  0.1402 -0.3485 -0.3835
 7928SOL    HW135417   3.581   0.048   2.918  1.4621  3.6602 -0.2495
 7928SOL    HW235418   3.655   0.030   3.039  1.5941  1.1618 -0.3607
 7929SOL     OW35419   0.152   2.535  10.558 -0.1271 -0.0163  0.1022
 7929SOL    HW135420   0.219   2.604  10.554 -1.2636  1.1750  1.2538
 7929SOL    HW235421   0.115   2.566  10.641 -0.1099 -1.8106  0.7668
 7930SOL     OW35422   2.573   2.237   0.592 -0.6622 -0.1829 -0.8803
 7930SOL    HW135423   2.615   2.323   0.591 -2.7020  0.8708  2.7051
 7930SOL    HW235424   2.550   2.240   0.499  1.5361  0.2224 -1.4160
 7931SOL     OW35425   0.363   2.077  14.132 -0.3400 -0.3229 -0.3741
 7931SOL    HW135426   0.284   2.025  14.116  0.6068 -1.5522 -1.0532
 7931SOL    HW235427   0.318   2.157  14.159 -0.1735 -0.0664 -0.8546
 7932SOL     OW35428   2.302   0.575   7.771  0.5802  0.7270 -0.6998
 7932SOL    HW135429   2.362   0.523   7.824 -0.3430  1.9330  1.5315
 7932SOL    HW235430   2.219   0.567   7.819  2.2575  0.7410  2.1615
 7933SOL     OW35431   1.998   4.516   2.772 -0.1373  0.2227  0.3836
 7933SOL    HW135432   1.965   4.426   2.772  0.7475 -0.0935  0.9553
 7933SOL    HW235433   2.073   4.509   2.830 -1.2706 -0.2906  1.7854
 7934SOL     OW35434   1.211   1.667   4.911 -0.0141 -0.6303 -0.5548
 7934SOL    HW135435   1.209   1.681   5.006 -1.3588 -1.2373 -0.4826
 7934SOL    HW235436   1.289   1.613   4.907  0.4602 -0.0850  1.2688
 7935SOL     OW35437   1.696   3.072  12.291  0.3652 -0.3571  0.1040
 7935SOL    HW135438   1.669   2.983  12.315  0.6662  0.2377  2.6891
 7935SOL    HW235439   1.773   3.079  12.348  0.6387 -1.2207 -0.1473
 7936SOL     OW35440   2.513   1.679   7.390  0.6829 -0.4549  0.9091
 7936SOL    HW135441   2.494   1.682   7.484  0.2067  1.2179  0.7541
 7936SOL    HW235442   2.496   1.771   7.368 -0.5440 -1.1131 -0.9262
 7937SOL     OW35443   2.280   0.148   2.827  0.7204  0.4268  0.0888
 7937SOL    HW135444   2.319   0.089   2.892 -0.4335  0.3648  0.7475
 7937SOL    HW235445   2.186   0.130   2.839  0.6215  1.6681  1.1917
 7938SOL     OW35446   3.670   0.723   6.402  0.4627  0.1094 -0.2226
 7938SOL    HW135447   3.665   0.814   6.429  1.5625 -0.2587  1.2053
 7938SOL    HW235448   3.634   0.671   6.474  0.3060 -0.4128 -0.6730
 7939SOL     OW35449   3.954   1.659   3.510 -0.0011 -0.1774 -0.3669
 7939SOL    HW135450   3.998   1.734   3.469 -1.6637 -0.8720 -3.4183
 7939SOL    HW235451   3.886   1.695   3.567 -0.0282 -1.1633  0.2139
 7940SOL     OW35452   2.279   2.173   2.384  0.5626 -0.3435 -0.0237
 7940SOL    HW135453   2.236   2.116   2.448 -3.7304  1.3052 -1.5036
 7940SOL    HW235454   2.282   2.110   2.311  2.7791 -2.4036  1.8182
 7941SOL     OW35455   3.350   3.901   3.384 -0.4738  0.1471  0.1014
 7941SOL    HW135456   3.441   3.906   3.411 -0.6541 -0.1194  0.7540
 7941SOL    HW235457   3.314   3.883   3.471 -0.2059 -1.3429 -0.1053
 7942SOL     OW35458   1.606   2.341  17.470  0.2480  0.2455  0.5639
 7942SOL    HW135459   1.531   2.297  17.510  0.1647 -1.1542 -1.1004
 7942SOL    HW235460   1.678   2.283  17.495  1.0796  0.0548 -2.1618
 7943SOL     OW35461   1.015   3.655   9.585 -0.2147  0.0152  0.0470
 7943SOL    HW135462   1.111   3.646   9.586 -0.0861  1.9716  2.6719
 7943SOL    HW235463   1.001   3.730   9.641  2.1693 -0.1380  0.8483
 7944SOL     OW35464   1.130   1.319   6.093  0.3749  0.0308  0.6515
 7944SOL    HW135465   1.202   1.343   6.035 -0.5299 -1.7144 -1.2038
 7944SOL    HW235466   1.132   1.378   6.169 -0.4725 -0.1193  0.7917
 7945SOL     OW35467   3.430   2.456   8.166 -0.0623  0.1313  0.6720
 7945SOL    HW135468   3.436   2.475   8.072  3.1561  0.5910  0.9792
 7945SOL    HW235469   3.367   2.522   8.196 -0.4854  0.8648 -1.7914
 7946SOL     OW35470   0.730   3.244   0.146  0.0880  0.4954  0.1195
 7946SOL    HW135471   0.804   3.218   0.091  0.3757  1.4995  0.0261
 7946SOL    HW235472   0.752   3.336   0.159 -0.9051  0.5602  1.3798
 7947SOL     OW35473   2.866   4.683   5.316 -0.3973  0.0028 -0.5659
 7947SOL    HW135474   2.948   4.683   5.365 -0.0541  0.9343 -1.1405
 7947SOL    HW235475   2.865   0.040   5.296  0.1866  0.4715  1.5581
 7948SOL     OW35476   0.265   0.888   3.984 -0.3379 -0.4322  0.0490
 7948SOL    HW135477   0.330   0.847   3.928  0.6728 -0.0710  0.9676
 7948SOL    HW235478   0.267   0.980   3.960  0.8324 -0.8518 -1.3868
 7949SOL     OW35479   4.427   2.507   5.274 -0.8670 -0.0862 -0.1985
 7949SOL    HW135480   4.391   2.511   5.362  0.6368 -1.3487  0.4582
 7949SOL    HW235481   4.375   2.573   5.228 -1.1143 -0.7997 -0.9463
 7950SOL     OW35482   4.371   0.286   8.715 -0.4217 -0.9048 -0.5543
 7950SOL    HW135483   4.467   0.284   8.714 -0.3602  1.1279  0.8162
 7950SOL    HW235484   4.341   0.201   8.746 -1.1126 -1.4971 -2.8777
 7951SOL     OW35485   2.543   2.718   4.852  0.8396  0.4758 -0.1558
 7951SOL    HW135486   2.619   2.773   4.831  0.6967  0.9467  0.5869
 7951SOL    HW235487   2.585   2.634   4.871  0.0919  0.7024  2.3932
 7952SOL     OW35488   4.334   4.321   6.265  0.0779  0.8228  0.2111
 7952SOL    HW135489   4.297   4.297   6.180 -0.1872 -0.6168  0.7353
 7952SOL    HW235490   4.327   4.230   6.294  2.9488  0.2187 -0.9968
 7953SOL     OW35491   3.592   2.385   5.963  0.0157 -0.0811 -0.2376
 7953SOL    HW135492   3.596   2.355   6.054 -1.8969 -1.5587 -0.6355
 7953SOL    HW235493   3.527   2.325   5.926  1.7473  0.0329 -3.4526
 7954SOL     OW35494   2.861   0.373   5.749  0.6114 -0.2241  0.4400
 7954SOL    HW135495   2.897   0.460   5.770 -0.6186  0.4265 -0.1661
 7954SOL    HW235496   2.862   0.342   5.840  1.4116  1.0649  0.8853
 7955SOL     OW35497   2.151   0.694   4.377  0.5364 -0.3948  0.0270
 7955SOL    HW135498   2.164   0.604   4.347  0.6347 -1.0407  1.9745
 7955SOL    HW235499   2.083   0.729   4.319  1.8332  0.8470 -0.7267
 7956SOL     OW35500   4.305   4.118   1.425 -0.2979  0.9169  0.1327
 7956SOL    HW135501   4.211   4.100   1.413  0.1273 -1.5011  0.4182
 7956SOL    HW235502   4.309   4.211   1.403  2.6243  1.0546  1.2842
 7957SOL     OW35503   1.442   2.950  12.469 -0.2673 -0.2642  0.1368
 7957SOL    HW135504   1.509   2.891  12.436  3.0542  1.7770  3.2233
 7957SOL    HW235505   1.385   2.964  12.394 -2.3293  0.1326  1.7750
 7958SOL     OW35506   4.634   3.498   5.017 -0.0305  0.2679 -0.1638
 7958SOL    HW135507   4.603   3.555   4.947  1.4882  1.5271  0.1839
 7958SOL    HW235508   4.611   3.549   5.095  1.1602  0.3276  0.1588
 7959SOL     OW35509   2.100   3.471  17.179  0.0510 -0.4959  0.3366
 7959SOL    HW135510   2.062   3.559  17.174  0.2027 -0.3802  1.1857
 7959SOL    HW235511   2.057   3.429  17.104 -0.4631  1.0877 -0.2643
 7960SOL     OW35512   2.135   0.660   3.001 -0.7431  1.1813  0.3570
 7960SOL    HW135513   2.211   0.676   3.057 -0.1859 -1.3941  0.3416
 7960SOL    HW235514   2.177   0.675   2.916 -1.6794 -2.9440 -0.8449
 7961SOL     OW35515   2.423   3.369   7.701  0.6210 -0.0563 -0.2592
 7961SOL    HW135516   2.515   3.365   7.728  1.1831 -1.8125 -2.3361
 7961SOL    HW235517   2.401   3.277   7.684 -2.6429  0.6624  0.1055
 7962SOL     OW35518   1.914   1.533   8.430  0.0250  0.3252  0.1000
 7962SOL    HW135519   1.897   1.463   8.367 -2.5797  1.3756 -0.3593
 7962SOL    HW235520   1.885   1.613   8.387 -3.8414 -1.1949 -0.1331
 7963SOL     OW35521   3.441   2.815   6.059 -0.0054  0.3003  0.3205
 7963SOL    HW135522   3.358   2.812   6.012  0.5964  1.1066 -0.7939
 7963SOL    HW235523   3.496   2.826   5.981 -0.2129 -0.9523  0.0038
 7964SOL     OW35524   0.113   2.601  16.240 -0.4325  0.0642  0.2594
 7964SOL    HW135525   0.153   2.594  16.327 -0.1009 -0.5777  0.0582
 7964SOL    HW235526   0.191   2.635  16.197  0.4470 -1.5436  0.5543
 7965SOL     OW35527   1.623   3.619   4.194  0.3483 -0.1180  0.5497
 7965SOL    HW135528   1.606   3.709   4.224 -0.1923  0.2835 -0.9788
 7965SOL    HW235529   1.581   3.575   4.268  0.6279 -0.5173  0.4708
 7966SOL     OW35530   1.576   2.763   0.321  0.0072 -0.2547 -0.0844
 7966SOL    HW135531   1.499   2.804   0.361 -0.0856 -0.0778 -0.4442
 7966SOL    HW235532   1.608   2.712   0.395 -1.9384 -3.8526 -1.7154
 7967SOL     OW35533   2.838   0.137  10.180 -0.8982 -0.2175  0.2129
 7967SOL    HW135534   2.780   0.110  10.109  0.9192 -0.2598 -1.2449
 7967SOL    HW235535   2.892   0.058  10.182 -1.2038 -0.4475 -0.9040
 7968SOL     OW35536   3.904   3.346   6.164  0.2663  0.4130  0.1702
 7968SOL    HW135537   3.971   3.356   6.096 -1.0863 -0.7522 -1.3459
 7968SOL    HW235538   3.898   3.250   6.166 -1.8672  0.5135 -0.5650
 7969SOL     OW35539   3.077   4.718  12.462 -0.5007  0.1067 -0.0549
 7969SOL    HW135540   3.169   0.009  12.464  0.4408 -2.9783 -0.5655
 7969SOL    HW235541   3.073   4.625  12.440 -0.3241 -0.3154  1.7002
 7970SOL     OW35542   3.665   3.863  16.050 -0.2001  0.1708 -0.6718
 7970SOL    HW135543   3.622   3.821  16.124  2.1956  0.0820  0.6868
 7970SOL    HW235544   3.614   3.941  16.029  0.0054  0.0068 -1.7406
 7971SOL     OW35545   1.155   1.472   6.653  0.2585 -0.6005 -0.5430
 7971SOL    HW135546   1.205   1.455   6.573 -2.2019 -0.0498 -2.1954
 7971SOL    HW235547   1.198   1.537   6.708 -0.4676 -1.6325  1.2704
 7972SOL     OW35548   2.277   3.530   2.549  0.7191  0.6653  0.8599
 7972SOL    HW135549   2.324   3.454   2.515  0.3015 -0.8731  3.7844
 7972SOL    HW235550   2.297   3.518   2.641  0.8352  4.4328  1.3258
 7973SOL     OW35551   3.515   3.242   9.490  0.3994 -0.5594  0.7596
 7973SOL    HW135552   3.429   3.282   9.500  0.3595 -0.7976  1.3740
 7973SOL    HW235553   3.571   3.308   9.529  0.2466  0.4975 -0.8116
 7974SOL     OW35554   2.640   2.304  10.927  0.3064 -0.1649  0.0133
 7974SOL    HW135555   2.716   2.247  10.913  0.8468  0.6340 -0.2768
 7974SOL    HW235556   2.572   2.239  10.946 -0.5277  1.2466  1.8774
 7975SOL     OW35557   1.806   1.144   6.040  0.2450  0.1551  0.1994
 7975SOL    HW135558   1.856   1.213   5.995  1.1905 -0.3535  0.4633
 7975SOL    HW235559   1.826   1.071   5.981  0.9521  1.2910 -0.9869
 7976SOL     OW35560   1.570   0.622   1.527 -0.2635 -0.0585 -0.3894
 7976SOL    HW135561   1.482   0.592   1.506 -0.9471  0.9322  1.1297
 7976SOL    HW235562   1.624   0.554   1.486 -0.7048  0.6417 -2.1223
 7977SOL     OW35563   1.107   2.748   4.776 -0.5154 -0.9090  0.1304
 7977SOL    HW135564   1.015   2.731   4.760 -1.3918  4.4540 -0.5873
 7977SOL    HW235565   1.128   2.796   4.695 -0.4299 -1.0405  0.0755
 7978SOL     OW35566   1.306   3.005  10.097  0.1060  0.3315 -0.7944
 7978SOL    HW135567   1.292   3.070  10.028 -0.4478 -0.2741 -1.2565
 7978SOL    HW235568   1.398   2.982  10.091  0.0477  0.0301 -0.5594
 7979SOL     OW35569   0.356   4.306   4.522 -0.1198 -0.0907  0.6320
 7979SOL    HW135570   0.317   4.292   4.436  0.6417 -1.1551  0.4537
 7979SOL    HW235571   0.409   4.384   4.506  1.2767 -1.1603  0.0471
 7980SOL     OW35572   0.524   1.382   2.953  0.3743 -0.5836  0.2570
 7980SOL    HW135573   0.534   1.476   2.971  0.3785 -0.6200  0.4436
 7980SOL    HW235574   0.508   1.392   2.859 -1.8447 -2.2299  0.4395
 7981SOL     OW35575   1.942   2.656  17.566  0.0047 -0.1984 -0.1767
 7981SOL    HW135576   1.976   2.605  17.640 -2.0984 -1.6189 -0.2043
 7981SOL    HW235577   1.855   2.616  17.572 -0.0007 -0.1626 -0.0181
 7982SOL     OW35578   1.016   0.462   8.074  0.4481  0.1225 -0.0784
 7982SOL    HW135579   1.059   0.536   8.032  0.4312  0.5904  0.7225
 7982SOL    HW235580   1.030   0.388   8.015 -3.3482 -1.7696  1.3618
 7983SOL     OW35581   3.081   2.845   4.000 -0.0552 -0.7506  0.0195
 7983SOL    HW135582   3.025   2.769   4.020 -1.9648  0.4712 -0.6999
 7983SOL    HW235583   3.127   2.849   4.084  2.8476  0.9537 -1.6488
 7984SOL     OW35584   0.912   2.641   4.238  0.4113 -0.2570 -0.2256
 7984SOL    HW135585   0.829   2.593   4.232  0.5941 -0.6606  0.4358
 7984SOL    HW235586   0.906   2.713   4.175 -0.7362  1.4617  1.8607
 7985SOL     OW35587   0.908   4.288   8.678  0.6616 -0.0971  0.3917
 7985SOL    HW135588   0.872   4.231   8.610 -2.0770 -1.0748  2.6827
 7985SOL    HW235589   0.984   4.239   8.711  0.1184 -0.1076  1.6070
 7986SOL     OW35590   1.932   0.645  13.473  0.4388 -0.6351 -0.2334
 7986SOL    HW135591   1.838   0.644  13.453  0.2030  0.2199  0.8639
 7986SOL    HW235592   1.941   0.560  13.516  1.9045 -0.6511 -0.5702
 7987SOL     OW35593   3.573   1.857   5.420 -0.4565  0.5019  0.0241
 7987SOL    HW135594   3.616   1.772   5.407 -0.5568  0.4840 -0.1867
 7987SOL    HW235595   3.486   1.826   5.446 -0.1582  0.0447  0.4851
 7988SOL     OW35596   0.685   0.318   7.132  0.5425 -0.0649  0.5160
 7988SOL    HW135597   0.679   0.352   7.042 -0.4102 -0.0181  0.5996
 7988SOL    HW235598   0.611   0.260   7.149 -1.1903  0.9761 -3.3240
 7989SOL     OW35599   0.011   4.554   2.689  0.9072 -0.5882 -0.3597
 7989SOL    HW135600   4.693   4.476   2.679  0.3748 -0.7535  3.8241
 7989SOL    HW235601   0.099   4.516   2.680  1.2647  0.6813 -2.1497
 7990SOL     OW35602   2.535   1.008   3.448  0.1387  0.1072 -0.5146
 7990SOL    HW135603   2.586   1.004   3.367 -0.0595  2.2840 -0.7484
 7990SOL    HW235604   2.446   1.012   3.413 -0.8484 -2.2680  1.7622
 7991SOL     OW35605   0.187   2.668   8.710 -0.6830 -0.0725  0.3133
 7991SOL    HW135606   0.217   2.746   8.662 -1.9672  0.2597  0.0702
 7991SOL    HW235607   0.094   2.677   8.729 -0.6969  2.2216 -0.7835
 7992SOL     OW35608   4.154   0.726   9.700  0.4672 -0.5053  0.5365
 7992SOL    HW135609   4.189   0.683   9.778 -0.9781 -1.0959  0.8620
 7992SOL    HW235610   4.062   0.727   9.728  0.0823 -1.1353 -0.6771
 7993SOL     OW35611   0.599   3.718   3.510  0.3350 -0.6817  0.0673
 7993SOL    HW135612   0.546   3.795   3.492 -0.1008 -1.4364 -1.8709
 7993SOL    HW235613   0.666   3.738   3.444  0.0316 -0.4333 -0.1644
 7994SOL     OW35614   4.440   3.287   6.453 -0.4117  0.5746  0.4701
 7994SOL    HW135615   4.478   3.359   6.502 -0.5046  0.2288  1.0468
 7994SOL    HW235616   4.466   3.208   6.500 -0.7210  1.0347  1.4139
 7995SOL     OW35617   1.005   0.198   6.786 -0.0852  0.1606 -0.2467
 7995SOL    HW135618   1.053   0.273   6.822  1.2463 -0.6139 -0.4169
 7995SOL    HW235619   1.062   0.184   6.711  0.2747  1.7186 -0.2722
 7996SOL     OW35620   4.662   1.075  16.825 -0.3767 -0.4991  0.0996
 7996SOL    HW135621   0.015   1.045  16.814 -0.5994 -0.3509 -2.1004
 7996SOL    HW235622   4.626   0.999  16.871 -0.9306 -1.0343 -1.2413
 7997SOL     OW35623   2.841   3.329   9.474  0.6178 -0.0145 -0.3282
 7997SOL    HW135624   2.862   3.288   9.390 -0.1538 -0.5033 -0.2739
 7997SOL    HW235625   2.928   3.345   9.512 -0.9401  2.3601  2.2264
 7998SOL     OW35626   3.019   4.729   2.938  0.6569 -0.0329  0.1708
 7998SOL    HW135627   3.012   0.083   2.967  1.6437  0.2381 -0.4378
 7998SOL    HW235628   2.997   4.733   2.845 -0.9192 -2.1337  0.4566
 7999SOL     OW35629   2.378   2.531  10.159  0.1662 -0.0613 -0.1976
 7999SOL    HW135630   2.386   2.459  10.221  1.1232 -0.6916 -1.0459
 7999SOL    HW235631   2.380   2.603  10.222  1.3062  0.1524 -0.4746
 8000SOL     OW35632   0.742   3.243  14.078  0.2214  0.0315 -0.3865
 8000SOL    HW135633   0.755   3.334  14.105  0.0463 -0.0822  0.0758
 8000SOL    HW235634   0.672   3.205  14.132  0.1197 -0.5591 -0.9417
 8001SOL     OW35635   0.376   2.738   8.943  0.0140  1.1538  0.5072
 8001SOL    HW135636   0.409   2.670   9.002 -1.8898 -0.0536  0.1832
 8001SOL    HW235637   0.327   2.684   8.881 -0.3688  2.6963 -0.5364
 8002SOL     OW35638   4.311   2.239   2.648 -0.3937  0.1196  0.1953
 8002SOL    HW135639   4.401   2.273   2.640 -0.0193 -1.1696 -1.1415
 8002SOL    HW235640   4.317   2.161   2.703 -0.8752 -0.3782 -0.4661
 8003SOL     OW35641   2.069   2.740   4.802  0.3546  0.1577  0.7277
 8003SOL    HW135642   2.018   2.661   4.782 -1.5944  1.3415  1.0331
 8003SOL    HW235643   2.000   2.797   4.835 -1.9625 -2.8776  1.1346
 8004SOL     OW35644   1.269   3.848  15.937 -0.1409  0.5107  0.2118
 8004SOL    HW135645   1.202   3.905  15.899 -1.1058  0.3491  1.6692
 8004SOL    HW235646   1.275   3.874  16.029  2.5681 -0.1049  0.2000
 8005SOL     OW35647   2.771   3.319   8.037 -0.3606  0.0074  0.5337
 8005SOL    HW135648   2.772   3.354   7.948 -1.4710  0.2793  0.6237
 8005SOL    HW235649   2.741   3.230   8.023 -1.2590  0.7772 -2.4497
 8006SOL     OW35650   0.443   1.205   6.967 -0.0561 -0.5741  0.0441
 8006SOL    HW135651   0.380   1.253   7.020  2.7995  1.9461  1.1724
 8006SOL    HW235652   0.425   1.244   6.882 -1.0106  1.4682  1.1906
 8007SOL     OW35653   4.305   3.505   4.256 -0.2013 -0.0003  0.2571
 8007SOL    HW135654   4.216   3.471   4.251  0.6804 -2.0981 -1.1782
 8007SOL    HW235655   4.357   3.431   4.225 -0.0450 -0.7479  2.3505
 8008SOL     OW35656   3.944   2.372   1.253 -0.5427 -0.5320  0.2598
 8008SOL    HW135657   4.003   2.342   1.184 -0.6387 -1.7406  0.7103
 8008SOL    HW235658   3.998   2.434   1.302 -0.8224  0.1615 -0.2984
 8009SOL     OW35659   0.046   4.164   2.476 -0.1367 -0.1915 -0.5590
 8009SOL    HW135660   0.056   4.086   2.421  2.2946 -1.9170  2.2562
 8009SOL    HW235661   0.119   4.220   2.449  0.5566 -0.6469  0.3697
 8010SOL     OW35662   2.715   1.371   3.076  0.3018 -0.1091  0.3353
 8010SOL    HW135663   2.644   1.381   3.013  0.4207 -0.7678  0.0909
 8010SOL    HW235664   2.771   1.434   3.031  1.2968 -0.4893  1.0196
 8011SOL     OW35665   2.189   3.625   2.111 -0.6703 -0.4805 -0.0154
 8011SOL    HW135666   2.141   3.637   2.193 -1.6875 -1.3222 -0.4909
 8011SOL    HW235667   2.260   3.566   2.136  3.2571  3.1672 -2.5297
 8012SOL     OW35668   2.750   1.516   9.401  0.2536  0.6950  0.6078
 8012SOL    HW135669   2.802   1.596   9.403  0.5940  0.4727  0.5976
 8012SOL    HW235670   2.815   1.445   9.406 -0.9574 -0.4732 -0.2001
 8013SOL     OW35671   0.939   3.099  13.093 -0.4198 -0.0955  0.4265
 8013SOL    HW135672   0.975   3.014  13.073  0.1251  0.1586  0.3373
 8013SOL    HW235673   1.001   3.121  13.163 -0.3433  0.8421  0.0613
 8014SOL     OW35674   2.484   0.578   3.279  0.1291  0.0254 -0.1430
 8014SOL    HW135675   2.424   0.640   3.238  1.4412  1.1996 -0.3189
 8014SOL    HW235676   2.496   0.611   3.368 -0.3802  2.0477 -0.8156
 8015SOL     OW35677   0.729   3.759   8.007 -0.4257  0.2829 -0.2027
 8015SOL    HW135678   0.645   3.775   8.050 -0.6968 -3.8343  0.7774
 8015SOL    HW235679   0.699   3.734   7.920  0.7895  0.8435 -0.7841
 8016SOL     OW35680   0.915   3.737   4.749 -0.3640 -0.1063  0.1360
 8016SOL    HW135681   0.881   3.650   4.726  0.5274 -0.8225  1.5105
 8016SOL    HW235682   0.846   3.752   4.815 -0.5719  0.4444 -0.2029
 8017SOL     OW35683   2.758   1.063   5.401 -0.5784  0.4207  0.3280
 8017SOL    HW135684   2.827   1.017   5.448 -1.4841 -0.5256  0.7261
 8017SOL    HW235685   2.741   1.001   5.330  0.2690  0.6239 -0.0555
 8018SOL     OW35686   2.730   4.216   7.515 -0.4769  0.0451  0.1359
 8018SOL    HW135687   2.788   4.291   7.498  1.3076 -0.8521  2.4377
 8018SOL    HW235688   2.732   4.202   7.609  0.8641  0.8558  0.2373
 8019SOL     OW35689   1.098   3.182  13.286  0.1540 -0.2576  0.0423
 8019SOL    HW135690   1.170   3.201  13.346 -0.5003  1.3413  0.2957
 8019SOL    HW235691   1.087   3.264  13.238 -0.3615  0.4850  1.4389
 8020SOL     OW35692   1.078   4.574   7.698  0.0520 -0.2684 -0.3231
 8020SOL    HW135693   1.101   4.645   7.639  1.3161 -2.0089 -1.9191
 8020SOL    HW235694   0.982   4.570   7.694  0.0726 -1.4193  0.4223
 8021SOL     OW35695   0.844   0.793  15.346 -0.1574 -0.8062  0.5314
 8021SOL    HW135696   0.900   0.777  15.270  2.3989  0.2434  2.1959
 8021SOL    HW235697   0.863   0.884  15.368 -0.3941 -0.4210 -0.8111
 8022SOL     OW35698   1.412   2.310   8.769  0.0764 -0.0244 -0.1937
 8022SOL    HW135699   1.425   2.228   8.818 -2.0538 -0.9306 -1.1331
 8022SOL    HW235700   1.351   2.276   8.703 -2.7777  3.1969  0.8182
 8023SOL     OW35701   2.495   0.523  17.720 -0.1233 -0.5334  0.5270
 8023SOL    HW135702   2.490   0.430  17.701  0.4991 -0.5404  0.3942
 8023SOL    HW235703   2.589   0.532  17.735  0.0828 -1.8222  0.0088
 8024SOL     OW35704   3.729   1.984   4.692  0.8505 -0.1472  0.0520
 8024SOL    HW135705   3.649   1.992   4.744  0.7435 -0.4106 -0.0727
 8024SOL    HW235706   3.789   2.044   4.735  0.4563 -0.8320  1.5596
 8025SOL     OW35707   2.000   0.710   5.622 -0.0981  0.0973  0.2433
 8025SOL    HW135708   1.988   0.746   5.534  1.1610 -0.2471 -0.0717
 8025SOL    HW235709   1.940   0.636   5.622  0.2444 -0.1810  0.8268
 8026SOL     OW35710   0.089   4.688   1.207  0.1908 -0.3815 -0.1353
 8026SOL    HW135711   0.127   0.023   1.257 -1.5291 -0.3830  1.1787
 8026SOL    HW235712   0.048   4.648   1.284  0.9728  0.3103  0.6268
 8027SOL     OW35713   2.898   0.041   3.702 -0.5474 -0.7051 -0.5530
 8027SOL    HW135714   2.885   0.120   3.649  3.8573  0.6235  0.3208
 8027SOL    HW235715   2.991   0.021   3.707 -0.4110  0.3762  1.1881
 8028SOL     OW35716   2.356   1.301   3.136  0.0357 -0.3153 -0.0477
 8028SOL    HW135717   2.403   1.299   3.219  2.9856 -0.0280 -1.7405
 8028SOL    HW235718   2.405   1.363   3.081 -1.6049 -0.0529 -1.2262
 8029SOL     OW35719   0.720   4.236   1.556 -0.4465  0.2383  0.8220
 8029SOL    HW135720   0.677   4.296   1.616 -1.1497  1.2743 -0.7111
 8029SOL    HW235721   0.712   4.149   1.596 -0.9085  0.9016  2.1650
 8030SOL     OW35722   2.806   4.410  14.015  0.1647 -0.5227 -0.3239
 8030SOL    HW135723   2.713   4.395  14.000 -0.1811  1.5670 -0.2445
 8030SOL    HW235724   2.830   4.347  13.947  0.5394 -0.1926 -0.4998
 8031SOL     OW35725   2.429   2.708   8.551  0.1304  0.1636  0.3364
 8031SOL    HW135726   2.347   2.708   8.600 -0.8792  0.0517 -1.3406
 8031SOL    HW235727   2.490   2.708   8.624 -0.4979  1.6412  0.8639
 8032SOL     OW35728   3.078   0.443   2.516 -0.1670 -0.1496  0.1707
 8032SOL    HW135729   3.038   0.503   2.453 -1.8210 -1.2858  0.1600
 8032SOL    HW235730   3.022   0.366   2.517 -1.2207  0.5909 -1.4618
 8033SOL     OW35731   3.424   0.416   2.845 -0.3124 -0.0712  0.0394
 8033SOL    HW135732   3.427   0.395   2.752 -0.6461  0.4773 -0.0953
 8033SOL    HW235733   3.330   0.414   2.866 -0.1529  0.9556  0.8771
 8034SOL     OW35734   0.211   0.577   5.443 -0.0734  0.4363 -0.5824
 8034SOL    HW135735   0.197   0.653   5.500  2.7531  0.1491  0.4900
 8034SOL    HW235736   0.289   0.604   5.394  0.3105 -1.4441 -0.9897
 8035SOL     OW35737   3.610   1.249   2.996 -0.2964 -0.2365  0.0913
 8035SOL    HW135738   3.547   1.187   2.959  1.2884 -0.7303 -1.7595
 8035SOL    HW235739   3.579   1.333   2.962  1.6401  0.4265 -0.0066
 8036SOL     OW35740   1.060   3.573   8.657 -0.1399 -0.5126  0.0847
 8036SOL    HW135741   1.139   3.596   8.706 -0.3863  0.6300 -0.0554
 8036SOL    HW235742   1.029   3.498   8.707 -3.3011  1.1452  0.6040
 8037SOL     OW35743   4.695   4.242   9.279  0.0901 -0.3358  0.1704
 8037SOL    HW135744   4.637   4.187   9.331 -2.0202  0.0617 -1.7631
 8037SOL    HW235745   4.645   4.322   9.294  0.7586  0.1739 -0.3323
 8038SOL     OW35746   4.256   3.993   5.827 -0.4093 -0.0119 -0.2579
 8038SOL    HW135747   4.312   3.915   5.832  0.2204  0.6293  2.7180
 8038SOL    HW235748   4.181   3.953   5.872 -0.6093 -0.6027 -1.1156
 8039SOL     OW35749   0.520   1.900   7.565 -0.4942  0.6409 -0.1638
 8039SOL    HW135750   0.571   1.837   7.513 -0.8199  2.1845 -2.3772
 8039SOL    HW235751   0.439   1.853   7.582  0.0280  0.4527  1.7782
 8040SOL     OW35752   1.346   4.000   9.951 -0.0006 -0.2239 -0.3005
 8040SOL    HW135753   1.392   3.916   9.961  0.5188  0.5213  3.4720
 8040SOL    HW235754   1.377   4.017   9.862 -0.0416 -0.4557 -0.3609
 8041SOL     OW35755   4.595   3.332   6.971 -0.1915  0.4021  0.2884
 8041SOL    HW135756   4.675   3.355   7.018  0.0027 -0.0697  0.1832
 8041SOL    HW235757   4.582   3.238   6.985  0.0414  0.1708 -1.0960
 8042SOL     OW35758   4.700   2.239   8.257  0.1131  0.8178 -0.0346
 8042SOL    HW135759   0.020   2.167   8.230 -1.3760 -0.2418 -0.3702
 8042SOL    HW235760   4.629   2.190   8.299  0.4148 -2.0609 -2.8296
 8043SOL     OW35761   2.395   3.875   6.917  0.0785 -0.2948  0.3990
 8043SOL    HW135762   2.351   3.791   6.900 -2.2429  1.0141 -0.0665
 8043SOL    HW235763   2.333   3.901   6.985 -1.2547 -1.7909 -0.2294
 8044SOL     OW35764   4.588   3.287   4.003 -0.0628  0.6488  0.0050
 8044SOL    HW135765   4.524   3.259   4.068 -1.9835  1.5016 -1.4854
 8044SOL    HW235766   4.525   3.329   3.944  1.8239  4.7897  1.0168
 8045SOL     OW35767   3.857   4.452  12.816  0.0954  0.4141 -0.1339
 8045SOL    HW135768   3.829   4.490  12.899  1.0899 -1.3044  0.9813
 8045SOL    HW235769   3.919   4.520  12.788 -1.3705  2.2371  1.0302
 8046SOL     OW35770   1.137   2.377   2.967  0.5154  0.5613  0.2368
 8046SOL    HW135771   1.070   2.437   2.936 -0.0315  0.1833  0.7014
 8046SOL    HW235772   1.160   2.421   3.048  0.4051  0.2034  0.4626
 8047SOL     OW35773   3.499   3.145   3.501  0.2060 -0.2612 -0.4325
 8047SOL    HW135774   3.520   3.206   3.430  0.6499 -0.5204 -0.5311
 8047SOL    HW235775   3.415   3.182   3.528  1.1393 -0.4541  2.7365
 8048SOL     OW35776   4.517   1.164   1.105 -0.1096 -0.5554  0.0100
 8048SOL    HW135777   4.500   1.256   1.123 -1.8196 -0.8429 -0.1192
 8048SOL    HW235778   4.588   1.146   1.167  0.8314  0.3575 -0.8054
 8049SOL     OW35779   0.716   4.541   4.578  0.1775  0.4109  0.3683
 8049SOL    HW135780   0.723   4.637   4.584  1.2808  0.3899 -0.6463
 8049SOL    HW235781   0.632   4.526   4.536 -1.5432 -1.5188  4.5581
 8050SOL     OW35782   2.234   0.561   4.074  0.7180 -0.2058  0.0593
 8050SOL    HW135783   2.225   0.504   4.151 -0.4013  0.2863  0.2946
 8050SOL    HW235784   2.315   0.528   4.035  2.0262  0.2184  2.4119
 8051SOL     OW35785   4.261   3.989  16.506  0.6100 -0.6190 -0.5538
 8051SOL    HW135786   4.342   4.026  16.542 -1.3840  2.6368  0.5780
 8051SOL    HW235787   4.259   3.906  16.553  2.0486  1.0573  2.4908
 8052SOL     OW35788   4.338   3.053   3.698  0.0111 -0.1468 -0.3577
 8052SOL    HW135789   4.402   3.014   3.757  0.6491  0.7445 -0.4596
 8052SOL    HW235790   4.360   3.020   3.611  1.4603 -1.4554  0.5112
 8053SOL     OW35791   2.772   0.358   5.501  0.2830  0.1720  0.2579
 8053SOL    HW135792   2.695   0.304   5.515  1.7193 -1.8798  0.2302
 8053SOL    HW235793   2.818   0.352   5.585  1.9312 -2.6267 -0.8359
 8054SOL     OW35794   0.578   3.785   5.247 -0.1265 -0.2919  0.2367
 8054SOL    HW135795   0.655   3.800   5.301 -0.2949  0.7056  0.1882
 8054SOL    HW235796   0.565   3.874   5.214  2.9409 -0.2145 -0.7290
 8055SOL     OW35797   3.374   0.527   3.939 -0.2220 -0.6861  0.0442
 8055SOL    HW135798   3.389   0.618   3.912 -1.3474 -0.2732  0.7964
 8055SOL    HW235799   3.425   0.531   4.020  2.8075 -1.4920 -1.8524
 8056SOL     OW35800   3.554   3.424   9.698 -0.6599 -0.1481  0.6415
 8056SOL    HW135801   3.522   3.369   9.769 -0.6014 -1.6769 -0.5141
 8056SOL    HW235802   3.568   3.507   9.742  2.0702  0.7003 -1.8158
 8057SOL     OW35803   1.524   3.059   5.054  0.0374  0.0497  0.0782
 8057SOL    HW135804   1.605   3.098   5.022 -0.5590  0.7037 -0.6019
 8057SOL    HW235805   1.503   2.990   4.990  1.0966 -1.9654  1.8964
 8058SOL     OW35806   3.852   1.298   0.331 -0.2366 -1.0208  1.3331
 8058SOL    HW135807   3.756   1.305   0.332 -0.1405  0.1695  3.1291
 8058SOL    HW235808   3.870   1.291   0.425  0.5530  1.0230  1.3408
 8059SOL     OW35809   4.497   4.638  12.090 -0.1192  0.5786 -0.9587
 8059SOL    HW135810   4.451   4.576  12.033 -1.0882  0.5707 -0.1700
 8059SOL    HW235811   4.436   4.640  12.164  2.1498 -0.0828  0.9289
 8060SOL     OW35812   4.275   1.221   6.897 -0.5124 -0.1531 -0.6253
 8060SOL    HW135813   4.259   1.301   6.946  3.2935 -0.8511  1.7187
 8060SOL    HW235814   4.295   1.155   6.964  0.5919  0.7717 -0.0445
 8061SOL     OW35815   1.365   1.044   3.295  0.1254  0.0501  0.2024
 8061SOL    HW135816   1.459   1.058   3.281  0.2831  1.1284  2.4088
 8061SOL    HW235817   1.331   1.128   3.263 -0.1307  0.2825  1.0913
 8062SOL     OW35818   1.722   0.078   2.225 -0.1099  0.0559 -0.3779
 8062SOL    HW135819   1.775   0.157   2.224 -0.0121 -0.0308 -3.1336
 8062SOL    HW235820   1.671   0.076   2.143 -1.3194  1.2049  0.3491
 8063SOL     OW35821   3.101   1.580  13.867  0.2602  0.2658 -0.9529
 8063SOL    HW135822   3.196   1.583  13.862  0.1748 -0.2139 -2.9475
 8063SOL    HW235823   3.092   1.627  13.784 -2.4807  1.3398 -0.0788
 8064SOL     OW35824   3.219   2.823   1.007 -0.0550  0.0105 -0.4256
 8064SOL    HW135825   3.262   2.742   1.034 -1.9041 -1.2237 -1.1847
 8064SOL    HW235826   3.205   2.811   0.913 -1.0513 -0.8872 -0.1761
 8065SOL     OW35827   3.909   3.722   5.026  0.2052 -0.6331 -0.3596
 8065SOL    HW135828   3.993   3.756   5.056  0.5638 -1.3488 -0.5404
 8065SOL    HW235829   3.893   3.656   5.093  0.1542  0.7597  1.0002
 8066SOL     OW35830   1.087   4.449   6.478 -0.3005 -0.2407  0.2512
 8066SOL    HW135831   1.153   4.398   6.525 -1.1264 -0.8270  0.7905
 8066SOL    HW235832   1.063   4.380   6.417 -0.0849 -2.6873  2.8985
 8067SOL     OW35833   0.478   0.500  12.840 -0.3432  0.2766 -0.3675
 8067SOL    HW135834   0.500   0.454  12.920 -0.8437 -0.6885 -0.7806
 8067SOL    HW235835   0.528   0.456  12.771 -0.6144  1.6927 -1.4910
 8068SOL     OW35836   2.402   3.447   2.236  0.9999 -0.1970  0.0890
 8068SOL    HW135837   2.486   3.485   2.209  1.2045 -0.7569 -0.0567
 8068SOL    HW235838   2.430   3.355   2.236  2.5758  0.2956 -2.8879
 8069SOL     OW35839   2.816   3.263   4.659  0.6086 -0.2538  0.2692
 8069SOL    HW135840   2.752   3.226   4.719 -1.0960 -0.0093 -1.4025
 8069SOL    HW235841   2.849   3.177   4.633 -1.8084 -1.1820  0.2502
 8070SOL     OW35842   2.542   0.982  11.091 -0.3935 -0.0049  0.2770
 8070SOL    HW135843   2.451   1.004  11.072 -1.2220 -1.7955  2.2574
 8070SOL    HW235844   2.538   0.886  11.096  0.5769  0.0006  1.0895
 8071SOL     OW35845   2.151   2.436  11.683  0.4111 -0.0528  0.4486
 8071SOL    HW135846   2.090   2.510  11.689 -2.6314 -2.4865 -0.4505
 8071SOL    HW235847   2.239   2.472  11.694 -0.2849  1.2539  1.8637
 8072SOL     OW35848   3.622   4.227   9.880  0.5062  0.0245 -0.1894
 8072SOL    HW135849   3.639   4.288   9.951  2.3834  0.2241 -0.8048
 8072SOL    HW235850   3.532   4.207   9.904 -0.3050  2.2709 -1.4069
 8073SOL     OW35851   0.817   3.512  13.336  0.0540  1.0775  0.5667
 8073SOL    HW135852   0.858   3.557  13.262 -3.5204 -1.4971 -2.9716
 8073SOL    HW235853   0.736   3.480  13.296 -0.1478  1.8824  0.3179
 8074SOL     OW35854   2.222   2.595   0.423  0.3474  0.7726 -0.4448
 8074SOL    HW135855   2.262   2.681   0.415  0.6925  0.7264  0.7880
 8074SOL    HW235856   2.280   2.554   0.488  0.8720 -1.6052 -2.4252
 8075SOL     OW35857   2.302   3.579   7.874  0.5358 -0.2112 -0.5172
 8075SOL    HW135858   2.311   3.493   7.834  0.7041 -0.6833  0.5292
 8075SOL    HW235859   2.380   3.588   7.929 -0.0144 -0.4135  0.3071
 8076SOL     OW35860   2.624   2.931   4.265 -0.1869 -0.3939 -0.0934
 8076SOL    HW135861   2.567   2.858   4.240  0.2107 -1.4525  2.0965
 8076SOL    HW235862   2.692   2.911   4.201  0.4614  1.8566 -0.1004
 8077SOL     OW35863   2.478   2.099  15.802 -0.5845 -0.4319 -0.0323
 8077SOL    HW135864   2.526   2.172  15.840  1.7728 -1.2429 -1.4693
 8077SOL    HW235865   2.538   2.026  15.818  2.2949  2.0623  0.5910
 8078SOL     OW35866   1.558   4.188  12.590  0.2333  0.0345  0.0634
 8078SOL    HW135867   1.601   4.103  12.595 -0.2490 -0.2681 -0.7845
 8078SOL    HW235868   1.587   4.226  12.673  0.7350 -0.0335 -0.0800
 8079SOL     OW35869   1.882   2.094   8.820 -0.7213  0.0625 -0.0312
 8079SOL    HW135870   1.835   2.150   8.882  0.5728 -0.3859  1.3923
 8079SOL    HW235871   1.813   2.044   8.777 -0.2586 -0.3017 -0.3445
 8080SOL     OW35872   4.052   0.005  13.228 -0.1969  0.5139  0.1811
 8080SOL    HW135873   4.040   4.730  13.134  0.5438 -0.9645  0.2607
 8080SOL    HW235874   4.040   4.656  13.269 -1.3010  0.9877  0.8495
 8081SOL     OW35875   0.290   2.184  14.781 -0.0964  0.1232 -0.2169
 8081SOL    HW135876   0.359   2.225  14.728 -0.3505  0.7949 -0.0314
 8081SOL    HW235877   0.338   2.114  14.824  1.3749  1.2485 -0.0405
 8082SOL     OW35878   3.934   0.423   2.435 -0.0193  0.3045  0.1766
 8082SOL    HW135879   3.940   0.469   2.519  0.7940  1.7378 -0.6655
 8082SOL    HW235880   3.973   0.340   2.462  0.5814  0.6294  0.3162
 8083SOL     OW35881   0.952   4.536   2.676 -0.0684 -0.8334 -0.3132
 8083SOL    HW135882   0.875   4.481   2.660 -0.2185 -0.2917 -1.4516
 8083SOL    HW235883   0.995   4.490   2.749  1.6170 -1.8933 -1.9715
 8084SOL     OW35884   1.099   4.279   9.064  0.0249 -0.6814 -0.6858
 8084SOL    HW135885   1.149   4.361   9.066  0.0291 -0.7383  1.5680
 8084SOL    HW235886   1.019   4.314   9.027  0.1905 -0.4717 -0.8477
 8085SOL     OW35887   3.951   0.805   0.948  0.1962 -0.1307  0.0119
 8085SOL    HW135888   3.918   0.721   0.917 -0.6086 -0.0180  0.5573
 8085SOL    HW235889   4.038   0.775   0.974  1.1022  0.8087 -1.8949
 8086SOL     OW35890   4.651   4.257   4.724 -0.7618 -0.1457  0.3418
 8086SOL    HW135891   4.734   4.221   4.693 -0.5203  0.3878  0.3802
 8086SOL    HW235892   4.676   4.285   4.812  2.6974 -2.1046 -0.0348
 8087SOL     OW35893   2.282   0.861  16.895 -0.5597 -0.3981  0.4233
 8087SOL    HW135894   2.197   0.902  16.912  0.4325  2.1017 -0.5881
 8087SOL    HW235895   2.294   0.895  16.806 -0.8714 -0.6710  0.2780
 8088SOL     OW35896   3.821   3.757   0.625  0.1906  0.6185  0.2117
 8088SOL    HW135897   3.782   3.674   0.653  1.1927  0.2660  0.5538
 8088SOL    HW235898   3.906   3.755   0.667 -0.0641  3.5962  0.8987
 8089SOL     OW35899   1.353   0.488  17.510  0.0374  0.0998 -0.5932
 8089SOL    HW135900   1.303   0.469  17.431 -0.3209  2.1938 -0.8726
 8089SOL    HW235901   1.289   0.549  17.547 -2.3687 -1.9267 -1.4193
 8090SOL     OW35902   0.732   3.730   5.983 -0.2283  0.1492 -0.3398
 8090SOL    HW135903   0.775   3.813   5.964 -1.1247  1.1247  1.8221
 8090SOL    HW235904   0.649   3.744   5.937 -0.9363 -1.7287  0.3432
 8091SOL     OW35905   3.770   0.921   5.031  0.0153  0.2238 -0.2799
 8091SOL    HW135906   3.856   0.882   5.015  0.2131 -0.0166  1.3742
 8091SOL    HW235907   3.791   1.014   5.027 -1.2312  0.4500 -1.5718
 8092SOL     OW35908   0.061   1.398  14.042  0.0355  0.1013 -0.1375
 8092SOL    HW135909   0.005   1.436  13.974 -0.1452  0.2375  0.0860
 8092SOL    HW235910   0.120   1.340  13.995  0.0251 -0.7797  0.9301
 8093SOL     OW35911   0.687   4.246   3.786 -0.1765 -0.1422  0.2112
 8093SOL    HW135912   0.755   4.206   3.841  1.5179  0.0640 -1.7489
 8093SOL    HW235913   0.661   4.331   3.821  0.7602 -0.1479  0.9335
 8094SOL     OW35914   2.261   4.498   6.552  0.1993  0.3342  0.0929
 8094SOL    HW135915   2.323   4.440   6.597  0.3767  0.2200 -0.3014
 8094SOL    HW235916   2.235   4.561   6.619 -0.1564  0.5771 -0.2821
 8095SOL     OW35917   3.656   4.361  13.297  0.3917 -0.3417 -0.0131
 8095SOL    HW135918   3.645   4.267  13.312 -1.3478 -0.7300 -3.9198
 8095SOL    HW235919   3.746   4.383  13.321  0.4690  0.1664 -0.7675
 8096SOL     OW35920   0.436   3.292   7.447  0.3037  0.1186  0.2289
 8096SOL    HW135921   0.530   3.309   7.442  0.2799  0.5809  1.3476
 8096SOL    HW235922   0.449   3.199   7.463  1.9666  0.4735  0.9100
 8097SOL     OW35923   4.520   1.545   6.752  0.0805  0.3815 -0.0944
 8097SOL    HW135924   4.555   1.592   6.827  3.5772  2.5607 -3.0908
 8097SOL    HW235925   4.527   1.452   6.773 -0.3798 -0.1101 -2.1165
 8098SOL     OW35926   0.169   4.384   7.591 -0.3639 -0.2961 -0.1015
 8098SOL    HW135927   0.113   4.461   7.590  2.3340  1.7022  1.6288
 8098SOL    HW235928   0.147   4.332   7.514 -1.5911  0.9820 -0.6200
 8099SOL     OW35929   0.695   0.849  14.413 -0.2132  0.2558  0.5806
 8099SOL    HW135930   0.655   0.888  14.491 -0.0114  0.5325  0.5470
 8099SOL    HW235931   0.660   0.760  14.409 -1.6987  1.0396 -3.5148
 8100SOL     OW35932   3.914   3.019   7.565 -0.4357  0.3681  0.2767
 8100SOL    HW135933   3.987   3.014   7.626  0.4385  3.0529 -0.5565
 8100SOL    HW235934   3.937   3.101   7.522  0.0286  0.3006  0.3986
 8101SOL     OW35935   3.598   1.729   2.167 -1.0287  0.1327 -0.4643
 8101SOL    HW135936   3.645   1.713   2.085  0.7380 -2.8653  1.1304
 8101SOL    HW235937   3.515   1.698   2.131 -1.5987  1.1699 -0.0154
 8102SOL     OW35938   0.317   1.307   9.062  0.2116 -0.3921  0.0866
 8102SOL    HW135939   0.360   1.288   9.145 -2.6875  0.6147  1.8527
 8102SOL    HW235940   0.234   1.259   9.067 -0.2785  0.2120 -2.2852
 8103SOL     OW35941   2.972   1.779   3.596  0.4794 -0.0703  0.2459
 8103SOL    HW135942   2.924   1.781   3.679 -2.1557  0.2282 -1.3126
 8103SOL    HW235943   2.924   1.704   3.560 -2.9512  2.1596  0.2292
 8104SOL     OW35944   4.718   2.865   4.499  0.2310 -0.3809  0.0902
 8104SOL    HW135945   0.065   2.907   4.482 -0.5325  0.9390 -0.4233
 8104SOL    HW235946   4.675   2.871   4.413 -0.2148 -1.1010  0.2650
 8105SOL     OW35947   0.421   2.394   9.432  0.4507  0.2243 -0.2512
 8105SOL    HW135948   0.332   2.365   9.411  1.2558 -3.4123  1.5139
 8105SOL    HW235949   0.453   2.326   9.491  0.3666  1.1975  0.9219
 8106SOL     OW35950   3.223   2.079   1.888 -0.0851  0.1572  0.0834
 8106SOL    HW135951   3.278   2.130   1.947 -0.3637 -0.1859  0.6449
 8106SOL    HW235952   3.287   2.049   1.823 -2.0327  0.5405 -2.0124
 8107SOL     OW35953   1.085   2.917  13.363 -0.1720  0.0924 -0.3800
 8107SOL    HW135954   1.164   2.936  13.413 -0.3848 -0.1084  0.0264
 8107SOL    HW235955   1.086   3.004  13.321 -2.6768 -0.6727 -2.0384
 8108SOL     OW35956   3.080   2.064   7.486  0.0206 -0.1097 -0.1753
 8108SOL    HW135957   3.136   2.015   7.427 -0.6788  1.4760 -2.1698
 8108SOL    HW235958   3.119   2.152   7.485  1.7744 -0.8898  1.4723
 8109SOL     OW35959   2.393   1.343   5.259  0.3763 -0.3872 -0.1185
 8109SOL    HW135960   2.395   1.425   5.210  2.5573  1.0285  2.3256
 8109SOL    HW235961   2.299   1.325   5.251  0.4225 -0.2506 -0.9634
 8110SOL     OW35962   3.317   4.042   9.532 -0.1374  0.5237 -0.1486
 8110SOL    HW135963   3.259   3.966   9.524 -1.7954  1.6159  1.3701
 8110SOL    HW235964   3.370   4.018   9.608 -1.3514  0.8186  0.7894
 8111SOL     OW35965   1.640   1.166   1.902  0.0416  0.2382 -0.2294
 8111SOL    HW135966   1.701   1.093   1.891 -0.0258  0.3854 -1.6939
 8111SOL    HW235967   1.619   1.158   1.995  1.9005 -0.1333  0.1601
 8112SOL     OW35968   1.707   2.319   0.096 -0.1499  0.3619 -0.5960
 8112SOL    HW135969   1.781   2.356   0.048  0.9224  1.3708  1.7829
 8112SOL    HW235970   1.731   2.330   0.188  1.8701  0.2938 -1.1136
 8113SOL     OW35971   2.324   1.786  13.381  0.6425 -0.1808 -0.0737
 8113SOL    HW135972   2.242   1.833  13.398  0.6190 -1.1519  2.5038
 8113SOL    HW235973   2.393   1.847  13.405  1.5916 -0.8916 -1.0019
 8114SOL     OW35974   3.772   1.616   0.207  0.0314 -0.2434  0.2102
 8114SOL    HW135975   3.759   1.681   0.276 -2.9711 -0.5124 -0.0945
 8114SOL    HW235976   3.745   1.669   0.132 -1.2816 -1.0272  0.1345
 8115SOL     OW35977   1.847   2.886   3.362  0.4533 -0.3239 -0.1829
 8115SOL    HW135978   1.817   2.798   3.384 -1.7846  0.6056  0.4865
 8115SOL    HW235979   1.942   2.884   3.376  0.3884 -1.8112  0.0242
 8116SOL     OW35980   0.399   2.267   3.735 -0.4395 -0.1983 -0.5729
 8116SOL    HW135981   0.434   2.227   3.655 -1.3455  2.4589 -2.3135
 8116SOL    HW235982   0.342   2.333   3.694 -1.3685 -1.6650 -1.6787
 8117SOL     OW35983   0.911   4.550   2.224  0.6539 -0.0872 -0.6034
 8117SOL    HW135984   0.854   4.569   2.150 -0.4309 -0.2466  0.1985
 8117SOL    HW235985   0.855   4.553   2.301  1.2624 -0.7518 -0.1326
 8118SOL     OW35986   1.592   3.319  17.466 -0.1281 -0.2004  0.2204
 8118SOL    HW135987   1.659   3.254  17.487 -0.7803 -1.3510 -1.3463
 8118SOL    HW235988   1.636   3.373  17.400 -1.0711 -1.2125 -1.2330
 8119SOL     OW35989   2.117   2.848   6.371 -0.1286  0.4202  0.1679
 8119SOL    HW135990   2.173   2.770   6.371  2.2787  2.1723  2.3680
 8119SOL    HW235991   2.139   2.880   6.283  2.5404  0.8965  0.9986
 8120SOL     OW35992   1.665   3.615   9.597  0.5467 -0.1961  0.0255
 8120SOL    HW135993   1.719   3.539   9.574  2.2642  0.3306  2.2460
 8120SOL    HW235994   1.725   3.689   9.587 -1.8933  1.7862  0.2912
 8121SOL     OW35995   4.090   1.566   5.729 -0.0143 -0.6038  0.1450
 8121SOL    HW135996   3.997   1.551   5.711 -0.6575  1.7625  1.4824
 8121SOL    HW235997   4.093   1.594   5.820  1.0329  2.6272 -0.8785
 8122SOL     OW35998   0.922   1.681   2.429  0.1127 -0.3817  0.0819
 8122SOL    HW135999   0.963   1.641   2.506 -0.6021 -1.2445  0.0188
 8122SOL    HW236000   0.998   1.716   2.383 -2.7187  1.4031 -3.2365
 8123SOL     OW36001   2.105   1.371   0.607 -0.1269 -0.3795  0.2088
 8123SOL    HW136002   2.190   1.394   0.644 -0.3987 -1.8766  1.7974
 8123SOL    HW236003   2.119   1.276   0.613 -0.7817 -0.5270 -0.5907
 8124SOL     OW36004   1.594   2.713  17.088 -0.1771  0.0064 -0.3069
 8124SOL    HW136005   1.533   2.656  17.134  1.1000 -0.4987  0.7663
 8124SOL    HW236006   1.671   2.656  17.090  0.7172  1.2056 -0.0876
 8125SOL     OW36007   3.568   4.479   4.211 -0.5763  0.4772 -0.0180
 8125SOL    HW136008   3.623   4.539   4.161  0.0077 -1.2874 -1.4781
 8125SOL    HW236009   3.487   4.530   4.218 -0.4739  0.7976 -1.1964
 8126SOL     OW36010   0.344   2.966  16.644 -0.6779 -0.4384  0.2759
 8126SOL    HW136011   0.250   2.966  16.667 -1.0612  0.7207 -1.3545
 8126SOL    HW236012   0.328   2.943  16.553 -0.7789  0.5445  0.0512
 8127SOL     OW36013   3.833   3.658   1.959 -0.3512 -0.3480  0.3434
 8127SOL    HW136014   3.802   3.732   1.907 -1.0626  0.4402  1.8541
 8127SOL    HW236015   3.807   3.584   1.905 -2.6822  0.3453  0.4759
 8128SOL     OW36016   3.005   1.991   1.550 -0.3511 -0.0520  0.0820
 8128SOL    HW136017   3.079   1.930   1.556 -0.5222 -0.4864 -2.1454
 8128SOL    HW236018   2.963   1.986   1.636  1.7674  0.0787  1.1400
 8129SOL     OW36019   4.328   3.938   2.109  0.4082 -0.4102  0.0974
 8129SOL    HW136020   4.275   3.940   2.188  0.8048  0.4189  0.3441
 8129SOL    HW236021   4.309   4.025   2.073  0.4417 -0.3746  0.1673
 8130SOL     OW36022   0.031   1.400   7.797  0.0223 -0.3759  0.5027
 8130SOL    HW136023   0.004   1.491   7.785  1.5486 -0.3217 -2.4590
 8130SOL    HW236024   0.126   1.409   7.799  0.0061 -0.4620  1.6217
 8131SOL     OW36025   3.964   0.973   5.775 -0.0605 -0.4206 -0.4518
 8131SOL    HW136026   4.055   1.001   5.781  0.6458 -2.8676  0.3089
 8131SOL    HW236027   3.912   1.053   5.765 -0.0014 -0.5171 -1.5661
 8132SOL     OW36028   4.550   1.505   2.189 -0.5427 -0.0263 -0.8956
 8132SOL    HW136029   4.483   1.468   2.247 -0.3546  0.4235 -0.3992
 8132SOL    HW236030   4.570   1.593   2.220  1.0534 -0.9164  0.5744
 8133SOL     OW36031   1.546   1.471   1.745 -0.3139 -0.1193  0.0189
 8133SOL    HW136032   1.465   1.514   1.721  0.3640  0.3813 -1.3568
 8133SOL    HW236033   1.583   1.525   1.814  1.7851  0.0814 -1.2444
 8134SOL     OW36034   2.609   0.318   1.383 -0.0230 -0.2340  0.0908
 8134SOL    HW136035   2.631   0.238   1.431  0.9223  0.2507  0.4505
 8134SOL    HW236036   2.522   0.350   1.403 -0.5429 -1.6455  0.1030
 8135SOL     OW36037   3.857   0.730   1.582 -0.1057 -0.3726 -0.4903
 8135SOL    HW136038   3.779   0.772   1.544 -1.2981 -3.1551 -1.1394
 8135SOL    HW236039   3.811   0.702   1.661 -0.3571  0.4436 -0.3514
 8136SOL     OW36040   3.772   2.389  15.969 -0.2068  0.4965 -0.2509
 8136SOL    HW136041   3.772   2.470  16.020  3.5107  1.5373 -1.9031
 8136SOL    HW236042   3.773   2.420  15.879  2.8423  0.8527 -0.0959
 8137SOL     OW36043   4.683   3.981   3.873 -0.3757 -0.4112 -0.1979
 8137SOL    HW136044   4.597   3.981   3.831 -0.7071 -0.8386  0.4872
 8137SOL    HW236045   0.004   3.962   3.798  1.7695  0.6117  1.1884
 8138SOL     OW36046   2.045   1.030   3.770  0.0679 -0.3694  0.3175
 8138SOL    HW136047   2.083   0.965   3.829  0.4017  0.8436  1.4400
 8138SOL    HW236048   2.013   0.962   3.711  1.1249  0.0588 -0.7603
 8139SOL     OW36049   3.252   4.087  16.932  0.1181  0.2236  0.3983
 8139SOL    HW136050   3.160   4.114  16.929  0.5278  1.4481 -1.2832
 8139SOL    HW236051   3.287   4.164  16.978 -1.2362  1.0699  0.0203
 8140SOL     OW36052   0.881   3.880  13.467  0.1006 -0.2227 -0.1459
 8140SOL    HW136053   0.964   3.861  13.511  0.5886  1.7156 -0.2414
 8140SOL    HW236054   0.834   3.937  13.528 -0.2798 -0.5088 -0.1706
 8141SOL     OW36055   0.687   0.489  12.348 -0.1640 -0.2534 -0.3682
 8141SOL    HW136056   0.673   0.442  12.430 -0.9805  2.4072  1.0189
 8141SOL    HW236057   0.632   0.566  12.360 -0.1739 -0.1262 -1.2530
 8142SOL     OW36058   1.002   3.592  15.036  0.1493 -0.4518 -0.2199
 8142SOL    HW136059   1.003   3.685  15.014 -1.5073 -0.6561 -1.1438
 8142SOL    HW236060   0.966   3.561  14.953 -0.7145  0.1827 -0.0818
 8143SOL     OW36061   2.497   1.491   4.844  0.1924 -0.0809  0.6826
 8143SOL    HW136062   2.586   1.515   4.867  0.7980 -1.7738  0.1121
 8143SOL    HW236063   2.453   1.570   4.812 -0.0770 -0.0015  1.2514
 8144SOL     OW36064   3.186   4.622   5.237 -0.4390 -0.5106 -0.2468
 8144SOL    HW136065   3.142   4.641   5.320 -0.2886 -1.7249  0.1091
 8144SOL    HW236066   3.212   4.532   5.257  0.2869 -0.3706 -0.5502
 8145SOL     OW36067   0.121   2.707   6.413 -0.4517 -0.2782  0.5203
 8145SOL    HW136068   0.073   2.788   6.398 -2.0704 -1.2385  0.5145
 8145SOL    HW236069   0.171   2.723   6.493 -0.8469 -1.0728  0.9271
 8146SOL     OW36070   3.499   0.635  16.909 -0.2704 -0.1590  0.1987
 8146SOL    HW136071   3.417   0.667  16.947 -0.0843  0.3686  0.1612
 8146SOL    HW236072   3.469   0.601  16.825  0.6019 -0.9578  0.2119
 8147SOL     OW36073   1.314   3.912   9.490 -0.4729 -0.0781  0.3143
 8147SOL    HW136074   1.348   3.916   9.580 -0.6617 -1.3206  0.4288
 8147SOL    HW236075   1.390   3.876   9.445 -1.2657 -0.1089 -1.0160
 8148SOL     OW36076   1.581   2.112   8.202  0.9600  0.2246  0.4127
 8148SOL    HW136077   1.511   2.178   8.195  1.2412  0.4614 -0.1464
 8148SOL    HW236078   1.546   2.053   8.136  0.7479 -0.3440  1.0412
 8149SOL     OW36079   0.426   2.691   2.356 -0.0074  0.6811 -0.6076
 8149SOL    HW136080   0.441   2.733   2.440 -0.4767  1.6444 -1.0019
 8149SOL    HW236081   0.502   2.634   2.340 -1.2472 -1.4935  1.3573
 8150SOL     OW36082   1.877   3.422   6.974  0.1898 -0.0393 -0.0578
 8150SOL    HW136083   1.912   3.472   7.047  0.7637  1.1814 -1.1791
 8150SOL    HW236084   1.954   3.404   6.920 -1.7932 -1.5342 -2.4049
 8151SOL     OW36085   3.186   1.446   3.184  0.2550  0.5588  0.4712
 8151SOL    HW136086   3.123   1.513   3.207 -0.0162  0.6323 -0.5181
 8151SOL    HW236087   3.190   1.400   3.269 -0.8528 -1.0498 -0.3451
 8152SOL     OW36088   2.487   4.193   8.695  0.1633 -0.1519  0.0027
 8152SOL    HW136089   2.575   4.215   8.663  0.0112 -1.6716 -1.4278
 8152SOL    HW236090   2.463   4.119   8.640  1.1371  1.1711 -2.1854
 8153SOL     OW36091   1.137   4.647   9.248  0.2294  0.6702  0.1445
 8153SOL    HW136092   1.179   4.648   9.334  0.5997  1.3205 -0.0463
 8153SOL    HW236093   1.066   4.708   9.268 -2.2108 -3.4911  4.2736
 8154SOL     OW36094   4.581   4.404   1.554 -0.5269  0.3594  0.3275
 8154SOL    HW136095   4.661   4.402   1.502 -0.5961 -2.8824  0.3816
 8154SOL    HW236096   4.514   4.404   1.486  0.2336 -0.7859 -0.4145
 8155SOL     OW36097   3.199   0.530   2.934 -0.1387  0.0531 -0.1348
 8155SOL    HW136098   3.137   0.595   2.902  0.2711  1.3459  1.6830
 8155SOL    HW236099   3.162   0.532   3.022  2.2722  1.2032  0.8439
 8156SOL     OW36100   0.195   0.803   5.581  0.1053  0.2546 -0.1128
 8156SOL    HW136101   0.195   0.843   5.668  0.2683 -0.5565  0.2678
 8156SOL    HW236102   0.100   0.798   5.571 -0.2893  1.2777  3.1228
 8157SOL     OW36103   2.882   4.330   5.993 -0.5106  0.4982  0.1188
 8157SOL    HW136104   2.953   4.288   6.042 -1.2377 -0.4326  0.3896
 8157SOL    HW236105   2.893   4.279   5.913 -0.1189  2.0955 -0.8487
 8158SOL     OW36106   1.683   2.399   3.398 -0.1410 -0.2580 -0.1505
 8158SOL    HW136107   1.623   2.345   3.347  0.6712 -1.0309 -0.2953
 8158SOL    HW236108   1.773   2.382   3.369 -0.1641  0.5034 -0.6603
 8159SOL     OW36109   1.827   1.838   7.868  0.3630 -0.2211 -0.1750
 8159SOL    HW136110   1.865   1.912   7.915  3.0345 -1.6990 -0.0211
 8159SOL    HW236111   1.890   1.766   7.876  0.8166  0.0483 -1.4046
 8160SOL     OW36112   3.148   3.493  17.021  0.0049 -0.0690 -0.1935
 8160SOL    HW136113   3.135   3.553  17.094 -0.3727  2.6550 -2.4963
 8160SOL    HW236114   3.235   3.456  17.034  0.1135 -0.4424 -1.9884
 8161SOL     OW36115   2.906   0.988   0.041  0.1840  0.3565 -0.1999
 8161SOL    HW136116   2.816   0.964   0.065 -0.1778  0.3922 -1.5537
 8161SOL    HW236117   2.894   1.083   0.038 -1.7126  0.0198 -2.8377
 8162SOL     OW36118   4.125   0.146   6.356  0.1943 -0.5441  0.4505
 8162SOL    HW136119   4.095   0.085   6.288 -0.4238  3.0641 -2.5133
 8162SOL    HW236120   4.082   0.223   6.320 -0.4250 -1.5909 -1.0841
 8163SOL     OW36121   3.360   0.468   2.569  0.2654 -0.4560  0.2581
 8163SOL    HW136122   3.266   0.462   2.552  0.2000 -0.2829  0.5565
 8163SOL    HW236123   3.390   0.397   2.512  0.0732 -1.2452  1.1403
 8164SOL     OW36124   2.887   0.240   8.091 -0.5096  0.1147 -0.2477
 8164SOL    HW136125   2.897   0.309   8.025 -1.9480  0.9351  0.4003
 8164SOL    HW236126   2.793   0.233   8.108  0.0163 -2.3462  1.5808
 8165SOL     OW36127   4.510   1.183  17.241 -0.2155  0.0510 -0.3400
 8165SOL    HW136128   4.453   1.247  17.198  0.3231 -0.4348 -1.8084
 8165SOL    HW236129   4.591   1.202  17.193 -0.1901 -1.4401 -0.8986
 8166SOL     OW36130   1.501   1.678   5.547  0.4467  0.0138  0.4396
 8166SOL    HW136131   1.520   1.676   5.453  0.6938  1.2560  0.4623
 8166SOL    HW236132   1.539   1.763   5.571 -0.5499  0.4254  0.5336
 8167SOL     OW36133   1.676   0.607   8.905 -0.3271  0.0938 -0.8038
 8167SOL    HW136134   1.593   0.626   8.949  0.2173  2.3458 -0.7465
 8167SOL    HW236135   1.661   0.525   8.858 -0.7018 -0.3997  0.1712
 8168SOL     OW36136   1.606   0.892   4.314 -0.7693 -0.3927  0.2258
 8168SOL    HW136137   1.550   0.862   4.243 -0.6348  2.6709 -1.1591
 8168SOL    HW236138   1.588   0.825   4.380  4.9782 -1.0684  1.1340
 8169SOL     OW36139   2.875   2.505   3.697  0.4943 -0.4104 -0.6578
 8169SOL    HW136140   2.829   2.502   3.781  0.2999  2.6482 -0.6617
 8169SOL    HW236141   2.935   2.573   3.726  0.1555  1.0450 -3.4026
 8170SOL     OW36142   0.838   0.317  15.118  0.0148  0.2315  0.0546
 8170SOL    HW136143   0.781   0.257  15.167 -1.3107  0.3781 -1.3101
 8170SOL    HW236144   0.922   0.274  15.134  0.7355  1.4262 -0.5281
 8171SOL     OW36145   1.163   4.508   8.790 -0.3222 -0.0015 -0.3698
 8171SOL    HW136146   1.202   4.490   8.875 -0.1198 -2.0544 -0.8837
 8171SOL    HW236147   1.223   4.462   8.731 -2.3300  1.0899 -3.2560
 8172SOL     OW36148   1.580   0.523  10.948  0.1914  0.1141 -0.5216
 8172SOL    HW136149   1.521   0.534  11.023  0.6383 -1.7064  0.0959
 8172SOL    HW236150   1.589   0.617  10.934  0.7270  0.1244 -0.0796
 8173SOL     OW36151   0.750   2.158   1.906 -0.4445 -0.2379  0.1035
 8173SOL    HW136152   0.731   2.078   1.954 -2.3752 -0.5916 -1.2468
 8173SOL    HW236153   0.764   2.136   1.814 -1.5321 -0.1181 -0.0816
 8174SOL     OW36154   1.209   4.082  10.221  0.2946  0.8322 -0.3496
 8174SOL    HW136155   1.232   4.154  10.279 -0.6029  0.6766  0.2029
 8174SOL    HW236156   1.284   4.065  10.165  0.6109  1.6956 -0.1884
 8175SOL     OW36157   2.034   3.593  14.091  0.2274  0.7733 -0.4342
 8175SOL    HW136158   1.939   3.592  14.082  0.1244 -0.0924  0.7722
 8175SOL    HW236159   2.035   3.599  14.186 -1.7371 -1.5431 -0.2952
 8176SOL     OW36160   0.703   1.092  10.140  0.1239 -0.0385  0.2077
 8176SOL    HW136161   0.655   1.075  10.059 -1.7330 -0.2124  1.3494
 8176SOL    HW236162   0.781   1.039  10.121  1.5256  1.4682  1.6892
 8177SOL     OW36163   4.042   1.589   2.769  0.2846 -0.0973 -0.3799
 8177SOL    HW136164   4.034   1.508   2.819 -0.6627  0.8052  0.9255
 8177SOL    HW236165   3.960   1.591   2.719  0.1706 -2.2466 -0.2813
 8178SOL     OW36166   4.180   4.233  14.087  0.2539  0.1868  0.4116
 8178SOL    HW136167   4.177   4.327  14.065  2.5413 -0.3892 -2.2904
 8178SOL    HW236168   4.184   4.191  14.001 -0.4485 -1.8246  1.3583
 8179SOL     OW36169   3.951   1.449   6.540 -0.0028  0.5892  0.0263
 8179SOL    HW136170   4.036   1.480   6.508 -0.0529  0.3413 -0.3495
 8179SOL    HW236171   3.977   1.370   6.588 -1.7108  0.0839  0.1209
 8180SOL     OW36172   2.113   2.899   6.081 -0.4375  0.1437  0.0394
 8180SOL    HW136173   2.083   2.870   5.995 -1.8319  0.7911  0.3096
 8180SOL    HW236174   2.094   2.991   6.066 -0.1280  0.4577  1.6059
 8181SOL     OW36175   1.078   0.023  10.430  0.0003 -0.0835  0.1375
 8181SOL    HW136176   1.050   0.038  10.521 -0.0318 -0.4290  0.1882
 8181SOL    HW236177   0.996   0.040  10.384 -0.9441 -0.4624  1.6695
 8182SOL     OW36178   0.099   2.263   8.502 -0.0395  0.5820 -0.4613
 8182SOL    HW136179   0.101   2.204   8.427  0.7962 -0.4808  0.3899
 8182SOL    HW236180   0.025   2.235   8.555 -0.3821 -1.9890 -2.2885
 8183SOL     OW36181   3.057   0.581   7.553  0.1494 -0.3295 -0.0316
 8183SOL    HW136182   3.120   0.652   7.545  1.0740 -0.9859  1.4445
 8183SOL    HW236183   3.029   0.575   7.462  0.4093 -0.9393 -0.0758
 8184SOL     OW36184   1.283   0.754   4.149  0.1520  0.2256  0.0506
 8184SOL    HW136185   1.353   0.794   4.099 -1.6009  2.3507 -0.6877
 8184SOL    HW236186   1.312   0.771   4.239 -0.0702  1.1179 -0.0450
 8185SOL     OW36187   2.110   2.945  14.905 -0.0556 -0.0663 -0.3146
 8185SOL    HW136188   2.061   2.894  14.841 -0.8080  2.4429 -1.6977
 8185SOL    HW236189   2.066   3.030  14.901  1.4494  0.6175 -2.1346
 8186SOL     OW36190   2.465   4.416   7.815 -0.1829  0.0087 -0.1814
 8186SOL    HW136191   2.472   4.334   7.864  1.8632  0.9461  1.1277
 8186SOL    HW236192   2.450   4.386   7.725 -0.6783 -0.3848  0.0306
 8187SOL     OW36193   1.715   3.416   2.776  0.0138  0.0429 -0.2757
 8187SOL    HW136194   1.715   3.499   2.822  0.3011 -0.5912  0.8642
 8187SOL    HW236195   1.713   3.351   2.846 -0.0985  1.6569  1.2043
 8188SOL     OW36196   4.421   3.613   2.570  0.6185 -0.1487 -0.1443
 8188SOL    HW136197   4.512   3.641   2.562  0.0522  1.2482 -1.8255
 8188SOL    HW236198   4.423   3.539   2.509  1.3497 -0.1378 -0.1306
 8189SOL     OW36199   0.918   0.301   8.902 -0.3720 -0.1838  0.9207
 8189SOL    HW136200   0.961   0.278   8.985  0.4498 -1.2047  0.2084
 8189SOL    HW236201   0.910   0.396   8.913  1.2143  0.5270 -3.9888
 8190SOL     OW36202   2.695   1.083   7.548 -0.6966 -0.1435  0.3777
 8190SOL    HW136203   2.626   1.108   7.487 -0.9186 -0.2088  0.6047
 8190SOL    HW236204   2.661   1.122   7.628 -0.6061 -2.4077  1.5429
 8191SOL     OW36205   4.483   2.119  12.520 -0.2332  0.8097 -0.3139
 8191SOL    HW136206   4.471   2.035  12.476  0.0423  1.5921 -1.8982
 8191SOL    HW236207   4.559   2.160  12.480  0.8332 -0.2515  0.6437
 8192SOL     OW36208   3.258   1.368   3.964 -0.0364  0.4566 -0.5424
 8192SOL    HW136209   3.340   1.330   3.935 -1.4282 -0.9027 -2.6755
 8192SOL    HW236210   3.212   1.295   4.005  0.6178  1.6503  2.2965
 8193SOL     OW36211   4.215   0.418   2.659 -0.6000 -0.9091 -0.2199
 8193SOL    HW136212   4.159   0.342   2.672 -0.0218 -1.6362 -1.9928
 8193SOL    HW236213   4.181   0.467   2.734 -0.0548  2.6490 -2.2829
 8194SOL     OW36214   1.640   1.388   2.564  0.0976  0.3743  0.5021
 8194SOL    HW136215   1.575   1.436   2.615 -1.4512  0.4001 -1.4727
 8194SOL    HW236216   1.724   1.415   2.602  0.8681  0.3507 -1.1785
 8195SOL     OW36217   2.799   2.810   3.547 -0.2548  0.2396  0.4695
 8195SOL    HW136218   2.828   2.848   3.464  0.5747  1.8064  1.4576
 8195SOL    HW236219   2.746   2.737   3.516  1.0705 -0.2991 -0.5276
 8196SOL     OW36220   1.619   0.534   0.978 -0.0433  0.4950 -0.3245
 8196SOL    HW136221   1.662   0.492   0.903  1.5192 -0.1051  0.9170
 8196SOL    HW236222   1.619   0.628   0.962 -2.2577  0.6059  0.3008
 8197SOL     OW36223   3.019   3.556   7.557 -0.3227  0.0468 -0.1656
 8197SOL    HW136224   2.981   3.624   7.612 -0.2847 -0.4821  0.5079
 8197SOL    HW236225   3.055   3.496   7.622 -1.1171 -0.6156 -0.3390
 8198SOL     OW36226   1.896   3.356   3.139  0.8851 -0.1691  0.1680
 8198SOL    HW136227   1.938   3.435   3.106 -2.4220  1.7345  0.6172
 8198SOL    HW236228   1.943   3.284   3.096  1.9184  0.0913  0.8531
 8199SOL     OW36229   3.338   4.132   9.844 -0.3807 -0.1815  0.2224
 8199SOL    HW136230   3.365   4.199   9.906 -0.5016  0.0738 -0.0009
 8199SOL    HW236231   3.252   4.171   9.826  0.7153  2.1984  0.1895
 8200SOL     OW36232   3.878   1.209   3.313  0.1397  0.1329  0.5441
 8200SOL    HW136233   3.815   1.265   3.268  2.0457  0.2200 -2.0594
 8200SOL    HW236234   3.919   1.277   3.366 -0.6528  0.3509  0.8745
 8201SOL     OW36235   0.967   4.086   5.734  0.5928 -0.3222  0.1520
 8201SOL    HW136236   0.953   4.180   5.733 -1.5778 -0.6506 -0.5656
 8201SOL    HW236237   0.995   4.063   5.646  0.6216  0.4320 -0.0340
 8202SOL     OW36238   0.004   1.194   4.381  0.0262  0.1983 -0.2703
 8202SOL    HW136239   0.086   1.169   4.423 -1.1217 -3.4550 -0.2439
 8202SOL    HW236240   0.032   1.261   4.318  2.7907 -2.3953 -1.7673
 8203SOL     OW36241   2.436   2.566   3.656  0.1361 -0.3878  0.5972
 8203SOL    HW136242   2.424   2.481   3.697 -0.3832  0.1496  1.5672
 8203SOL    HW236243   2.348   2.606   3.657 -0.0908 -0.8918  0.8155
 8204SOL     OW36244   0.441   3.825  12.456 -0.4914 -0.3221 -0.1895
 8204SOL    HW136245   0.461   3.902  12.510  1.2946 -1.1800  0.3763
 8204SOL    HW236246   0.372   3.781  12.506 -0.8467  1.1924  0.6461
 8205SOL     OW36247   2.089   3.544   8.823 -0.7558  0.3623 -0.0686
 8205SOL    HW136248   2.002   3.571   8.852  0.1616  1.7052  1.4108
 8205SOL    HW236249   2.133   3.626   8.799 -0.7547 -0.4749 -2.8663
 8206SOL     OW36250   3.353   4.007   4.886 -0.1708  0.1846 -0.1000
 8206SOL    HW136251   3.415   4.040   4.951 -2.2242  0.7541  1.5474
 8206SOL    HW236252   3.385   4.047   4.805 -2.3123  1.3517 -0.3619
 8207SOL     OW36253   1.394   0.101   4.394 -0.0238  0.2224 -0.6304
 8207SOL    HW136254   1.317   0.116   4.448  0.2115 -2.4606  0.4275
 8207SOL    HW236255   1.364   0.136   4.310  0.4345  1.3311 -0.3332
 8208SOL     OW36256   0.417   2.695   9.363  0.1243  0.3270 -0.0004
 8208SOL    HW136257   0.420   2.609   9.406 -0.6038  0.4880  0.3533
 8208SOL    HW236258   0.331   2.692   9.322  0.7662  1.9750 -1.4667
 8209SOL     OW36259   4.000   3.296   2.803 -0.1367  0.3768  0.1458
 8209SOL    HW136260   4.064   3.350   2.756  2.3604 -0.9691  2.0376
 8209SOL    HW236261   3.931   3.278   2.740 -0.1764  0.6312  0.1184
 8210SOL     OW36262   4.413   2.896   5.731  0.3577  0.0762  0.0406
 8210SOL    HW136263   4.450   2.833   5.793 -1.3024 -2.5015 -1.6076
 8210SOL    HW236264   4.323   2.867   5.716 -0.5129  2.2193  1.0598
 8211SOL     OW36265   0.109   2.695   4.198  0.0665  0.4398 -0.3576
 8211SOL    HW136266   0.027   2.730   4.231 -0.0565  0.1948 -0.3997
 8211SOL    HW236267   0.083   2.617   4.148 -0.2104 -0.2428  0.8501
 8212SOL     OW36268   0.712   3.690  13.531 -0.0912 -0.4130  0.0051
 8212SOL    HW136269   0.768   3.762  13.502 -0.4579  0.6530  1.9679
 8212SOL    HW236270   0.740   3.626  13.466  0.4773  1.3462 -1.5147
 8213SOL     OW36271   0.034   3.362   8.679  0.2207 -0.3260  0.2761
 8213SOL    HW136272   0.088   3.286   8.699 -1.0821 -1.0439  1.0776
 8213SOL    HW236273   4.703   3.355   8.746  1.3576 -1.7171  1.2585
 8214SOL     OW36274   3.047   4.127  16.193 -0.3676 -0.4088 -0.0963
 8214SOL    HW136275   3.081   4.042  16.166  1.8498  1.2533 -2.4889
 8214SOL    HW236276   2.976   4.128  16.129 -0.0447 -0.2667 -0.4538
 8215SOL     OW36277   2.176   1.988   3.683  0.3342 -0.1020  0.4299
 8215SOL    HW136278   2.197   1.924   3.751  0.9425  1.7247  1.9587
 8215SOL    HW236279   2.264   2.023   3.668  0.4474 -1.0626 -1.1059
 8216SOL     OW36280   2.477   4.512  10.029  0.6444 -0.7257 -0.7471
 8216SOL    HW136281   2.432   4.517   9.945 -0.4089 -0.8644 -0.1826
 8216SOL    HW236282   2.409   4.471  10.081 -0.5562  2.7407  0.3776
 8217SOL     OW36283   2.397   0.056   0.504  0.1567 -0.5084 -0.3706
 8217SOL    HW136284   2.411   0.151   0.507  1.7211 -0.7421 -0.1098
 8217SOL    HW236285   2.446   0.032   0.583 -0.7941  0.2202  0.4310
 8218SOL     OW36286   2.018   0.514   3.191  0.0484 -0.0099  0.1899
 8218SOL    HW136287   2.080   0.546   3.126  0.7338 -1.1543  0.2979
 8218SOL    HW236288   2.071   0.456   3.244  0.8000  0.3317 -0.1854
 8219SOL     OW36289   3.973   4.495   8.147  0.0038  0.0277  0.2312
 8219SOL    HW136290   3.942   4.582   8.173 -1.5012 -0.5334  0.3294
 8219SOL    HW236291   4.063   4.487   8.179  1.8886  1.1046 -4.7487
 8220SOL     OW36292   3.873   2.625  10.507  0.3863  0.0840 -0.4946
 8220SOL    HW136293   3.942   2.594  10.448  3.3151  1.5261  2.1627
 8220SOL    HW236294   3.814   2.550  10.512  0.1256  0.2509 -1.0205
 8221SOL     OW36295   3.879   3.232   3.410  0.3230  0.2656 -0.1612
 8221SOL    HW136296   3.912   3.152   3.368 -0.6261 -1.1076  1.6707
 8221SOL    HW236297   3.842   3.280   3.336 -1.4245  0.0261  0.5530
 8222SOL     OW36298   4.706   4.081   2.759 -0.5468 -0.3995 -0.1215
 8222SOL    HW136299   4.647   4.006   2.758  0.1598 -1.0154  2.6492
 8222SOL    HW236300   4.676   4.122   2.678 -1.6779  0.1642  0.5814
 8223SOL     OW36301   2.694   4.677  15.620 -0.5528 -0.0879 -1.0050
 8223SOL    HW136302   2.674   4.641  15.706  0.5149  2.0249  0.1231
 8223SOL    HW236303   2.671   0.033  15.630  0.6683  0.1055  0.0185
 8224SOL     OW36304   1.597   4.082   2.774  0.6040  0.5059  0.3266
 8224SOL    HW136305   1.542   4.027   2.830 -0.5326  1.5502  0.2359
 8224SOL    HW236306   1.642   4.010   2.730 -0.4815 -0.4754  0.8335
 8225SOL     OW36307   0.895   1.567   8.266 -0.2248  0.1994 -0.0514
 8225SOL    HW136308   0.866   1.494   8.210 -0.8825  0.4970 -0.1002
 8225SOL    HW236309   0.831   1.551   8.335 -0.0557  0.2962  0.1242
 8226SOL     OW36310   0.788   2.915  10.601  0.1143 -0.0222  0.3951
 8226SOL    HW136311   0.791   2.912  10.505 -3.1954  2.0896  0.2403
 8226SOL    HW236312   0.835   2.996  10.622 -1.6842  1.4117 -1.1005
 8227SOL     OW36313   0.285   2.490   3.591  1.0375 -0.1443  0.0903
 8227SOL    HW136314   0.222   2.489   3.663  0.5758 -1.6883 -0.3521
 8227SOL    HW236315   0.322   2.578   3.600 -0.7624  0.7526 -1.4300
 8228SOL     OW36316   1.163   4.142   6.502  0.2902 -0.2964  0.3239
 8228SOL    HW136317   1.083   4.157   6.553  0.8850  0.3651  1.0726
 8228SOL    HW236318   1.129   4.114   6.417  1.7739 -1.7277  0.2106
 8229SOL     OW36319   1.658   1.166   8.255  0.0801 -0.0738 -0.0676
 8229SOL    HW136320   1.721   1.117   8.201 -0.0131 -1.3242  0.9513
 8229SOL    HW236321   1.714   1.236   8.289 -0.2208  0.2465 -0.2436
 8230SOL     OW36322   0.965   1.430   8.796 -0.0800 -0.0825 -0.3945
 8230SOL    HW136323   0.973   1.497   8.865 -0.0471  0.6189 -1.0758
 8230SOL    HW236324   1.015   1.354   8.826  1.6798  0.5575 -1.7022
 8231SOL     OW36325   3.072   3.226  13.997 -1.0743  0.3675 -0.6573
 8231SOL    HW136326   3.039   3.285  13.928 -0.7524  1.2005 -0.1030
 8231SOL    HW236327   2.997   3.170  14.015  0.1863 -1.1507 -0.1134
 8232SOL     OW36328   3.021   4.486  12.851  0.2095  0.7201 -0.2779
 8232SOL    HW136329   3.062   4.450  12.773  0.8923 -1.0871  0.9148
 8232SOL    HW236330   2.965   4.550  12.807  0.1825  0.9911  0.1479
 8233SOL     OW36331   2.249   4.407   9.892  0.0509 -0.2816  0.0119
 8233SOL    HW136332   2.182   4.456   9.845  1.6475 -0.0107 -2.0134
 8233SOL    HW236333   2.244   4.329   9.837  1.2486  1.2574 -2.3156
 8234SOL     OW36334   1.472   0.216   1.429  0.5782 -0.0997 -0.0848
 8234SOL    HW136335   1.480   0.235   1.336 -2.0605 -1.0516 -0.4866
 8234SOL    HW236336   1.443   0.125   1.435  0.1424 -0.0488 -1.4058
 8235SOL     OW36337   4.622   2.364   2.866 -0.6535  0.5239  0.2092
 8235SOL    HW136338   4.619   2.337   2.774  2.6766 -1.7582  0.7782
 8235SOL    HW236339   4.575   2.293   2.909  1.2168 -1.9659 -1.8129
 8236SOL     OW36340   1.822   2.592  15.570  0.0670  0.3664  0.3594
 8236SOL    HW136341   1.763   2.613  15.497  1.1263 -1.7206 -1.0783
 8236SOL    HW236342   1.896   2.649  15.548  0.0089 -0.2008 -1.2850
 8237SOL     OW36343   1.847   1.555   5.675 -0.3920  0.1002 -0.0702
 8237SOL    HW136344   1.910   1.568   5.605 -1.9054  1.7540 -1.1099
 8237SOL    HW236345   1.887   1.584   5.757 -2.3661  1.8116  0.2909
 8238SOL     OW36346   2.030   3.626   2.401  0.1583 -0.2994 -0.1745
 8238SOL    HW136347   2.102   3.584   2.446  0.3027 -0.0303 -0.1532
 8238SOL    HW236348   1.955   3.567   2.399  0.5994 -0.8944  1.2439
 8239SOL     OW36349   3.775   0.946   4.592 -0.1244  0.1865 -0.1398
 8239SOL    HW136350   3.855   0.930   4.641 -0.4055 -0.2822  0.1660
 8239SOL    HW236351   3.780   1.039   4.571 -0.8695  0.1880 -0.3239
 8240SOL     OW36352   2.198   1.251   4.478 -0.1567  0.2052 -0.0346
 8240SOL    HW136353   2.245   1.202   4.411 -1.2003 -0.3282 -0.3888
 8240SOL    HW236354   2.115   1.261   4.430 -1.2289  0.1716  1.7898
 8241SOL     OW36355   1.832   2.182  17.561  0.2212  0.3536 -0.1117
 8241SOL    HW136356   1.779   2.107  17.537  1.1755 -0.9105  1.7228
 8241SOL    HW236357   1.862   2.155  17.648 -1.4708  0.3164  0.4773
 8242SOL     OW36358   4.661   4.676   3.243 -0.0255 -0.0475  0.1824
 8242SOL    HW136359   4.722   4.663   3.171 -0.7143 -2.0902 -0.0425
 8242SOL    HW236360   4.578   4.664   3.198 -0.7158 -0.8435  1.6763
 8243SOL     OW36361   2.006   0.868   7.473  0.4807  0.9483 -0.5424
 8243SOL    HW136362   2.019   0.835   7.562 -0.1623  0.2051 -0.7241
 8243SOL    HW236363   2.091   0.838   7.442  0.5157  0.1621  0.3136
 8244SOL     OW36364   4.054   0.486   1.353 -0.1570 -0.1496  0.1661
 8244SOL    HW136365   4.010   0.452   1.431  1.1597 -0.7330  0.6506
 8244SOL    HW236366   4.049   0.579   1.376  0.4367  0.4128 -2.0414
 8245SOL     OW36367   1.095   0.944   6.174 -0.0718 -0.3512 -0.1798
 8245SOL    HW136368   1.183   0.927   6.140 -0.4084  0.2002 -1.3424
 8245SOL    HW236369   1.109   0.924   6.267  0.4088 -3.6549 -0.9558
 8246SOL     OW36370   4.438   2.047   5.562  0.7434  0.6374  0.4830
 8246SOL    HW136371   4.417   2.022   5.472  0.3529  0.8716  0.5103
 8246SOL    HW236372   4.518   2.097   5.552  1.3461  0.0539  2.3185
 8247SOL     OW36373   0.837   0.737   1.237 -0.0091 -0.1684 -0.1804
 8247SOL    HW136374   0.902   0.792   1.282 -2.0267  0.7539  1.6510
 8247SOL    HW236375   0.889   0.725   1.158  0.4764 -1.2198  0.2982
 8248SOL     OW36376   4.463   0.076  10.280 -0.0524  0.6414 -0.6475
 8248SOL    HW136377   4.534   0.039  10.333  0.3605  0.1685 -1.5255
 8248SOL    HW236378   4.396   0.008  10.294  1.2298 -0.7637 -1.2978
 8249SOL     OW36379   1.807   2.558  10.413 -0.0776  0.3010  0.2306
 8249SOL    HW136380   1.775   2.634  10.366  0.5736  1.2737  1.3479
 8249SOL    HW236381   1.812   2.483  10.355  2.6381  0.0314  0.7979
 8250SOL     OW36382   0.743   3.535  11.240 -0.1501 -0.2705  0.3032
 8250SOL    HW136383   0.731   3.574  11.327 -0.7238  1.6652 -0.6250
 8250SOL    HW236384   0.803   3.601  11.205 -0.2852 -0.2997  0.0181
 8251SOL     OW36385   1.191   2.016   7.104  0.5016  0.1913  0.0744
 8251SOL    HW136386   1.098   2.005   7.081  0.4973 -1.7361  1.0369
 8251SOL    HW236387   1.225   2.075   7.036 -0.1617  1.5321  0.9119
 8252SOL     OW36388   2.038   2.172   9.671 -0.3880 -0.2265 -0.4254
 8252SOL    HW136389   2.123   2.163   9.629  0.5633  0.8363  1.2792
 8252SOL    HW236390   1.974   2.147   9.605  0.7456  0.5238 -1.7957
 8253SOL     OW36391   4.606   4.046   7.569  0.4767 -0.1749 -0.0347
 8253SOL    HW136392   4.638   3.984   7.635  1.5220  0.3906 -0.0164
 8253SOL    HW236393   4.518   4.010   7.555  0.4134 -0.8100  1.8829
 8254SOL     OW36394   2.989   2.978   6.969  0.5002  0.5399 -0.0131
 8254SOL    HW136395   2.971   3.068   6.997  0.5906  0.3410  0.6772
 8254SOL    HW236396   2.977   2.991   6.875  1.8714 -1.3562 -0.4450
 8255SOL     OW36397   0.926   3.696   6.195 -0.1012 -0.2174 -0.6659
 8255SOL    HW136398   0.849   3.694   6.138 -0.2338  2.5535 -0.5731
 8255SOL    HW236399   0.968   3.780   6.176  2.3856 -0.9296  1.6697
 8256SOL     OW36400   1.697   2.398   0.416  0.0179  0.4959 -0.0623
 8256SOL    HW136401   1.637   2.467   0.443  0.8041  0.9315  0.5722
 8256SOL    HW236402   1.780   2.439   0.437 -0.3891  0.0688  2.4803
 8257SOL     OW36403   2.083   0.156  16.171 -0.4133  1.0714 -0.0907
 8257SOL    HW136404   2.083   0.188  16.081 -0.7377 -0.0025 -0.4757
 8257SOL    HW236405   2.028   0.078  16.167  2.2451 -1.0002  3.0585
 8258SOL     OW36406   1.738   0.768   1.357 -0.7340 -0.0438  0.3988
 8258SOL    HW136407   1.671   0.730   1.414  0.3202 -1.6265  0.5867
 8258SOL    HW236408   1.766   0.695   1.301  0.7922  0.8670 -0.0222
 8259SOL     OW36409   3.704   0.091   7.335 -0.5127 -0.0630  0.0854
 8259SOL    HW136410   3.697   0.012   7.281 -0.5077 -0.1433  0.2023
 8259SOL    HW236411   3.661   0.153   7.276 -2.3438 -1.0648  0.3754
 8260SOL     OW36412   1.160   3.979   5.926  0.5395  0.2358  0.5916
 8260SOL    HW136413   1.200   3.959   5.841 -1.1610  0.3681 -0.2382
 8260SOL    HW236414   1.077   4.014   5.894  1.1792  0.6085 -0.6532
 8261SOL     OW36415   1.974   1.338   9.461  0.4349 -0.2090  0.2543
 8261SOL    HW136416   2.007   1.265   9.410  1.0647  0.4268 -0.2472
 8261SOL    HW236417   2.026   1.403   9.414 -1.6099  1.0319 -0.3015
 8262SOL     OW36418   2.573   0.086   4.613 -0.2629  0.2357 -0.3094
 8262SOL    HW136419   2.659   0.057   4.581 -0.4527 -0.7455  0.0572
 8262SOL    HW236420   2.499   0.066   4.556  0.4441 -1.9174 -0.4970
 8263SOL     OW36421   3.331   2.199   6.773  0.0420 -0.2998 -0.2224
 8263SOL    HW136422   3.296   2.224   6.859  2.6579  1.5223  0.2986
 8263SOL    HW236423   3.295   2.111   6.764 -0.5358 -0.2752  1.8434
 8264SOL     OW36424   0.608   1.320   5.023 -0.2459 -0.1792 -0.1365
 8264SOL    HW136425   0.662   1.245   4.996 -0.3086 -0.4045  0.3587
 8264SOL    HW236426   0.640   1.398   4.979  1.2912 -0.2611  0.8274
 8265SOL     OW36427   3.514   0.070   7.537 -0.3349  0.4091  0.2848
 8265SOL    HW136428   3.492   0.161   7.517  1.8832  0.8533 -0.0432
 8265SOL    HW236429   3.590   0.063   7.479 -0.1508  0.1183  0.5674
 8266SOL     OW36430   2.770   0.269   6.596 -0.0407  0.3449  0.1443
 8266SOL    HW136431   2.832   0.258   6.669 -1.4835 -1.5476  1.0809
 8266SOL    HW236432   2.794   0.199   6.535 -0.0543 -0.6551  1.2830
 8267SOL     OW36433   0.977   1.318   2.961 -0.0865 -0.5242  0.1814
 8267SOL    HW136434   0.950   1.384   3.023  2.7724 -1.4671  2.4424
 8267SOL    HW236435   1.009   1.244   3.013 -1.0297 -1.0640 -0.0028
 8268SOL     OW36436   4.126   0.568   4.330 -0.1087 -0.0083  0.2000
 8268SOL    HW136437   4.052   0.599   4.382  0.0331 -0.4337  0.6455
 8268SOL    HW236438   4.189   0.537   4.394  0.0436 -0.9467 -0.3959
 8269SOL     OW36439   0.164   3.046   7.195 -0.2527 -0.3110 -0.1752
 8269SOL    HW136440   0.249   3.070   7.159  0.4636 -0.5419  1.3520
 8269SOL    HW236441   0.156   3.077   7.285 -0.4270  2.6413 -1.1963
 8270SOL     OW36442   1.681   2.791   9.061  0.4447  0.7666 -0.1103
 8270SOL    HW136443   1.660   2.885   9.060  0.3362  0.7718  3.7005
 8270SOL    HW236444   1.689   2.771   8.968  1.0550  0.6530 -0.0322
 8271SOL     OW36445   3.921   1.100   1.819  0.0514 -0.3008 -0.7324
 8271SOL    HW136446   3.943   1.191   1.839  1.1774 -0.9316  0.8879
 8271SOL    HW236447   3.884   1.110   1.731 -0.0055 -1.0192 -0.7886
 8272SOL     OW36448   4.231   4.405  16.490  0.3021  0.4228  0.1498
 8272SOL    HW136449   4.201   4.495  16.482  0.2980  0.2093 -2.1784
 8272SOL    HW236450   4.231   4.376  16.399  1.0061 -2.7855  1.1326
 8273SOL     OW36451   1.705   4.259   5.498  0.4963  0.0842 -0.4597
 8273SOL    HW136452   1.729   4.349   5.520  1.1381 -0.9204  2.9453
 8273SOL    HW236453   1.780   4.237   5.442  0.0616  0.4623 -1.1835
 8274SOL     OW36454   2.188   2.935   3.698  0.1825 -0.1259 -0.4897
 8274SOL    HW136455   2.106   2.946   3.747  0.2468 -0.0769 -0.3936
 8274SOL    HW236456   2.253   2.971   3.758  0.5618 -0.9391 -0.4146
 8275SOL     OW36457   0.173   1.710   6.976 -0.2221  0.4139 -0.2056
 8275SOL    HW136458   0.248   1.679   6.926 -0.6328 -0.3590 -0.3477
 8275SOL    HW236459   0.129   1.776   6.922 -3.8762 -0.2475  1.9428
 8276SOL     OW36460   3.474   2.375   7.853 -0.1602 -0.0897 -0.3316
 8276SOL    HW136461   3.540   2.308   7.836  0.4793  0.4660 -0.0177
 8276SOL    HW236462   3.443   2.403   7.766  0.3332  0.0938 -0.4474
 8277SOL     OW36463   4.642   4.048   5.160  0.0773 -0.0334 -0.0370
 8277SOL    HW136464   4.711   3.991   5.124 -0.7374  0.5620 -2.5665
 8277SOL    HW236465   4.677   4.090   5.238 -1.3756 -0.5215  0.8606
 8278SOL     OW36466   1.393   1.837   9.402  0.1797  0.1306 -0.4125
 8278SOL    HW136467   1.408   1.784   9.480  2.7232 -0.3746 -1.2234
 8278SOL    HW236468   1.454   1.787   9.347  0.0707 -0.5651  0.0986
 8279SOL     OW36469   1.923   1.705   2.055 -0.9712  0.2789 -0.4658
 8279SOL    HW136470   1.835   1.672   2.036  0.1588 -5.4721  4.5582
 8279SOL    HW236471   1.940   1.704   2.149  0.0120 -0.3033 -0.6541
 8280SOL     OW36472   1.145   2.885   4.999  0.5352  0.6963  0.2978
 8280SOL    HW136473   1.199   2.829   5.055  0.0295 -0.1841 -0.1036
 8280SOL    HW236474   1.130   2.829   4.923 -0.1181  0.1658  0.8306
 8281SOL     OW36475   1.804   2.003   5.753  0.3903  0.3331  0.1264
 8281SOL    HW136476   1.752   2.066   5.803 -2.1828 -1.7658  0.0717
 8281SOL    HW236477   1.790   2.035   5.664  1.3539 -0.8838 -0.4733
 8282SOL     OW36478   2.712   4.042  15.467 -0.7860  0.0445 -0.2224
 8282SOL    HW136479   2.790   4.095  15.448 -1.7166  1.4092 -0.2170
 8282SOL    HW236480   2.738   3.955  15.499 -2.2170  0.2681  1.5319
 8283SOL     OW36481   1.747   3.063   3.552 -0.0558 -0.2265 -0.6324
 8283SOL    HW136482   1.759   2.990   3.491  0.3152 -0.5779 -0.1440
 8283SOL    HW236483   1.802   3.127   3.508  1.4812 -0.4602  0.9439
 8284SOL     OW36484   2.983   4.413   3.418  0.1753 -0.4610 -0.2564
 8284SOL    HW136485   2.960   4.358   3.494  0.2658  0.4667  0.4359
 8284SOL    HW236486   2.931   4.378   3.346 -0.8829  1.0325 -0.2088
 8285SOL     OW36487   3.021   2.475   5.728  0.0791  0.0040 -0.3044
 8285SOL    HW136488   3.038   2.528   5.651 -1.3625 -0.0022 -0.6194
 8285SOL    HW236489   2.934   2.508   5.751  0.9064  1.3007  0.9575
 8286SOL     OW36490   1.427   0.510   6.745  0.6451 -0.4840  0.0915
 8286SOL    HW136491   1.416   0.484   6.837  0.5917 -0.1004  0.1961
 8286SOL    HW236492   1.515   0.547   6.746 -0.1759  1.5045 -1.4203
 8287SOL     OW36493   2.855   0.954   4.093 -0.3024  0.4660 -0.5492
 8287SOL    HW136494   2.834   1.047   4.094  1.0087  0.7354  0.7838
 8287SOL    HW236495   2.932   0.954   4.150  0.0754  3.0851 -1.0686
 8288SOL     OW36496   3.988   0.860   4.728  0.3351  0.2167 -0.1887
 8288SOL    HW136497   4.079   0.888   4.715  0.4890 -0.0356  0.3567
 8288SOL    HW236498   3.992   0.863   4.823 -0.8726  0.5272 -0.1472
 8289SOL     OW36499   4.421   0.301   7.436  0.1531 -0.5572 -0.1520
 8289SOL    HW136500   4.396   0.315   7.344  0.1694 -1.6540 -0.3168
 8289SOL    HW236501   4.424   0.393   7.462 -2.4041 -0.7373  0.7102
 8290SOL     OW36502   2.043   2.438   9.781  0.2209 -0.2309 -0.4134
 8290SOL    HW136503   2.037   2.347   9.751  1.8077 -0.0420 -1.3312
 8290SOL    HW236504   2.123   2.436   9.834  1.1258 -1.9045 -1.8277
 8291SOL     OW36505   4.307   1.835   6.207 -0.8291 -0.1069 -0.4087
 8291SOL    HW136506   4.331   1.841   6.114  2.8865 -1.0662  0.4855
 8291SOL    HW236507   4.322   1.745   6.236 -1.5807  0.6061  2.2277
 8292SOL     OW36508   1.226   1.316   5.090  0.1059  0.1442  0.0702
 8292SOL    HW136509   1.294   1.352   5.033 -0.2975 -1.1422 -1.2219
 8292SOL    HW236510   1.280   1.291   5.164 -0.6690 -1.8318 -0.0341
 8293SOL     OW36511   3.838   4.261   6.979 -0.1321 -0.0592 -0.1486
 8293SOL    HW136512   3.811   4.353   6.982 -1.6218 -0.4672 -0.6819
 8293SOL    HW236513   3.788   4.235   6.901 -1.4495 -0.5841  0.8666
 8294SOL     OW36514   0.706   0.923  16.919 -0.3038  0.1516  0.3579
 8294SOL    HW136515   0.773   0.948  16.983 -1.3695 -1.0684  1.9652
 8294SOL    HW236516   0.751   0.845  16.889 -0.5705 -0.1266  0.6793
 8295SOL     OW36517   3.181   2.303   7.549 -0.1382 -0.0754 -0.1759
 8295SOL    HW136518   3.142   2.301   7.636 -0.5461  1.2720 -0.3218
 8295SOL    HW236519   3.265   2.343   7.569  1.4388 -2.1289 -2.7147
 8296SOL     OW36520   4.432   1.562   0.799  0.1287  0.3201  0.2072
 8296SOL    HW136521   4.361   1.614   0.837 -0.8767  0.8036 -2.3209
 8296SOL    HW236522   4.479   1.639   0.767 -2.8849  1.9422 -0.3100
 8297SOL     OW36523   2.768   3.173   6.527 -0.4627  0.4435  0.0171
 8297SOL    HW136524   2.717   3.255   6.530  0.9846  1.3165  0.5831
 8297SOL    HW236525   2.822   3.188   6.449  1.8941 -2.5392  1.0985
 8298SOL     OW36526   0.910   1.662   1.973  0.7607  0.2141  0.4773
 8298SOL    HW136527   0.870   1.634   2.056  0.3737  1.2106  0.6196
 8298SOL    HW236528   0.977   1.594   1.962 -0.5417 -0.7241 -1.6919
 8299SOL     OW36529   2.328   3.811   0.256 -0.2109 -0.5396  0.1422
 8299SOL    HW136530   2.256   3.750   0.277 -0.4813 -0.7005 -1.2288
 8299SOL    HW236531   2.385   3.811   0.333  0.8215  4.6160 -0.6757
 8300SOL     OW36532   3.678   1.995   5.208  0.1600 -0.6015 -0.5527
 8300SOL    HW136533   3.660   2.083   5.241 -2.3066 -1.7404  1.1416
 8300SOL    HW236534   3.651   1.942   5.283  0.1849  2.0507  1.3508
 8301SOL     OW36535   4.323   2.513   2.737  0.3147 -0.0394  0.4991
 8301SOL    HW136536   4.402   2.561   2.759  0.8580 -0.3678 -0.7196
 8301SOL    HW236537   4.350   2.426   2.765  0.5131 -0.4010 -0.8029
 8302SOL     OW36538   4.219   2.096   0.048  0.2212  0.2683  0.5419
 8302SOL    HW136539   4.296   2.138   0.008 -0.9481  2.0563  0.1921
 8302SOL    HW236540   4.149   2.159   0.036 -1.7746 -2.1931 -0.7707
 8303SOL     OW36541   1.161   4.345   9.413 -0.2172  0.3060 -0.6576
 8303SOL    HW136542   1.106   4.423   9.421 -0.0260  0.3893 -0.2011
 8303SOL    HW236543   1.107   4.288   9.357 -0.5193 -0.4598  0.4270
 8304SOL     OW36544   2.155   3.897  13.282  0.0700 -0.0560  0.1474
 8304SOL    HW136545   2.167   3.825  13.343 -2.1255  0.1739  0.8403
 8304SOL    HW236546   2.065   3.922  13.306  0.9209  3.0380  0.0952
 8305SOL     OW36547   3.037   1.577   1.302  0.3523  0.2183 -0.4483
 8305SOL    HW136548   3.004   1.630   1.374 -0.8175 -0.1112 -0.7393
 8305SOL    HW236549   3.053   1.649   1.240  2.1180 -1.5271 -2.0059
 8306SOL     OW36550   1.830   4.432   1.206  0.3911 -1.1355 -0.4431
 8306SOL    HW136551   1.873   4.363   1.155  2.5209 -0.6702  0.7257
 8306SOL    HW236552   1.885   4.510   1.197  1.2317 -1.5966  0.6925
 8307SOL     OW36553   3.801   1.648   1.347  0.2573 -0.2098  0.4150
 8307SOL    HW136554   3.782   1.709   1.418 -0.2107  0.2239 -0.0792
 8307SOL    HW236555   3.843   1.587   1.407  0.7294 -1.7184 -1.4648
 8308SOL     OW36556   3.475   2.418   1.459 -1.1754 -0.1312 -0.1726
 8308SOL    HW136557   3.448   2.506   1.484 -0.5302 -0.4891  1.7290
 8308SOL    HW236558   3.571   2.414   1.460 -1.1285  0.7586 -0.9698
 8309SOL     OW36559   0.701   2.097   3.041  0.0535  0.7067  0.4579
 8309SOL    HW136560   0.618   2.057   3.017  0.6628 -0.5286  0.3871
 8309SOL    HW236561   0.689   2.192   3.031 -0.2591  0.5818 -0.3407
 8310SOL     OW36562   0.812   0.497   4.535  0.3612 -0.0753  0.0981
 8310SOL    HW136563   0.903   0.504   4.506  0.9864 -0.7247  1.9148
 8310SOL    HW236564   0.824   0.565   4.601 -3.2095 -1.0105  1.7598
 8311SOL     OW36565   4.705   1.384   5.734 -0.1731  0.4330 -0.2253
 8311SOL    HW136566   4.712   1.441   5.657  1.5542  1.5446  0.7639
 8311SOL    HW236567   4.663   1.318   5.679 -0.8527  0.1083  0.6834
 8312SOL     OW36568   0.603   1.267   1.576 -0.4077 -0.3002  0.2732
 8312SOL    HW136569   0.657   1.188   1.572  0.5555  0.4157 -0.8651
 8312SOL    HW236570   0.671   1.334   1.583 -0.0308 -0.7863  1.3551
 8313SOL     OW36571   1.899   1.311   8.227 -0.3676 -0.5239 -0.0566
 8313SOL    HW136572   1.986   1.324   8.187  1.4764 -1.8250  3.5923
 8313SOL    HW236573   1.839   1.355   8.166  1.1781  1.1657 -0.3805
 8314SOL     OW36574   1.149   3.270  15.262  0.3999  0.0086 -0.1124
 8314SOL    HW136575   1.181   3.360  15.265  0.4218  0.0621 -1.8920
 8314SOL    HW236576   1.228   3.226  15.233 -1.2290 -1.7470 -1.9343
 8315SOL     OW36577   2.670   1.949  15.927  0.3735 -0.1292  0.4285
 8315SOL    HW136578   2.734   1.904  15.872 -1.1074 -1.6014 -0.1072
 8315SOL    HW236579   2.637   1.885  15.990 -1.4012  0.3743  0.0093
 8316SOL     OW36580   1.898   0.152   7.707  0.2419 -0.2938  0.4526
 8316SOL    HW136581   1.909   0.057   7.704  1.5699 -0.1833  1.5796
 8316SOL    HW236582   1.906   0.162   7.802  0.0508 -0.9018  0.5301
 8317SOL     OW36583   3.176   2.595   7.767 -0.7827 -0.2095 -0.1019
 8317SOL    HW136584   3.262   2.626   7.793 -0.2862 -1.2205 -0.5635
 8317SOL    HW236585   3.176   2.501   7.784 -1.4035 -0.3555 -0.9017
 8318SOL     OW36586   4.060   0.351  17.566 -0.5469  0.0167 -0.0593
 8318SOL    HW136587   4.040   0.417  17.632  0.2245  1.7600 -1.5713
 8318SOL    HW236588   4.011   0.274  17.596  0.5485 -0.4584  0.5160
 8319SOL     OW36589   2.952   3.350  13.806 -0.9417 -0.3012 -0.1229
 8319SOL    HW136590   2.892   3.397  13.863 -1.4356  0.1151 -0.9933
 8319SOL    HW236591   2.912   3.353  13.719 -0.2081  0.6818 -0.4238
 8320SOL     OW36592   3.625   3.209  17.195  0.6384 -0.1593 -0.5041
 8320SOL    HW136593   3.681   3.252  17.129  0.6265  2.0142  0.8975
 8320SOL    HW236594   3.673   3.216  17.277  0.2096 -1.1779 -0.1727
 8321SOL     OW36595   3.911   3.526   2.975  0.0662  0.3994 -0.4646
 8321SOL    HW136596   3.949   3.452   2.928  1.5425  0.9206 -0.0901
 8321SOL    HW236597   3.935   3.508   3.066  1.6182  4.1506 -0.1663
 8322SOL     OW36598   2.947   3.898  10.462  0.0286 -0.2608  0.0180
 8322SOL    HW136599   2.866   3.947  10.452  1.3406  2.4604  2.6529
 8322SOL    HW236600   2.991   3.943  10.534  0.8621 -0.9390 -0.0568
 8323SOL     OW36601   1.605   4.446  13.227  0.0290  0.1639  0.1685
 8323SOL    HW136602   1.517   4.476  13.203 -0.7164 -1.5858  0.7115
 8323SOL    HW236603   1.593   4.357  13.261 -0.7727  1.2152  2.6037
 8324SOL     OW36604   2.589   1.983   8.259 -0.5999 -0.4651 -0.4622
 8324SOL    HW136605   2.539   2.052   8.303 -0.5616 -0.6819 -0.0716
 8324SOL    HW236606   2.620   1.931   8.334 -1.8319 -1.9829 -1.0346
 8325SOL     OW36607   1.621   0.908   8.797 -0.1596 -0.4195  0.0345
 8325SOL    HW136608   1.692   0.849   8.820 -1.2466 -1.4648  0.6973
 8325SOL    HW236609   1.606   0.936   8.887  2.0653  0.6693  0.0614
 8326SOL     OW36610   0.732   2.136   7.978 -0.3806 -0.3728  0.2647
 8326SOL    HW136611   0.729   2.218   7.928 -4.1772 -0.2693  0.7240
 8326SOL    HW236612   0.731   2.071   7.908 -1.6715 -0.9375  0.8307
 8327SOL     OW36613   4.542   3.247   7.285 -0.1778  0.4002 -0.2851
 8327SOL    HW136614   4.611   3.195   7.324 -1.6250  0.1942  1.9531
 8327SOL    HW236615   4.563   3.334   7.320 -0.7365  1.4333 -2.4744
 8328SOL     OW36616   0.505   2.446   5.247 -0.2639 -0.0683 -0.0745
 8328SOL    HW136617   0.432   2.406   5.293 -0.1770 -0.0366  0.0936
 8328SOL    HW236618   0.558   2.484   5.318 -2.5315 -1.2106  2.2092
 8329SOL     OW36619   0.351   3.026  13.031  0.4429 -0.1519  0.1110
 8329SOL    HW136620   0.391   2.948  13.070  0.0327 -0.8213 -0.8108
 8329SOL    HW236621   0.259   3.001  13.023  0.4585  0.3607 -1.6529
 8330SOL     OW36622   3.110   1.914   8.909  0.6190 -0.0209 -0.6877
 8330SOL    HW136623   3.182   1.923   8.847 -0.7749  0.4833 -2.2253
 8330SOL    HW236624   3.153   1.858   8.974  0.9185  0.2203 -0.6800
 8331SOL     OW36625   4.373   0.049  12.487  0.4234 -0.3981 -0.2894
 8331SOL    HW136626   4.304   0.032  12.423 -1.2777 -0.4777  1.5363
 8331SOL    HW236627   4.433   0.109  12.442 -0.2635 -0.3884 -1.1897
 8332SOL     OW36628   2.063   2.317   6.170  0.5447  0.0767  0.6098
 8332SOL    HW136629   2.144   2.348   6.131  0.3519 -2.2231 -1.5987
 8332SOL    HW236630   2.084   2.225   6.182  1.0664  0.0814 -0.3021
 8333SOL     OW36631   1.578   1.877   5.103  0.1119 -0.1862 -0.0217
 8333SOL    HW136632   1.516   1.929   5.052 -0.3170 -0.8704 -0.1903
 8333SOL    HW236633   1.613   1.820   5.034 -2.2821 -1.6219 -0.0287
 8334SOL     OW36634   2.771   3.154  15.094  0.3128 -0.0732  0.3860
 8334SOL    HW136635   2.792   3.205  15.016 -0.3022  1.1468  1.0136
 8334SOL    HW236636   2.816   3.074  15.068 -2.0257 -1.7348  1.4354
 8335SOL     OW36637   0.022   1.876   6.816 -0.4826  0.0389  0.0051
 8335SOL    HW136638   0.028   1.822   6.737 -0.2046  0.4864 -0.2844
 8335SOL    HW236639   0.036   1.961   6.775  3.0741 -0.1051  0.9284
 8336SOL     OW36640   0.712   0.050  15.502 -0.3176  0.7606  0.5411
 8336SOL    HW136641   0.667   4.724  15.559 -1.1234  1.1545  0.3402
 8336SOL    HW236642   0.770   0.090  15.567  1.2845  1.0628 -1.1080
 8337SOL     OW36643   3.812   0.611   5.231  0.0520  0.2410 -0.0581
 8337SOL    HW136644   3.885   0.558   5.263 -0.4096 -1.6757 -2.1512
 8337SOL    HW236645   3.753   0.540   5.206 -0.7197  0.4031  1.3061
 8338SOL     OW36646   0.918   1.244   4.405  0.1830  0.2119 -0.1063
 8338SOL    HW136647   0.889   1.153   4.419  0.8193 -0.0621 -0.5615
 8338SOL    HW236648   0.890   1.273   4.492  2.7500 -1.2393  1.2196
 8339SOL     OW36649   4.224   0.096   4.077  0.7794  0.3688 -0.3294
 8339SOL    HW136650   4.231   0.189   4.055  0.5131  0.7583  1.1767
 8339SOL    HW236651   4.271   0.056   4.005 -0.6450 -0.8453 -0.5874
 8340SOL     OW36652   0.725   3.851   4.901 -0.6910  0.2792 -0.1693
 8340SOL    HW136653   0.640   3.894   4.907 -0.0724  1.5884 -0.7061
 8340SOL    HW236654   0.761   3.918   4.843 -0.8917  1.1421  0.7005
 8341SOL     OW36655   4.074   3.312   2.127  0.4271  0.0165  0.2248
 8341SOL    HW136656   4.132   3.247   2.086  2.2000  1.5818  0.2365
 8341SOL    HW236657   3.991   3.281   2.090  1.5383 -2.8324  0.1619
 8342SOL     OW36658   3.468   3.330   4.243 -0.3664 -0.5919  0.6782
 8342SOL    HW136659   3.410   3.380   4.301 -0.1646  0.4463 -0.0200
 8342SOL    HW236660   3.455   3.387   4.168 -2.0955  0.9254  2.1294
 8343SOL     OW36661   3.896   3.800   9.148 -0.5229  0.3900 -0.0380
 8343SOL    HW136662   3.809   3.813   9.187  0.6997  0.2104  2.7554
 8343SOL    HW236663   3.951   3.784   9.225  1.2938 -0.3870 -1.5172
 8344SOL     OW36664   2.383   3.145   0.749 -0.1355  0.3580 -0.0678
 8344SOL    HW136665   2.393   3.224   0.696 -1.2718  0.0348 -0.7698
 8344SOL    HW236666   2.470   3.130   0.784  0.8857 -1.1438 -3.2843
 8345SOL     OW36667   4.683   1.647   7.808 -0.0512 -0.3636 -0.1712
 8345SOL    HW136668   4.591   1.675   7.812  0.0052 -0.5533  2.1643
 8345SOL    HW236669   4.727   1.720   7.764  0.7846 -1.4940 -1.1936
 8346SOL     OW36670   1.405   0.254   1.986  0.5921 -0.2444  0.0886
 8346SOL    HW136671   1.458   0.179   1.962  0.7468 -0.6179  1.5714
 8346SOL    HW236672   1.381   0.239   2.078  0.4742  1.6391  0.3637
 8347SOL     OW36673   3.459   2.002  15.019 -0.2141 -0.4788 -0.1740
 8347SOL    HW136674   3.544   2.037  14.992 -1.6172  2.3958 -0.9203
 8347SOL    HW236675   3.501   1.939  15.077  2.4649  1.7873  0.3790
 8348SOL     OW36676   2.381   1.713  11.977  0.0364  0.2617 -0.1302
 8348SOL    HW136677   2.334   1.678  11.901  1.0064  1.2033 -1.1796
 8348SOL    HW236678   2.312   1.772  12.007 -0.8031  0.1684 -1.8235
 8349SOL     OW36679   4.623   4.120   0.309  0.2662 -0.2452  0.2920
 8349SOL    HW136680   4.570   4.199   0.324  0.0152 -0.6019  1.2862
 8349SOL    HW236681   4.707   4.155   0.279  0.5425 -0.9743  0.2356
 8350SOL     OW36682   0.398   3.726   1.380 -0.0415 -0.2051 -0.1630
 8350SOL    HW136683   0.345   3.780   1.321  1.3780  2.3526  0.9536
 8350SOL    HW236684   0.482   3.739   1.335 -0.5088 -1.2727 -1.3576
 8351SOL     OW36685   3.910   0.195   6.852 -0.7300 -0.4370 -0.6887
 8351SOL    HW136686   3.941   0.187   6.762 -1.3242  0.8833 -1.0172
 8351SOL    HW236687   3.982   0.241   6.897 -1.1716  0.1466 -0.5679
 8352SOL     OW36688   0.053   4.371  17.030  0.0411 -0.2000  0.0007
 8352SOL    HW136689   0.121   4.419  17.077 -1.7119  3.4809 -1.1580
 8352SOL    HW236690   0.071   4.397  16.939  0.3631  0.7442  0.3324
 8353SOL     OW36691   4.419   0.952   5.280  0.2712 -0.0090  0.3759
 8353SOL    HW136692   4.421   1.032   5.227 -1.1861 -0.3951 -0.2579
 8353SOL    HW236693   4.329   0.926   5.261  0.2104  0.1363  0.4667
 8354SOL     OW36694   2.923   4.233   7.174 -0.3260  0.4832  0.0056
 8354SOL    HW136695   2.979   4.157   7.154  0.8060  1.7714 -1.7145
 8354SOL    HW236696   2.840   4.203   7.137 -1.3765  2.2879  0.9202
 8355SOL     OW36697   2.323   0.399   4.577  0.1174 -0.0626 -0.0107
 8355SOL    HW136698   2.275   0.456   4.638  0.3453 -0.3601  0.4423
 8355SOL    HW236699   2.309   0.317   4.624  1.8759 -0.6565 -0.5319
 8356SOL     OW36700   0.208   1.524  14.247 -0.0532  0.6649 -0.5923
 8356SOL    HW136701   0.280   1.462  14.261 -0.3150  0.5545  0.2346
 8356SOL    HW236702   0.163   1.487  14.171  0.8664  1.6595 -1.6220
 8357SOL     OW36703   2.608   1.625   3.249  0.1384 -0.5328  0.7361
 8357SOL    HW136704   2.570   1.704   3.289  1.1336  0.5070 -0.3851
 8357SOL    HW236705   2.620   1.664   3.163 -1.8193 -3.6932 -0.9678
 8358SOL     OW36706   1.824   0.168   7.082  0.3976 -0.3726  0.5291
 8358SOL    HW136707   1.884   0.216   7.139  0.8188 -0.1199 -0.1322
 8358SOL    HW236708   1.791   0.236   7.023  1.0398  0.3818  1.0390
 8359SOL     OW36709   4.570   3.611   1.370  0.1119  0.0866 -0.5973
 8359SOL    HW136710   4.581   3.606   1.465  0.1588  0.2900 -0.5907
 8359SOL    HW236711   4.474   3.618   1.375  0.2027  1.1903 -0.3883
 8360SOL     OW36712   3.447   4.671   1.788 -0.6195 -0.8024  0.5404
 8360SOL    HW136713   3.427   0.028   1.794  1.0699 -0.3320 -1.1097
 8360SOL    HW236714   3.540   4.672   1.810 -0.6562 -0.9207  0.6970
 8361SOL     OW36715   0.231   3.798   1.167  0.2627  0.5988 -0.2672
 8361SOL    HW136716   0.222   3.716   1.117  0.1556  0.3260  0.2025
 8361SOL    HW236717   0.247   3.870   1.105 -0.1182 -0.0654 -1.1464
 8362SOL     OW36718   1.944   4.432   8.647  0.4925 -0.6365  0.0117
 8362SOL    HW136719   1.973   4.520   8.672  0.9217 -0.4722 -1.0302
 8362SOL    HW236720   1.944   4.452   8.553  1.1994  1.6747  0.5010
 8363SOL     OW36721   0.969   1.503   5.852  0.1218 -0.2644 -0.7185
 8363SOL    HW136722   0.892   1.489   5.908  2.4207 -0.5839  2.3614
 8363SOL    HW236723   1.024   1.560   5.907  1.7339 -1.5653 -0.9890
 8364SOL     OW36724   1.647   2.003  17.473 -0.5501  0.2082 -0.2818
 8364SOL    HW136725   1.616   1.926  17.425 -0.1146 -0.4361  0.4735
 8364SOL    HW236726   1.595   2.067  17.424 -1.2407 -0.6503 -0.6784
 8365SOL     OW36727   3.321   0.093  12.365  0.0991  0.3207 -0.1944
 8365SOL    HW136728   3.318   0.178  12.410  3.5032  0.8435 -0.9964
 8365SOL    HW236729   3.271   0.110  12.285  0.3404  1.9320 -0.0085
 8366SOL     OW36730   4.313   2.479  17.030  0.4068  0.1239  0.4254
 8366SOL    HW136731   4.279   2.559  16.990  0.9144 -0.3049 -0.8621
 8366SOL    HW236732   4.403   2.511  17.032  0.5009 -0.0386 -1.3127
 8367SOL     OW36733   4.697   2.753   9.484  0.0258 -0.0588 -0.0246
 8367SOL    HW136734   0.027   2.745   9.417 -0.5891  0.5698 -0.7094
 8367SOL    HW236735   0.020   2.774   9.556 -0.9903  0.6120  0.6240
 8368SOL     OW36736   3.951   4.419   4.279  0.0493 -0.4008  0.7162
 8368SOL    HW136737   4.043   4.434   4.301  0.1811 -1.7735  1.1310
 8368SOL    HW236738   3.930   4.508   4.250 -2.0220 -0.9498  0.5694
 8369SOL     OW36739   4.468   3.494   8.369  0.2147  0.8148 -0.0405
 8369SOL    HW136740   4.480   3.565   8.433 -3.0854  3.2363 -2.1179
 8369SOL    HW236741   4.416   3.436   8.425 -1.2121  1.8422 -0.2721
 8370SOL     OW36742   4.427   0.011   7.707 -0.2298  0.0566  0.4859
 8370SOL    HW136743   4.347   0.032   7.753  1.0375  0.3129  2.5401
 8370SOL    HW236744   4.494   0.044   7.766  0.2017  0.1386 -0.0495
 8371SOL     OW36745   0.833   4.036   2.046  0.0607 -0.4495  0.3001
 8371SOL    HW136746   0.760   4.097   2.047 -0.6254 -1.3068  1.4633
 8371SOL    HW236747   0.827   3.999   2.134  2.0318 -1.7039 -0.0966
 8372SOL     OW36748   1.993   4.237   4.636  0.9971  0.7317  0.2018
 8372SOL    HW136749   2.025   4.257   4.723 -0.0038 -1.1817  0.9938
 8372SOL    HW236750   1.941   4.317   4.623  1.2743  0.8456 -0.2140
 8373SOL     OW36751   1.778   2.776  10.271 -0.4885  0.4196  0.2167
 8373SOL    HW136752   1.772   2.755  10.178  1.3284  3.1265 -0.4774
 8373SOL    HW236753   1.787   2.870  10.255  0.1045  0.4437  0.6912
 8374SOL     OW36754   3.230   0.192   3.534 -0.3197  0.9340  0.3253
 8374SOL    HW136755   3.274   0.262   3.583  0.5556  0.8923 -0.4156
 8374SOL    HW236756   3.264   0.111   3.574 -0.7412  0.4899 -0.2218
 8375SOL     OW36757   4.716   1.690   9.968 -0.1623 -0.0735 -0.0111
 8375SOL    HW136758   0.014   1.681  10.057  2.8669 -0.3649 -1.2441
 8375SOL    HW236759   0.007   1.782   9.965  2.3237 -0.9518 -3.2181
 8376SOL     OW36760   2.028   3.757   3.645 -0.5499 -0.1955 -0.0831
 8376SOL    HW136761   2.012   3.850   3.628  0.3653  0.1021  0.7127
 8376SOL    HW236762   1.952   3.708   3.613  0.0386 -0.8535 -0.4692
 8377SOL     OW36763   2.088   2.855   8.351 -0.0552 -0.1963 -0.4348
 8377SOL    HW136764   2.121   2.812   8.430 -0.8550  0.6345  0.3444
 8377SOL    HW236765   2.092   2.946   8.378  1.2359 -0.2898 -0.2826
 8378SOL     OW36766   4.236   0.329   2.163 -0.3996 -0.6083  0.0045
 8378SOL    HW136767   4.266   0.406   2.114  0.5243  0.2506  1.9171
 8378SOL    HW236768   4.274   0.346   2.249 -0.2547  0.1783 -0.2155
 8379SOL     OW36769   4.278   3.971  15.999 -0.3670  0.9715 -0.2574
 8379SOL    HW136770   4.240   4.038  15.943  0.5196 -0.5418 -2.6297
 8379SOL    HW236771   4.311   4.031  16.067 -0.6670 -1.9541  2.4797
 8380SOL     OW36772   1.919   0.047   4.126  0.3014 -0.1125 -0.2242
 8380SOL    HW136773   1.882   0.080   4.208  0.8946 -1.9304  0.7751
 8380SOL    HW236774   1.905   0.122   4.067 -2.3090  1.5089  2.4782
 8381SOL     OW36775   4.712   2.611   2.461  0.4716 -0.2469  0.2657
 8381SOL    HW136776   4.631   2.657   2.483  0.0499 -0.8062 -0.1232
 8381SOL    HW236777   0.042   2.679   2.453  1.7490 -1.3853  1.1517
 8382SOL     OW36778   2.852   2.711   6.011 -0.5538  0.1077 -0.3885
 8382SOL    HW136779   2.854   2.648   5.940  0.6948  1.7593 -1.8356
 8382SOL    HW236780   2.762   2.695   6.037 -0.7394  0.9313 -0.5184
 8383SOL     OW36781   0.582   1.716  11.781  1.1944  0.1513 -0.3481
 8383SOL    HW136782   0.488   1.701  11.776  0.7055  3.5317 -0.8297
 8383SOL    HW236783   0.584   1.792  11.723 -1.4044  0.5445  0.0963
 8384SOL     OW36784   1.511   1.035   5.840 -0.5037 -0.2783  0.1300
 8384SOL    HW136785   1.565   0.958   5.821 -0.8166 -0.2936 -0.6862
 8384SOL    HW236786   1.557   1.095   5.781 -0.7928  0.5110  0.7072
 8385SOL     OW36787   0.631   2.019   6.620 -0.2092 -0.2556 -0.6063
 8385SOL    HW136788   0.592   2.072   6.551 -1.6931 -0.6042 -0.0592
 8385SOL    HW236789   0.584   2.034   6.702  1.7014 -0.7414  0.5547
 8386SOL     OW36790   0.704   4.531  16.846 -0.5549 -0.0340  0.1675
 8386SOL    HW136791   0.666   4.542  16.759  2.2858 -1.9560 -1.3189
 8386SOL    HW236792   0.628   4.550  16.901 -0.7226  0.9264 -0.3953
 8387SOL     OW36793   1.470   0.309   6.990 -0.3168 -0.1286  0.2632
 8387SOL    HW136794   1.499   0.298   7.081  2.0325 -0.1162 -0.4915
 8387SOL    HW236795   1.383   0.270   6.998 -0.4964  0.7680  2.9261
 8388SOL     OW36796   3.794   3.095  13.763 -0.1024  0.1135  0.1090
 8388SOL    HW136797   3.887   3.088  13.787  0.1377 -0.5917 -1.0716
 8388SOL    HW236798   3.757   3.062  13.845  1.1594  1.6372  1.3072
 8389SOL     OW36799   3.975   2.900   6.824 -0.4892 -0.1004 -0.6969
 8389SOL    HW136800   3.895   2.892   6.876  0.2894  1.8428  0.7877
 8389SOL    HW236801   3.945   2.849   6.749 -4.6297  0.7803  0.3728
 8390SOL     OW36802   3.561   2.239   4.649 -0.3843  0.6926  0.7857
 8390SOL    HW136803   3.523   2.162   4.608  1.1063  1.2956 -1.7474
 8390SOL    HW236804   3.630   2.244   4.583  0.7804 -1.5541  1.8417
 8391SOL     OW36805   2.797   0.082   8.647 -0.7133 -0.7693 -0.2810
 8391SOL    HW136806   2.821   0.158   8.595  0.6380 -1.9630 -1.3947
 8391SOL    HW236807   2.856   0.012   8.617  0.4918  0.2941 -0.3527
 8392SOL     OW36808   4.638   2.705  10.371  0.1319  0.0507 -0.1304
 8392SOL    HW136809   4.624   2.631  10.430 -0.9695  1.5433  1.4778
 8392SOL    HW236810   4.585   2.703  10.291 -2.0540  2.5676  1.2671
 8393SOL     OW36811   2.570   1.220   7.739 -0.1574 -0.1346 -0.0440
 8393SOL    HW136812   2.598   1.286   7.802 -1.0063  0.7098 -0.5506
 8393SOL    HW236813   2.497   1.265   7.697  0.8264  0.4900 -1.0881
 8394SOL     OW36814   3.690   3.801   2.561 -0.0695  0.4683 -0.1939
 8394SOL    HW136815   3.639   3.827   2.638  1.0618  2.3259 -0.0940
 8394SOL    HW236816   3.745   3.876   2.540 -0.5300  0.7347 -0.4639
 8395SOL     OW36817   2.554   0.409   9.207  0.2536 -0.5873 -0.1622
 8395SOL    HW136818   2.621   0.475   9.224 -0.4396  0.0781 -0.0018
 8395SOL    HW236819   2.522   0.372   9.289  1.9038  0.8884  1.1439
 8396SOL     OW36820   4.279   3.582   8.763 -0.2168  0.3117  0.0904
 8396SOL    HW136821   4.199   3.532   8.775 -0.1225 -0.1134 -1.0214
 8396SOL    HW236822   4.346   3.513   8.764 -2.1109 -1.5853 -2.9302
 8397SOL     OW36823   1.239   0.324   7.356 -0.6750 -0.3150  0.0277
 8397SOL    HW136824   1.164   0.266   7.343  0.5019 -1.8752  0.2066
 8397SOL    HW236825   1.201   0.412   7.360 -0.0050 -0.1572  3.0370
 8398SOL     OW36826   0.588   4.050   6.292  0.1586  0.4778  0.2595
 8398SOL    HW136827   0.667   4.086   6.331 -0.2846  0.5726  1.0701
 8398SOL    HW236828   0.525   4.121   6.306 -2.2443 -1.0951 -2.5218
 8399SOL     OW36829   1.034   3.936   5.500  0.4352  1.0307  0.4312
 8399SOL    HW136830   1.095   3.953   5.428  0.7219 -1.8591  0.0086
 8399SOL    HW236831   1.088   3.884   5.559 -0.6791  0.8595  1.3057
 8400SOL     OW36832   4.277   0.464  16.303 -0.4315  0.6883  0.4125
 8400SOL    HW136833   4.232   0.384  16.329  0.2669 -0.4682 -1.9770
 8400SOL    HW236834   4.202   0.506  16.261 -0.5155  1.6867  1.5515
 8401SOL     OW36835   3.326   4.542   3.122 -0.0436  0.7866 -0.2119
 8401SOL    HW136836   3.326   4.574   3.032 -2.3969 -1.8852 -1.1368
 8401SOL    HW236837   3.277   4.460   3.117  1.5527 -0.1268 -0.9236
 8402SOL     OW36838   3.274   0.862   6.212  0.4200  0.4147 -0.2151
 8402SOL    HW136839   3.237   0.845   6.126  0.4713  1.2936 -0.4139
 8402SOL    HW236840   3.353   0.911   6.189 -0.9377  2.3394 -0.7830
 8403SOL     OW36841   0.137   2.224   3.021  0.0138  0.1567  0.2966
 8403SOL    HW136842   0.061   2.252   3.073 -0.5492  2.3868 -1.7433
 8403SOL    HW236843   0.214   2.229   3.078  0.1898 -0.1613  0.0860
 8404SOL     OW36844   2.604   4.135  12.348  0.0067  0.2341 -0.0868
 8404SOL    HW136845   2.540   4.065  12.346 -0.2518  0.4154  2.4930
 8404SOL    HW236846   2.547   4.212  12.341 -0.4407 -0.0206  0.9138
 8405SOL     OW36847   0.263   3.468   7.946  0.6532  0.3732 -0.1838
 8405SOL    HW136848   0.258   3.535   7.878 -1.1609  0.9918  0.5811
 8405SOL    HW236849   0.358   3.460   7.953  0.8276 -0.8908 -3.7359
 8406SOL     OW36850   0.256   1.120   2.947  0.2919 -0.4555  0.1320
 8406SOL    HW136851   0.187   1.129   2.881  1.1823 -1.4078 -0.9259
 8406SOL    HW236852   0.257   1.028   2.971 -1.7832 -0.3048  0.7578
 8407SOL     OW36853   2.736   4.029   2.076  0.6270  0.0357  0.2840
 8407SOL    HW136854   2.738   3.935   2.058  0.7662  0.1723 -0.4146
 8407SOL    HW236855   2.774   4.032   2.164  3.1266 -0.5765 -0.7889
 8408SOL     OW36856   2.625   3.831   3.543  0.6269 -0.2069  0.7477
 8408SOL    HW136857   2.588   3.870   3.623 -0.8854 -0.9359  0.4119
 8408SOL    HW236858   2.708   3.798   3.576  1.0332 -0.4478 -0.5180
 8409SOL     OW36859   0.574   0.289  16.481 -0.4022 -0.2046 -0.3809
 8409SOL    HW136860   0.530   0.327  16.557  2.7425  1.2007  0.7463
 8409SOL    HW236861   0.559   0.196  16.493  0.4953  0.0927  2.9776
 8410SOL     OW36862   0.845   4.328  10.348 -0.1385  0.4289 -0.1994
 8410SOL    HW136863   0.753   4.303  10.338 -0.5500  1.8711 -0.0457
 8410SOL    HW236864   0.887   4.268  10.286  2.9556  1.1005  1.2517
 8411SOL     OW36865   2.873   2.954   8.506 -0.0071 -0.0574  0.2000
 8411SOL    HW136866   2.781   2.949   8.481  0.2695  0.0998 -0.8494
 8411SOL    HW236867   2.878   2.992   8.594 -2.2600 -0.2485  0.4063
 8412SOL     OW36868   3.938   4.272   4.034  0.2098 -0.4096  0.3253
 8412SOL    HW136869   3.918   4.310   4.119 -0.2212  0.5281 -0.2018
 8412SOL    HW236870   3.921   4.179   4.051  0.2872 -0.2053  1.4618
 8413SOL     OW36871   4.098   1.152   1.489  0.3751  0.2694  0.3442
 8413SOL    HW136872   4.116   1.184   1.400  0.3341 -1.3505 -0.2453
 8413SOL    HW236873   4.070   1.228   1.540 -1.6530 -0.9594  1.0644
 8414SOL     OW36874   2.219   2.256   7.544 -0.5088 -0.0290 -0.4851
 8414SOL    HW136875   2.188   2.338   7.580 -0.4294 -0.3168  0.2489
 8414SOL    HW236876   2.144   2.199   7.527 -1.5363  0.1769  3.3967
 8415SOL     OW36877   1.029   0.769   9.686  0.4228  0.7408  0.2107
 8415SOL    HW136878   1.029   0.698   9.750 -1.6392  0.6969  0.1512
 8415SOL    HW236879   1.099   0.824   9.722 -0.7432  0.5376  2.7787
 8416SOL     OW36880   2.041   0.293  15.897  0.2829  0.3424  0.3993
 8416SOL    HW136881   2.037   0.256  15.809  3.9839  2.4245 -0.6588
 8416SOL    HW236882   2.121   0.345  15.889  0.5418  0.2444  2.4306
 8417SOL     OW36883   0.301   1.884   5.516  0.2311 -0.0684 -0.1444
 8417SOL    HW136884   0.397   1.889   5.516  0.2418 -0.3613  1.6315
 8417SOL    HW236885   0.282   1.931   5.434 -0.1451  1.2043  0.6707
 8418SOL     OW36886   3.421   3.951   9.100 -0.0774 -0.2597 -0.3805
 8418SOL    HW136887   3.343   3.913   9.060  0.2908 -1.8189  0.3840
 8418SOL    HW236888   3.416   4.034   9.053  0.0508  1.9606  3.4994
 8419SOL     OW36889   3.547   4.454   9.697  0.8554  0.0572  0.3893
 8419SOL    HW136890   3.613   4.511   9.737  1.1715 -0.3833  0.4964
 8419SOL    HW236891   3.579   4.364   9.707 -0.1604 -0.1742  1.5505
 8420SOL     OW36892   1.366   3.479   5.046 -0.0405  0.4223  0.1910
 8420SOL    HW136893   1.373   3.384   5.048 -2.4568  0.2703  1.2777
 8420SOL    HW236894   1.277   3.482   5.080  0.3550  0.0042  1.2447
 8421SOL     OW36895   0.814   4.551   8.146  0.0779  0.0812 -0.4882
 8421SOL    HW136896   0.893   4.598   8.119  0.1590  0.2369  0.0283
 8421SOL    HW236897   0.810   4.573   8.239 -1.8877  1.0100 -0.7978
 8422SOL     OW36898   2.699   1.008  11.481 -0.4448 -0.1578  0.0145
 8422SOL    HW136899   2.787   1.014  11.444  0.2958  1.6806  2.0597
 8422SOL    HW236900   2.715   1.028  11.573  1.1195  0.4592 -0.3841
 8423SOL     OW36901   3.475   2.273  17.635  0.2487  0.6395 -0.0361
 8423SOL    HW136902   3.414   2.207  17.666 -0.6870  1.0104 -1.0705
 8423SOL    HW236903   3.490   2.337  17.704 -1.6259  0.5404  0.4469
 8424SOL     OW36904   0.868   2.538   3.648 -0.1926  0.7149 -0.3971
 8424SOL    HW136905   0.918   2.514   3.570 -0.0460 -1.3152  0.3374
 8424SOL    HW236906   0.821   2.456   3.651  2.8988 -1.0821 -0.5783
 8425SOL     OW36907   2.893   3.719   4.040  0.0810  0.3408  0.1636
 8425SOL    HW136908   2.830   3.783   4.073  0.1585 -0.1511  1.2528
 8425SOL    HW236909   2.973   3.746   4.084 -0.7431  2.9937  0.0521
 8426SOL     OW36910   2.439   2.322   0.995 -0.0818  0.0120  0.4501
 8426SOL    HW136911   2.407   2.250   1.049 -1.5370  0.9595  0.8365
 8426SOL    HW236912   2.455   2.283   0.909  1.1674  0.3969  0.4975
 8427SOL     OW36913   1.706   0.631   8.029  0.3925  0.0782  0.7196
 8427SOL    HW136914   1.739   0.674   7.951  2.3690 -1.3110  0.8007
 8427SOL    HW236915   1.618   0.594   8.018 -0.2569  1.2240  2.1386
 8428SOL     OW36916   3.390   0.994   8.927 -0.1090  0.0758  0.0798
 8428SOL    HW136917   3.331   0.919   8.933 -1.5156  1.3077  1.5717
 8428SOL    HW236918   3.420   0.987   8.836  1.4811 -2.1200  0.7543
 8429SOL     OW36919   2.086   4.524   6.090  0.4280  0.4010 -0.0967
 8429SOL    HW136920   2.098   4.522   5.995 -1.9355 -0.5048 -0.3691
 8429SOL    HW236921   2.172   4.504   6.127  0.4575 -0.9756 -0.9311
 8430SOL     OW36922   0.973   2.544  16.869 -0.0986 -0.4805  0.7081
 8430SOL    HW136923   0.945   2.526  16.959 -1.8722 -1.2300  0.0212
 8430SOL    HW236924   1.024   2.623  16.883  0.3511 -0.6098 -0.2379
 8431SOL     OW36925   1.318   1.575   5.731  0.5229 -0.1651 -0.2629
 8431SOL    HW136926   1.392   1.584   5.671 -0.3232 -0.2065 -1.3173
 8431SOL    HW236927   1.302   1.668   5.744  1.7890  0.1585 -1.0179
 8432SOL     OW36928   2.048   1.053   8.333 -0.1482 -0.1669  0.3722
 8432SOL    HW136929   2.079   1.135   8.294  1.1100 -1.1419 -0.6731
 8432SOL    HW236930   2.022   1.078   8.422 -2.4368 -2.5589  0.3583
 8433SOL     OW36931   0.942   0.562   6.430 -0.1949 -0.1181 -0.1165
 8433SOL    HW136932   1.028   0.580   6.467 -0.5702 -1.2379  1.3091
 8433SOL    HW236933   0.944   0.606   6.345 -0.3791  3.2063  1.5851
 8434SOL     OW36934   1.162   3.744   5.712 -0.3905 -0.0018 -0.2196
 8434SOL    HW136935   1.194   3.718   5.799 -0.5435 -0.4603 -0.3022
 8434SOL    HW236936   1.078   3.700   5.710 -1.8344  2.7107  0.4485
 8435SOL     OW36937   1.899   2.647   4.161  1.0742  0.4454  0.1236
 8435SOL    HW136938   1.849   2.565   4.160  0.2758  0.9149  1.4247
 8435SOL    HW236939   1.875   2.673   4.250 -0.9044  0.7425 -0.4899
 8436SOL     OW36940   4.329   1.345  17.114 -0.3031 -0.3223  0.0773
 8436SOL    HW136941   4.324   1.405  17.039 -0.0761 -0.4372 -0.0289
 8436SOL    HW236942   4.243   1.354  17.156 -0.5779  1.8621 -0.9159
 8437SOL     OW36943   1.259   0.333  12.540  0.2313  0.0861 -0.1678
 8437SOL    HW136944   1.317   0.363  12.610 -2.0290 -1.4169  2.3377
 8437SOL    HW236945   1.263   0.410  12.483  1.9529 -1.7873 -2.5341
 8438SOL     OW36946   3.075   2.772   2.680  0.4440 -0.5544 -0.4389
 8438SOL    HW136947   3.149   2.819   2.718  1.1316 -1.0151 -1.2215
 8438SOL    HW236948   3.069   2.813   2.594  0.1040  1.1292  0.3773
 8439SOL     OW36949   3.441   0.753   9.597  0.1155 -0.0281  0.0908
 8439SOL    HW136950   3.504   0.787   9.661  1.0976  0.0589 -0.9352
 8439SOL    HW236951   3.494   0.764   9.518  0.6950 -0.4247  0.4212
 8440SOL     OW36952   3.447   0.506   8.236 -0.0072 -0.3135  0.3894
 8440SOL    HW136953   3.493   0.461   8.306 -2.4068 -0.9514  1.5478
 8440SOL    HW236954   3.503   0.583   8.226 -0.5800  0.0764  0.1610
 8441SOL     OW36955   0.925   1.365   3.794  0.6260  0.1773 -0.0559
 8441SOL    HW136956   0.965   1.446   3.764  0.6102 -0.6750 -2.3991
 8441SOL    HW236957   0.984   1.340   3.865  1.4008 -0.0545 -0.7822
 8442SOL     OW36958   0.562   4.580   6.602  0.0670  0.8135  0.1666
 8442SOL    HW136959   0.519   4.646   6.656 -1.4667 -0.2294  0.2013
 8442SOL    HW236960   0.490   4.544   6.550  0.0087  0.8195  0.2436
 8443SOL     OW36961   4.508   0.140   4.899  0.8650  0.4994  0.3530
 8443SOL    HW136962   4.434   0.115   4.955  1.6382 -2.7186 -0.1178
 8443SOL    HW236963   4.560   0.061   4.891  0.2155 -0.1634  2.6923
 8444SOL     OW36964   0.438   4.449   8.003 -0.0720  0.2516  0.5460
 8444SOL    HW136965   0.512   4.468   8.061  1.0804 -0.0453 -0.8370
 8444SOL    HW236966   0.385   4.529   8.009 -0.6637 -0.1309  0.3336
 8445SOL     OW36967   4.338   0.853  15.397 -0.0538 -0.3654 -0.4395
 8445SOL    HW136968   4.349   0.905  15.476  3.9694 -1.3524 -0.3307
 8445SOL    HW236969   4.386   0.774  15.421 -0.4861 -0.5792 -0.2840
 8446SOL     OW36970   0.706   0.320  10.378 -0.1445  0.1031 -0.0230
 8446SOL    HW136971   0.614   0.300  10.392  0.0296 -1.1608 -0.6792
 8446SOL    HW236972   0.697   0.394  10.318  2.6543 -1.5607 -2.5621
 8447SOL     OW36973   0.613   0.752   7.083  0.0607  0.0076 -0.2736
 8447SOL    HW136974   0.590   0.842   7.107  1.4807  0.2515  0.1375
 8447SOL    HW236975   0.530   0.715   7.055 -0.5463  1.7949 -0.8731
 8448SOL     OW36976   2.452   0.117   4.316 -0.3500  0.0109  0.1322
 8448SOL    HW136977   2.481   0.206   4.300  1.4326 -0.4525  0.7429
 8448SOL    HW236978   2.368   0.119   4.270  0.6029  1.3425 -1.5135
 8449SOL     OW36979   0.116   1.099  13.617 -0.1780  0.1441 -0.7278
 8449SOL    HW136980   0.067   1.163  13.565 -0.6473  0.1806 -0.2433
 8449SOL    HW236981   0.134   1.153  13.694  0.4662 -2.6215  1.0530
 8450SOL     OW36982   2.428   0.190   3.554  0.4761  0.3113  0.0975
 8450SOL    HW136983   2.517   0.186   3.517  0.8914  0.6902  1.0719
 8450SOL    HW236984   2.415   0.100   3.584  2.8257  0.0346  0.2768
 8451SOL     OW36985   2.065   1.070   5.652 -0.6087 -0.2653 -0.5898
 8451SOL    HW136986   2.118   1.049   5.574 -0.7343  0.1531 -0.7862
 8451SOL    HW236987   2.094   0.999   5.710 -3.1059 -0.1221  0.8244
 8452SOL     OW36988   3.675   3.196  12.722 -0.2478 -0.8338  0.1139
 8452SOL    HW136989   3.674   3.237  12.808 -0.7713  1.5729 -1.0579
 8452SOL    HW236990   3.614   3.127  12.749 -0.8108  0.9715  3.3594
 8453SOL     OW36991   1.609   1.441   5.092  0.4562 -0.3060  0.1392
 8453SOL    HW136992   1.588   1.357   5.132 -1.2191  0.4248  0.7605
 8453SOL    HW236993   1.704   1.441   5.109  0.5037  0.1102 -0.1185
 8454SOL     OW36994   2.397   3.168  10.043 -0.2526  0.3558 -0.1799
 8454SOL    HW136995   2.391   3.168   9.947 -0.3944 -0.8648 -0.1641
 8454SOL    HW236996   2.489   3.196  10.051 -0.3220  0.4897  0.1408
 8455SOL     OW36997   1.010   4.629  11.977  0.2630  0.1880  0.0145
 8455SOL    HW136998   1.025   4.535  11.971 -1.1364  0.0379 -0.9201
 8455SOL    HW236999   1.073   4.660  12.042 -1.4788  1.7217  0.9799
 8456SOL     OW37000   0.379   4.129  17.321 -0.2322  0.3390 -0.3983
 8456SOL    HW137001   0.434   4.173  17.256  0.5716  1.6543  1.1775
 8456SOL    HW237002   0.323   4.072  17.268 -2.9364  1.3395  1.3482
 8457SOL     OW37003   2.016   0.053   1.427 -0.0570  0.6163 -0.0890
 8457SOL    HW137004   2.096   0.104   1.433 -0.7744  1.5028  1.8765
 8457SOL    HW237005   1.983   0.065   1.516  2.9107 -0.9901  1.2139
 8458SOL     OW37006   0.785   3.166   2.622 -0.6993  0.3229 -0.0371
 8458SOL    HW137007   0.806   3.240   2.566 -1.9880  1.4044  0.9155
 8458SOL    HW237008   0.857   3.106   2.603 -0.5864  0.3524  0.2925
 8459SOL     OW37009   0.000   2.119   7.607 -0.0980 -0.3065 -0.4269
 8459SOL    HW137010   4.727   2.199   7.556 -0.2801  0.5457  0.9740
 8459SOL    HW237011   0.086   2.093   7.574 -1.0802 -1.0252 -2.4592
 8460SOL     OW37012   2.257   3.672   3.807  0.0984 -0.4421 -0.0973
 8460SOL    HW137013   2.242   3.635   3.894 -0.4650  0.7142  0.2922
 8460SOL    HW237014   2.169   3.679   3.771 -0.6143 -0.9792  1.5486
 8461SOL     OW37015   4.218   1.102   4.322  0.4246  0.1134  0.2521
 8461SOL    HW137016   4.177   1.167   4.379 -0.8263 -1.7561  1.5051
 8461SOL    HW237017   4.192   1.150   4.244  2.4237 -0.7297 -0.9274
 8462SOL     OW37018   0.645   0.362   2.882 -0.7031  0.4602  0.2943
 8462SOL    HW137019   0.707   0.301   2.922 -1.3812 -0.1524  0.4183
 8462SOL    HW237020   0.698   0.394   2.810  0.2522  0.4315  0.9851
 8463SOL     OW37021   3.502   0.295   7.861 -0.0954 -0.4059  0.4428
 8463SOL    HW137022   3.594   0.268   7.863 -0.5721 -1.9781  1.1816
 8463SOL    HW237023   3.504   0.352   7.784  0.7251 -1.3390 -0.2151
 8464SOL     OW37024   4.130   0.353   7.521  0.5509  0.1408  0.0257
 8464SOL    HW137025   4.065   0.282   7.528 -0.3564  0.9036 -0.6174
 8464SOL    HW237026   4.163   0.335   7.433  4.0016  0.9705  1.1745
 8465SOL     OW37027   1.384   3.809  15.671  0.4401  0.0937  0.3922
 8465SOL    HW137028   1.428   3.830  15.753 -0.5460  0.6543  0.7793
 8465SOL    HW237029   1.420   3.722  15.652 -1.4077 -0.4198 -0.7672
 8466SOL     OW37030   3.931   1.053   3.618 -0.7151  0.5746  0.3270
 8466SOL    HW137031   4.006   1.001   3.589 -2.5592 -2.0141  0.1976
 8466SOL    HW237032   3.951   1.059   3.712  1.4018  1.2159 -0.1589
 8467SOL     OW37033   2.403   1.263   3.938  0.0267  0.2303 -0.9004
 8467SOL    HW137034   2.451   1.206   3.997 -1.5718  0.4107  0.5620
 8467SOL    HW237035   2.446   1.348   3.934 -2.8836  1.7208 -0.7316
 8468SOL     OW37036   4.672   1.278   2.378  0.1240  0.3855  0.3152
 8468SOL    HW137037   0.015   1.331   2.377 -0.0392  0.6135 -0.6201
 8468SOL    HW237038   4.635   1.292   2.291  0.3205  0.7115  0.2844
 8469SOL     OW37039   1.810   1.292  14.371  0.6410 -0.4165 -0.1827
 8469SOL    HW137040   1.775   1.265  14.286  2.4948  0.1331 -1.1249
 8469SOL    HW237041   1.827   1.385  14.356  0.1342  0.0610  2.3437
 8470SOL     OW37042   3.266   4.333   4.320  0.8164 -0.1392  0.5303
 8470SOL    HW137043   3.245   4.411   4.370 -1.0146 -0.3109  0.0397
 8470SOL    HW237044   3.259   4.361   4.228 -0.0459  0.8653  0.9067
 8471SOL     OW37045   4.539   3.825   1.720 -0.1134  0.7758  0.3596
 8471SOL    HW137046   4.524   3.890   1.650 -3.2992 -2.2307 -1.7560
 8471SOL    HW237047   4.633   3.842   1.725  0.4839 -1.6841 -2.3940
 8472SOL     OW37048   1.237   4.129   7.964  0.1602 -0.3082  0.2687
 8472SOL    HW137049   1.226   4.064   7.895  0.0360  1.6547 -1.5393
 8472SOL    HW237050   1.203   4.204   7.916  1.0639 -0.9471 -1.3864
 8473SOL     OW37051   3.009   1.291  11.670 -0.1737 -0.2894 -0.6402
 8473SOL    HW137052   3.015   1.355  11.741  0.2331 -1.7492  0.6399
 8473SOL    HW237053   2.914   1.287  11.660 -0.2574 -1.7443  0.6822
 8474SOL     OW37054   3.860   1.628   7.605 -0.6877 -0.5465 -0.0473
 8474SOL    HW137055   3.891   1.701   7.551  0.6806  0.4317  2.0397
 8474SOL    HW237056   3.808   1.677   7.669 -0.3781 -0.0297 -0.1858
 8475SOL     OW37057   2.380   4.013  15.024 -0.5364 -0.0860 -0.3716
 8475SOL    HW137058   2.385   4.096  15.070  2.5852 -0.6492  0.3141
 8475SOL    HW237059   2.411   4.044  14.939  1.1616  0.5523  0.4819
 8476SOL     OW37060   3.287   3.747   3.129 -1.0259 -0.4037 -0.1463
 8476SOL    HW137061   3.197   3.780   3.129 -0.4894  1.1078 -3.0908
 8476SOL    HW237062   3.332   3.820   3.170 -1.8595  0.5545 -0.9139
 8477SOL     OW37063   1.454   3.499   8.306  0.5959 -0.0059  0.2433
 8477SOL    HW137064   1.499   3.577   8.274 -0.5610  0.3341 -0.5495
 8477SOL    HW237065   1.526   3.438   8.323  0.1852 -0.3756  0.6634
 8478SOL     OW37066   4.418   1.291   3.139  0.0920 -0.3073  0.2569
 8478SOL    HW137067   4.500   1.337   3.124 -0.0939  0.1694  0.6780
 8478SOL    HW237068   4.448   1.223   3.200  3.0729  1.8621  1.2256
 8479SOL     OW37069   2.234   2.137  11.238  0.0472 -0.0852 -0.0639
 8479SOL    HW137070   2.309   2.093  11.277 -1.4199 -0.0698  2.8146
 8479SOL    HW237071   2.234   2.212  11.298  0.8190  1.0346 -1.4668
 8480SOL     OW37072   0.662   2.610   7.467  0.3483  0.1692  0.4453
 8480SOL    HW137073   0.631   2.622   7.377  0.0832 -1.0956  0.3635
 8480SOL    HW237074   0.612   2.535   7.500  1.0592 -0.6179 -0.2547
 8481SOL     OW37075   0.619   0.687  15.519 -0.3623 -0.3452  0.5604
 8481SOL    HW137076   0.646   0.699  15.611 -0.0001 -0.9945  0.5435
 8481SOL    HW237077   0.696   0.724  15.474 -0.2018 -1.9372 -0.4677
 8482SOL     OW37078   0.623   4.603  16.309 -0.2871 -0.1592  0.3811
 8482SOL    HW137079   0.535   4.617  16.342 -0.2909  0.5343  0.0664
 8482SOL    HW237080   0.602   4.555  16.229 -1.3218 -0.2367  0.6965
 8483SOL     OW37081   0.112   1.417  12.382  0.0120  0.2222 -0.2443
 8483SOL    HW137082   0.132   1.511  12.383  1.3565 -0.0662  0.4322
 8483SOL    HW237083   0.200   1.382  12.365  0.4025  0.9617  0.2495
 8484SOL     OW37084   2.845   0.690  15.870  0.2117 -0.6957 -0.0783
 8484SOL    HW137085   2.876   0.619  15.926 -2.3865 -1.3652  0.5270
 8484SOL    HW237086   2.924   0.743  15.865 -0.6242  0.5347 -0.0743
 8485SOL     OW37087   4.594   3.027   8.530 -0.5077  0.7142 -0.4455
 8485SOL    HW137088   4.670   2.984   8.490 -1.5705 -1.1724 -0.4421
 8485SOL    HW237089   4.627   3.116   8.530  0.0874  0.4976  2.8278
 8486SOL     OW37090   1.461   0.238   6.637 -0.0650 -0.0039 -0.6728
 8486SOL    HW137091   1.450   0.332   6.653 -2.3743 -0.1945 -1.1316
 8486SOL    HW237092   1.533   0.234   6.574  1.5482  2.7892  0.9497
 8487SOL     OW37093   2.191   4.189  15.364 -0.3815  0.0023 -0.4227
 8487SOL    HW137094   2.133   4.241  15.308 -0.9598 -3.1364 -2.7429
 8487SOL    HW237095   2.262   4.184  15.299 -0.6110 -0.7449 -0.6183
 8488SOL     OW37096   3.766   1.347   8.689 -0.0360 -0.1800 -0.0254
 8488SOL    HW137097   3.756   1.278   8.754  0.8954 -0.9476 -0.6883
 8488SOL    HW237098   3.791   1.421   8.745 -2.6278  1.5118 -1.0823
 8489SOL     OW37099   2.630   3.879   2.731  0.5648  0.3232  0.1957
 8489SOL    HW137100   2.705   3.820   2.726  0.6295  0.1525  2.9843
 8489SOL    HW237101   2.569   3.841   2.668  1.1671 -1.5287  0.7178
 8490SOL     OW37102   2.281   2.467   9.206  0.1955  0.6881  0.7136
 8490SOL    HW137103   2.267   2.555   9.170 -0.0395 -0.3020 -1.6334
 8490SOL    HW237104   2.366   2.470   9.250  0.0049 -1.3736  1.1983
 8491SOL     OW37105   4.305   0.461   1.260 -0.6566 -0.0870  0.7323
 8491SOL    HW137106   4.226   0.461   1.313 -0.9100  0.1045  0.3614
 8491SOL    HW237107   4.369   0.434   1.326  1.0683  0.4422 -0.7145
 8492SOL     OW37108   3.470   3.585   5.316  0.4979 -0.0735  0.7084
 8492SOL    HW137109   3.432   3.529   5.248  0.9498  0.5542 -0.0637
 8492SOL    HW237110   3.475   3.667   5.266  1.5741 -0.2309  0.5544
 8493SOL     OW37111   3.453   2.670   4.470  0.1794  0.5725  0.0105
 8493SOL    HW137112   3.384   2.729   4.499 -0.5514 -0.1895 -0.1756
 8493SOL    HW237113   3.446   2.592   4.525 -0.2614  1.4265  1.1699
 8494SOL     OW37114   2.681   3.571   2.587  0.0855 -0.8674 -0.6136
 8494SOL    HW137115   2.680   3.479   2.560 -0.2475 -0.9772 -0.2244
 8494SOL    HW237116   2.589   3.591   2.570  0.3198  0.6328 -0.0988
 8495SOL     OW37117   3.057   3.549   4.475 -0.1496 -0.1054 -0.5010
 8495SOL    HW137118   3.002   3.626   4.492 -2.4208 -2.3384  2.3692
 8495SOL    HW237119   2.984   3.505   4.432 -0.7333  1.0195 -0.6508
 8496SOL     OW37120   0.094   0.048  15.147  0.6655  0.5551 -0.0093
 8496SOL    HW137121   4.736   0.043  15.162  0.9609  0.3394  1.8700
 8496SOL    HW237122   0.099   0.142  15.130 -1.4568  0.7523  0.4054
 8497SOL     OW37123   3.657   2.018   0.725  0.2037 -0.4384  0.2740
 8497SOL    HW137124   3.743   2.050   0.697  0.2516 -0.6898  0.1377
 8497SOL    HW237125   3.625   2.103   0.756 -0.0805 -0.6110  0.4476
 8498SOL     OW37126   3.522   4.107   2.353 -0.5042 -0.1390 -0.5288
 8498SOL    HW137127   3.461   4.066   2.292 -1.3548 -0.8683  0.7903
 8498SOL    HW237128   3.602   4.123   2.303 -2.4416  2.0290 -2.9249
 8499SOL     OW37129   1.372   2.176   4.556  0.6294  0.2723  0.1525
 8499SOL    HW137130   1.384   2.239   4.627 -2.5511 -0.6793  1.5183
 8499SOL    HW237131   1.280   2.189   4.535 -0.1990 -3.9232  1.0975
 8500SOL     OW37132   3.833   1.133   5.988 -0.1115 -0.3520  0.1045
 8500SOL    HW137133   3.890   1.207   6.012 -0.8143  0.5982 -1.1307
 8500SOL    HW237134   3.757   1.142   6.046  1.0309 -0.0089  1.5463
 8501SOL     OW37135   2.983   4.491   5.707  0.2736 -0.1667 -0.2612
 8501SOL    HW137136   3.041   4.488   5.783  1.5160  2.1997 -1.1218
 8501SOL    HW237137   2.957   4.399   5.716 -1.0204 -0.0347 -2.6455
 8502SOL     OW37138   2.308   1.373   9.132  0.7072  0.2677  0.1733
 8502SOL    HW137139   2.363   1.295   9.127 -0.0446 -0.3377  1.6038
 8502SOL    HW237140   2.321   1.412   9.045 -0.1922 -1.1694 -0.5960
 8503SOL     OW37141   4.101   1.579   6.007  0.1103 -0.0145 -0.1968
 8503SOL    HW137142   4.196   1.593   6.016  0.3827 -0.7570 -1.9926
 8503SOL    HW237143   4.070   1.669   6.019 -2.4801 -1.2323  2.2662
 8504SOL     OW37144   2.215   3.218   7.377  0.0391  0.0190  0.3262
 8504SOL    HW137145   2.244   3.308   7.392 -3.3403  1.1524 -0.0000
 8504SOL    HW237146   2.274   3.188   7.308  0.5084  1.2338  0.1936
 8505SOL     OW37147   4.319   1.267   7.740  0.2765  0.4565  0.1196
 8505SOL    HW137148   4.265   1.238   7.814 -1.6700  1.0044 -1.0968
 8505SOL    HW237149   4.400   1.234   7.778 -0.7923 -2.8163 -0.3827
 8506SOL     OW37150   2.701   1.179   8.142  0.1296  0.4117  0.3069
 8506SOL    HW137151   2.664   1.108   8.091 -1.4601  0.1971  1.7944
 8506SOL    HW237152   2.672   1.253   8.088 -0.3336 -0.4991 -0.6813
 8507SOL     OW37153   3.149   4.693   9.110 -0.1407 -0.1432  0.3413
 8507SOL    HW137154   3.103   4.681   9.027 -0.2029  1.0935  0.2040
 8507SOL    HW237155   3.154   4.609   9.155  2.8735 -0.2517 -0.1510
 8508SOL     OW37156   4.211   1.541   6.433  0.0376 -0.2732  0.5855
 8508SOL    HW137157   4.234   1.484   6.359 -1.5102 -2.6359  1.9164
 8508SOL    HW237158   4.297   1.579   6.450  0.6634 -0.3706 -2.3689
 8509SOL     OW37159   0.268   4.029   4.403 -0.3791 -0.4804  0.2014
 8509SOL    HW137160   0.258   4.091   4.475 -1.0903 -0.1781 -0.1549
 8509SOL    HW237161   0.177   4.042   4.375 -0.6259 -0.6775  0.9332
 8510SOL     OW37162   4.339   3.788  15.173  0.2828  0.8504  0.0812
 8510SOL    HW137163   4.428   3.765  15.199  1.0093  2.5082 -0.9106
 8510SOL    HW237164   4.360   3.877  15.142  2.8132 -0.1613 -1.1337
 8511SOL     OW37165   3.695   0.243   3.563 -0.8844  0.2830 -0.4336
 8511SOL    HW137166   3.754   0.281   3.628 -0.6358 -1.2392  0.2455
 8511SOL    HW237167   3.690   0.310   3.496 -1.6866  0.1762 -0.4734
 8512SOL     OW37168   0.753   2.340  12.898 -0.2463  0.2409  0.5495
 8512SOL    HW137169   0.783   2.253  12.870 -2.0218  0.1501 -1.0736
 8512SOL    HW237170   0.684   2.359  12.834  0.0902 -1.6609 -0.3696
 8513SOL     OW37171   3.277   0.570   6.966  0.5355 -0.2230 -0.2453
 8513SOL    HW137172   3.288   0.548   6.873  0.7626 -0.9532 -0.0496
 8513SOL    HW237173   3.206   0.633   6.958 -1.2178 -2.1871 -0.1076
 8514SOL     OW37174   1.964   3.281   3.893 -0.3300  0.4362 -0.6377
 8514SOL    HW137175   2.001   3.358   3.937 -0.8496  0.3495 -0.0453
 8514SOL    HW237176   2.044   3.237   3.864 -1.3664 -2.7025  1.2565
 8515SOL     OW37177   3.188   2.212   3.362  0.2802  0.1542 -0.2110
 8515SOL    HW137178   3.254   2.197   3.295 -2.0314 -1.0995 -2.2015
 8515SOL    HW237179   3.139   2.130   3.359 -0.5053  0.5858  0.6936
 8516SOL     OW37180   0.621   2.940   6.846 -0.5531  0.1291  0.3184
 8516SOL    HW137181   0.575   2.865   6.884 -0.7029  0.1079  0.0968
 8516SOL    HW237182   0.643   2.902   6.761  1.0032  0.9184  0.3667
 8517SOL     OW37183   0.385   0.640   1.173 -0.4333 -0.4936 -0.3878
 8517SOL    HW137184   0.415   0.562   1.221 -0.8941 -0.5872 -0.2542
 8517SOL    HW237185   0.470   0.683   1.162 -1.4230  1.0816 -1.9212
 8518SOL     OW37186   4.438   1.707   7.699  0.0082  0.2988 -0.1685
 8518SOL    HW137187   4.459   1.795   7.669 -0.1995  0.2747 -0.3861
 8518SOL    HW237188   4.349   1.730   7.729 -0.2368 -0.2733 -0.4718
 8519SOL     OW37189   3.961   0.739   4.997  0.0217 -0.1107  0.3568
 8519SOL    HW137190   3.966   0.662   4.941  0.0418  0.0146  0.1872
 8519SOL    HW237191   3.910   0.702   5.069  0.6783  0.4040  1.0852
 8520SOL     OW37192   3.028   0.732   2.846  0.2634  0.0952  0.4830
 8520SOL    HW137193   2.990   0.774   2.769  1.3458 -1.0066 -0.6637
 8520SOL    HW237194   3.041   0.815   2.890  3.2022  0.3783 -0.9504
 8521SOL     OW37195   2.013   1.650   9.172 -0.2803  0.4797  0.0370
 8521SOL    HW137196   1.951   1.718   9.149 -1.6227 -0.8422 -0.2138
 8521SOL    HW237197   2.052   1.694   9.247  1.9782 -1.2437 -0.1055
 8522SOL     OW37198   2.279   1.165  14.014 -0.4641 -0.9343  0.1826
 8522SOL    HW137199   2.340   1.092  14.006  1.2676  0.7220 -1.8121
 8522SOL    HW237200   2.254   1.149  14.105 -1.5259 -0.4842 -0.0316
 8523SOL     OW37201   1.237   3.102   3.561 -0.1690  0.1657 -0.2179
 8523SOL    HW137202   1.330   3.094   3.580 -0.5269 -0.7892  1.1315
 8523SOL    HW237203   1.199   3.093   3.648 -0.8394 -0.0892 -0.5310
 8524SOL     OW37204   4.371   1.270   1.730  0.0187  0.8436  0.1748
 8524SOL    HW137205   4.449   1.256   1.677 -0.0562 -1.7955  0.7497
 8524SOL    HW237206   4.328   1.188   1.705  0.8476  0.9124 -1.4940
 8525SOL     OW37207   1.642   3.203   2.956  0.0499  0.5760 -0.3159
 8525SOL    HW137208   1.683   3.129   3.000 -0.3469 -0.5150 -1.7633
 8525SOL    HW237209   1.585   3.234   3.027 -2.3219 -0.9603 -1.5435
 8526SOL     OW37210   1.293   4.388   3.989 -0.4546 -1.0983 -0.5585
 8526SOL    HW137211   1.270   4.481   3.999  1.7087 -0.6584  0.2614
 8526SOL    HW237212   1.224   4.356   3.930  0.2121 -0.3995 -1.7033
 8527SOL     OW37213   3.920   0.229  17.008 -0.0882 -0.2001 -0.1080
 8527SOL    HW137214   3.911   0.263  17.097 -1.5659 -0.2728 -0.2423
 8527SOL    HW237215   4.016   0.237  17.002  0.0688 -0.6696  1.9089
 8528SOL     OW37216   2.869   1.039   2.409 -0.2322  0.6819  0.1182
 8528SOL    HW137217   2.777   1.013   2.423 -0.1019  0.3864  0.4297
 8528SOL    HW237218   2.859   1.134   2.401  2.2311  0.9364  0.2703
 8529SOL     OW37219   1.803   4.351   1.895  0.4361  0.1368  0.2596
 8529SOL    HW137220   1.758   4.407   1.958 -0.7713  1.1688 -1.5629
 8529SOL    HW237221   1.849   4.290   1.954  1.5425 -1.8863 -2.6924
 8530SOL     OW37222   4.133   4.578   5.995  0.5766  0.6793 -0.7636
 8530SOL    HW137223   4.191   4.648   5.966  2.3936 -0.0068  1.1601
 8530SOL    HW237224   4.184   4.504   5.963  0.4679  0.6844 -0.9486
 8531SOL     OW37225   0.526   0.841   5.619  0.0304  0.0482 -0.1369
 8531SOL    HW137226   0.460   0.824   5.551 -0.1102 -0.8691  0.2296
 8531SOL    HW237227   0.528   0.756   5.662  2.0117 -0.7700 -1.8313
 8532SOL     OW37228   1.618   0.176   9.199  0.6609 -0.2424  0.0195
 8532SOL    HW137229   1.654   0.097   9.159  3.9878  1.9923 -1.3968
 8532SOL    HW237230   1.696   0.231   9.202  1.5544 -1.5392  0.5949
 8533SOL     OW37231   0.407   0.947   0.596 -0.3898 -0.0118 -0.4063
 8533SOL    HW137232   0.388   1.041   0.605 -0.1807 -0.1528  1.4213
 8533SOL    HW237233   0.326   0.899   0.583  0.1107 -1.1549  0.7748
 8534SOL     OW37234   0.424   1.739   2.715 -0.4739  0.2827 -0.7004
 8534SOL    HW137235   0.354   1.796   2.684 -1.0098 -1.4644 -2.6961
 8534SOL    HW237236   0.463   1.715   2.631  0.1005  0.0678 -0.3727
 8535SOL     OW37237   1.822   3.965  12.087  0.5136  0.1133 -0.0236
 8535SOL    HW137238   1.897   3.959  12.027  0.2793  2.0593 -0.5113
 8535SOL    HW237239   1.786   3.877  12.080 -1.3497  1.0573 -2.2878
 8536SOL     OW37240   1.556   0.645  13.724  0.9507  0.3980  0.2176
 8536SOL    HW137241   1.624   0.667  13.787 -0.1574  3.3372  0.3615
 8536SOL    HW237242   1.480   0.699  13.748 -1.2582 -1.8003 -1.7583
 8537SOL     OW37243   3.449   1.251   5.696 -0.8554  0.3016 -0.7779
 8537SOL    HW137244   3.443   1.185   5.627  1.0944 -2.4454  1.6388
 8537SOL    HW237245   3.381   1.219   5.756 -1.9565  1.4200 -1.4339
 8538SOL     OW37246   4.699   4.105   7.065 -0.2003  0.4796 -0.5311
 8538SOL    HW137247   4.667   4.020   7.096  1.9368 -0.9045 -2.1045
 8538SOL    HW237248   4.667   4.161   7.135 -1.2467 -1.5024  0.6024
 8539SOL     OW37249   4.702   2.175   5.994  0.4927  0.1639  0.2981
 8539SOL    HW137250   0.031   2.233   6.031 -0.2074  2.5357 -2.1416
 8539SOL    HW237251   0.014   2.138   5.921 -2.4295 -0.6643 -1.2419
 8540SOL     OW37252   0.497   1.412   6.369  0.1849 -0.2297 -0.1586
 8540SOL    HW137253   0.465   1.363   6.293 -1.3667  0.6739 -0.0866
 8540SOL    HW237254   0.589   1.422   6.343  0.5494 -3.0142  0.0786
 8541SOL     OW37255   4.167   3.907   7.776 -0.1011 -0.0257 -0.5368
 8541SOL    HW137256   4.187   3.906   7.870 -1.3886 -1.8833 -0.2643
 8541SOL    HW237257   4.190   3.820   7.742  0.0668  0.8849 -2.7346
 8542SOL     OW37258   1.399   0.709   1.953  0.4003 -0.3539  0.1703
 8542SOL    HW137259   1.360   0.770   1.891 -2.2975 -0.2778  1.9155
 8542SOL    HW237260   1.398   0.633   1.895  1.4075  0.3374 -0.7334
 8543SOL     OW37261   0.641   0.588  14.348  0.4972 -0.6007  0.4417
 8543SOL    HW137262   0.572   0.523  14.333  0.7555 -1.1001  1.3634
 8543SOL    HW237263   0.704   0.538  14.400  1.2540  0.8522  0.9334
 8544SOL     OW37264   1.539   2.840   6.074 -0.2376  0.3045  0.6621
 8544SOL    HW137265   1.485   2.820   5.998  1.3436  0.6877 -0.5637
 8544SOL    HW237266   1.589   2.911   6.035 -0.8398  0.1282 -0.4108
 8545SOL     OW37267   3.394   0.881   5.600  0.1647  0.1200 -0.1055
 8545SOL    HW137268   3.433   0.799   5.571  0.7849  0.1897  0.5317
 8545SOL    HW237269   3.413   0.937   5.525  1.5288  2.2074  1.7780
 8546SOL     OW37270   3.650   1.906  17.585  0.1843 -0.0770  0.6540
 8546SOL    HW137271   3.677   1.880  17.673  2.0966  3.5719  1.1304
 8546SOL    HW237272   3.714   1.852  17.539 -0.0398  2.1619 -2.3198
 8547SOL     OW37273   2.743   4.192   7.829 -0.4754 -0.0256  0.0303
 8547SOL    HW137274   2.808   4.150   7.886 -0.2935 -0.0268 -0.1798
 8547SOL    HW237275   2.658   4.163   7.861  0.0862 -0.5898  1.0254
 8548SOL     OW37276   3.959   1.352   6.071 -0.1745 -0.1962  0.1355
 8548SOL    HW137277   4.018   1.335   6.145  0.7157  1.5644 -0.1533
 8548SOL    HW237278   4.010   1.422   6.029  0.5604 -1.2991 -0.7887
 8549SOL     OW37279   3.064   1.028   7.285 -0.2928 -0.2269 -0.2454
 8549SOL    HW137280   3.049   1.040   7.191 -0.1384 -0.3727 -0.2897
 8549SOL    HW237281   3.159   1.013   7.287 -0.6792 -2.6438 -0.7110
 8550SOL     OW37282   3.318   1.920   1.368  0.2902 -0.0384 -0.0069
 8550SOL    HW137283   3.315   1.877   1.454  0.0518 -1.1369 -0.5650
 8550SOL    HW237284   3.407   1.904   1.335 -0.5543 -0.6945 -1.9410
 8551SOL     OW37285   2.468   4.092  10.033 -0.0349 -0.3786  0.4771
 8551SOL    HW137286   2.499   4.144   9.958 -2.3931  2.0709  1.2250
 8551SOL    HW237287   2.386   4.141  10.039  0.1013 -0.1253  0.2469
 8552SOL     OW37288   1.895   0.380   2.585  0.0053  0.3165  0.0068
 8552SOL    HW137289   1.880   0.355   2.676 -1.4899 -0.5158 -0.4727
 8552SOL    HW237290   1.921   0.294   2.553 -0.9066  0.4794 -1.1576
 8553SOL     OW37291   4.149   2.472   8.790 -0.3129 -0.3103  0.6576
 8553SOL    HW137292   4.061   2.491   8.822  0.5488  2.3215  1.5033
 8553SOL    HW237293   4.133   2.493   8.698  0.7288  2.9797  1.2254
 8554SOL     OW37294   3.374   2.065   2.190 -0.5904  0.5410  0.1684
 8554SOL    HW137295   3.322   2.143   2.208  0.5637  1.8618 -2.3420
 8554SOL    HW237296   3.353   2.010   2.266  2.1667 -1.3300 -0.4436
 8555SOL     OW37297   1.017   3.640   4.277  0.2162 -0.1708  0.3452
 8555SOL    HW137298   1.094   3.613   4.328  1.5453 -1.1251 -2.2003
 8555SOL    HW237299   0.942   3.602   4.322 -0.9203  0.2673 -1.1712
 8556SOL     OW37300   2.594   2.900   8.451  0.0508 -0.2540 -0.8674
 8556SOL    HW137301   2.573   2.916   8.544 -2.8742  1.2633 -1.7931
 8556SOL    HW237302   2.567   2.809   8.450 -0.5903 -0.0682 -0.4958
 8557SOL     OW37303   4.571   2.690   4.622 -0.2295  0.1487 -0.1567
 8557SOL    HW137304   4.619   2.756   4.571  0.5023  0.6498  1.1894
 8557SOL    HW237305   4.648   2.643   4.653 -0.8483  0.6134  2.0714
 8558SOL     OW37306   0.454   3.081   3.039  0.0943 -0.2685  0.1961
 8558SOL    HW137307   0.503   2.999   3.035 -0.1222 -0.3358 -0.9744
 8558SOL    HW237308   0.423   3.086   3.130  0.6044  0.3932  0.3359
 8559SOL     OW37309   3.485   1.157   4.526 -0.3474  0.4838 -0.6106
 8559SOL    HW137310   3.554   1.219   4.547  1.3725 -1.6366  0.0491
 8559SOL    HW237311   3.441   1.197   4.451 -3.7231 -1.9508  0.0172
 8560SOL     OW37312   2.572   3.483   1.010 -0.1574  0.3227 -0.0520
 8560SOL    HW137313   2.569   3.394   1.044 -2.1261  0.1443 -0.6428
 8560SOL    HW237314   2.487   3.493   0.966 -0.3876 -0.6765  0.1821
 8561SOL     OW37315   2.986   2.217   1.425 -0.7362 -0.0951  0.4452
 8561SOL    HW137316   3.079   2.236   1.408 -0.4459 -0.0483  2.0387
 8561SOL    HW237317   3.001   2.135   1.471  2.9860 -0.0853 -0.7699
 8562SOL     OW37318   0.069   0.908   4.180 -0.3259  0.9677  0.3903
 8562SOL    HW137319   0.049   0.995   4.146 -1.0089  0.6863  0.0649
 8562SOL    HW237320   0.157   0.894   4.144  0.1929  3.0000  0.9094
 8563SOL     OW37321   3.194   2.971   9.485 -0.4374  0.0885 -0.2132
 8563SOL    HW137322   3.150   2.931   9.559 -0.2386 -0.0541 -0.1731
 8563SOL    HW237323   3.237   3.051   9.515 -0.7974  0.0700  0.3475
 8564SOL     OW37324   0.369   2.236   5.560 -0.0799  0.0352  0.0180
 8564SOL    HW137325   0.380   2.314   5.505 -0.7069 -0.2635 -0.5252
 8564SOL    HW237326   0.454   2.212   5.598 -0.7135 -0.2727  1.2290
 8565SOL     OW37327   3.156   0.573   8.293  0.4649  0.1364 -0.2566
 8565SOL    HW137328   3.155   0.617   8.208 -0.8938 -1.0188 -0.8285
 8565SOL    HW237329   3.238   0.525   8.281  1.0029  0.8396  0.6065
 8566SOL     OW37330   3.834   1.738   8.667 -0.0455 -0.0617 -0.0913
 8566SOL    HW137331   3.830   1.698   8.580 -1.4443  2.5592 -1.2408
 8566SOL    HW237332   3.834   1.667   8.731  0.2899  0.7345  0.7861
 8567SOL     OW37333   1.907   3.663   7.863  0.1454 -0.3376  0.1788
 8567SOL    HW137334   1.919   3.687   7.771 -1.1212 -2.8585 -0.6492
 8567SOL    HW237335   1.854   3.739   7.886  0.0937 -0.5617  0.8143
 8568SOL     OW37336   2.630   1.578   8.294  0.8688 -0.8805 -0.5105
 8568SOL    HW137337   2.633   1.640   8.221  1.2930  1.5649  1.5901
 8568SOL    HW237338   2.683   1.504   8.265  1.2788 -0.9965  0.5382
 8569SOL     OW37339   2.866   1.818  15.044 -0.0218 -0.3390  0.2650
 8569SOL    HW137340   2.939   1.878  15.059  1.6144 -1.9786 -1.0196
 8569SOL    HW237341   2.818   1.814  15.126 -0.7767 -1.6584 -0.2440
 8570SOL     OW37342   2.835   4.006   4.495 -0.1154 -0.3134 -0.8946
 8570SOL    HW137343   2.798   4.011   4.583  1.8101  1.5172 -0.1761
 8570SOL    HW237344   2.859   4.099   4.496  0.7814 -0.5804  0.9760
 8571SOL     OW37345   2.187   2.680   4.225 -0.0656 -0.4033  0.3017
 8571SOL    HW137346   2.110   2.635   4.190  0.8554 -1.4279 -0.4055
 8571SOL    HW237347   2.161   2.765   4.259  0.2825 -0.3326  0.3970
 8572SOL     OW37348   3.675   4.270   4.377 -0.2251  0.3138  0.4147
 8572SOL    HW137349   3.622   4.347   4.357 -0.7091  0.4507  2.2662
 8572SOL    HW237350   3.759   4.281   4.333 -1.0544  0.1242 -1.2187
 8573SOL     OW37351   2.451   3.441  12.780  0.5656 -0.0061  0.8303
 8573SOL    HW137352   2.363   3.476  12.798 -0.6311 -2.8279  0.4813
 8573SOL    HW237353   2.456   3.455  12.686  3.8767 -1.7170  0.7652
 8574SOL     OW37354   2.385   2.748   7.317  0.0099  0.7228 -0.0937
 8574SOL    HW137355   2.387   2.792   7.232 -0.0409  1.1183  0.1094
 8574SOL    HW237356   2.469   2.702   7.314  0.8601  2.3260 -0.8776
 8575SOL     OW37357   4.437   1.323   5.392 -0.2774  0.1856 -0.3794
 8575SOL    HW137358   4.495   1.288   5.459  0.2785 -1.0787 -1.5129
 8575SOL    HW237359   4.458   1.415   5.410 -2.3284  0.5680  0.1261
 8576SOL     OW37360   2.971   4.291   1.966  0.2892 -0.4253 -0.6342
 8576SOL    HW137361   2.988   4.385   1.973 -1.3203 -0.0547 -1.6634
 8576SOL    HW237362   3.034   4.259   1.901  0.3499 -0.3706 -0.6018
 8577SOL     OW37363   1.871   1.376   5.895  0.4840 -0.1433 -0.0603
 8577SOL    HW137364   1.804   1.401   5.832  0.4231 -1.1095 -0.3915
 8577SOL    HW237365   1.837   1.418   5.974 -1.4885 -2.0273  0.1215
 8578SOL     OW37366   0.374   2.507   9.083 -0.1641  0.0138  0.3788
 8578SOL    HW137367   0.334   2.489   9.168 -0.6968 -2.0450 -0.2903
 8578SOL    HW237368   0.405   2.424   9.046 -2.4085 -0.6484  0.0014
 8579SOL     OW37369   0.999   1.315   9.161  0.0906 -0.4800  0.3018
 8579SOL    HW137370   1.024   1.229   9.127  1.3738  0.5706 -1.4292
 8579SOL    HW237371   1.004   1.382   9.093 -3.0414  0.4611  1.0372
 8580SOL     OW37372   0.428   4.578   5.915 -0.3238 -0.5948 -0.0841
 8580SOL    HW137373   0.466   4.501   5.959  1.9259  1.1096  0.9840
 8580SOL    HW237374   0.404   4.533   5.834  1.6915 -1.2315 -0.3315
 8581SOL     OW37375   2.168   3.122   8.304  0.0707  0.0690  0.0826
 8581SOL    HW137376   2.143   3.134   8.212  0.9905 -0.7837 -0.2875
 8581SOL    HW237377   2.260   3.097   8.290  0.3134  0.0583  1.7595
 8582SOL     OW37378   2.408   4.114  10.753  0.6626 -0.4472  0.0785
 8582SOL    HW137379   2.377   4.052  10.819  0.5907 -0.5201 -0.0230
 8582SOL    HW237380   2.459   4.172  10.809  1.4692 -1.1189  0.0424
 8583SOL     OW37381   3.540   1.365   3.722  0.4143  0.1079 -0.3008
 8583SOL    HW137382   3.481   1.298   3.688 -0.1238  1.0016 -1.1110
 8583SOL    HW237383   3.624   1.341   3.682  0.0268  0.2092 -1.1587
 8584SOL     OW37384   3.684   3.621   4.685  0.2096 -0.0475 -0.2501
 8584SOL    HW137385   3.640   3.605   4.601 -1.6318 -0.5966  0.8353
 8584SOL    HW237386   3.672   3.716   4.686  0.9195  0.0286  1.0650
 8585SOL     OW37387   3.058   0.394   6.391 -0.2486  0.4655 -0.1597
 8585SOL    HW137388   3.085   0.313   6.435 -0.8154  0.7786  0.7623
 8585SOL    HW237389   3.131   0.405   6.330  0.4851 -2.7943  0.1319
 8586SOL     OW37390   4.724   1.597   8.705 -0.8099 -0.7563 -0.0189
 8586SOL    HW137391   4.634   1.611   8.734 -1.2851 -0.3845 -1.7081
 8586SOL    HW237392   0.007   1.509   8.737 -0.6449 -1.4616 -2.0731
 8587SOL     OW37393   4.152   1.991   6.794  0.0135  0.0935 -0.2603
 8587SOL    HW137394   4.168   2.085   6.795 -1.7699  0.3736  0.7039
 8587SOL    HW237395   4.224   1.968   6.735 -1.0580  0.1436 -1.6104
 8588SOL     OW37396   2.609   1.669   6.285  0.0872  0.0164  0.4413
 8588SOL    HW137397   2.636   1.590   6.331 -1.0505 -0.2326  0.6847
 8588SOL    HW237398   2.655   1.655   6.203  1.4520 -0.4329  1.2942
 8589SOL     OW37399   3.427   4.243   1.072 -0.0926  0.0394  0.4588
 8589SOL    HW137400   3.416   4.155   1.036 -0.4027  0.4888 -0.5453
 8589SOL    HW237401   3.338   4.277   1.068 -0.3697 -0.8150 -0.4896
 8590SOL     OW37402   2.043   4.368   0.633  0.5456  0.2491  0.2732
 8590SOL    HW137403   2.065   4.290   0.684  2.8542  0.9713  0.4054
 8590SOL    HW237404   2.028   4.436   0.698 -0.2585 -0.6525  1.0172
 8591SOL     OW37405   2.705   3.145  11.516  0.1701 -0.1469  0.2172
 8591SOL    HW137406   2.736   3.231  11.545  0.6477  0.7717 -2.9815
 8591SOL    HW237407   2.773   3.102  11.464  2.5177  0.5500  2.7317
 8592SOL     OW37408   2.443   1.827   7.018  0.3067 -0.5946 -0.2056
 8592SOL    HW137409   2.347   1.828   7.015  0.1964 -0.1404  3.7420
 8592SOL    HW237410   2.467   1.745   7.060  1.0351  0.0938  0.7176
 8593SOL     OW37411   3.523   2.505  15.719  0.5705  0.3630 -0.1930
 8593SOL    HW137412   3.501   2.457  15.800  0.0785  1.2831  0.2183
 8593SOL    HW237413   3.617   2.517  15.719  0.6703 -0.3957 -2.3351
 8594SOL     OW37414   2.627   0.307   7.445 -0.4553 -0.1620 -0.1577
 8594SOL    HW137415   2.701   0.335   7.499  0.9854 -0.8397 -1.7763
 8594SOL    HW237416   2.555   0.368   7.459 -1.0837 -1.4608  2.1834
 8595SOL     OW37417   3.276   4.241  15.827  0.1011 -0.1091 -0.2556
 8595SOL    HW137418   3.219   4.248  15.751  0.2009  2.4804 -0.0902
 8595SOL    HW237419   3.356   4.283  15.798 -0.0699 -1.2206 -2.3431
 8596SOL     OW37420   3.203   3.533   5.510 -0.0258 -0.0338  0.0130
 8596SOL    HW137421   3.275   3.553   5.450 -0.1988  1.6210  0.3546
 8596SOL    HW237422   3.139   3.596   5.478 -1.4083 -0.9014  1.0499
 8597SOL     OW37423   1.164   4.240   1.311  0.1503 -0.1465 -0.5108
 8597SOL    HW137424   1.181   4.257   1.404  0.0986  2.9173 -1.0542
 8597SOL    HW237425   1.069   4.251   1.306 -0.1868 -3.1810 -0.7168
 8598SOL     OW37426   3.139   2.664   5.221  0.5217 -0.1405 -0.6540
 8598SOL    HW137427   3.216   2.614   5.248  1.0560 -0.7076 -3.2437
 8598SOL    HW237428   3.178   2.737   5.172 -0.1172 -0.4087 -1.5766
 8599SOL     OW37429   4.075   0.006   8.583 -0.1129 -0.9493 -0.1171
 8599SOL    HW137430   3.995   4.707   8.622  0.0942 -2.0915 -0.7519
 8599SOL    HW237431   4.052   0.009   8.490 -2.7764 -0.0426  0.5866
 8600SOL     OW37432   1.542   0.388   4.272  0.1400 -0.1257  0.3202
 8600SOL    HW137433   1.499   0.394   4.357  1.6786  0.9399  1.0129
 8600SOL    HW237434   1.468   0.384   4.211 -0.7733  2.8516  1.2610
 8601SOL     OW37435   1.098   1.165   5.375 -0.4247  0.5040 -0.3692
 8601SOL    HW137436   1.139   1.233   5.427 -1.6743  0.7295  0.3158
 8601SOL    HW237437   1.104   1.092   5.436  2.6234 -0.9571 -2.4135
 8602SOL     OW37438   2.658   1.086   3.216  0.1176  0.4335  0.0298
 8602SOL    HW137439   2.666   1.163   3.160 -0.9784  0.7990  0.3959
 8602SOL    HW237440   2.639   1.022   3.148  1.9596  0.1299 -0.1980
 8603SOL     OW37441   3.780   1.032  16.834 -0.4860 -0.2795  0.8664
 8603SOL    HW137442   3.843   0.960  16.823 -1.0763 -0.7068  0.2557
 8603SOL    HW237443   3.708   0.988  16.879 -0.4653  1.0180  2.1638
 8604SOL     OW37444   1.605   0.087   9.705  0.0409  0.8836 -0.6518
 8604SOL    HW137445   1.579   0.168   9.749  2.3254  0.9180  0.6113
 8604SOL    HW237446   1.581   0.092   9.612 -4.3415 -1.3275  0.3763
 8605SOL     OW37447   2.085   4.583   9.748  0.9310 -0.0697  0.2266
 8605SOL    HW137448   2.010   4.555   9.694  0.0946  0.1362  1.2913
 8605SOL    HW237449   2.059   4.673   9.769  3.0378  1.0200 -1.7670
 8606SOL     OW37450   1.097   1.350   9.408  0.6719  0.0373  0.2465
 8606SOL    HW137451   1.094   1.259   9.436 -0.3330  0.8577  2.8285
 8606SOL    HW237452   1.081   1.341   9.314 -0.9357 -2.6302  0.7722
 8607SOL     OW37453   1.501   3.888   3.697 -0.6425  0.0160 -0.1194
 8607SOL    HW137454   1.518   3.810   3.645  0.3925 -0.3610  0.7761
 8607SOL    HW237455   1.522   3.856   3.785  1.1425  0.8712 -0.2291
 8608SOL     OW37456   1.296   2.742   2.421 -0.0696  0.1172 -0.1818
 8608SOL    HW137457   1.303   2.815   2.482  2.4111  0.7994 -1.2819
 8608SOL    HW237458   1.240   2.689   2.477 -0.1518  0.8362  0.4058
 8609SOL     OW37459   0.560   0.875   0.811  0.4903 -0.2391 -0.1231
 8609SOL    HW137460   0.520   0.911   0.732 -0.3641 -1.4085 -0.2243
 8609SOL    HW237461   0.492   0.814   0.839  0.8621 -0.5836  0.0281
 8610SOL     OW37462   0.202   1.066   8.064 -0.1319  0.0526 -0.0646
 8610SOL    HW137463   0.245   1.024   8.138 -0.8125  0.9566  0.8434
 8610SOL    HW237464   0.144   1.133   8.101  1.3848  0.9921  0.6045
 8611SOL     OW37465   2.338   0.752   3.141 -0.1975 -0.3781 -0.5445
 8611SOL    HW137466   2.297   0.836   3.120 -2.5098 -1.2098  0.5725
 8611SOL    HW237467   2.428   0.750   3.108 -0.4079 -0.6682 -1.1044
 8612SOL     OW37468   2.749   4.720   4.440 -0.1040  0.2157  0.6583
 8612SOL    HW137469   2.768   0.075   4.419 -0.3126  0.2365  0.5664
 8612SOL    HW237470   2.709   4.685   4.361  2.0677  0.7055 -0.6744
 8613SOL     OW37471   2.621   1.866  12.602  0.7436  0.4585 -0.0477
 8613SOL    HW137472   2.573   1.800  12.553 -1.2207  1.5965  0.3536
 8613SOL    HW237473   2.692   1.888  12.541  0.6022 -0.7987 -0.6688
 8614SOL     OW37474   2.029   0.598   2.504  0.0506 -0.3338  0.0277
 8614SOL    HW137475   1.974   0.522   2.520  0.3335 -0.3348  1.0475
 8614SOL    HW237476   1.974   0.672   2.528  0.5982  0.1453 -0.1879
 8615SOL     OW37477   4.519   1.432  10.931 -0.7097 -0.2982 -0.0646
 8615SOL    HW137478   4.550   1.364  10.991 -2.2301 -0.0955  0.9417
 8615SOL    HW237479   4.565   1.402  10.852 -1.1074  1.7550 -1.0776
 8616SOL     OW37480   1.516   2.948   7.507  0.2284  0.4253  0.2583
 8616SOL    HW137481   1.602   2.913   7.530  0.1098  0.4360  0.7150
 8616SOL    HW237482   1.532   3.038   7.537  1.3123 -0.3343  2.0220
 8617SOL     OW37483   0.680   2.914  13.491  0.4798 -0.1081 -0.1220
 8617SOL    HW137484   0.669   2.948  13.580  1.3095 -0.5444  0.1457
 8617SOL    HW237485   0.683   2.821  13.515  0.6859 -0.6669 -2.3133
 8618SOL     OW37486   0.515   1.680   4.134 -0.1627  0.3591  0.3374
 8618SOL    HW137487   0.560   1.652   4.054 -2.4736 -0.7063 -0.6173
 8618SOL    HW237488   0.582   1.649   4.195 -1.6715 -0.7660  1.4460
 8619SOL     OW37489   4.273   1.517  15.217 -0.2099  0.1746  0.0911
 8619SOL    HW137490   4.366   1.522  15.195 -0.9125 -2.5240 -3.4484
 8619SOL    HW237491   4.235   1.513  15.130 -1.3913  1.8927  0.5402
 8620SOL     OW37492   3.910   3.618   5.771  0.4072 -0.9758 -0.9823
 8620SOL    HW137493   3.892   3.701   5.814  0.1785 -0.8136 -1.3917
 8620SOL    HW237494   3.937   3.646   5.684  0.9737  4.0674  0.8067
 8621SOL     OW37495   3.696   0.495   4.322 -0.0488  0.1308  0.4914
 8621SOL    HW137496   3.769   0.538   4.367  0.7140 -1.1252  0.4636
 8621SOL    HW237497   3.658   0.440   4.390  0.5849 -0.5163  0.3362
 8622SOL     OW37498   0.073   3.423   7.133 -0.7002  0.1820 -0.0300
 8622SOL    HW137499   0.090   3.457   7.221  1.1285  1.0271 -0.7258
 8622SOL    HW237500   0.161   3.421   7.095  0.3577  1.8387  2.3215
 8623SOL     OW37501   4.612   0.288  14.500  0.3962  0.1618 -0.3498
 8623SOL    HW137502   4.582   0.331  14.420  1.9174  0.6329 -0.6756
 8623SOL    HW237503   4.523   0.261  14.522  0.6776  0.0314  0.6310
 8624SOL     OW37504   3.809   1.792   2.958  0.4159 -0.2424 -0.3929
 8624SOL    HW137505   3.748   1.789   3.032 -0.2513 -0.4728 -0.9523
 8624SOL    HW237506   3.841   1.881   2.974  0.6294 -0.1937 -1.1071
 8625SOL     OW37507   2.735   0.097  12.142  0.0691 -0.6886 -0.5914
 8625SOL    HW137508   2.784   0.018  12.118  0.8170 -0.1536 -0.8015
 8625SOL    HW237509   2.788   0.122  12.217 -1.0562  0.6074 -0.2372
 8626SOL     OW37510   4.068   1.539  10.580 -0.2560  0.0236  0.3979
 8626SOL    HW137511   4.030   1.452  10.577 -2.7568  1.1101  0.3232
 8626SOL    HW237512   4.029   1.578  10.658  0.6406 -1.1788  1.4465
 8627SOL     OW37513   1.525   3.103  10.432 -0.2800  0.1758  0.4831
 8627SOL    HW137514   1.443   3.056  10.416  0.0353  0.2268 -1.2911
 8627SOL    HW237515   1.504   3.151  10.513  1.6094  3.7971 -1.1616
 8628SOL     OW37516   0.359   3.442  13.407  0.1511  0.1644  0.0955
 8628SOL    HW137517   0.346   3.378  13.477  0.9132  1.1123  1.0983
 8628SOL    HW237518   0.390   3.390  13.333  1.0905  0.1094  0.5323
 8629SOL     OW37519   0.532   4.690   8.845 -0.2843 -0.5618  0.1573
 8629SOL    HW137520   0.536   0.022   8.780 -1.6084 -0.6625 -0.0368
 8629SOL    HW237521   0.592   4.628   8.805  1.9458 -0.5113  3.4099
 8630SOL     OW37522   1.088   1.150   1.821 -0.1615  0.8116 -0.0871
 8630SOL    HW137523   1.114   1.172   1.731  1.1221  0.0614  0.1070
 8630SOL    HW237524   1.176   1.148   1.860  0.7552 -1.5894 -2.2237
 8631SOL     OW37525   0.212   2.970   8.932 -0.4688 -0.1186  0.2936
 8631SOL    HW137526   0.260   3.013   8.861 -0.1133 -3.5112 -1.5649
 8631SOL    HW237527   0.280   2.903   8.942 -0.7731  0.0108  3.2393
 8632SOL     OW37528   4.417   2.577   5.540  0.4910 -0.2479 -0.6619
 8632SOL    HW137529   4.355   2.643   5.509 -0.4677 -1.3756 -1.1611
 8632SOL    HW237530   4.382   2.542   5.622  0.3210 -1.2415 -1.1501
 8633SOL     OW37531   1.498   1.446   3.428 -0.0804  0.4164 -0.3477
 8633SOL    HW137532   1.556   1.390   3.480 -2.7590 -0.4347  1.7214
 8633SOL    HW237533   1.416   1.436   3.476 -0.1043  2.3169 -0.0158
 8634SOL     OW37534   0.077   0.496   2.830  0.7094 -0.4223  0.3090
 8634SOL    HW137535   0.120   0.518   2.912 -0.2941 -3.4242  1.6554
 8634SOL    HW237536   4.720   0.507   2.848  0.2951 -2.0860 -0.7612
 8635SOL     OW37537   0.297   1.293   4.671  0.2106 -0.6517  0.3822
 8635SOL    HW137538   0.274   1.344   4.749 -0.9071 -3.2977  1.7969
 8635SOL    HW237539   0.303   1.203   4.704 -0.5402 -1.6546 -2.2274
 8636SOL     OW37540   0.715   3.476   3.128  0.4858  0.0349 -0.0222
 8636SOL    HW137541   0.702   3.466   3.222  0.3626 -0.9708 -0.1418
 8636SOL    HW237542   0.726   3.385   3.102  1.4533 -0.3238  1.7070
 8637SOL     OW37543   1.282   2.392   7.218 -0.3489  0.4547 -0.1231
 8637SOL    HW137544   1.190   2.418   7.209 -0.0019  0.5942 -3.3918
 8637SOL    HW237545   1.304   2.418   7.307 -0.8084 -1.0782  0.4269
 8638SOL     OW37546   2.210   0.814   4.643 -0.4721 -0.5234 -0.1489
 8638SOL    HW137547   2.256   0.894   4.668 -2.1407  0.2587  0.4618
 8638SOL    HW237548   2.246   0.795   4.556 -0.9643 -1.3321 -0.1819
 8639SOL     OW37549   1.420   4.103   9.711 -0.0592  0.0216 -0.2150
 8639SOL    HW137550   1.395   4.154   9.634 -4.4918 -1.0232  0.5462
 8639SOL    HW237551   1.495   4.149   9.748  1.9117 -2.0780 -1.6417
 8640SOL     OW37552   1.639   3.206  12.925 -0.0739  0.7805 -0.7156
 8640SOL    HW137553   1.565   3.196  12.985  1.1488 -0.9699  0.5387
 8640SOL    HW237554   1.614   3.159  12.846 -0.9143 -1.0797  0.6405
 8641SOL     OW37555   3.043   1.352   2.593  0.1631  0.4598 -0.3999
 8641SOL    HW137556   3.100   1.418   2.633  0.2944 -0.8720  1.6118
 8641SOL    HW237557   3.095   1.272   2.604 -0.9397 -0.0477  1.0684
 8642SOL     OW37558   3.664   4.057   3.962  0.7247 -0.0656  0.8665
 8642SOL    HW137559   3.675   3.988   4.028  0.7058  0.8001  1.7619
 8642SOL    HW237560   3.590   4.106   3.996  1.2305  1.4744 -0.2427
 8643SOL     OW37561   4.421   3.212  14.646 -0.2011  0.9643 -0.0402
 8643SOL    HW137562   4.415   3.281  14.713  0.5807 -1.3605  2.4372
 8643SOL    HW237563   4.340   3.166  14.666  0.3749 -0.1727 -0.3311
 8644SOL     OW37564   2.457   1.306  13.862 -0.1771  0.2039 -0.1320
 8644SOL    HW137565   2.523   1.313  13.932 -0.3550 -2.0097  0.2629
 8644SOL    HW237566   2.380   1.273  13.907  0.0356  0.9413  0.7935
 8645SOL     OW37567   4.591   2.023   2.621  0.1654 -0.2103 -0.5327
 8645SOL    HW137568   4.608   2.060   2.535  0.8481  0.5437 -0.0767
 8645SOL    HW237569   4.584   1.930   2.598 -1.9843 -0.4494  1.0274
 8646SOL     OW37570   1.537   3.561   6.042 -0.5469 -0.0506 -0.5832
 8646SOL    HW137571   1.536   3.560   6.138 -0.5871 -0.7310 -0.5907
 8646SOL    HW237572   1.495   3.643   6.017 -0.8777 -0.0478 -0.0355
 8647SOL     OW37573   3.555   2.358   9.316  0.7626  0.5615  0.3210
 8647SOL    HW137574   3.571   2.378   9.408 -0.6053  1.6940  0.3086
 8647SOL    HW237575   3.556   2.262   9.317  1.1345  0.5791  2.0030
 8648SOL     OW37576   4.619   2.423   7.586 -0.2665 -0.1986 -0.0219
 8648SOL    HW137577   4.683   2.479   7.542  0.1508 -1.5600 -1.1586
 8648SOL    HW237578   4.548   2.415   7.522  0.4393 -1.5048 -0.6547
 8649SOL     OW37579   1.847   2.181   3.110  0.1382  0.2865 -0.0683
 8649SOL    HW137580   1.864   2.246   3.177  0.7345 -1.4422  1.4562
 8649SOL    HW237581   1.765   2.214   3.072  0.3052  1.6868  0.8046
 8650SOL     OW37582   3.026   2.837   2.423  0.1787 -0.0673  0.0214
 8650SOL    HW137583   3.087   2.790   2.367 -0.8451 -0.0368 -1.1031
 8650SOL    HW237584   2.943   2.806   2.386 -1.7914  0.6322  3.8035
 8651SOL     OW37585   0.916   2.036   2.259 -0.5569 -0.4644  0.1489
 8651SOL    HW137586   0.944   1.997   2.176 -0.2458 -0.4319  0.2373
 8651SOL    HW237587   0.921   1.959   2.317 -4.4209 -1.6305 -1.0626
 8652SOL     OW37588   1.170   4.651   2.189  0.2013  0.3539  0.3776
 8652SOL    HW137589   1.084   4.628   2.224  0.0552  0.0839 -0.1669
 8652SOL    HW237590   1.183   4.610   2.104  2.0234  2.1018 -0.1836
 8653SOL     OW37591   1.527   1.034  12.045  0.4657  0.2720 -0.3159
 8653SOL    HW137592   1.485   0.948  12.049  0.9405 -0.0072 -1.2311
 8653SOL    HW237593   1.475   1.093  12.100  0.1205  0.4781 -0.8703
 8654SOL     OW37594   3.754   0.237   7.775  0.0489 -0.5560  0.2001
 8654SOL    HW137595   3.810   0.222   7.698 -0.7076  1.8235 -0.8108
 8654SOL    HW237596   3.809   0.292   7.831 -1.8691  0.6437  0.8961
 8655SOL     OW37597   1.792   2.479  11.702  0.5352 -0.4357  0.0598
 8655SOL    HW137598   1.768   2.495  11.611 -1.7041 -0.6435  0.6108
 8655SOL    HW237599   1.880   2.443  11.687  1.1222  0.7922  0.5840
 8656SOL     OW37600   2.560   0.055   8.087 -0.8010 -0.7496 -0.6690
 8656SOL    HW137601   2.486   0.006   8.051 -2.2440  3.0827 -3.0260
 8656SOL    HW237602   2.598   0.099   8.010 -2.3741  1.3224 -0.2698
 8657SOL     OW37603   3.080   1.570   5.067  0.5135 -0.5202  0.2579
 8657SOL    HW137604   3.047   1.515   4.996  1.3262 -2.1294  1.1374
 8657SOL    HW237605   3.169   1.538   5.076  0.3817 -1.0998 -0.5149
 8658SOL     OW37606   3.528   3.467   7.701  0.0851 -0.7759  0.6720
 8658SOL    HW137607   3.583   3.394   7.671  0.9971  0.1511  0.0836
 8658SOL    HW237608   3.588   3.489   7.773 -0.9815 -2.3587  2.0337
 8659SOL     OW37609   4.371   3.937   7.465 -0.3775  0.1736 -0.7267
 8659SOL    HW137610   4.308   4.009   7.465  1.8224  2.0876 -0.4479
 8659SOL    HW237611   4.303   3.870   7.467  0.2782 -0.4084  1.9464
 8660SOL     OW37612   3.919   2.510  12.301 -0.1786 -0.5409  0.2589
 8660SOL    HW137613   3.963   2.444  12.355  1.8784 -0.3011 -1.1340
 8660SOL    HW237614   3.986   2.546  12.244  0.9599 -0.7650  1.4482
 8661SOL     OW37615   1.829   0.400   0.073  0.3289 -0.3088 -0.3244
 8661SOL    HW137616   1.768   0.360   0.012  2.6658  0.0268 -2.9035
 8661SOL    HW237617   1.889   0.440   0.010  0.7260  0.3672  0.4674
 8662SOL     OW37618   3.120   2.885   9.738  0.3389  0.0744  0.0572
 8662SOL    HW137619   3.164   2.800   9.743 -0.8958 -0.5096  1.2950
 8662SOL    HW237620   3.160   2.925   9.815 -1.0703  2.4876 -0.4589
 8663SOL     OW37621   1.494   3.991   0.890  0.4796 -0.3790  0.5930
 8663SOL    HW137622   1.544   4.002   0.971 -1.8697  0.3717  1.9472
 8663SOL    HW237623   1.505   3.897   0.878  0.4495 -0.3890  0.6446
 8664SOL     OW37624   1.187   1.990  15.595  0.3762 -0.3734 -0.5674
 8664SOL    HW137625   1.153   1.928  15.530  1.4882  1.5223 -2.9605
 8664SOL    HW237626   1.189   2.073  15.547 -1.1884  0.6090  1.0439
 8665SOL     OW37627   2.567   0.900   7.273 -0.7901  0.6682 -0.0763
 8665SOL    HW137628   2.654   0.912   7.235  0.2177  0.1154  2.0877
 8665SOL    HW237629   2.546   0.823   7.219  0.4679 -0.0989  0.5317
 8666SOL     OW37630   3.939   4.677   9.366  0.6708 -0.5609  0.0799
 8666SOL    HW137631   3.967   4.622   9.440 -1.2667 -0.3915  0.9385
 8666SOL    HW237632   3.906   4.606   9.310  0.6737 -0.8695  0.4643
 8667SOL     OW37633   1.904   0.738   6.924 -0.0177  0.5122  0.1846
 8667SOL    HW137634   1.906   0.786   6.842  0.0133  0.7415  0.3189
 8667SOL    HW237635   1.923   0.804   6.991 -1.6845  0.6553  0.5237
 8668SOL     OW37636   1.486   4.429  12.102 -0.0428 -0.2923  1.0810
 8668SOL    HW137637   1.575   4.418  12.136  0.9258 -2.6476 -2.2379
 8668SOL    HW237638   1.431   4.393  12.172 -2.4315  1.7327  0.2486
 8669SOL     OW37639   2.565   4.329   4.507  0.7320  0.4353 -0.2702
 8669SOL    HW137640   2.508   4.336   4.430 -0.0075 -0.9972  0.1542
 8669SOL    HW237641   2.539   4.410   4.550  1.1123 -0.1942  1.1301
 8670SOL     OW37642   2.963   1.284   7.044 -0.3907  0.1111  0.1204
 8670SOL    HW137643   2.946   1.268   6.951 -0.1043 -0.5004  0.1689
 8670SOL    HW237644   3.045   1.236   7.055  0.9907  2.4091 -0.2770
 8671SOL     OW37645   3.216   3.619   2.046  0.2226  0.0003 -0.5792
 8671SOL    HW137646   3.176   3.698   2.082  0.9586 -1.2104  2.9616
 8671SOL    HW237647   3.157   3.550   2.077  0.9672  0.1683  1.2168
 8672SOL     OW37648   4.646   1.179  15.543  0.2814 -0.1217 -0.1067
 8672SOL    HW137649   4.607   1.183  15.456 -0.8161  0.1089  0.3937
 8672SOL    HW237650   4.701   1.102  15.527  1.1190  0.7377 -1.3190
 8673SOL     OW37651   3.540   3.455   5.553  0.5270  0.5105  0.3069
 8673SOL    HW137652   3.538   3.481   5.461 -1.8158 -1.5287 -0.2078
 8673SOL    HW237653   3.520   3.538   5.597 -1.6555 -0.6386  1.5100
 8674SOL     OW37654   2.122   3.486  11.654  0.2120 -0.7493 -0.2528
 8674SOL    HW137655   2.060   3.528  11.595  1.7387  0.9220 -0.6688
 8674SOL    HW237656   2.088   3.492  11.743  0.4466 -1.8486 -0.0857
 8675SOL     OW37657   0.907   2.508   6.439  0.0286  0.1452 -0.5265
 8675SOL    HW137658   0.845   2.473   6.503  0.7457  0.9135  0.5822
 8675SOL    HW237659   0.849   2.560   6.383 -0.3189 -1.5004 -1.7238
 8676SOL     OW37660   4.111   1.356  17.266 -0.0400  0.5091  0.0633
 8676SOL    HW137661   4.019   1.381  17.271 -1.0149 -3.1483 -0.3033
 8676SOL    HW237662   4.110   1.267  17.300 -0.3809  0.6161  0.3337
 8677SOL     OW37663   3.869   1.490  17.224  0.1545  0.1857  0.8141
 8677SOL    HW137664   3.857   1.429  17.151  0.8241 -0.2895  1.1003
 8677SOL    HW237665   3.898   1.569  17.179  0.5466 -0.1429  0.4897
 8678SOL     OW37666   0.503   2.158   6.130 -0.3657 -0.3046 -0.6209
 8678SOL    HW137667   0.588   2.201   6.141  0.0293 -0.5721 -2.6552
 8678SOL    HW237668   0.536   2.080   6.176  0.2717  0.7990  0.7846
 8679SOL     OW37669   2.766   1.655   6.067 -0.0172  0.0873  0.0514
 8679SOL    HW137670   2.766   1.560   6.053 -1.5494 -0.0024  0.7238
 8679SOL    HW237671   2.745   1.680   5.977 -0.8961 -0.7311  0.0248
 8680SOL     OW37672   1.010   3.207  11.336  0.1612  0.1079 -0.0584
 8680SOL    HW137673   1.090   3.202  11.284  1.2055  0.7196  1.5118
 8680SOL    HW237674   1.060   3.189  11.415 -0.0935 -4.1885 -0.8697
 8681SOL     OW37675   4.693   2.100  15.929  0.0438  0.2318  0.1769
 8681SOL    HW137676   4.649   2.040  15.869 -0.8585  1.3941 -0.3073
 8681SOL    HW237677   4.621   2.162  15.941  2.1585  2.3621  1.7832
 8682SOL     OW37678   0.911   0.612   4.753 -0.4487  0.4679 -0.1435
 8682SOL    HW137679   0.847   0.561   4.803 -0.1293 -0.2073 -0.4246
 8682SOL    HW237680   1.000   0.596   4.785 -1.0206  0.0377  1.2407
 8683SOL     OW37681   2.202   2.827   7.637  0.2928  0.6594 -0.4445
 8683SOL    HW137682   2.280   2.865   7.596 -1.0846  1.7585 -2.0312
 8683SOL    HW237683   2.138   2.876   7.586  0.8898  2.7274  0.7939
 8684SOL     OW37684   3.544   2.211  16.940  0.8488 -1.0904  0.0769
 8684SOL    HW137685   3.573   2.274  17.007  0.5889 -0.5530 -0.3170
 8684SOL    HW237686   3.449   2.219  16.938  0.8668 -0.5509  1.0187
 8685SOL     OW37687   2.431   2.489   1.496 -0.5421  0.4541  0.3492
 8685SOL    HW137688   2.516   2.456   1.466 -0.8479  0.3375 -0.4038
 8685SOL    HW237689   2.382   2.482   1.414 -1.0936 -3.2250  0.9738
 8686SOL     OW37690   2.426   0.511   7.514 -0.5143 -0.1113 -0.3920
 8686SOL    HW137691   2.398   0.524   7.604  1.0415 -0.2050  0.0980
 8686SOL    HW237692   2.438   0.604   7.492  0.5922 -0.1507  0.0195
 8687SOL     OW37693   3.528   2.113  12.782 -0.0514  0.2310  0.7180
 8687SOL    HW137694   3.559   2.137  12.870  2.8958 -1.7364  0.2471
 8687SOL    HW237695   3.507   2.199  12.746 -0.3738 -0.6004 -1.0538
 8688SOL     OW37696   1.757   3.073   7.832  0.1875 -0.2026  0.0270
 8688SOL    HW137697   1.750   3.101   7.741  0.0239  0.1928  0.1623
 8688SOL    HW237698   1.690   3.005   7.840  0.1345 -0.2564 -0.9634
 8689SOL     OW37699   1.626   2.570   2.937 -0.0460  0.3499  0.3527
 8689SOL    HW137700   1.598   2.510   2.868 -1.3622  1.6624 -0.2375
 8689SOL    HW237701   1.545   2.616   2.959  2.6394  5.4484 -0.3561
 8690SOL     OW37702   4.463   3.649   3.258 -0.3012  0.6475  0.0980
 8690SOL    HW137703   4.527   3.591   3.300 -0.3898  1.9719  2.0383
 8690SOL    HW237704   4.506   3.732   3.279 -1.0726  0.8388  0.9448
 8691SOL     OW37705   1.281   2.493   8.388 -0.0002  0.5128 -0.5970
 8691SOL    HW137706   1.376   2.479   8.391 -0.2320 -1.1703 -1.1273
 8691SOL    HW237707   1.271   2.583   8.360 -0.8554  0.4727 -0.4392
 8692SOL     OW37708   0.068   2.607   7.485  0.0569  0.0245 -0.4694
 8692SOL    HW137709   0.037   2.657   7.409 -0.5444  0.2793 -0.0640
 8692SOL    HW237710   0.071   2.674   7.553 -1.0024 -0.3742 -0.0234
 8693SOL     OW37711   3.510   0.819   4.993 -0.2247  0.0138  0.2053
 8693SOL    HW137712   3.504   0.725   4.975  1.0016 -0.4556  2.2751
 8693SOL    HW237713   3.601   0.843   4.974  0.6735 -2.0010  1.9377
 8694SOL     OW37714   4.593   1.498   2.563 -0.0018  0.0628 -0.2351
 8694SOL    HW137715   4.548   1.437   2.623 -0.0946  2.3134  1.9738
 8694SOL    HW237716   4.682   1.463   2.566 -0.5937 -1.3842  1.0167
 8695SOL     OW37717   1.247   1.688   5.161  0.4503  0.9303 -0.0817
 8695SOL    HW137718   1.342   1.677   5.162  0.3502  0.0152 -0.3476
 8695SOL    HW237719   1.221   1.634   5.236 -0.4664 -0.1597 -1.1827
 8696SOL     OW37720   0.733   1.087   6.804 -0.3169 -0.3081 -0.1212
 8696SOL    HW137721   0.765   1.118   6.889 -1.3065  1.4111 -0.3579
 8696SOL    HW237722   0.744   1.164   6.748 -1.2045 -0.3155 -0.3135
 8697SOL     OW37723   1.039   4.476  16.423 -0.1032 -0.2793 -0.3685
 8697SOL    HW137724   0.996   4.472  16.508  1.3657  0.7632  0.4233
 8697SOL    HW237725   1.011   4.563  16.397 -0.5965 -0.1952  0.4698
 8698SOL     OW37726   4.519   0.141  12.255 -0.5485  0.4708 -0.3700
 8698SOL    HW137727   4.609   0.121  12.280 -0.8133  1.1364  1.0958
 8698SOL    HW237728   4.515   0.236  12.269 -0.2669  0.4838 -0.3701
 8699SOL     OW37729   1.866   1.337   9.715  0.6509  0.2357  0.2578
 8699SOL    HW137730   1.802   1.407   9.708  0.5169 -0.1109 -2.0599
 8699SOL    HW237731   1.914   1.348   9.633  0.6301  0.0564  0.2202
 8700SOL     OW37732   1.519   2.298  11.510  0.7681 -0.0764  0.0992
 8700SOL    HW137733   1.479   2.257  11.587  0.9058  2.5797  1.5783
 8700SOL    HW237734   1.489   2.389  11.514 -2.1897 -1.0967  1.1729
 8701SOL     OW37735   1.863   4.494  15.177 -0.2133 -0.3476 -0.7274
 8701SOL    HW137736   1.808   4.431  15.222  0.7896 -1.4947 -1.1021
 8701SOL    HW237737   1.837   4.482  15.085  0.8778  0.4477 -1.1473
 8702SOL     OW37738   0.562   3.508   8.646  0.3037  0.2250 -0.1761
 8702SOL    HW137739   0.651   3.474   8.653  0.3015  0.3022  0.1796
 8702SOL    HW237740   0.516   3.453   8.709  1.1883  0.7208  0.8914
 8703SOL     OW37741   3.757   2.430   3.675 -0.5918  0.2312 -0.7557
 8703SOL    HW137742   3.766   2.496   3.744 -1.0868 -0.0386 -0.4310
 8703SOL    HW237743   3.679   2.464   3.630 -0.2677 -0.3394 -1.7395
 8704SOL     OW37744   2.254   2.173   3.960  0.0557  0.5201  0.1408
 8704SOL    HW137745   2.289   2.212   3.879  0.2596  2.5491  1.2078
 8704SOL    HW237746   2.163   2.149   3.938  0.3178 -0.5539  0.2130
 8705SOL     OW37747   0.801   3.106   4.629 -0.5910 -0.9663  0.1174
 8705SOL    HW137748   0.833   3.016   4.622  0.9779 -0.4383  0.5413
 8705SOL    HW237749   0.883   3.155   4.634 -2.0273  1.4549 -0.2276
 8706SOL     OW37750   2.736   4.039   4.775 -0.4512 -0.2265 -0.1148
 8706SOL    HW137751   2.819   4.004   4.808 -0.3420  0.7541  0.6383
 8706SOL    HW237752   2.721   4.115   4.830 -0.3926 -0.7285  0.6022
 8707SOL     OW37753   4.473   0.832   7.278  0.0546  0.6075  0.0972
 8707SOL    HW137754   4.391   0.797   7.313 -0.9150  0.5860 -2.2147
 8707SOL    HW237755   4.449   0.922   7.302  1.6207  1.0032  0.1517
 8708SOL     OW37756   3.924   3.500   2.345  0.1604  0.5278  0.2763
 8708SOL    HW137757   3.967   3.565   2.400  0.0530  0.9805 -0.1859
 8708SOL    HW237758   4.004   3.469   2.302  0.2058 -0.5478  1.1375
 8709SOL     OW37759   1.925   4.592  12.050  0.2999  0.3602  0.2542
 8709SOL    HW137760   2.018   4.607  12.063  0.8896 -2.0626 -1.1744
 8709SOL    HW237761   1.918   4.503  12.014  2.6814  1.0069 -1.7859
 8710SOL     OW37762   1.549   3.041   6.422 -0.2799 -0.0945 -0.0319
 8710SOL    HW137763   1.576   3.040   6.514  0.1775  0.8588 -0.1616
 8710SOL    HW237764   1.511   3.128   6.425  0.0550  0.1510 -2.6304
 8711SOL     OW37765   0.784   1.555   6.757  0.1505  0.0869 -0.2102
 8711SOL    HW137766   0.728   1.608   6.813  0.5213 -0.5427  0.7647
 8711SOL    HW237767   0.786   1.479   6.815  0.5763  0.9428  0.8871
 8712SOL     OW37768   0.693   3.430   3.388 -0.0625 -0.2291 -0.4605
 8712SOL    HW137769   0.702   3.391   3.475 -1.2690  1.2324  0.3297
 8712SOL    HW237770   0.601   3.455   3.380  1.0109  3.3006 -1.6874
 8713SOL     OW37771   0.996   0.032   1.405  0.0849 -0.0558 -0.2993
 8713SOL    HW137772   0.980   0.120   1.440  1.1324  0.0379 -0.0574
 8713SOL    HW237773   1.050   0.050   1.328  0.0031  2.3668  0.2054
 8714SOL     OW37774   1.921   3.888   5.515 -0.3337  0.4459  0.3970
 8714SOL    HW137775   1.941   3.949   5.444  2.6799 -0.6853  0.2950
 8714SOL    HW237776   2.009   3.851   5.519 -0.3876  0.1397 -1.0275
 8715SOL     OW37777   1.883   2.492   9.254  0.2609 -0.2137 -0.4804
 8715SOL    HW137778   1.955   2.483   9.191  1.1462 -1.5510  0.7164
 8715SOL    HW237779   1.934   2.502   9.334 -0.0309 -0.4892 -0.2615
 8716SOL     OW37780   0.970   3.622   3.483 -0.2172  0.6116  0.2064
 8716SOL    HW137781   1.016   3.540   3.505 -2.2960 -0.8868 -1.1199
 8716SOL    HW237782   0.898   3.570   3.448 -1.5246  1.0728  2.2259
 8717SOL     OW37783   0.734   2.964   8.991 -0.5646 -0.8692 -0.0300
 8717SOL    HW137784   0.798   2.927   9.051 -0.0456 -1.1527 -0.7539
 8717SOL    HW237785   0.674   3.002   9.055 -1.1801 -0.7485 -0.6761
 8718SOL     OW37786   0.871   0.077   5.993 -0.4030 -0.5402  0.1649
 8718SOL    HW137787   0.865   0.168   6.025 -3.2321 -0.0964 -1.7117
 8718SOL    HW237788   0.822   0.090   5.912 -0.4337 -1.0257  0.1052
 8719SOL     OW37789   2.825   1.860   1.398  0.1534 -0.1868  0.2540
 8719SOL    HW137790   2.897   1.899   1.448  1.0397  0.9777 -1.9278
 8719SOL    HW237791   2.813   1.928   1.331  0.4442 -0.9450 -0.5579
 8720SOL     OW37792   1.319   1.219   2.410  0.1149  0.3637  0.4633
 8720SOL    HW137793   1.412   1.213   2.435 -0.2642 -0.0373  1.7924
 8720SOL    HW237794   1.276   1.231   2.495  0.3740  2.0404  0.3516
 8721SOL     OW37795   0.580   2.517   4.657  0.3526 -0.1617  0.5956
 8721SOL    HW137796   0.587   2.612   4.648 -0.4905 -0.0566  1.1049
 8721SOL    HW237797   0.586   2.512   4.752  1.3429 -0.6531  0.5104
 8722SOL     OW37798   3.406   4.306   3.542  1.2126  0.2443  0.5752
 8722SOL    HW137799   3.493   4.330   3.573  1.1139  0.9714  0.2895
 8722SOL    HW237800   3.406   4.215   3.573 -0.0521  1.0478  2.9171
 8723SOL     OW37801   4.256   2.098   2.374 -0.5298 -0.2466  0.3127
 8723SOL    HW137802   4.271   2.149   2.454 -0.3047 -0.3271  0.3235
 8723SOL    HW237803   4.344   2.085   2.339  0.4309 -0.6039  2.8666
 8724SOL     OW37804   3.547   0.540   8.633  0.2885 -0.1377  0.4031
 8724SOL    HW137805   3.550   0.471   8.567  1.1912  0.8975 -0.6513
 8724SOL    HW237806   3.557   0.491   8.715 -0.7604  1.1553  1.3153
 8725SOL     OW37807   4.157   3.640  10.683  0.6704 -0.2314  0.1907
 8725SOL    HW137808   4.203   3.583  10.745  0.6437 -0.9256 -0.4391
 8725SOL    HW237809   4.188   3.730  10.699  1.0531 -0.1879 -0.8013
 8726SOL     OW37810   0.180   2.731   4.931 -0.2629  0.0361 -0.0593
 8726SOL    HW137811   0.103   2.687   4.967 -0.9987 -0.2716 -2.0172
 8726SOL    HW237812   0.231   2.742   5.012 -0.9413 -0.4651  0.4358
 8727SOL     OW37813   1.564   1.489  13.512 -0.2957 -0.0678 -0.2116
 8727SOL    HW137814   1.561   1.556  13.580 -1.7061  0.4988 -0.8171
 8727SOL    HW237815   1.601   1.549  13.447  1.1702  0.3617  1.0370
 8728SOL     OW37816   2.416   3.125   2.572 -0.0790 -0.3090 -0.0559
 8728SOL    HW137817   2.420   3.063   2.499 -0.7401 -1.6524  1.0502
 8728SOL    HW237818   2.338   3.105   2.624 -0.8647 -3.0387 -2.2786
 8729SOL     OW37819   3.067   1.813   0.625 -0.0676 -0.7738 -0.2782
 8729SOL    HW137820   3.013   1.742   0.589  1.7194 -1.9898 -0.5427
 8729SOL    HW237821   3.006   1.873   0.667  2.4310  0.8222  1.0721
 8730SOL     OW37822   0.130   4.291   3.803 -0.2024  0.6322  0.0880
 8730SOL    HW137823   0.170   4.256   3.724 -0.0886 -0.0510  0.4405
 8730SOL    HW237824   0.072   4.219   3.830 -0.1351  0.4802 -0.1799
 8731SOL     OW37825   2.001   0.719   5.968 -0.2752 -0.2610  0.0889
 8731SOL    HW137826   1.935   0.729   5.900  0.3451  0.9542 -0.3339
 8731SOL    HW237827   2.036   0.632   5.948  0.6958 -0.3416  2.0886
 8732SOL     OW37828   3.576   3.668   4.421 -0.0214 -0.0824  0.3080
 8732SOL    HW137829   3.578   3.725   4.345  2.1108 -3.6988 -2.3206
 8732SOL    HW237830   3.489   3.632   4.401 -0.0909 -1.0169  2.2572
 8733SOL     OW37831   3.036   2.748  12.670 -0.1762  0.3735  0.0345
 8733SOL    HW137832   3.045   2.654  12.684 -0.2832  0.2191 -0.9191
 8733SOL    HW237833   3.035   2.783  12.759  2.3035  1.6779 -0.4511
 8734SOL     OW37834   2.563   0.067  11.916 -0.5981  0.2340  0.0821
 8734SOL    HW137835   2.628   0.098  11.979 -0.0280 -0.7751 -0.0206
 8734SOL    HW237836   2.607   0.020  11.846 -1.4199 -2.1208  1.1467
 8735SOL     OW37837   3.763   0.267  10.313  0.1496  0.3077  0.1477
 8735SOL    HW137838   3.737   0.293  10.225  0.9553 -0.0002 -0.1870
 8735SOL    HW237839   3.800   0.349  10.344 -1.2616  1.6712 -1.8230
 8736SOL     OW37840   3.329   2.504   2.060 -0.3278 -0.0939 -0.1860
 8736SOL    HW137841   3.374   2.560   1.997  0.2534  0.2969  0.5769
 8736SOL    HW237842   3.381   2.425   2.046 -0.8802 -0.4592 -0.1656
 8737SOL     OW37843   4.692   1.575   8.071  0.0307  0.2475  0.4613
 8737SOL    HW137844   0.049   1.563   8.085 -0.3041 -0.4306  2.0579
 8737SOL    HW237845   4.692   1.599   7.978  2.2018 -0.4134  0.2788
 8738SOL     OW37846   3.790   0.568   8.437 -0.6568 -0.6439 -0.0034
 8738SOL    HW137847   3.740   0.489   8.458 -1.8621  0.6910  2.1244
 8738SOL    HW237848   3.877   0.530   8.451 -0.1227  0.6826  0.3024
 8739SOL     OW37849   0.673   0.704   2.905 -0.2107  0.2616 -0.2947
 8739SOL    HW137850   0.701   0.677   2.818  1.5491 -2.8410  1.2399
 8739SOL    HW237851   0.710   0.792   2.906  0.6172 -0.0986  1.0796
 8740SOL     OW37852   2.407   4.112  16.860 -0.0566  0.2223 -0.2187
 8740SOL    HW137853   2.317   4.083  16.850  0.3101 -0.6834 -0.9174
 8740SOL    HW237854   2.391   4.203  16.884  2.4879  0.8927 -1.0390
 8741SOL     OW37855   4.151   2.682   5.419  0.4962  0.3079  0.0227
 8741SOL    HW137856   4.110   2.596   5.412 -0.6562  1.0284 -1.8750
 8741SOL    HW237857   4.098   2.734   5.479  1.5597  0.1920  1.0826
 8742SOL     OW37858   1.685   2.552  17.623  0.4600 -0.3135  0.6566
 8742SOL    HW137859   1.599   2.555  17.666  0.3179 -0.5463  0.3847
 8742SOL    HW237860   1.656   2.493  17.553 -0.5456 -1.8223  2.3462
 8743SOL     OW37861   0.983   3.149  16.404 -0.5598  0.7856  0.4920
 8743SOL    HW137862   0.911   3.196  16.447 -2.2156  0.0566 -1.4468
 8743SOL    HW237863   0.963   3.176  16.314 -0.6996  0.3208  0.3804
 8744SOL     OW37864   0.151   0.141  14.458 -0.2565 -0.5341  0.3895
 8744SOL    HW137865   0.068   0.095  14.473 -0.8767  0.7301  0.7687
 8744SOL    HW237866   0.207   0.073  14.496  2.6955  1.5235 -0.2772
 8745SOL     OW37867   0.145   0.735   1.890 -1.0398 -0.2595 -0.1215
 8745SOL    HW137868   0.166   0.821   1.853 -3.0136  0.7341  1.0999
 8745SOL    HW237869   0.113   0.749   1.979  1.2925 -1.2486  0.8668
 8746SOL     OW37870   1.962   0.934   7.918 -0.0940 -0.2122  0.0168
 8746SOL    HW137871   2.016   0.908   7.993 -1.1160 -0.6583  0.5922
 8746SOL    HW237872   1.875   0.935   7.957 -0.0863 -0.3431  0.0366
 8747SOL     OW37873   0.544   4.467  13.005  0.5215 -0.0704  0.4810
 8747SOL    HW137874   0.504   4.389  13.045  0.1494 -0.2460 -0.2203
 8747SOL    HW237875   0.532   4.532  13.074 -0.3334 -0.6189  0.8511
 8748SOL     OW37876   2.259   4.552  17.229 -0.6037  0.1004  0.0834
 8748SOL    HW137877   2.324   4.598  17.281 -0.0100  1.3412 -1.7641
 8748SOL    HW237878   2.229   4.625  17.174 -0.3954 -1.5023 -2.1826
 8749SOL     OW37879   2.031   1.971   9.024 -0.3668  0.1443 -0.2440
 8749SOL    HW137880   1.988   2.035   8.967 -1.1696  1.0930  1.4577
 8749SOL    HW237881   1.965   1.903   9.015  1.1579 -1.1094 -2.1220
 8750SOL     OW37882   3.222   3.814   6.128 -0.1597  0.0411 -0.3638
 8750SOL    HW137883   3.314   3.835   6.110 -0.1381 -0.5497 -0.9666
 8750SOL    HW237884   3.219   3.718   6.137 -0.4076  0.0793 -0.0603
 8751SOL     OW37885   4.726   1.437  11.892 -0.3057 -0.1192  0.0932
 8751SOL    HW137886   0.023   1.424  11.980  0.2447  1.5363  0.1369
 8751SOL    HW237887   0.029   1.520  11.866 -0.2401  0.4860  2.1483
 8752SOL     OW37888   4.462   2.254   4.089 -0.3654  0.6131  0.2417
 8752SOL    HW137889   4.448   2.306   4.009 -0.6450 -0.2456 -0.2708
 8752SOL    HW237890   4.410   2.175   4.074 -1.3684  1.1216  1.0941
 8753SOL     OW37891   2.690   2.000  15.462  0.5125  0.6916 -0.1789
 8753SOL    HW137892   2.780   1.985  15.434 -0.3643 -0.7703 -2.2029
 8753SOL    HW237893   2.644   1.987  15.379 -0.5331  2.8098  0.0456
 8754SOL     OW37894   4.106   0.115   4.336 -0.0732 -0.3389  0.1936
 8754SOL    HW137895   4.172   0.085   4.274 -1.7797 -0.3081 -1.6307
 8754SOL    HW237896   4.045   0.156   4.275 -0.8278  0.0694  1.2204
 8755SOL     OW37897   1.032   1.571   9.043 -0.2830  0.7872  0.2265
 8755SOL    HW137898   1.122   1.555   9.071  0.3084  1.7906 -1.0892
 8755SOL    HW237899   0.984   1.604   9.119  1.3131  1.0470  1.1156
 8756SOL     OW37900   1.131   3.279   5.283 -0.1217 -0.3396  0.5838
 8756SOL    HW137901   1.155   3.260   5.374  0.5885 -0.8386  0.2947
 8756SOL    HW237902   1.219   3.271   5.245  0.0495 -2.0417  1.3537
 8757SOL     OW37903   3.172   3.267   8.394 -0.5924 -0.2311  0.4616
 8757SOL    HW137904   3.168   3.244   8.302  1.6927  0.0613  0.2792
 8757SOL    HW237905   3.135   3.185   8.425 -0.2271 -0.1665  1.0809
 8758SOL     OW37906   1.848   3.493  11.527  0.1775 -0.3081  0.1094
 8758SOL    HW137907   1.911   3.502  11.456  0.4229  1.1309  0.5123
 8758SOL    HW237908   1.801   3.415  11.499 -1.1152  1.4952 -2.6791
 8759SOL     OW37909   1.300   0.834   7.557 -0.1762 -0.1919 -0.1548
 8759SOL    HW137910   1.330   0.915   7.599 -3.1640  0.0126  1.5646
 8759SOL    HW237911   1.362   0.768   7.588  0.5027  0.1906 -0.6726
 8760SOL     OW37912   3.603   2.278   3.940  0.8480 -0.4161 -0.2432
 8760SOL    HW137913   3.590   2.235   3.855 -2.8093 -0.2943  0.2280
 8760SOL    HW237914   3.528   2.337   3.945  2.3280  1.2914  1.4548
 8761SOL     OW37915   2.618   3.029   6.851  0.3956  0.0837 -0.1187
 8761SOL    HW137916   2.654   3.023   6.939  0.2383 -2.0298 -0.1883
 8761SOL    HW237917   2.694   3.009   6.796 -0.4851 -1.1961 -0.8808
 8762SOL     OW37918   0.126   2.042   6.581  0.5921  0.4152 -0.6295
 8762SOL    HW137919   0.202   1.986   6.593  1.4754  1.6642 -0.4213
 8762SOL    HW237920   0.080   1.981   6.523 -0.1368  0.1299  0.2372
 8763SOL     OW37921   0.668   1.520   8.413 -0.5660  0.3461  0.0987
 8763SOL    HW137922   0.674   1.440   8.465  0.6269  1.3740  1.5449
 8763SOL    HW237923   0.604   1.567   8.466 -1.5370  1.0538 -1.6840
 8764SOL     OW37924   3.246   1.957  15.191 -0.8965 -0.2979 -0.0761
 8764SOL    HW137925   3.240   2.038  15.241 -0.2325  0.6465 -1.5406
 8764SOL    HW237926   3.302   1.983  15.118 -0.2664 -0.5696  0.3126
 8765SOL     OW37927   0.568   3.582   1.599 -0.2357 -0.1764 -0.6822
 8765SOL    HW137928   0.599   3.645   1.664  1.2207 -1.7515  0.1295
 8765SOL    HW237929   0.504   3.639   1.557 -0.8220  1.1226  1.9799
 8766SOL     OW37930   0.412   2.785  17.205  0.0476  0.0212  0.7083
 8766SOL    HW137931   0.472   2.857  17.186  0.1249 -0.6485 -1.6582
 8766SOL    HW237932   0.480   2.717  17.206 -2.4829 -2.5231 -0.4612
 8767SOL     OW37933   1.649   4.429   7.990  0.1484  0.1589 -0.2980
 8767SOL    HW137934   1.667   4.504   7.933  0.5818  1.2212  1.2563
 8767SOL    HW237935   1.554   4.429   7.983  0.3138  1.7498 -2.4464
 8768SOL     OW37936   2.459   3.879   6.202  0.0302 -0.0028 -0.3040
 8768SOL    HW137937   2.507   3.797   6.212 -1.2208 -0.6854  0.1360
 8768SOL    HW237938   2.521   3.931   6.152  0.2885  0.9298  0.9749
 8769SOL     OW37939   3.452   4.390  16.001 -0.2351  0.1317 -0.3514
 8769SOL    HW137940   3.494   4.466  16.040 -0.8917  0.2574  0.1160
 8769SOL    HW237941   3.361   4.419  15.994  0.0873  1.0932 -0.4628
 8770SOL     OW37942   3.313   3.741   2.780 -1.0800  0.0509  0.2252
 8770SOL    HW137943   3.238   3.687   2.758 -1.0447 -0.6400  1.8204
 8770SOL    HW237944   3.292   3.816   2.724 -0.3645  0.0303 -0.0663
 8771SOL     OW37945   3.896   0.356   6.288  0.0668 -0.7191  0.1454
 8771SOL    HW137946   3.834   0.428   6.280  1.8996  0.8615  0.1717
 8771SOL    HW237947   3.978   0.399   6.262 -0.9180 -0.3448 -2.3037
 8772SOL     OW37948   2.478   4.056  10.324 -0.8536  0.3088  0.3986
 8772SOL    HW137949   2.485   4.146  10.355  0.1535 -0.8679  3.5907
 8772SOL    HW237950   2.449   4.066  10.233 -1.7265  2.2046  0.8949
 8773SOL     OW37951   2.680   3.370   8.415 -0.0049 -0.3318 -0.1474
 8773SOL    HW137952   2.651   3.392   8.504  0.0783 -1.7621  0.2323
 8773SOL    HW237953   2.748   3.303   8.420  0.1544 -0.2422 -1.1925
 8774SOL     OW37954   0.498   3.826   4.380 -0.1889  0.4762  0.3856
 8774SOL    HW137955   0.528   3.873   4.303 -3.3538  0.0157 -1.1377
 8774SOL    HW237956   0.432   3.892   4.402 -0.7489  0.0781 -0.0898
 8775SOL     OW37957   1.959   4.437   5.503  0.0741 -0.0708 -0.4295
 8775SOL    HW137958   2.012   4.365   5.540 -1.1532 -1.0822 -0.6567
 8775SOL    HW237959   2.015   4.455   5.427  0.8990  1.6100  0.5718
 8776SOL     OW37960   3.466   1.234   7.206  0.3715  0.2448 -0.7193
 8776SOL    HW137961   3.518   1.223   7.126 -0.5837  0.1121 -1.3222
 8776SOL    HW237962   3.514   1.301   7.254 -2.2381  0.1786  1.9881
 8777SOL     OW37963   0.514   1.376  13.785 -0.3325  0.5092  0.3364
 8777SOL    HW137964   0.562   1.294  13.771 -1.1812  0.1209 -0.2865
 8777SOL    HW237965   0.485   1.389  13.695  0.0463 -2.3060 -0.1836
 8778SOL     OW37966   2.283   3.715   3.509  0.1239  0.1499 -0.3637
 8778SOL    HW137967   2.302   3.668   3.590  0.0611 -0.7217 -0.8486
 8778SOL    HW237968   2.188   3.727   3.509  0.1584  0.4895 -1.8251
 8779SOL     OW37969   0.033   2.016   0.020  0.4725 -0.8071 -0.2829
 8779SOL    HW137970   0.119   2.053   0.039  0.5073 -0.9961 -0.0779
 8779SOL    HW237971   4.717   2.096   0.022 -0.1983 -1.2378 -1.2252
 8780SOL     OW37972   3.836   0.150   6.080  0.4172  0.2525 -0.3962
 8780SOL    HW137973   3.838   0.233   6.129  0.7939 -0.2693  0.4767
 8780SOL    HW237974   3.873   0.087   6.142  0.4667  1.3887  0.7381
 8781SOL     OW37975   0.918   3.846  15.011 -0.6717 -0.1677  0.1229
 8781SOL    HW137976   0.929   3.941  15.012  1.9577 -0.4768  0.2393
 8781SOL    HW237977   0.836   3.851  14.961 -1.0112 -1.9715  0.5082
 8782SOL     OW37978   1.520   0.920   3.552 -0.1693 -0.0053  0.0371
 8782SOL    HW137979   1.482   0.892   3.635 -0.0761  1.9604  0.7417
 8782SOL    HW237980   1.529   0.836   3.506 -0.1684  0.0344 -0.0361
 8783SOL     OW37981   0.899   1.106   6.083  0.1009 -0.3896 -0.0427
 8783SOL    HW137982   0.928   1.197   6.095  0.8594 -0.8661  1.6611
 8783SOL    HW237983   0.978   1.062   6.115 -0.4537 -2.0209 -0.9495
 8784SOL     OW37984   3.141   3.123   4.655  0.2494  0.7315 -0.0378
 8784SOL    HW137985   3.171   3.137   4.744 -2.6745  0.1263  1.0478
 8784SOL    HW237986   3.166   3.203   4.610  1.7106  0.6126  0.5573
 8785SOL     OW37987   3.180   2.507   3.733  0.1849  1.2917  0.0031
 8785SOL    HW137988   3.187   2.423   3.688  1.2290  2.1692 -1.4827
 8785SOL    HW237989   3.110   2.539   3.677 -1.2783 -0.0730  1.0328
 8786SOL     OW37990   0.407   2.431   8.327  0.0111  0.4538  0.2180
 8786SOL    HW137991   0.336   2.432   8.391 -1.0012 -1.4220 -0.8787
 8786SOL    HW237992   0.476   2.398   8.384  0.9148  0.0376 -1.1241
 8787SOL     OW37993   3.245   2.939   9.209 -0.0613 -0.1172  0.0790
 8787SOL    HW137994   3.171   2.886   9.179  0.2296 -0.1957 -0.4985
 8787SOL    HW237995   3.245   2.927   9.304  0.9587 -1.4639 -0.0983
 8788SOL     OW37996   3.255   0.766   9.806  0.0065  0.0745 -0.2661
 8788SOL    HW137997   3.303   0.763   9.889 -0.7551  2.2928  0.2362
 8788SOL    HW237998   3.326   0.762   9.742 -1.2726 -1.8322 -1.5529
 8789SOL     OW37999   4.693   0.935   7.139  0.2953  0.0161 -0.4200
 8789SOL    HW138000   4.725   0.968   7.222  2.1239 -1.6712 -0.4488
 8789SOL    HW238001   4.618   0.882   7.169  0.8076 -0.3782  0.1592
 8790SOL     OW38002   0.368   3.670   7.326 -0.5851  0.4606 -0.0287
 8790SOL    HW138003   0.441   3.698   7.381  1.7482  0.8060 -3.2634
 8790SOL    HW238004   0.370   3.726   7.248 -0.2363  0.3582 -0.0932
 8791SOL     OW38005   4.439   2.904   2.987  0.2653 -0.0886 -0.1134
 8791SOL    HW138006   4.372   2.841   3.013 -0.1872  0.2804 -0.3742
 8791SOL    HW238007   4.446   2.888   2.893 -2.8081 -0.4806 -0.2791
 8792SOL     OW38008   2.240   0.081   1.816 -0.5813 -0.0271  0.3554
 8792SOL    HW138009   2.234   0.004   1.760  0.0971 -1.1953  1.8972
 8792SOL    HW238010   2.245   0.037   1.901 -0.3308 -1.2477 -0.3007
 8793SOL     OW38011   3.365   3.042   7.950 -0.3568 -0.1413  0.2632
 8793SOL    HW138012   3.420   3.101   8.002 -0.7263 -1.0253  1.6469
 8793SOL    HW238013   3.411   3.033   7.866 -0.2968  2.0467  0.0580
 8794SOL     OW38014   3.288   2.271  12.648  0.0009 -0.6400  0.2110
 8794SOL    HW138015   3.195   2.254  12.638  0.0430  0.3373 -1.8060
 8794SOL    HW238016   3.324   2.183  12.650  0.2800 -0.5102  1.1143
 8795SOL     OW38017   1.498   4.148   7.230  0.0952 -0.5897  0.6032
 8795SOL    HW138018   1.513   4.144   7.136  1.2694  0.0544  0.7576
 8795SOL    HW238019   1.408   4.117   7.236 -0.6269  1.3096 -0.3135
 8796SOL     OW38020   2.027   0.990   3.229  0.0966 -0.0762 -0.0576
 8796SOL    HW138021   1.970   1.023   3.298 -0.3573 -0.8547 -0.0685
 8796SOL    HW238022   1.996   0.900   3.232 -2.2669  0.6686 -2.5787
 8797SOL     OW38023   4.011   2.962   9.777  0.1205  0.5652 -0.5088
 8797SOL    HW138024   4.024   2.896   9.845 -0.2071  0.7060 -0.3056
 8797SOL    HW238025   4.041   3.038   9.827  0.2909  0.2316 -0.1110
 8798SOL     OW38026   0.574   1.965   6.324 -0.3041  0.5191  0.2847
 8798SOL    HW138027   0.610   1.878   6.305 -0.7918  0.5441 -0.7373
 8798SOL    HW238028   0.489   1.942   6.360  0.7908 -2.6710  0.7893
 8799SOL     OW38029   1.984   2.704   9.819  0.4616 -0.0069 -0.9829
 8799SOL    HW138030   2.006   2.611   9.809 -0.7859 -0.6089  1.9908
 8799SOL    HW238031   1.907   2.704   9.762  0.4075  3.5316 -0.9269
 8800SOL     OW38032   2.568   2.777   6.377  0.5576 -0.1032  0.0178
 8800SOL    HW138033   2.630   2.711   6.407  0.6590 -0.2699 -0.5534
 8800SOL    HW238034   2.598   2.856   6.421 -2.1316  0.7854  0.2393
 8801SOL     OW38035   1.460   4.538   6.609 -0.1079 -0.3708 -0.4485
 8801SOL    HW138036   1.530   4.494   6.657 -0.5012 -0.1698  0.3188
 8801SOL    HW238037   1.482   4.537   6.516 -2.0519 -0.5303 -0.9260
 8802SOL     OW38038   2.969   1.610   2.108  0.0811  0.5258  0.2329
 8802SOL    HW138039   2.961   1.676   2.176 -0.1051  0.4593  0.2755
 8802SOL    HW238040   3.037   1.558   2.150 -2.1671 -0.2673  2.8871
 8803SOL     OW38041   0.534   3.959   6.912  0.0350  0.3581  0.1597
 8803SOL    HW138042   0.540   3.967   7.007 -0.6625 -0.6807  0.2848
 8803SOL    HW238043   0.444   3.982   6.889  0.6389  2.8629  0.2073
 8804SOL     OW38044   3.569   1.041  14.205 -0.0917  0.0579 -0.1093
 8804SOL    HW138045   3.479   1.070  14.188 -0.5127 -1.3924 -0.3488
 8804SOL    HW238046   3.595   1.116  14.258 -0.3435 -0.6342  0.9869
 8805SOL     OW38047   2.475   0.078   7.399  0.1583  0.2704 -0.0757
 8805SOL    HW138048   2.402   0.091   7.460 -1.0015  0.1827 -1.4699
 8805SOL    HW238049   2.540   0.146   7.418  0.5529 -0.4551  1.1762
 8806SOL     OW38050   2.824   1.925   5.656  0.2493 -0.2961 -0.4404
 8806SOL    HW138051   2.801   1.841   5.698  1.7824 -0.4633  0.0408
 8806SOL    HW238052   2.740   1.970   5.668 -0.2072 -1.0170 -0.8448
 8807SOL     OW38053   2.500   4.416   9.694 -0.0333  0.1379  0.4941
 8807SOL    HW138054   2.463   4.329   9.684  1.1801 -0.2258 -0.9635
 8807SOL    HW238055   2.586   4.411   9.651  0.8938  1.5040  2.1923
 8808SOL     OW38056   4.531   3.462   7.474 -0.0795 -0.1418 -0.2677
 8808SOL    HW138057   4.446   3.440   7.512 -0.3233 -0.6925 -1.1574
 8808SOL    HW238058   4.586   3.484   7.550  1.2175  1.1928 -1.6085
 8809SOL     OW38059   1.747   3.631   6.899  0.0657  0.6176  0.2761
 8809SOL    HW138060   1.795   3.548   6.903  0.2337  0.6822 -0.4462
 8809SOL    HW238061   1.658   3.599   6.912 -0.4754  0.9205 -2.6960
 8810SOL     OW38062   0.652   0.091   9.281 -0.1201 -0.2106  0.1031
 8810SOL    HW138063   0.633   0.043   9.362 -0.1693 -2.0878 -1.0199
 8810SOL    HW238064   0.577   0.065   9.228 -0.6937  0.6398  0.4895
 8811SOL     OW38065   3.780   1.320   7.619 -0.4454 -0.3834 -0.0460
 8811SOL    HW138066   3.698   1.360   7.592  0.0166 -0.5954 -1.7717
 8811SOL    HW238067   3.839   1.392   7.594  0.0780 -0.4653  0.9468
 8812SOL     OW38068   3.943   0.787   6.403  0.3652 -0.5928  0.1620
 8812SOL    HW138069   3.968   0.739   6.324  1.7291  0.1269  0.1417
 8812SOL    HW238070   3.854   0.753   6.410  0.4263 -0.9141 -0.5766
 8813SOL     OW38071   0.509   2.950   0.159  0.7434  0.3914  0.1174
 8813SOL    HW138072   0.526   2.858   0.179 -1.7225 -0.5944 -2.3959
 8813SOL    HW238073   0.523   2.965   0.066  2.0483 -0.7740  0.1244
 8814SOL     OW38074   1.804   1.654   4.553  0.6967 -0.2289 -0.3428
 8814SOL    HW138075   1.791   1.739   4.595 -0.7141  0.1109 -1.4556
 8814SOL    HW238076   1.719   1.615   4.575  2.3046 -2.0053  2.7194
 8815SOL     OW38077   2.048   1.942   5.080 -0.6623  0.0281 -0.0859
 8815SOL    HW138078   2.071   1.869   5.137  0.3467 -1.7770 -2.8177
 8815SOL    HW238079   2.129   1.992   5.091  1.2592 -2.7033 -1.9849
 8816SOL     OW38080   0.080   0.333  14.647 -0.4098  0.0308  0.0037
 8816SOL    HW138081   4.734   0.318  14.601  0.2112  0.6388 -1.3247
 8816SOL    HW238082   0.131   0.296  14.575 -1.6833 -0.5354 -0.6041
 8817SOL     OW38083   3.669   1.753  16.725 -0.3715 -0.5048 -0.2347
 8817SOL    HW138084   3.740   1.813  16.703 -1.8061  0.3908 -2.3870
 8817SOL    HW238085   3.688   1.739  16.817  1.5242  0.3038 -0.5030
 8818SOL     OW38086   4.665   3.558   1.621  0.0190 -0.0999  0.2051
 8818SOL    HW138087   0.022   3.537   1.625 -0.0800 -0.1386  2.2213
 8818SOL    HW238088   4.656   3.652   1.636  1.7720  0.0559  0.2906
 8819SOL     OW38089   1.230   3.364  10.821  0.0075 -0.1909  0.5658
 8819SOL    HW138090   1.160   3.319  10.773 -0.0977  0.2515  0.3058
 8819SOL    HW238091   1.182   3.402  10.894 -0.4216 -0.3783  0.3798
 8820SOL     OW38092   0.523   3.311   4.736  0.4299  0.4164 -0.1983
 8820SOL    HW138093   0.465   3.366   4.790  1.3299  0.2360  0.9544
 8820SOL    HW238094   0.480   3.297   4.651  0.2719  2.5445 -0.4742
 8821SOL     OW38095   1.373   4.414   7.971  0.1766 -0.6832 -0.2181
 8821SOL    HW138096   1.298   4.390   7.917 -0.0904 -3.8530  1.6064
 8821SOL    HW238097   1.336   4.450   8.051  0.2408  3.9424 -2.2616
 8822SOL     OW38098   3.346   3.218  11.989  0.3111 -0.0414 -0.3530
 8822SOL    HW138099   3.367   3.132  11.950 -0.2880 -1.1698  1.8471
 8822SOL    HW238100   3.275   3.256  11.937  0.1596 -0.3890 -0.4029
 8823SOL     OW38101   3.414   4.628   2.490  0.1304 -0.8699 -0.5112
 8823SOL    HW138102   3.330   4.583   2.480 -0.2860  0.0711 -1.2074
 8823SOL    HW238103   3.446   4.585   2.569 -0.8771  1.5102  1.2029
 8824SOL     OW38104   2.317   2.429   0.603 -0.1831  0.3644 -0.6208
 8824SOL    HW138105   2.274   2.415   0.688  0.5947 -0.0715 -0.2924
 8824SOL    HW238106   2.360   2.345   0.587  0.0516  0.1349  1.1346
 8825SOL     OW38107   2.278   1.390  14.380 -0.6535 -0.1949 -0.2835
 8825SOL    HW138108   2.352   1.416  14.436  0.1500  1.3837 -2.1015
 8825SOL    HW238109   2.292   1.434  14.297  1.1619 -1.5986 -0.7155
 8826SOL     OW38110   2.618   3.143   8.956 -0.6203  0.1602 -0.5490
 8826SOL    HW138111   2.549   3.164   9.019  1.2096 -1.9919  2.1748
 8826SOL    HW238112   2.662   3.228   8.960  1.7603 -1.0253 -1.8046
 8827SOL     OW38113   4.419   3.439   9.516  0.1627 -0.3384 -0.4495
 8827SOL    HW138114   4.489   3.502   9.500 -0.8092  1.3198  1.6490
 8827SOL    HW238115   4.351   3.506   9.529 -2.5764 -3.0438 -0.7884
 8828SOL     OW38116   2.110   2.597   6.854  0.1791  0.0643 -0.4024
 8828SOL    HW138117   2.055   2.586   6.777 -1.0748  2.4801  0.1268
 8828SOL    HW238118   2.068   2.552   6.928 -0.8524  0.6612 -0.6259
 8829SOL     OW38119   2.095   1.325   4.990  0.1716 -0.0267  0.5633
 8829SOL    HW138120   2.129   1.236   5.003  1.2408  0.4811  1.2031
 8829SOL    HW238121   2.131   1.348   4.904 -1.0983  0.4554  0.1656
 8830SOL     OW38122   2.770   3.370  11.281 -0.3536 -0.0405  0.6546
 8830SOL    HW138123   2.809   3.380  11.368  2.0321 -2.0033 -0.1781
 8830SOL    HW238124   2.740   3.458  11.259  1.4575  0.0438 -1.4157
 8831SOL     OW38125   2.133   0.308   9.601  0.6673 -0.0282  0.0685
 8831SOL    HW138126   2.062   0.292   9.663 -1.5023 -0.6331 -2.5623
 8831SOL    HW238127   2.170   0.220   9.591  0.4605 -0.2261  1.1141
 8832SOL     OW38128   4.218   1.042   5.875 -0.0772 -0.0048 -0.1244
 8832SOL    HW138129   4.209   1.023   5.968 -3.1946 -3.8405 -1.2386
 8832SOL    HW238130   4.308   1.077   5.876  0.0794 -0.3400 -1.8844
 8833SOL     OW38131   2.243   2.728   1.229  0.6294  0.2980  0.8442
 8833SOL    HW138132   2.287   2.651   1.194  1.4048  0.5384  1.2929
 8833SOL    HW238133   2.221   2.779   1.150 -1.1577 -3.2201 -0.9167
 8834SOL     OW38134   3.332   0.307   7.551  0.5797 -0.8057 -0.9577
 8834SOL    HW138135   3.296   0.303   7.462 -3.6886 -1.1251  0.7568
 8834SOL    HW238136   3.262   0.262   7.600  1.1185 -0.8801 -0.2622
 8835SOL     OW38137   2.893   3.927  15.697 -0.6067  0.1254  0.1445
 8835SOL    HW138138   2.823   3.879  15.652 -0.9144  3.2662 -2.7781
 8835SOL    HW238139   2.936   3.861  15.751 -2.8118 -0.8155  0.7559
 8836SOL     OW38140   1.860   4.164   4.279  0.2958 -0.0013 -0.4094
 8836SOL    HW138141   1.773   4.175   4.316 -0.0479 -2.6405 -0.4124
 8836SOL    HW238142   1.901   4.106   4.343 -1.1889  0.8268  1.2989
 8837SOL     OW38143   3.098   1.562  15.839  0.4762 -0.7724  0.2137
 8837SOL    HW138144   3.051   1.484  15.869  0.6723 -1.1368 -0.4119
 8837SOL    HW238145   3.130   1.598  15.922  1.6103 -0.1982 -0.4725
 8838SOL     OW38146   2.755   1.748   7.791 -0.5903  0.6029  0.2921
 8838SOL    HW138147   2.701   1.822   7.764 -0.7878  1.6792  3.6968
 8838SOL    HW238148   2.833   1.755   7.737 -0.5556  0.1425  0.2803
 8839SOL     OW38149   3.132   2.493   3.435  0.0974 -0.1763 -0.0022
 8839SOL    HW138150   3.039   2.504   3.414  0.4505 -0.5734 -1.8438
 8839SOL    HW238151   3.148   2.416   3.381 -1.4866 -0.0145 -0.6957
 8840SOL     OW38152   0.503   4.226   2.609 -0.1091 -0.1306 -0.1905
 8840SOL    HW138153   0.519   4.216   2.515  0.8541 -2.8423  0.2554
 8840SOL    HW238154   0.583   4.262   2.646 -1.6429  2.6007  0.4645
 8841SOL     OW38155   4.178   2.963   7.109 -0.2729 -0.0922  0.2370
 8841SOL    HW138156   4.158   2.986   7.018 -2.1986 -0.5597  0.5325
 8841SOL    HW238157   4.188   2.868   7.107  1.2097  0.0968 -0.7592
 8842SOL     OW38158   1.730   1.367   2.157 -0.2106 -0.6915 -0.1262
 8842SOL    HW138159   1.793   1.300   2.132  0.5152  0.2160 -0.7060
 8842SOL    HW238160   1.769   1.398   2.239 -0.8029  2.1232 -0.9084
 8843SOL     OW38161   4.706   4.488   6.980  0.2398  0.2436  0.8232
 8843SOL    HW138162   4.649   4.440   6.921  0.9856  0.6496 -0.2326
 8843SOL    HW238163   4.667   4.574   6.964 -0.3002  0.4551  3.3677
 8844SOL     OW38164   1.144   1.797   7.263  0.2827  0.9065  0.5808
 8844SOL    HW138165   1.156   1.738   7.188 -1.7063  0.6385  0.4795
 8844SOL    HW238166   1.204   1.867   7.237 -0.0209  0.3726 -1.5938
 8845SOL     OW38167   1.295   1.670  10.269 -0.0958 -0.0100  0.1602
 8845SOL    HW138168   1.315   1.732  10.339 -3.8998  0.0440  1.1794
 8845SOL    HW238169   1.242   1.727  10.214 -1.3404 -2.0555 -0.7611
 8846SOL     OW38170   0.502   1.794  13.413 -0.5908  0.3398  0.4997
 8846SOL    HW138171   0.508   1.781  13.507  0.1226  1.2248  0.5815
 8846SOL    HW238172   0.589   1.826  13.387 -0.3641 -1.7096 -1.3471
 8847SOL     OW38173   1.905   2.719   8.221  0.2427  0.1362 -0.3678
 8847SOL    HW138174   1.952   2.659   8.163 -0.1033 -0.7395  0.2615
 8847SOL    HW238175   1.975   2.778   8.248 -1.0454  1.1953  0.6456
 8848SOL     OW38176   3.386   4.311   5.899 -0.3574  0.1824  0.5411
 8848SOL    HW138177   3.332   4.238   5.866  1.6021 -1.1773  0.3436
 8848SOL    HW238178   3.425   4.265   5.974  0.3645 -1.0899 -0.6137
 8849SOL     OW38179   0.640   1.144   3.268  0.4001 -0.1089 -0.6836
 8849SOL    HW138180   0.553   1.177   3.245  0.2073 -1.3394 -1.7229
 8849SOL    HW238181   0.668   1.105   3.185 -1.8799 -2.1022 -0.5195
 8850SOL     OW38182   2.298   4.658  15.242  0.8752  0.1018  0.5607
 8850SOL    HW138183   2.276   0.005  15.203  0.5016 -0.2189  0.0666
 8850SOL    HW238184   2.364   4.695  15.300 -0.3389  0.1426  1.9149
 8851SOL     OW38185   1.596   0.943   7.340  0.1001 -0.2696 -0.2168
 8851SOL    HW138186   1.646   0.892   7.277 -2.4820  0.0782 -2.5441
 8851SOL    HW238187   1.530   0.881   7.371 -0.8070 -0.3023 -2.2506
 8852SOL     OW38188   4.685   1.177   1.727 -0.0264 -0.0138  0.0632
 8852SOL    HW138189   4.734   1.222   1.658  2.3612 -1.5818  0.7508
 8852SOL    HW238190   0.022   1.162   1.786 -0.2830 -1.7207 -0.0622
 8853SOL     OW38191   0.734   0.217   6.764  0.1455  0.1798 -0.0030
 8853SOL    HW138192   0.702   0.303   6.789 -1.9989 -0.7280  0.3685
 8853SOL    HW238193   0.829   0.228   6.773  0.2281 -0.7680  0.2581
 8854SOL     OW38194   0.122   3.331   4.118 -0.1469 -0.0363  0.2662
 8854SOL    HW138195   0.029   3.352   4.105 -0.5012 -2.6129 -1.3647
 8854SOL    HW238196   0.157   3.408   4.163 -0.3155 -0.4089  1.0405
 8855SOL     OW38197   4.178   3.764   0.280  0.0324 -0.1434 -0.4774
 8855SOL    HW138198   4.250   3.739   0.338  1.4077  0.5253 -1.9281
 8855SOL    HW238199   4.107   3.707   0.311 -0.3031 -0.0908 -1.1497
 8856SOL     OW38200   2.544   3.203   2.212  0.5177  0.2824 -0.8702
 8856SOL    HW138201   2.610   3.167   2.153  1.4124 -1.2071  1.0290
 8856SOL    HW238202   2.485   3.128   2.219 -1.5049  2.1156  1.7713
 8857SOL     OW38203   4.133   1.957   8.260 -0.1260  0.2626 -0.0539
 8857SOL    HW138204   4.191   1.964   8.336  0.5501  0.3855 -0.5920
 8857SOL    HW238205   4.181   2.017   8.204  1.6433 -1.9746 -0.9087
 8858SOL     OW38206   3.292   2.915   4.828  0.3156 -0.0324  0.1993
 8858SOL    HW138207   3.237   2.880   4.758 -0.2804  0.3592  0.4777
 8858SOL    HW238208   3.327   2.834   4.864  0.9810 -0.4638 -1.4155
 8859SOL     OW38209   3.601   3.956   6.515 -0.1309  0.2280 -0.0462
 8859SOL    HW138210   3.518   3.979   6.558  0.2805  0.1644  0.7747
 8859SOL    HW238211   3.632   3.894   6.581  0.4817 -1.4246 -1.8874
 8860SOL     OW38212   3.107   2.502   2.703 -0.6023  0.6412 -0.0980
 8860SOL    HW138213   3.185   2.478   2.753 -2.6199 -2.1350  1.7310
 8860SOL    HW238214   3.097   2.597   2.708 -1.0634  0.5914 -0.0835
 8861SOL     OW38215   1.434   2.516   7.442 -0.0952 -0.1781  0.2326
 8861SOL    HW138216   1.449   2.569   7.364 -0.6879  0.0758  0.2840
 8861SOL    HW238217   1.495   2.444   7.431 -0.0894 -0.6079  3.0054
 8862SOL     OW38218   3.054   4.261  16.931  0.2641 -0.1089  0.1229
 8862SOL    HW138219   3.065   4.336  16.873 -3.2364  0.1633 -0.1824
 8862SOL    HW238220   2.960   4.268  16.949  0.4647 -0.1251  1.1626
 8863SOL     OW38221   3.256   2.749   8.728  0.5760 -0.0011 -0.8380
 8863SOL    HW138222   3.324   2.682   8.739 -0.4851 -0.8558  0.6389
 8863SOL    HW238223   3.306   2.808   8.672 -1.9240  0.0636 -3.0094
 8864SOL     OW38224   1.119   1.695   5.943 -0.2395 -0.0124  0.6506
 8864SOL    HW138225   1.152   1.755   5.876  0.8820 -0.9267  0.3739
 8864SOL    HW238226   1.185   1.703   6.012 -1.4773 -0.0347  1.8176
 8865SOL     OW38227   3.313   3.029   8.294  0.5508 -0.4379 -0.3481
 8865SOL    HW138228   3.244   3.043   8.229  0.5602 -1.7835 -0.6450
 8865SOL    HW238229   3.263   3.035   8.375  2.4542 -0.5028  0.8493
 8866SOL     OW38230   1.425   0.057   8.079 -0.4738 -0.3730 -0.5361
 8866SOL    HW138231   1.370   0.061   8.001 -1.2915  0.8055  0.1023
 8866SOL    HW238232   1.484   0.132   8.075 -0.4677 -0.3431  0.0972
 8867SOL     OW38233   2.540   1.832   2.210  0.1137 -0.2116  0.0214
 8867SOL    HW138234   2.536   1.790   2.124  2.5955 -0.6499  0.1041
 8867SOL    HW238235   2.532   1.758   2.271 -0.6992 -1.3910 -1.5272
 8868SOL     OW38236   1.916   0.212   6.107 -0.4926 -0.0653 -0.6451
 8868SOL    HW138237   1.936   0.152   6.178 -1.0696 -0.8444 -1.1468
 8868SOL    HW238238   1.856   0.158   6.056 -0.7980  0.4291 -0.8115
 8869SOL     OW38239   3.717   4.705   7.976 -0.1697  0.1450 -0.2402
 8869SOL    HW138240   3.724   0.049   8.027 -0.4572 -1.1506  1.8764
 8869SOL    HW238241   3.670   4.648   8.038 -2.3823  1.2561 -0.8991
 8870SOL     OW38242   3.110   1.343  17.174  0.3126 -0.5368  0.0798
 8870SOL    HW138243   3.166   1.309  17.104 -2.1736 -0.8993 -1.7652
 8870SOL    HW238244   3.027   1.342  17.125  0.8731 -4.0785 -0.8186
 8871SOL     OW38245   2.220   3.124  10.940 -0.2456 -0.7256 -0.5668
 8871SOL    HW138246   2.276   3.092  11.011  0.2732  1.0162 -0.1885
 8871SOL    HW238247   2.250   3.080  10.860  1.4881 -0.7692  0.1022
 8872SOL     OW38248   3.134   3.112  17.034  0.5081  0.0575  0.2636
 8872SOL    HW138249   3.115   3.163  16.956 -1.0289 -3.5475 -1.7514
 8872SOL    HW238250   3.059   3.140  17.087  2.2145  1.1890  2.0771
 8873SOL     OW38251   3.017   0.066  11.927 -0.1249 -0.3596 -0.1333
 8873SOL    HW138252   2.927   0.075  11.894  0.1232  1.7888 -0.2451
 8873SOL    HW238253   3.035   4.710  11.939 -0.1243 -0.5681 -1.7058
 8874SOL     OW38254   3.588   1.511   2.912 -0.0268 -0.0934 -0.5707
 8874SOL    HW138255   3.665   1.550   2.871  0.3483  0.7134  0.9191
 8874SOL    HW238256   3.603   1.556   2.996 -1.5555  0.6357 -0.6818
 8875SOL     OW38257   2.648   4.106   5.842 -0.2870 -0.4625  0.1944
 8875SOL    HW138258   2.587   4.155   5.898 -0.0409  2.2615 -1.9033
 8875SOL    HW238259   2.701   4.179   5.812 -0.9616 -0.1109 -0.1464
 8876SOL     OW38260   2.756   0.565   6.834 -0.1261 -0.1036 -0.1666
 8876SOL    HW138261   2.813   0.543   6.760 -0.7655  0.1196 -0.7183
 8876SOL    HW238262   2.718   0.484   6.866  0.3552 -0.6446 -0.9777
 8877SOL     OW38263   3.410   2.918   2.272  0.3529  0.0684  0.6758
 8877SOL    HW138264   3.385   3.005   2.303 -1.7645  0.4010 -2.0575
 8877SOL    HW238265   3.417   2.929   2.177  0.9592  1.2459  0.8542
 8878SOL     OW38266   0.122   1.552   8.449  0.0592  0.4404 -0.4637
 8878SOL    HW138267   0.061   1.552   8.523 -0.7687 -1.2469 -1.1424
 8878SOL    HW238268   0.111   1.639   8.412 -1.1992  0.4423 -0.0976
 8879SOL     OW38269   2.937   4.736  17.349  0.2654  0.5883  0.1748
 8879SOL    HW138270   2.857   4.705  17.305  0.2185 -0.3123  0.8833
 8879SOL    HW238271   2.961   0.082  17.308  2.7683 -0.9602 -1.5005
 8880SOL     OW38272   2.088   4.048  15.910 -0.1613 -0.7924 -0.4034
 8880SOL    HW138273   2.106   4.009  15.825 -0.6317 -3.1390  0.5832
 8880SOL    HW238274   2.139   3.990  15.967 -1.1154 -1.1949  0.0299
 8881SOL     OW38275   2.367   1.007   9.603  0.2487 -0.2259 -0.3825
 8881SOL    HW138276   2.304   1.002   9.674 -0.7564 -1.2090 -1.3511
 8881SOL    HW238277   2.369   1.101   9.586 -0.2123 -0.0237  0.7164
 8882SOL     OW38278   2.639   3.577   4.854 -0.2463 -0.7878 -0.4602
 8882SOL    HW138279   2.582   3.635   4.904 -0.9093 -1.5532 -0.3461
 8882SOL    HW238280   2.598   3.495   4.880 -2.0903 -0.5240 -2.6061
 8883SOL     OW38281   4.443   4.046  15.188  0.1225  0.3674  0.1338
 8883SOL    HW138282   4.526   4.023  15.229  0.2843  1.4394  0.4042
 8883SOL    HW238283   4.482   4.109  15.128  1.8884 -1.2911 -0.4760
 8884SOL     OW38284   1.906   2.495   0.818 -0.0614 -0.2030 -0.0871
 8884SOL    HW138285   1.976   2.545   0.859  1.9708 -1.6056 -1.8405
 8884SOL    HW238286   1.868   2.562   0.762  0.9703 -0.0721 -0.6411
 8885SOL     OW38287   2.890   1.446  12.663  0.2207 -0.4566  0.1118
 8885SOL    HW138288   2.948   1.370  12.651  0.5840 -0.1701  0.0576
 8885SOL    HW238289   2.823   1.424  12.598 -0.1631 -0.0052  0.3580
 8886SOL     OW38290   0.802   0.983  14.730  0.2062  0.0649  0.2919
 8886SOL    HW138291   0.709   0.985  14.750  0.0515  2.1774 -0.5293
 8886SOL    HW238292   0.845   0.934  14.800  1.0846  0.1737 -0.1696
 8887SOL     OW38293   1.019   4.466   6.800 -0.0730  0.0282 -0.1570
 8887SOL    HW138294   1.095   4.524   6.799  0.3826 -0.5747 -0.3650
 8887SOL    HW238295   0.954   4.525   6.762 -1.6875 -1.3547  0.4579
 8888SOL     OW38296   3.672   3.285   7.520 -0.4464  0.6097  0.3518
 8888SOL    HW138297   3.659   3.305   7.428  0.1576 -2.6326 -0.4466
 8888SOL    HW238298   3.768   3.281   7.522 -0.4694  0.2246  0.8443
 8889SOL     OW38299   0.491   3.521   6.307 -0.0053  0.5875  0.0604
 8889SOL    HW138300   0.549   3.591   6.336  0.6009 -0.2699  0.8952
 8889SOL    HW238301   0.493   3.533   6.212 -3.2216 -0.3700 -0.1339
 8890SOL     OW38302   4.293   2.593   0.583 -0.2254 -0.2612 -0.0344
 8890SOL    HW138303   4.384   2.570   0.600  0.2302  0.6787 -1.1146
 8890SOL    HW238304   4.260   2.587   0.672 -0.0662  0.7897  0.0963
 8891SOL     OW38305   2.509   4.521  13.282  0.2363  0.3931 -0.2233
 8891SOL    HW138306   2.508   4.541  13.376 -4.0433 -0.9411  0.0371
 8891SOL    HW238307   2.487   4.427  13.278 -0.3824  0.5341 -0.1833
 8892SOL     OW38308   2.931   2.796  10.237  0.3037 -0.5989  0.0768
 8892SOL    HW138309   2.836   2.804  10.228  0.0588 -3.0715  0.5800
 8892SOL    HW238310   2.944   2.766  10.327 -2.2635 -0.4769  0.4680
 8893SOL     OW38311   1.535   4.052   7.914 -0.6736  0.2558  1.0640
 8893SOL    HW138312   1.482   4.109   7.970  1.4775  0.9840  2.3813
 8893SOL    HW238313   1.485   3.972   7.930 -0.3378 -0.9027 -3.9296
 8894SOL     OW38314   2.730   3.140   2.017 -0.0653  0.2860 -0.0673
 8894SOL    HW138315   2.715   3.047   2.005  1.0507 -0.1521  1.8147
 8894SOL    HW238316   2.821   3.138   2.047 -0.0854 -1.6065 -0.1690
 8895SOL     OW38317   2.576   3.470   5.416  0.4843  0.5760  0.3085
 8895SOL    HW138318   2.520   3.404   5.374  2.4211  0.4757 -2.1150
 8895SOL    HW238319   2.519   3.503   5.486 -1.1676 -0.6907 -0.4525
 8896SOL     OW38320   3.476   3.813   4.201  0.3261 -0.3351  0.4714
 8896SOL    HW138321   3.416   3.879   4.237  0.2861 -1.1773  1.9297
 8896SOL    HW238322   3.432   3.787   4.120 -0.0331  0.0373  0.5447
 8897SOL     OW38323   3.180   2.445   4.728 -0.1406  0.1335  0.2943
 8897SOL    HW138324   3.223   2.523   4.765  0.2323  0.3720 -0.6366
 8897SOL    HW238325   3.099   2.484   4.696 -0.3368  1.4531  2.3923
 8898SOL     OW38326   1.697   0.582   0.239  0.2128 -1.2022 -0.2292
 8898SOL    HW138327   1.709   0.522   0.166  3.2692  0.5732 -1.1510
 8898SOL    HW238328   1.641   0.527   0.295 -0.9539  0.9672  0.7458
 8899SOL     OW38329   4.664   3.614   9.479  0.1154 -0.7090 -0.1521
 8899SOL    HW138330   0.021   3.601   9.471 -0.2994 -2.6619 -1.9344
 8899SOL    HW238331   4.631   3.564   9.404 -2.1087 -0.8049  0.8938
 8900SOL     OW38332   2.115   0.032   6.577 -0.0746  0.3550  0.3314
 8900SOL    HW138333   2.084   4.727   6.496 -1.5290  2.6702 -0.2997
 8900SOL    HW238334   2.035   0.046   6.627 -0.6694  1.5132 -0.9523
 8901SOL     OW38335   3.291   3.283   8.781  0.3847 -0.4922 -0.4086
 8901SOL    HW138336   3.345   3.318   8.852 -1.6936  0.8523  0.5057
 8901SOL    HW238337   3.213   3.251   8.825  0.1148 -0.4906 -0.8895
 8902SOL     OW38338   3.541   1.069   2.420  0.3481 -0.0857 -0.3480
 8902SOL    HW138339   3.616   1.018   2.448  1.1878  0.6737 -1.2015
 8902SOL    HW238340   3.526   1.118   2.501 -3.2520  1.3051 -1.8443
 8903SOL     OW38341   0.263   0.534   8.824  0.4341  0.0085  0.1424
 8903SOL    HW138342   0.284   0.590   8.749  0.9139 -1.8723 -1.1092
 8903SOL    HW238343   0.319   0.573   8.892 -0.7348  0.5938  0.7767
 8904SOL     OW38344   3.697   1.965  16.964  0.0698 -0.2264 -0.2233
 8904SOL    HW138345   3.641   2.042  16.954 -0.2855 -0.3692  0.6311
 8904SOL    HW238346   3.757   1.968  16.890  0.7918  0.1965  0.3767
 8905SOL     OW38347   3.674   4.441   7.793  0.0423 -0.2801  0.6270
 8905SOL    HW138348   3.767   4.424   7.811  0.7019  1.0676 -1.5751
 8905SOL    HW238349   3.652   4.506   7.860  2.3888 -0.7308  1.8571
 8906SOL     OW38350   0.358   4.634  16.361 -0.3282  0.0693 -0.2225
 8906SOL    HW138351   0.275   4.616  16.405  0.6871  0.1343  1.7087
 8906SOL    HW238352   0.341   4.597  16.275  1.3306  1.2988 -1.0774
 8907SOL     OW38353   4.661   1.366  15.776  0.4005  0.2471 -0.2649
 8907SOL    HW138354   4.645   1.318  15.695  1.6241  0.4520 -0.6233
 8907SOL    HW238355   4.625   1.308  15.842  2.1884 -0.1819  0.3243
 8908SOL     OW38356   3.685   1.817  10.138  0.5203  0.2962  0.1829
 8908SOL    HW138357   3.638   1.744  10.099  0.0091  1.1920 -0.8449
 8908SOL    HW238358   3.710   1.779  10.223  1.5321  1.2699  0.3293
 8909SOL     OW38359   4.278   0.498   5.667  0.1183 -0.0989  0.5288
 8909SOL    HW138360   4.347   0.531   5.610  1.5105 -0.3944  2.0302
 8909SOL    HW238361   4.249   0.576   5.714  1.7192  0.3938  0.6944
 8910SOL     OW38362   4.487   1.266   4.468  0.0710 -0.3191 -0.1262
 8910SOL    HW138363   4.461   1.232   4.382 -0.4306  0.3229 -0.2292
 8910SOL    HW238364   4.581   1.246   4.468  0.1326 -0.0115  1.7011
 8911SOL     OW38365   2.915   1.681  10.993  0.0929  0.1967 -0.5160
 8911SOL    HW138366   2.923   1.585  11.000  0.3868  0.2079 -0.6873
 8911SOL    HW238367   2.883   1.698  10.905  0.5186  3.2154 -0.0697
 8912SOL     OW38368   3.046   4.553   1.979  0.3440  0.0016 -0.2533
 8912SOL    HW138369   3.072   4.630   2.029 -0.6538  0.2552 -0.1310
 8912SOL    HW238370   3.086   4.574   1.895 -0.2799 -1.0923 -0.8288
 8913SOL     OW38371   3.299   3.181   2.411  0.4294  0.4595  0.4442
 8913SOL    HW138372   3.321   3.274   2.421 -1.9578  0.9858  0.6397
 8913SOL    HW238373   3.318   3.151   2.500 -1.7504 -0.6338  0.5269
 8914SOL     OW38374   0.619   2.187   5.657  0.5529 -0.4763  0.0802
 8914SOL    HW138375   0.631   2.121   5.726 -1.4628 -1.2049 -0.2709
 8914SOL    HW238376   0.650   2.267   5.701 -3.7691  1.4828 -0.4888
 8915SOL     OW38377   0.058   0.894   1.530 -0.4073 -1.2827  0.1607
 8915SOL    HW138378   0.033   0.952   1.602 -1.7224 -2.6377  0.8028
 8915SOL    HW238379   0.154   0.894   1.527 -0.3766  3.3894  1.8152
 8916SOL     OW38380   0.446   2.043   9.271 -0.0263 -0.3616  0.4574
 8916SOL    HW138381   0.367   2.085   9.304  0.7641  0.4957  1.2772
 8916SOL    HW238382   0.408   1.959   9.244 -0.2907 -0.7107  1.9529
 8917SOL     OW38383   2.316   3.820   4.149  0.5747  0.4656  0.2049
 8917SOL    HW138384   2.280   3.834   4.237  0.5998 -0.6876  0.4034
 8917SOL    HW238385   2.289   3.900   4.104  0.7749  0.7917  0.6649
 8918SOL     OW38386   3.244   0.950   2.964  0.0263  0.3873  0.1545
 8918SOL    HW138387   3.236   0.959   3.059 -0.9052 -1.1843  0.2092
 8918SOL    HW238388   3.340   0.945   2.956  0.0205 -0.7037  0.7989
 8919SOL     OW38389   3.487   4.363  14.471 -0.2546  0.1258 -0.2854
 8919SOL    HW138390   3.561   4.386  14.416  2.1273  0.1919  2.9326
 8919SOL    HW238391   3.526   4.335  14.554 -2.3445 -0.6539  0.4319
 8920SOL     OW38392   3.764   2.125   1.656 -0.5312  0.2119  0.1703
 8920SOL    HW138393   3.681   2.160   1.624 -0.7868  0.7159  1.4049
 8920SOL    HW238394   3.749   2.124   1.750 -0.5309  0.7602  0.1734
 8921SOL     OW38395   4.597   1.186   7.820  0.3617 -0.0143  0.1622
 8921SOL    HW138396   4.656   1.261   7.824 -1.1191  0.9150  3.8084
 8921SOL    HW238397   4.577   1.179   7.913  1.9414  1.9767  0.6488
 8922SOL     OW38398   4.312   3.727   9.157 -0.1541 -0.2096 -0.0715
 8922SOL    HW138399   4.263   3.775   9.090  0.2718 -0.2810 -0.4379
 8922SOL    HW238400   4.263   3.750   9.235 -1.2615 -1.9444 -0.2447
 8923SOL     OW38401   1.693   1.994   2.222  0.5313 -0.2261 -0.4188
 8923SOL    HW138402   1.620   1.967   2.277  1.0645  1.3114  1.0427
 8923SOL    HW238403   1.768   1.973   2.278  0.6915  0.0730 -0.5218
 8924SOL     OW38404   2.290   1.105  11.091 -0.1987 -0.1619 -0.0651
 8924SOL    HW138405   2.227   1.080  11.159 -0.5740 -1.3232 -0.8437
 8924SOL    HW238406   2.286   1.200  11.102 -0.2010 -0.2797  0.9516
 8925SOL     OW38407   0.824   4.155  17.422  0.4520  0.1593  0.1285
 8925SOL    HW138408   0.901   4.098  17.429  2.8444  3.1748 -1.7149
 8925SOL    HW238409   0.823   4.170  17.328  3.5117 -0.7006 -0.0540
 8926SOL     OW38410   0.426   3.837   6.321  0.1337  0.2156 -0.1008
 8926SOL    HW138411   0.491   3.778   6.360  1.3987  1.3252 -0.5429
 8926SOL    HW238412   0.487   3.901   6.285  1.1277 -0.4284  0.4372
 8927SOL     OW38413   2.926   1.441   4.874  0.0758  0.2688  0.0820
 8927SOL    HW138414   2.928   1.345   4.879  0.1305  0.2252 -0.7539
 8927SOL    HW238415   2.922   1.451   4.779 -0.7753  2.1405  0.3122
 8928SOL     OW38416   0.945   3.466   1.431 -0.1105 -0.3049 -0.1682
 8928SOL    HW138417   1.009   3.414   1.480  1.4093 -0.6998 -2.5993
 8928SOL    HW238418   0.862   3.429   1.460  0.2063 -1.7147 -1.0946
 8929SOL     OW38419   0.695   2.913   3.201 -0.4560 -0.1303  0.9423
 8929SOL    HW138420   0.772   2.859   3.217  0.0372  0.0108 -1.0168
 8929SOL    HW238421   0.696   2.922   3.106 -1.6026  1.2839  1.0579
 8930SOL     OW38422   0.906   2.863   4.437  0.3772 -0.0308  0.1428
 8930SOL    HW138423   0.984   2.894   4.482  0.1895 -0.9100  1.0705
 8930SOL    HW238424   0.931   2.790   4.379  2.2126  1.6059 -1.1122
 8931SOL     OW38425   4.329   3.792   6.372 -0.0233  0.2149  0.2009
 8931SOL    HW138426   4.284   3.708   6.362  1.0669 -0.5665  1.8293
 8931SOL    HW238427   4.380   3.788   6.453  1.1690  1.5377 -0.4721
 8932SOL     OW38428   4.437   3.540   3.922  0.6752  0.3784  0.9674
 8932SOL    HW138429   4.357   3.504   3.884  2.7196 -4.1352  0.9409
 8932SOL    HW238430   4.401   3.610   3.976  2.2842  1.2339  0.9506
 8933SOL     OW38431   4.392   0.926   4.444  0.1453 -0.0196  0.0142
 8933SOL    HW138432   4.340   0.986   4.391 -0.7218 -0.9673 -0.1979
 8933SOL    HW238433   4.478   0.968   4.441  0.5179 -0.6523  1.7633
 8934SOL     OW38434   3.996   1.313   2.828 -0.5184  0.0461 -0.5844
 8934SOL    HW138435   3.912   1.295   2.871 -0.9979  0.4614 -1.3478
 8934SOL    HW238436   3.986   1.275   2.741 -2.0145 -2.0830  0.5246
 8935SOL     OW38437   3.998   1.962   0.313 -0.4151 -0.0659  0.3183
 8935SOL    HW138438   3.934   1.923   0.373  0.9816 -2.8679 -0.0211
 8935SOL    HW238439   3.934   1.984   0.245 -2.1818 -3.6181  0.8185
 8936SOL     OW38440   2.711   4.355   2.832 -0.0576  0.0356  0.1544
 8936SOL    HW138441   2.657   4.423   2.791 -1.6599 -0.2293  1.8210
 8936SOL    HW238442   2.765   4.415   2.885  0.4623  0.9864 -1.4478
 8937SOL     OW38443   2.242   1.284   4.740 -0.2292  0.2974 -1.1742
 8937SOL    HW138444   2.334   1.308   4.733 -0.3435  0.8998 -0.6127
 8937SOL    HW238445   2.200   1.281   4.654 -0.3445  1.1828 -1.1502
 8938SOL     OW38446   1.976   3.757   4.658 -0.0011  0.3537 -0.5143
 8938SOL    HW138447   2.055   3.704   4.648 -0.2842 -0.1745  0.0525
 8938SOL    HW238448   1.909   3.689   4.653  2.1283 -1.5762 -2.6327
 8939SOL     OW38449   3.331   0.122   0.883 -0.3033 -0.0753 -0.2703
 8939SOL    HW138450   3.312   0.139   0.790 -3.3808  0.8552  0.5192
 8939SOL    HW238451   3.416   0.166   0.893 -0.8054  0.3661  2.1376
 8940SOL     OW38452   0.290   1.506   4.076  0.1190 -0.0590 -0.2423
 8940SOL    HW138453   0.327   1.422   4.049  2.3566  0.6535  0.6187
 8940SOL    HW238454   0.363   1.565   4.092  0.3221 -0.5302  0.5943
 8941SOL     OW38455   3.767   0.153   6.459  0.0338  0.0859  0.0785
 8941SOL    HW138456   3.814   0.219   6.407 -0.7349 -0.3315 -1.1429
 8941SOL    HW238457   3.848   0.120   6.498  0.1500  0.6130  0.2841
 8942SOL     OW38458   0.167   4.147  10.518 -0.4840 -0.3197  0.2984
 8942SOL    HW138459   0.133   4.066  10.557 -0.9288  0.2095  1.0073
 8942SOL    HW238460   0.099   4.175  10.457 -1.3117 -0.0398  1.3623
 8943SOL     OW38461   0.875   0.815   3.356  0.2946  0.4517  0.3608
 8943SOL    HW138462   0.869   0.730   3.313 -3.5395  0.6532  0.4451
 8943SOL    HW238463   0.784   0.825   3.386  0.8251  0.6344  1.8931
 8944SOL     OW38464   0.760   4.232  16.591 -0.1273  0.0453 -0.0168
 8944SOL    HW138465   0.681   4.185  16.564 -0.5355  0.7809 -0.1035
 8944SOL    HW238466   0.817   4.160  16.618 -0.0050  0.9137  2.0258
 8945SOL     OW38467   4.731   3.388   1.933 -0.2346  0.6816 -0.1915
 8945SOL    HW138468   0.050   3.337   1.992  0.2698  2.4948  0.8999
 8945SOL    HW238469   0.042   3.390   1.851 -0.2466  0.3032 -0.2087
 8946SOL     OW38470   3.806   3.130  16.152 -0.0013  0.4851 -0.1699
 8946SOL    HW138471   3.736   3.167  16.206 -1.6247 -1.8067 -0.7316
 8946SOL    HW238472   3.866   3.100  16.221 -0.6997 -1.6222 -0.4920
 8947SOL     OW38473   0.021   2.936  12.035 -0.1180 -0.5018 -0.0786
 8947SOL    HW138474   4.702   2.959  11.961  0.3381 -0.6677 -0.4721
 8947SOL    HW238475   4.694   2.929  12.106 -0.7587  1.3562 -0.4699
 8948SOL     OW38476   2.192   2.848   9.378  0.0756 -0.5615  0.1837
 8948SOL    HW138477   2.247   2.815   9.307  2.7423 -0.7262  2.3083
 8948SOL    HW238478   2.207   2.943   9.379  0.2424 -0.5607 -2.6836
 8949SOL     OW38479   1.794   4.642  13.332  0.2181 -0.0400  0.1933
 8949SOL    HW138480   1.752   4.574  13.280  2.0855 -0.9267 -0.1542
 8949SOL    HW238481   1.885   4.613  13.332  0.8893  2.0283  1.2885
 8950SOL     OW38482   4.369   1.573   7.948  0.0144  0.1486  0.1247
 8950SOL    HW138483   4.395   1.508   8.013 -1.8499 -0.0091  0.7164
 8950SOL    HW238484   4.291   1.528   7.917  0.0226  0.6476 -0.6157
 8951SOL     OW38485   0.406   1.463   4.472  0.0953 -0.4340  0.6405
 8951SOL    HW138486   0.363   1.424   4.548  0.6023 -1.2918  0.4784
 8951SOL    HW238487   0.350   1.540   4.460  1.4633  0.0131 -2.7901
 8952SOL     OW38488   0.981   1.215   7.036 -0.0603 -0.2343 -0.1731
 8952SOL    HW138489   0.973   1.248   6.947  0.0919 -0.9967 -0.4691
 8952SOL    HW238490   1.016   1.289   7.084 -0.5644  0.7139 -1.2788
 8953SOL     OW38491   0.340   0.339   8.372  1.0651 -0.0510  0.1074
 8953SOL    HW138492   0.362   0.296   8.455 -0.7790  0.1887  0.7051
 8953SOL    HW238493   0.420   0.382   8.342  1.3541 -0.8650 -0.2892
 8954SOL     OW38494   3.531   0.487  10.255 -0.1458 -0.0097 -0.1546
 8954SOL    HW138495   3.547   0.428  10.181  2.2479 -1.7508  1.7686
 8954SOL    HW238496   3.436   0.497  10.243 -0.3789 -1.0993  0.7928
 8955SOL     OW38497   0.112   3.914   5.100 -0.4381  0.2378 -0.6264
 8955SOL    HW138498   0.101   3.908   5.005  0.3310 -0.0632 -0.7014
 8955SOL    HW238499   0.105   3.822   5.126 -1.1248  0.2187 -0.8902
 8956SOL     OW38500   4.277   1.666  12.684  0.4709  0.6787  0.0295
 8956SOL    HW138501   4.329   1.586  12.695  0.6778  0.5853 -1.5559
 8956SOL    HW238502   4.349   1.717  12.647  1.5763  0.6818  2.1903
 8957SOL     OW38503   3.051   0.469   4.873 -0.1008 -0.4710 -0.3104
 8957SOL    HW138504   3.001   0.387   4.876  0.5525 -0.8390  0.3847
 8957SOL    HW238505   3.035   0.492   4.781 -1.2177  1.1260  0.2819
 8958SOL     OW38506   3.769   2.034   7.058  0.7198  0.3154  0.5706
 8958SOL    HW138507   3.725   1.983   6.990  0.1635  0.8993  0.4867
 8958SOL    HW238508   3.689   2.065   7.101  0.5512  0.9868 -0.2138
 8959SOL     OW38509   0.783   4.578  12.181  0.2842  0.0021  0.3345
 8959SOL    HW138510   0.814   4.651  12.236  1.4567  2.3891 -3.4740
 8959SOL    HW238511   0.740   4.630  12.113 -1.3138  0.3829  1.6287
 8960SOL     OW38512   3.409   1.882   9.769 -0.0209  0.3003  0.1473
 8960SOL    HW138513   3.381   1.955   9.824 -1.6941  1.2526 -1.9853
 8960SOL    HW238514   3.331   1.872   9.715  0.3729 -0.9088 -0.1970
 8961SOL     OW38515   1.266   0.041   4.715 -0.4904  0.4545 -0.6651
 8961SOL    HW138516   1.359   0.027   4.737 -1.3416 -0.1817  2.4708
 8961SOL    HW238517   1.254   4.701   4.660 -1.8885 -1.1445  1.8630
 8962SOL     OW38518   1.522   1.066   7.070  0.0670 -0.2460  0.4964
 8962SOL    HW138519   1.455   1.132   7.050  1.4851  0.9967 -0.0994
 8962SOL    HW238520   1.502   1.058   7.164 -2.1697 -0.1284  0.0291
 8963SOL     OW38521   0.548   3.222  12.972 -0.2951 -0.9694 -0.1280
 8963SOL    HW138522   0.500   3.302  12.953  1.0198  0.4061  2.3031
 8963SOL    HW238523   0.479   3.160  12.950  0.9972 -2.6187  0.4628
 8964SOL     OW38524   2.459   4.408  15.724  0.2674 -0.2126 -0.0082
 8964SOL    HW138525   2.500   4.415  15.639 -1.9859 -0.6639 -1.1387
 8964SOL    HW238526   2.371   4.372  15.710  0.6006 -0.0561 -2.3617
 8965SOL     OW38527   4.249   0.792   5.444  0.1932 -0.4284 -0.4868
 8965SOL    HW138528   4.317   0.738   5.484  0.8251 -0.0150 -1.0023
 8965SOL    HW238529   4.266   0.786   5.350  1.0598 -1.5075 -0.2635
 8966SOL     OW38530   2.235   1.608   5.630 -0.7426  0.7953  0.0701
 8966SOL    HW138531   2.188   1.525   5.642  2.2929 -0.7670  1.2134
 8966SOL    HW238532   2.237   1.648   5.717  1.7040  0.5917  0.1201
 8967SOL     OW38533   2.942   3.439   3.375 -0.1165 -0.4084  0.5635
 8967SOL    HW138534   2.958   3.408   3.286  1.6703  1.5349  0.1905
 8967SOL    HW238535   2.848   3.422   3.370 -0.2655  0.5342 -0.0245
 8968SOL     OW38536   0.421   3.705   2.066 -0.4728  0.2046 -0.1135
 8968SOL    HW138537   0.372   3.674   2.142 -0.5718 -1.0724 -0.7062
 8968SOL    HW238538   0.380   3.650   2.000 -1.6000  0.1201  0.6629
 8969SOL     OW38539   3.202   1.855  17.485 -0.0270 -0.3314 -0.0649
 8969SOL    HW138540   3.121   1.807  17.469  0.5069 -1.2676 -0.0133
 8969SOL    HW238541   3.260   1.822  17.416  0.2072  0.4704 -0.2576
 8970SOL     OW38542   3.916   0.168   7.504 -0.3891  0.3479  0.3430
 8970SOL    HW138543   3.886   0.085   7.542  0.8547 -0.4216 -0.3727
 8970SOL    HW238544   3.854   0.169   7.431 -1.4352 -1.8752  1.2110
 8971SOL     OW38545   2.329   0.629  11.198  0.2968  0.1661  0.5661
 8971SOL    HW138546   2.314   0.593  11.111  0.4403  0.9687  0.2091
 8971SOL    HW238547   2.248   0.610  11.244 -0.9318 -1.8892 -2.4351
 8972SOL     OW38548   3.355   2.960   3.960  0.5142 -0.1500  0.2835
 8972SOL    HW138549   3.421   3.023   3.989 -0.5395  1.6596 -1.2317
 8972SOL    HW238550   3.322   2.909   4.034  2.2856  0.6355  1.6207
 8973SOL     OW38551   4.216   1.304   1.285  0.3030  0.4616  0.2685
 8973SOL    HW138552   4.201   1.251   1.207 -1.4263 -2.1713  2.3950
 8973SOL    HW238553   4.208   1.392   1.248 -1.1449 -0.3318 -1.2761
 8974SOL     OW38554   2.466   2.459   9.658 -0.3300  0.0986 -0.4846
 8974SOL    HW138555   2.426   2.425   9.738 -0.3640  0.0773 -0.5103
 8974SOL    HW238556   2.424   2.542   9.636  0.4473  0.0205 -2.2814
 8975SOL     OW38557   3.493   3.005  13.366  0.3129  0.4297 -0.1805
 8975SOL    HW138558   3.549   2.975  13.438 -2.1634 -1.9997  0.7510
 8975SOL    HW238559   3.514   3.097  13.377  0.6293  0.1863  1.2683
 8976SOL     OW38560   3.973   2.823  12.232  0.2521 -0.5312 -0.1129
 8976SOL    HW138561   4.013   2.844  12.316  0.1757 -0.7650 -0.0193
 8976SOL    HW238562   4.048   2.847  12.177 -0.5702 -1.3557 -1.6136
 8977SOL     OW38563   3.218   1.805   6.460  0.1091  0.1211 -0.0538
 8977SOL    HW138564   3.156   1.739   6.430 -0.4935  0.3523  0.6797
 8977SOL    HW238565   3.162   1.875   6.492  0.3603 -0.6736  2.1174
 8978SOL     OW38566   3.878   0.889   2.189 -0.1381 -0.0333 -0.0745
 8978SOL    HW138567   3.798   0.857   2.232  0.2601 -2.5699 -1.2048
 8978SOL    HW238568   3.941   0.836   2.238  0.5208  1.1870  0.4008
 8979SOL     OW38569   4.166   0.848   1.277 -0.0987 -0.1576  0.5791
 8979SOL    HW138570   4.077   0.817   1.290  0.3233 -0.7866  2.0083
 8979SOL    HW238571   4.145   0.929   1.231  0.0008 -0.7455 -0.4994
 8980SOL     OW38572   0.852   0.986   5.645 -0.0496  0.3023  0.1262
 8980SOL    HW138573   0.863   1.072   5.685  1.2172  0.1708  0.0623
 8980SOL    HW238574   0.800   0.947   5.716  2.0074 -1.0734  0.8952
 8981SOL     OW38575   3.843   1.235   2.225 -0.2227 -0.0752  0.6240
 8981SOL    HW138576   3.811   1.150   2.195  0.5905  0.2852 -1.2763
 8981SOL    HW238577   3.935   1.217   2.205 -0.3346  0.2489 -0.1873
 8982SOL     OW38578   4.399   1.772   2.286  0.5722 -0.4320  0.1490
 8982SOL    HW138579   4.411   1.866   2.301 -0.1909 -0.2740 -0.2438
 8982SOL    HW238580   4.335   1.781   2.216  0.1064 -2.0119  0.3867
 8983SOL     OW38581   2.119   2.587   7.950 -0.3953  0.0971 -0.4562
 8983SOL    HW138582   2.193   2.565   7.893  0.7549  0.3395  0.9548
 8983SOL    HW238583   2.154   2.543   8.027 -1.6159 -4.2553 -2.3431
 8984SOL     OW38584   0.107   0.243   4.528 -0.0875 -0.5173 -0.3736
 8984SOL    HW138585   0.093   0.155   4.494 -2.6493 -0.5792  0.8338
 8984SOL    HW238586   0.201   0.256   4.521 -0.4324  1.2686 -1.8062
 8985SOL     OW38587   1.610   1.451   5.789  0.1037 -0.0092  0.3141
 8985SOL    HW138588   1.651   1.500   5.718  1.1750  1.5574  1.9835
 8985SOL    HW238589   1.551   1.397   5.737 -1.2207  0.6504  1.1377
 8986SOL     OW38590   2.822   3.438  16.950  0.4819  0.6369  0.5458
 8986SOL    HW138591   2.780   3.509  16.999 -0.4175  0.0498  0.6278
 8986SOL    HW238592   2.821   3.368  17.015  1.9315  0.1530  0.0374
 8987SOL     OW38593   0.370   4.384   4.844 -0.7691  0.0683  0.4978
 8987SOL    HW138594   0.464   4.395   4.831 -1.0588 -0.1703 -1.7170
 8987SOL    HW238595   0.340   4.470   4.813  2.6417  1.0513 -0.0636
 8988SOL     OW38596   4.027   3.434  15.327  0.4957 -0.3756 -0.9487
 8988SOL    HW138597   3.977   3.375  15.270 -0.1875 -1.0688  0.3803
 8988SOL    HW238598   4.099   3.470  15.274 -1.5501  1.1161 -2.7437
 8989SOL     OW38599   3.430   2.459   4.608 -0.0248  0.5334  0.1594
 8989SOL    HW138600   3.349   2.441   4.655 -0.0048 -0.4515 -0.1879
 8989SOL    HW238601   3.476   2.378   4.626 -2.0865 -1.4047 -3.1277
 8990SOL     OW38602   2.810   2.004   7.461  0.4103  0.4518  0.0297
 8990SOL    HW138603   2.903   2.028   7.464  0.4658  0.2263  0.0487
 8990SOL    HW238604   2.805   1.912   7.438 -1.4801  0.9833 -1.6513
 8991SOL     OW38605   2.915   4.475   9.862  0.2663 -0.6011  0.3505
 8991SOL    HW138606   2.998   4.440   9.830  0.8053  2.6053 -1.7914
 8991SOL    HW238607   2.886   4.522   9.784  4.2577  0.3668 -0.5467
 8992SOL     OW38608   3.468   1.001  17.641  0.3568  0.3266  0.1373
 8992SOL    HW138609   3.380   1.020  17.610  1.0584 -0.5414 -2.4046
 8992SOL    HW238610   3.532   1.019  17.572 -0.2483  0.0141 -0.5073
 8993SOL     OW38611   0.089   3.633  12.339  0.0984  0.1820 -0.6921
 8993SOL    HW138612   0.115   3.646  12.430 -0.2570  1.2894 -0.7474
 8993SOL    HW238613   0.115   3.721  12.309 -0.9501  0.4357 -0.8625
 8994SOL     OW38614   0.552   4.715   7.539  0.5493  0.2888 -0.1002
 8994SOL    HW138615   0.511   4.676   7.462  0.9899  1.2091 -0.7911
 8994SOL    HW238616   0.478   0.020   7.583  0.5265 -0.4340  0.5581
 8995SOL     OW38617   3.087   0.749   0.577 -0.1485 -0.0707 -0.2385
 8995SOL    HW138618   3.125   0.663   0.598 -0.9918 -0.6066 -0.8980
 8995SOL    HW238619   3.155   0.785   0.519  1.6810 -0.4433  1.6514
 8996SOL     OW38620   3.216   1.684   2.902 -0.5401  0.0631 -0.1546
 8996SOL    HW138621   3.278   1.630   2.952  0.6348  0.2035 -1.4838
 8996SOL    HW238622   3.271   1.755   2.870 -0.2949 -1.2202 -2.5853
 8997SOL     OW38623   3.159   4.351   8.156  0.0181  0.2583  0.1246
 8997SOL    HW138624   3.233   4.309   8.200 -0.1115  1.1153  1.1400
 8997SOL    HW238625   3.165   4.439   8.192 -0.3944  0.4932 -0.3872
 8998SOL     OW38626   4.424   1.198  13.578  0.4706 -0.6957  0.4257
 8998SOL    HW138627   4.440   1.226  13.668 -1.2443 -1.2831  0.9259
 8998SOL    HW238628   4.515   1.172  13.563  0.9645  0.1866  2.0105
 8999SOL     OW38629   4.633   3.677   7.351 -0.2895 -0.0908  0.1305
 8999SOL    HW138630   4.601   3.668   7.261 -0.9259 -0.5416  0.4059
 8999SOL    HW238631   4.590   3.599   7.386  0.1981 -0.2476  0.3859
 9000SOL     OW38632   0.882   3.209   3.336  0.3288 -0.2350 -0.1897
 9000SOL    HW138633   0.800   3.252   3.313  0.8571  1.2225  0.6519
 9000SOL    HW238634   0.872   3.201   3.431 -0.8961  0.0324 -0.3011
 9001SOL     OW38635   2.464   2.411  16.015  0.0326  0.3030  0.1711
 9001SOL    HW138636   2.543   2.429  16.066  0.0854 -1.0341  0.5472
 9001SOL    HW238637   2.482   2.460  15.935 -1.0182 -0.3298 -0.4479
 9002SOL     OW38638   2.117   1.280   3.970  0.5010 -0.6215 -0.2504
 9002SOL    HW138639   2.212   1.272   3.959  0.6893 -0.1908  1.1061
 9002SOL    HW238640   2.087   1.211   3.911  0.0528 -0.1111 -0.6226
 9003SOL     OW38641   1.779   4.392   4.973 -0.2442 -0.7909 -0.2422
 9003SOL    HW138642   1.687   4.368   4.976 -0.8597  1.9409  1.7312
 9003SOL    HW238643   1.787   4.480   4.938 -2.1576 -0.8957 -0.9246
 9004SOL     OW38644   0.475   1.575   6.568 -0.1789  0.1414  0.2409
 9004SOL    HW138645   0.485   1.509   6.499  3.1420 -0.2050  1.0828
 9004SOL    HW238646   0.560   1.617   6.577 -0.7672  1.5830 -0.9899
 9005SOL     OW38647   3.795   3.445   8.881  0.4189 -0.0673 -0.8851
 9005SOL    HW138648   3.728   3.493   8.834 -0.6645  1.5287  2.2436
 9005SOL    HW238649   3.789   3.360   8.839  0.6046 -0.7769  0.5103
 9006SOL     OW38650   1.834   0.891   4.533 -0.3900  0.1700 -0.2976
 9006SOL    HW138651   1.896   0.958   4.563  0.3520 -0.0907 -1.2430
 9006SOL    HW238652   1.855   0.892   4.440 -1.0728 -0.8917 -0.4641
 9007SOL     OW38653   4.431   2.062   5.284 -0.2250  0.3501  0.3347
 9007SOL    HW138654   4.492   2.125   5.246  0.2449 -0.3398 -0.0539
 9007SOL    HW238655   4.464   1.987   5.234 -1.3265  0.1751 -0.1402
 9008SOL     OW38656   3.450   2.587   6.624  0.5323  0.4071  0.2309
 9008SOL    HW138657   3.436   2.503   6.581  0.2843  0.2397  0.6343
 9008SOL    HW238658   3.489   2.553   6.704 -1.1176  1.7795  1.6150
 9009SOL     OW38659   4.672   1.002  10.867 -0.2038  0.1221 -0.0022
 9009SOL    HW138660   4.663   1.051  10.786  2.4825 -0.5607 -0.7361
 9009SOL    HW238661   0.031   0.997  10.870 -0.2286  0.0198  0.6385
 9010SOL     OW38662   0.002   1.799   4.727 -0.4617  0.4012  0.3273
 9010SOL    HW138663   4.681   1.857   4.776 -2.7598 -0.7863 -0.9918
 9010SOL    HW238664   4.711   1.805   4.636  1.5498 -0.6880 -0.3530
 9011SOL     OW38665   0.944   4.421   5.916 -0.0890 -0.1655 -0.0471
 9011SOL    HW138666   1.009   4.488   5.936  1.3609 -1.6580  0.2234
 9011SOL    HW238667   0.956   4.404   5.822 -0.8330 -1.2717  0.0611
 9012SOL     OW38668   3.366   0.161   6.339 -0.0640  0.1065 -0.0697
 9012SOL    HW138669   3.275   0.132   6.339 -0.9181  2.7638  1.5971
 9012SOL    HW238670   3.419   0.082   6.351  0.0490  0.4704  1.6926
 9013SOL     OW38671   1.801   4.657   9.594 -0.0779 -0.0276 -0.3238
 9013SOL    HW138672   1.837   4.731   9.546  2.4509 -1.2996 -0.4032
 9013SOL    HW238673   1.747   4.708   9.654 -0.4080 -0.4471 -0.2599
 9014SOL     OW38674   1.781   4.454   7.525  0.6661 -0.7040 -0.2045
 9014SOL    HW138675   1.859   4.405   7.502  0.4442 -1.5201  0.7930
 9014SOL    HW238676   1.712   4.403   7.482 -0.1653 -1.2830  1.8010
 9015SOL     OW38677   1.988   2.903   3.892 -0.0718  0.4463  0.0461
 9015SOL    HW138678   1.898   2.918   3.862  0.0634 -0.2542 -0.7296
 9015SOL    HW238679   1.979   2.923   3.985 -2.3908  0.0931 -0.0884
 9016SOL     OW38680   0.018   2.968  16.293  1.1853  0.3276 -0.1188
 9016SOL    HW138681   0.009   3.010  16.208  0.3773 -0.5858 -0.4861
 9016SOL    HW238682   4.666   2.932  16.305  1.9931 -1.5125  0.3979
 9017SOL     OW38683   1.316   2.057   0.610 -0.3258  0.4294 -0.2649
 9017SOL    HW138684   1.344   2.048   0.701 -1.9635  1.4643  0.3261
 9017SOL    HW238685   1.395   2.095   0.569 -0.5673 -0.3450 -1.4485
 9018SOL     OW38686   2.148   0.571   4.704 -0.4845 -0.8367  0.4287
 9018SOL    HW138687   2.054   0.579   4.720 -0.0719 -1.3759  3.1019
 9018SOL    HW238688   2.162   0.653   4.657 -0.5757 -0.6768  0.6813
 9019SOL     OW38689   1.238   2.441  17.509 -0.5006 -0.7818  1.1538
 9019SOL    HW138690   1.229   2.490  17.427  0.5706 -0.6983  1.0878
 9019SOL    HW238691   1.292   2.366  17.485 -0.8400 -1.2366  1.8016
 9020SOL     OW38692   3.650   2.818  13.982 -0.4332  0.4473  0.2101
 9020SOL    HW138693   3.722   2.783  14.035  0.3332  1.0299 -0.4402
 9020SOL    HW238694   3.657   2.911  14.002  3.8727 -0.0327  0.8780
 9021SOL     OW38695   1.453   4.704   5.886  0.0217  0.3321 -0.1362
 9021SOL    HW138696   1.439   4.661   5.802  3.0620  1.9177 -1.4457
 9021SOL    HW238697   1.527   0.026   5.871 -1.1683  2.1480  1.1862
 9022SOL     OW38698   4.052   1.971  14.179  0.4254  0.1729  0.1099
 9022SOL    HW138699   4.097   1.936  14.256  0.9287 -0.8639 -0.6513
 9022SOL    HW238700   3.959   1.962  14.197 -0.0147  0.9797 -1.7466
 9023SOL     OW38701   4.690   3.136   4.238 -0.1277  0.2940  0.4263
 9023SOL    HW138702   0.044   3.160   4.220 -0.3652  1.1939  0.4461
 9023SOL    HW238703   4.658   3.203   4.297 -0.8871  0.0018  0.3446
 9024SOL     OW38704   2.035   1.560   4.396 -1.2590 -0.0864  0.5157
 9024SOL    HW138705   2.005   1.473   4.370  1.0722 -0.8247  0.3809
 9024SOL    HW238706   1.968   1.593   4.456 -0.2488  2.8799  0.0494
 9025SOL     OW38707   0.429   3.338   8.813  0.1861 -0.1123 -0.1873
 9025SOL    HW138708   0.481   3.261   8.835  0.6261  1.1312  3.0929
 9025SOL    HW238709   0.367   3.341   8.886 -0.1459 -0.7383 -0.4428
 9026SOL     OW38710   2.624   4.673   4.187  0.2323 -0.2745  0.4027
 9026SOL    HW138711   2.533   4.701   4.195  0.6846  1.7298 -1.4405
 9026SOL    HW238712   2.617   4.583   4.218  0.7166  0.3404  2.2463
 9027SOL     OW38713   3.252   1.062   2.006 -0.1809 -0.2697  0.2831
 9027SOL    HW138714   3.331   1.035   2.052  0.2797 -1.6125 -1.2910
 9027SOL    HW238715   3.187   1.060   2.076  0.0705  1.0647  0.5469
 9028SOL     OW38716   3.248   0.137   6.995 -0.5267  0.9618 -0.6856
 9028SOL    HW138717   3.275   0.150   6.904 -0.0406 -0.3336 -0.7321
 9028SOL    HW238718   3.172   0.195   6.993 -1.2675 -0.0263 -1.1539
 9029SOL     OW38719   1.713   1.659   7.693  0.1090 -0.2010  0.0882
 9029SOL    HW138720   1.764   1.600   7.749  0.6404  0.3935  0.2278
 9029SOL    HW238721   1.714   1.731   7.756 -1.1713  0.4766 -0.6774
 9030SOL     OW38722   0.667   0.358   7.516  0.0892 -0.6406 -0.5219
 9030SOL    HW138723   0.666   0.272   7.475  0.9268 -1.2164  0.6963
 9030SOL    HW238724   0.760   0.368   7.537 -0.0289 -1.8588  0.5261
 9031SOL     OW38725   0.973   3.594   2.670 -0.0489 -0.7791 -0.2461
 9031SOL    HW138726   0.910   3.627   2.606 -2.1000  0.7427  2.5569
 9031SOL    HW238727   1.050   3.641   2.638  1.6230 -2.8058  0.8394
 9032SOL     OW38728   0.243   2.882   8.579 -0.1974  0.1270 -0.2807
 9032SOL    HW138729   0.329   2.877   8.538 -0.2268 -3.3717  0.1312
 9032SOL    HW238730   0.254   2.959   8.635 -2.9361 -1.7843  2.8650
 9033SOL     OW38731   1.680   2.762   5.736 -0.2294 -0.1172 -0.5083
 9033SOL    HW138732   1.696   2.726   5.824  3.3656 -0.6433 -1.3948
 9033SOL    HW238733   1.694   2.855   5.755 -2.8010  0.1541  0.1092
 9034SOL     OW38734   2.730   2.456   9.545  0.1719  0.5278 -0.2710
 9034SOL    HW138735   2.756   2.540   9.508  0.5174  0.8768  0.7655
 9034SOL    HW238736   2.639   2.468   9.571 -0.2393 -1.9237 -0.5292
 9035SOL     OW38737   4.620   2.396   2.593 -0.1883  0.5987  0.1116
 9035SOL    HW138738   4.638   2.327   2.529  1.5926 -1.3486  2.6855
 9035SOL    HW238739   4.660   2.469   2.547  0.8112  0.1878  0.3150
 9036SOL     OW38740   0.960   3.201   2.195 -0.4586 -0.3406 -0.1224
 9036SOL    HW138741   1.014   3.124   2.213 -1.0359 -0.8580 -0.6211
 9036SOL    HW238742   0.903   3.178   2.121  2.1835 -2.3293 -1.5222
 9037SOL     OW38743   2.741   3.737  15.511 -0.3641  0.2945 -0.0905
 9037SOL    HW138744   2.755   3.709  15.420 -0.3215  0.5306 -0.1588
 9037SOL    HW238745   2.690   3.663  15.543 -2.3572  0.4670 -2.8252
 9038SOL     OW38746   2.446   0.882   5.322 -0.4045  0.2507 -0.2423
 9038SOL    HW138747   2.525   0.899   5.271 -0.2876  1.0272  0.1965
 9038SOL    HW238748   2.481   0.830   5.395  1.9643  0.5547 -1.1838
 9039SOL     OW38749   1.985   0.154  17.049 -0.0334  0.5854  0.2425
 9039SOL    HW138750   1.962   0.243  17.077 -0.4454  0.7886 -0.7331
 9039SOL    HW238751   1.916   0.126  16.990 -0.1148 -1.4384  1.3162
 9040SOL     OW38752   0.587   2.522   4.928  0.1658  0.6267 -0.5945
 9040SOL    HW138753   0.503   2.482   4.952  1.0236 -0.4422  0.5734
 9040SOL    HW238754   0.577   2.602   4.980 -1.1159  0.0024  0.1110
 9041SOL     OW38755   1.036   0.255   8.644 -1.2504 -0.0281  0.4805
 9041SOL    HW138756   0.965   0.270   8.581 -0.0003  0.1953 -0.8815
 9041SOL    HW238757   0.995   0.245   8.730 -1.0251  2.6884  0.8947
 9042SOL     OW38758   4.122   1.535   6.724  0.0213  0.4747 -0.3104
 9042SOL    HW138759   4.134   1.612   6.780  1.8232  0.1519 -0.2686
 9042SOL    HW238760   4.058   1.571   6.662  0.5493  1.7623 -0.1018
 9043SOL     OW38761   3.892   3.878   7.123 -0.0834 -0.1118  0.2008
 9043SOL    HW138762   3.818   3.820   7.139  1.5608 -1.9881  0.9651
 9043SOL    HW238763   3.966   3.817   7.131  0.0429 -0.0205 -0.2234
 9044SOL     OW38764   2.012   2.116   7.404  0.1992 -0.0798  0.1466
 9044SOL    HW138765   1.918   2.123   7.390  0.4779  0.6160 -1.3051
 9044SOL    HW238766   2.023   2.025   7.432 -2.9141 -0.6099 -0.3891
 9045SOL     OW38767   1.658   0.613   5.418  0.4023 -0.1759  0.6745
 9045SOL    HW138768   1.606   0.688   5.445  0.8198 -0.7714  3.1682
 9045SOL    HW238769   1.644   0.548   5.487  1.3377 -0.1988  0.8475
 9046SOL     OW38770   3.540   2.924   8.338 -0.2303 -0.0729  0.1961
 9046SOL    HW138771   3.500   2.880   8.414  0.1681 -1.7336 -0.5614
 9046SOL    HW238772   3.465   2.977   8.311 -1.1243 -1.5922 -0.3432
 9047SOL     OW38773   3.308   1.918   8.717  0.0944 -0.1787  0.1128
 9047SOL    HW138774   3.397   1.949   8.731  0.7540 -1.9335 -0.1442
 9047SOL    HW238775   3.319   1.823   8.725 -1.0520 -0.2305  0.9984
 9048SOL     OW38776   3.608   0.464  17.088  0.7083  0.5374  0.4290
 9048SOL    HW138777   3.573   0.525  17.022 -0.7032  0.9915  1.6026
 9048SOL    HW238778   3.542   0.462  17.157  0.9339  0.7462  0.6495
 9049SOL     OW38779   3.702   4.250   8.110 -0.7489 -0.6527 -0.3064
 9049SOL    HW138780   3.718   4.297   8.191 -0.7742 -0.4845 -0.4002
 9049SOL    HW238781   3.700   4.164   8.152  0.4233 -0.4473  0.1702
 9050SOL     OW38782   4.504   1.562   3.675  0.1048 -0.4056  0.4119
 9050SOL    HW138783   4.479   1.471   3.694  1.9190 -1.4852 -2.2192
 9050SOL    HW238784   4.590   1.569   3.716 -0.3650 -0.6181  1.4303
 9051SOL     OW38785   1.403   4.387   9.902  0.1912  0.7243  0.8638
 9051SOL    HW138786   1.333   4.346   9.851 -0.0122  1.2770  0.6945
 9051SOL    HW238787   1.422   4.467   9.852  0.2749  0.4724  0.4929
 9052SOL     OW38788   2.553   0.720   6.902  0.2402 -0.0622  0.0648
 9052SOL    HW138789   2.636   0.676   6.886  0.8489  0.8261  0.7781
 9052SOL    HW238790   2.530   0.695   6.991  0.2778 -0.4538 -0.0354
 9053SOL     OW38791   2.000   1.286   3.689  0.2640  0.3151  0.1465
 9053SOL    HW138792   2.068   1.347   3.662  0.0155 -0.4955 -2.2639
 9053SOL    HW238793   2.032   1.200   3.714 -0.7903 -0.0861  0.1262
 9054SOL     OW38794   3.835   3.298  15.181 -0.0344 -0.3410 -0.1475
 9054SOL    HW138795   3.857   3.228  15.118 -1.0826 -0.0052 -0.8962
 9054SOL    HW238796   3.793   3.241  15.245 -0.0060  0.4182  0.5339
 9055SOL     OW38797   0.537   2.320   1.870 -0.4305  0.3183 -0.0762
 9055SOL    HW138798   0.605   2.259   1.898  0.1948  1.0866  0.0748
 9055SOL    HW238799   0.498   2.349   1.952  0.8422  0.8097  0.3557
 9056SOL     OW38800   1.237   3.675   5.968 -0.2692  0.5813  0.7301
 9056SOL    HW138801   1.174   3.624   6.019  1.4331  0.7481  2.9904
 9056SOL    HW238802   1.267   3.738   6.033 -1.2435  1.0711  0.7125
 9057SOL     OW38803   0.438   1.660   2.973  0.3015  0.1830  0.2531
 9057SOL    HW138804   0.427   1.680   2.880  1.1757 -2.9888 -0.5246
 9057SOL    HW238805   0.356   1.693   3.011  1.7528  2.7184  1.2264
 9058SOL     OW38806   0.410   1.366   0.033  0.3435 -0.2322  0.1714
 9058SOL    HW138807   0.469   1.437   0.057  0.9424 -0.4498 -0.6802
 9058SOL    HW238808   0.330   1.417   0.020 -0.3181 -1.0821  0.9061
 9059SOL     OW38809   0.394   0.408   1.333 -0.0686  0.6997 -0.3435
 9059SOL    HW138810   0.486   0.385   1.345 -0.7285 -1.2228  1.1173
 9059SOL    HW238811   0.360   0.329   1.290 -0.7754 -0.5911  2.5170
 9060SOL     OW38812   4.272   0.273   3.695 -0.6615 -0.1219 -0.7814
 9060SOL    HW138813   4.333   0.220   3.645 -2.1057 -2.0532 -0.4812
 9060SOL    HW238814   4.187   0.237   3.671 -1.0915  2.9965 -3.8295
 9061SOL     OW38815   2.053   2.594   5.374 -0.2031 -0.3284 -0.1750
 9061SOL    HW138816   2.021   2.506   5.353 -1.5854 -0.3204  1.8763
 9061SOL    HW238817   2.144   2.583   5.346 -0.5604 -0.5053 -1.2834
 9062SOL     OW38818   2.742   3.977   3.350  0.2149 -0.1408 -0.4802
 9062SOL    HW138819   2.693   4.059   3.365  2.7549  0.9956  1.6953
 9062SOL    HW238820   2.706   3.925   3.422  0.5883  1.2677  0.7301
 9063SOL     OW38821   1.771   1.040   6.678 -0.1553  0.2617  0.2930
 9063SOL    HW138822   1.773   1.103   6.606  0.5867  1.1913  1.1402
 9063SOL    HW238823   1.826   0.965   6.654  0.9127  1.0329  0.3424
 9064SOL     OW38824   2.536   1.419  14.557  0.6334  0.0064  0.4504
 9064SOL    HW138825   2.631   1.417  14.547  0.5560  0.8230 -0.5675
 9064SOL    HW238826   2.522   1.327  14.579  0.6993  0.1069  0.9157
 9065SOL     OW38827   3.540   0.147   7.089 -0.0026 -0.6494  0.4191
 9065SOL    HW138828   3.569   0.095   7.014  1.8792  0.5195  0.3535
 9065SOL    HW238829   3.447   0.168   7.078  0.6525  0.4474 -3.1045
 9066SOL     OW38830   4.103   0.678   1.670 -0.0268  0.0251 -0.1995
 9066SOL    HW138831   4.119   0.772   1.663  0.1375 -0.0047 -0.2204
 9066SOL    HW238832   4.008   0.671   1.660 -0.1147  1.2640 -0.2991
 9067SOL     OW38833   2.736   4.041   8.147 -0.0019  0.1028 -0.2103
 9067SOL    HW138834   2.810   4.056   8.207 -0.2061 -0.8788  0.2778
 9067SOL    HW238835   2.706   4.131   8.135 -1.7508 -0.5834 -0.9636
 9068SOL     OW38836   4.686   1.957   3.749 -0.0838 -0.0483 -0.8463
 9068SOL    HW138837   0.041   1.969   3.726 -0.1756 -1.3607 -1.8425
 9068SOL    HW238838   4.635   1.982   3.672 -1.6749 -1.7456 -0.3333
 9069SOL     OW38839   1.529   0.284  12.289 -0.2440 -0.3618  0.0792
 9069SOL    HW138840   1.443   0.260  12.255 -2.5887  2.8147  3.8388
 9069SOL    HW238841   1.593   0.226  12.247 -1.3348 -0.9479 -0.7678
 9070SOL     OW38842   1.280   0.452  12.081  0.2220  0.1193  0.4205
 9070SOL    HW138843   1.310   0.367  12.114  4.3015  0.1372 -3.1609
 9070SOL    HW238844   1.324   0.456  11.996 -1.4309 -1.7779 -0.5251
 9071SOL     OW38845   1.437   2.831   8.147 -0.7852  0.1620 -0.2854
 9071SOL    HW138846   1.362   2.775   8.165  0.8606 -1.2606  2.1893
 9071SOL    HW238847   1.391   2.911   8.120 -3.2495 -1.1681 -0.0176
 9072SOL     OW38848   3.499   1.881   0.551  0.9630  0.8430  0.6821
 9072SOL    HW138849   3.422   1.935   0.567  0.9289  0.9433  0.1780
 9072SOL    HW238850   3.559   1.931   0.606  2.3407  0.0189 -0.0698
 9073SOL     OW38851   3.832   2.707   2.419  0.0034 -0.2505  0.1978
 9073SOL    HW138852   3.903   2.769   2.437 -1.3076  1.4477 -0.4076
 9073SOL    HW238853   3.762   2.766   2.391  0.9804  1.0593  0.4890
 9074SOL     OW38854   3.695   3.288   7.256  0.1994  0.1685 -0.3773
 9074SOL    HW138855   3.763   3.353   7.236  0.7771 -0.6364 -1.0468
 9074SOL    HW238856   3.750   3.209   7.254  2.0395  1.4712 -0.6706
 9075SOL     OW38857   0.038   3.554   5.891  0.2142 -0.2060  0.5948
 9075SOL    HW138858   4.690   3.551   5.935 -0.2089 -2.1155 -0.3719
 9075SOL    HW238859   0.093   3.493   5.940 -0.0282 -0.1436  0.9499
 9076SOL     OW38860   0.697   0.566  16.368 -0.7459  0.4342  0.1926
 9076SOL    HW138861   0.646   0.506  16.423 -1.0529 -0.3298 -0.9463
 9076SOL    HW238862   0.691   0.644  16.424 -0.8898  0.4592  0.1423
 9077SOL     OW38863   1.987   3.042  12.367 -0.2312 -0.0982 -0.3245
 9077SOL    HW138864   2.028   3.058  12.282 -0.3795 -0.7012 -0.5136
 9077SOL    HW238865   2.015   2.954  12.393 -2.2168 -0.7296 -0.3216
 9078SOL     OW38866   0.526   0.410   9.923  0.5448 -0.0792 -0.2810
 9078SOL    HW138867   0.456   0.345   9.911  2.1980 -1.7838 -0.7345
 9078SOL    HW238868   0.583   0.386   9.849 -0.2706 -2.9927  0.0362
 9079SOL     OW38869   3.670   2.101   2.723  0.3552 -0.0623 -0.3284
 9079SOL    HW138870   3.737   2.166   2.701  2.2214 -1.6670  0.5377
 9079SOL    HW238871   3.712   2.059   2.798  1.3951  4.3239  1.5172
 9080SOL     OW38872   4.272   0.679   7.755 -0.5244  0.3053 -0.1520
 9080SOL    HW138873   4.185   0.671   7.716 -1.2115  5.0373  0.5063
 9080SOL    HW238874   4.279   0.765   7.795 -1.1059  1.0325 -1.6138
 9081SOL     OW38875   2.478   0.153  12.632  0.4373 -0.3096 -0.2884
 9081SOL    HW138876   2.513   0.082  12.686  1.6805  0.3199 -0.2810
 9081SOL    HW238877   2.383   0.150  12.625  0.3618  1.4149  0.0701
 9082SOL     OW38878   3.902   2.490  16.372 -0.0301  0.1641 -0.7821
 9082SOL    HW138879   3.844   2.518  16.301 -1.2056 -0.3801 -0.0319
 9082SOL    HW238880   3.945   2.576  16.378 -0.0309  0.0953  0.2791
 9083SOL     OW38881   0.460   1.766   6.054 -0.5814  0.4941 -0.4455
 9083SOL    HW138882   0.549   1.737   6.073 -0.8955 -1.0285 -1.2642
 9083SOL    HW238883   0.411   1.747   6.134  0.8944  1.3527  0.6694
 9084SOL     OW38884   2.577   1.256  16.659 -0.1286  0.1677  0.1060
 9084SOL    HW138885   2.554   1.335  16.611 -1.1887 -1.0571 -1.4289
 9084SOL    HW238886   2.501   1.232  16.712 -0.5931  1.2691 -0.0769
 9085SOL     OW38887   2.243   1.424   0.245  0.1209  0.2502 -0.5307
 9085SOL    HW138888   2.268   1.332   0.239 -0.9824 -0.0106 -1.1001
 9085SOL    HW238889   2.330   1.462   0.260  0.3115 -1.2657  2.2578
 9086SOL     OW38890   2.314   4.070   8.121 -0.4902 -0.2394  0.5236
 9086SOL    HW138891   2.360   4.022   8.189 -0.4943 -1.8747 -0.6174
 9086SOL    HW238892   2.226   4.033   8.134  0.4503 -2.3027  0.9827
 9087SOL     OW38893   4.686   4.173   4.072  0.4489  0.2710  0.0495
 9087SOL    HW138894   4.690   4.090   4.024  1.1705 -0.0277  0.6216
 9087SOL    HW238895   4.597   4.193   4.043  0.0317  1.2248  2.0190
 9088SOL     OW38896   3.528   0.718   9.107  0.2156  0.5824 -0.2014
 9088SOL    HW138897   3.585   0.649   9.072  1.7217  0.7064  2.0414
 9088SOL    HW238898   3.522   0.770   9.026  1.2411  3.6746  1.7100
 9089SOL     OW38899   3.248   1.770   4.516 -0.3580  0.0033  0.0747
 9089SOL    HW138900   3.303   1.733   4.447 -0.2074  0.5427 -0.1011
 9089SOL    HW238901   3.282   1.722   4.591  0.6975  1.1047  0.3071
 9090SOL     OW38902   0.983   3.042   8.804  0.2648 -0.0855  0.0588
 9090SOL    HW138903   0.991   3.002   8.891  1.1562  0.8974  0.4444
 9090SOL    HW238904   0.977   3.138   8.811 -0.1061 -0.3395  3.3009
 9091SOL     OW38905   4.356   4.497   6.925  0.5908 -0.3975  0.1077
 9091SOL    HW138906   4.276   4.471   6.879  0.0886  0.7556  0.3161
 9091SOL    HW238907   4.419   4.448   6.873  2.0224  1.2818  0.2706
 9092SOL     OW38908   0.919   3.704   2.264  0.0995 -0.2300 -0.3205
 9092SOL    HW138909   0.978   3.757   2.210 -1.4908  2.8614  0.9934
 9092SOL    HW238910   0.922   3.617   2.223 -0.7385 -0.0580 -0.7591
 9093SOL     OW38911   0.955   2.383   1.888  0.6196 -0.1846 -0.3693
 9093SOL    HW138912   0.880   2.325   1.903  2.3373 -2.5185 -0.6826
 9093SOL    HW238913   0.916   2.421   1.810  1.9307  1.0909 -0.3855
 9094SOL     OW38914   0.761   0.820  16.040 -0.5080  0.3478 -0.3183
 9094SOL    HW138915   0.728   0.902  16.076  0.2427 -0.2682  1.7714
 9094SOL    HW238916   0.806   0.782  16.116  1.7118  1.0639 -1.2675
 9095SOL     OW38917   1.741   0.897   9.291  0.9011  0.3688  0.2234
 9095SOL    HW138918   1.726   0.992   9.292 -0.8864  0.0966 -0.3708
 9095SOL    HW238919   1.713   0.870   9.204 -1.2652 -1.4349  1.4806
 9096SOL     OW38920   1.701   1.857   8.698 -0.4889  0.2546 -0.5867
 9096SOL    HW138921   1.657   1.918   8.639 -1.9569 -1.3246 -1.1369
 9096SOL    HW238922   1.698   1.776   8.647  0.1580  0.3620 -0.8015
 9097SOL     OW38923   3.718   1.512  10.066  0.1561 -0.0520  0.2838
 9097SOL    HW138924   3.630   1.514  10.028 -0.4126  1.0110  1.6660
 9097SOL    HW238925   3.773   1.563  10.007  2.2283 -0.9629  1.3963
 9098SOL     OW38926   3.166   1.562   1.774 -0.1312  0.4572  0.3194
 9098SOL    HW138927   3.108   1.486   1.774  2.3191 -1.4202  0.1778
 9098SOL    HW238928   3.253   1.524   1.760 -0.7535 -1.2327  1.1620
 9099SOL     OW38929   3.985   3.449  11.698 -0.5560  0.1068 -0.3225
 9099SOL    HW138930   4.062   3.403  11.731  1.6730  2.0944 -2.8524
 9099SOL    HW238931   3.924   3.423  11.768  2.1048 -0.6269  1.7031
 9100SOL     OW38932   0.447   0.458   6.437 -0.1864  0.7359  0.0381
 9100SOL    HW138933   0.481   0.370   6.453 -1.1024 -0.1046 -2.5669
 9100SOL    HW238934   0.528   0.494   6.401  0.1088  0.5347  0.5016
 9101SOL     OW38935   0.739   0.105   7.389 -0.1389 -0.5419 -0.2122
 9101SOL    HW138936   0.670   0.129   7.328 -0.3188 -1.9225 -0.5487
 9101SOL    HW238937   0.686   0.049   7.445 -1.5820  0.7360 -0.2993
 9102SOL     OW38938   1.163   2.756   6.030 -0.0153 -0.1313 -0.1255
 9102SOL    HW138939   1.082   2.753   5.979  0.7207  1.4285 -1.4009
 9102SOL    HW238940   1.127   2.778   6.116 -1.2893  2.8932 -1.4090
 9103SOL     OW38941   3.577   4.080  11.872  0.2175  0.2304  0.0097
 9103SOL    HW138942   3.632   4.021  11.819 -1.3385 -0.6280 -0.6330
 9103SOL    HW238943   3.521   4.012  11.909  0.4433 -0.6267 -1.1990
 9104SOL     OW38944   4.192   3.990  12.172  0.3933 -0.1671 -0.2622
 9104SOL    HW138945   4.265   3.928  12.176 -0.6324 -1.3315  0.7643
 9104SOL    HW238946   4.149   3.957  12.093 -1.3216  2.0414 -0.2390
 9105SOL     OW38947   3.701   2.436   7.184  0.1006  0.0816  0.1891
 9105SOL    HW138948   3.793   2.463   7.190  0.4699 -1.3066  0.6822
 9105SOL    HW238949   3.695   2.469   7.095 -0.4460 -1.3267 -0.2905
 9106SOL     OW38950   2.448   0.882  14.313 -0.1855  0.8143 -0.1071
 9106SOL    HW138951   2.408   0.811  14.262  1.0773 -0.1638  0.2554
 9106SOL    HW238952   2.404   0.878  14.398  2.7825 -0.9411  1.3556
 9107SOL     OW38953   0.333   0.327   3.398  0.5326 -0.3001 -0.7031
 9107SOL    HW138954   0.417   0.368   3.378  0.0215  0.2616 -1.6691
 9107SOL    HW238955   0.322   0.266   3.325  0.0835 -0.1137 -0.7877
 9108SOL     OW38956   1.873   3.046  11.389 -0.1938  0.0357 -0.2368
 9108SOL    HW138957   1.946   3.069  11.331 -0.5624  2.0076  0.0840
 9108SOL    HW238958   1.881   3.102  11.467  0.7663  0.1518 -0.4223
 9109SOL     OW38959   1.153   4.065   3.441  0.5056  0.0927  0.3216
 9109SOL    HW138960   1.122   4.053   3.530 -1.4588 -0.5511 -0.4283
 9109SOL    HW238961   1.121   3.987   3.395 -2.6122  0.6559  1.5572
 9110SOL     OW38962   2.955   4.504   2.280  0.7205  0.0107  0.2330
 9110SOL    HW138963   2.896   4.432   2.255 -0.4537  0.6010  1.2897
 9110SOL    HW238964   2.960   4.546   2.194 -2.4321 -1.0360 -0.4664
 9111SOL     OW38965   0.771   4.512   8.758  0.1725  0.2140  0.0859
 9111SOL    HW138966   0.791   4.435   8.706  1.9238  0.4951  0.3573
 9111SOL    HW238967   0.827   4.577   8.716  2.6074 -1.5184  0.6674
 9112SOL     OW38968   0.086   4.419   5.205 -0.0274 -0.1921  0.0200
 9112SOL    HW138969   0.170   4.382   5.179 -1.3743 -0.8611 -3.3551
 9112SOL    HW238970   0.090   4.411   5.300  1.0547  3.2433  0.2621
 9113SOL     OW38971   2.305   0.795   6.782 -0.6335 -0.0503 -0.0467
 9113SOL    HW138972   2.298   0.836   6.868  0.9530  0.3567 -0.1119
 9113SOL    HW238973   2.387   0.749   6.800 -1.6577 -1.5479  0.7922
 9114SOL     OW38974   3.185   2.861  13.141 -1.1700 -0.4286 -0.1499
 9114SOL    HW138975   3.111   2.874  13.081  0.2124 -0.4009 -1.8645
 9114SOL    HW238976   3.225   2.786  13.097  0.8148  1.4551 -1.5607
 9115SOL     OW38977   2.744   0.508   0.496  0.2088 -0.0213 -0.2184
 9115SOL    HW138978   2.668   0.517   0.439  0.1682  1.3378  0.0621
 9115SOL    HW238979   2.787   0.589   0.470  1.3263 -0.3383  0.6282
 9116SOL     OW38980   2.822   0.335   1.203  0.1265 -0.0219 -0.3674
 9116SOL    HW138981   2.868   0.252   1.217 -2.1204 -1.2530 -0.2229
 9116SOL    HW238982   2.773   0.342   1.285  1.0966 -1.0566  0.3050
 9117SOL     OW38983   3.276   1.996   3.849  0.0606  0.2404 -0.4081
 9117SOL    HW138984   3.305   1.906   3.858  0.9756  0.6686  0.9831
 9117SOL    HW238985   3.193   1.989   3.897  0.2285  0.2987 -0.1044
 9118SOL     OW38986   3.410   3.874  11.950  0.1069 -0.1356  0.2710
 9118SOL    HW138987   3.321   3.870  11.917 -0.2376 -2.0936  1.4624
 9118SOL    HW238988   3.443   3.801  11.897 -0.4308 -1.6571  2.0564
 9119SOL     OW38989   0.928   2.643   5.141  0.0644  0.4011  0.3286
 9119SOL    HW138990   0.844   2.628   5.097  0.6076 -0.6653 -0.3384
 9119SOL    HW238991   0.951   2.721   5.091  0.7340 -0.1272 -0.1686
 9120SOL     OW38992   2.677   1.747  12.962 -0.2871  0.0479  0.4386
 9120SOL    HW138993   2.667   1.663  12.916  1.6074  0.0074  0.0970
 9120SOL    HW238994   2.614   1.806  12.921  1.4478  0.0263 -2.3170
 9121SOL     OW38995   2.684   0.485   6.058  0.2240  0.0327 -0.5957
 9121SOL    HW138996   2.643   0.443   6.134  3.9745  0.2195  1.5050
 9121SOL    HW238997   2.646   0.426   5.993 -0.8754  0.2877 -0.1957
 9122SOL     OW38998   2.486   1.482  13.060  0.1153  0.6384 -0.0174
 9122SOL    HW138999   2.434   1.402  13.048  1.0216  0.3959 -2.3671
 9122SOL    HW239000   2.532   1.499  12.978  0.7436  5.2686  1.3052
 9123SOL     OW39001   1.391   0.233   9.542  0.4483  0.4828  0.1112
 9123SOL    HW139002   1.375   0.211   9.634 -2.5670  0.0487 -0.5404
 9123SOL    HW239003   1.339   0.166   9.498  0.1573 -1.0755  2.7984
 9124SOL     OW39004   0.418   0.032  10.290  0.1561  0.6487 -0.4141
 9124SOL    HW139005   0.485   4.712  10.253  1.0261  1.7548 -0.5272
 9124SOL    HW239006   0.445   0.068  10.374  2.0502  0.5097 -0.9740
 9125SOL     OW39007   0.639   1.017   6.154  0.4670 -0.5166 -0.4942
 9125SOL    HW139008   0.720   1.060   6.126  0.3910 -0.7721 -1.1098
 9125SOL    HW239009   0.573   1.087   6.150  0.3616 -0.7049 -1.8327
 9126SOL     OW39010   4.696   0.301   6.645  0.2036 -0.5599 -0.2994
 9126SOL    HW139011   4.674   0.394   6.640  3.3374  0.2548  1.1190
 9126SOL    HW239012   0.053   0.306   6.661 -0.1413  1.8474  0.9737
 9127SOL     OW39013   3.586   1.545   6.456 -0.3747 -0.2533 -0.2176
 9127SOL    HW139014   3.553   1.626   6.416  1.9530  1.0199  0.4141
 9127SOL    HW239015   3.539   1.550   6.539 -0.3960  0.4459 -0.2657
 9128SOL     OW39016   3.413   2.233   5.804  0.2888 -0.2543  0.3015
 9128SOL    HW139017   3.425   2.140   5.783  0.3222 -0.3554  0.7667
 9128SOL    HW239018   3.325   2.238   5.767 -0.5558  1.3795  2.5620
 9129SOL     OW39019   2.338   4.011   5.440  0.0419  0.0778 -0.0502
 9129SOL    HW139020   2.412   4.003   5.500  0.2183 -0.1972 -0.3058
 9129SOL    HW239021   2.288   3.935   5.468 -0.2895  0.3341  0.0541
 9130SOL     OW39022   1.857   0.281   0.300 -0.5574 -0.1152  0.0079
 9130SOL    HW139023   1.950   0.303   0.305 -0.7328  0.4018  1.0066
 9130SOL    HW239024   1.827   0.326   0.221  0.4425 -1.4244 -1.1138
 9131SOL     OW39025   3.059   0.688   1.564 -0.3018  0.7557  0.3466
 9131SOL    HW139026   3.036   0.644   1.645  1.1504 -0.8227 -0.0876
 9131SOL    HW239027   3.007   0.638   1.500 -0.2231  1.3804 -0.2030
 9132SOL     OW39028   1.730   2.802   7.585  0.7644 -0.1779 -0.1686
 9132SOL    HW139029   1.749   2.788   7.678  0.7585 -1.4483 -0.3545
 9132SOL    HW239030   1.769   2.721   7.554 -0.7757 -1.8402  2.2271
 9133SOL     OW39031   1.474   1.792  14.806 -0.4566  0.0198 -0.2263
 9133SOL    HW139032   1.456   1.761  14.718 -0.4480  0.2508 -0.3110
 9133SOL    HW239033   1.565   1.769  14.824  0.2102  1.4536 -1.8287
 9134SOL     OW39034   2.312   1.436  15.870  0.1018  0.7897  0.5939
 9134SOL    HW139035   2.265   1.516  15.846  0.1191  0.4421 -0.6163
 9134SOL    HW239036   2.293   1.436  15.963 -0.5531  1.9626  0.4690
 9135SOL     OW39037   1.305   3.175   1.388 -0.2414 -0.1677  0.2945
 9135SOL    HW139038   1.223   3.177   1.438 -0.3615  2.8361 -0.0340
 9135SOL    HW239039   1.336   3.264   1.404  0.4764 -0.0946 -1.5198
 9136SOL     OW39040   1.426   3.642   2.719  0.4953 -0.2630  0.2455
 9136SOL    HW139041   1.506   3.641   2.667 -0.5424  0.7224 -1.3656
 9136SOL    HW239042   1.393   3.554   2.701  0.9355 -0.6400  1.3242
 9137SOL     OW39043   0.935   1.038  15.436  0.6189  0.2864 -0.2503
 9137SOL    HW139044   0.853   1.079  15.463  0.9992 -0.9125  2.8035
 9137SOL    HW239045   0.974   1.012  15.520  0.0645 -0.3569 -0.1997
 9138SOL     OW39046   4.076   3.707   3.540 -0.1914  0.2737  0.4287
 9138SOL    HW139047   4.012   3.770   3.572 -2.3880 -2.2174  0.8623
 9138SOL    HW239048   4.096   3.648   3.613  1.2338 -1.3274 -1.2497
 9139SOL     OW39049   3.867   3.491   7.071 -0.4825 -0.4752  0.3461
 9139SOL    HW139050   3.897   3.453   6.988 -1.7315  0.2864 -0.4541
 9139SOL    HW239051   3.790   3.537   7.039 -1.7453 -1.5227  1.9432
 9140SOL     OW39052   1.752   2.676   0.136  0.6111  0.2862 -0.1832
 9140SOL    HW139053   1.684   2.716   0.191 -0.3928 -0.1036 -1.1519
 9140SOL    HW239054   1.700   2.641   0.064  1.3049 -0.7615 -0.1608
 9141SOL     OW39055   2.304   2.434   2.958  0.2717  0.4943  0.1576
 9141SOL    HW139056   2.231   2.374   2.969 -0.5994  1.5855  0.2715
 9141SOL    HW239057   2.261   2.517   2.977 -2.8406 -0.9876 -0.4547
 9142SOL     OW39058   4.735   4.568   5.730 -0.9557 -0.3661 -0.7167
 9142SOL    HW139059   0.080   4.550   5.683 -1.1122  0.8530 -1.4689
 9142SOL    HW239060   0.031   4.646   5.775 -0.7754  0.1367 -1.7222
 9143SOL     OW39061   0.252   0.507   1.956  0.1222  0.9245  0.4191
 9143SOL    HW139062   0.178   0.477   2.010 -0.6737  0.8788 -0.6849
 9143SOL    HW239063   0.212   0.590   1.929 -0.4486 -0.0777 -1.8177
 9144SOL     OW39064   0.783   3.741   2.490 -0.7277 -0.5884 -0.1913
 9144SOL    HW139065   0.691   3.721   2.473 -0.5873 -1.0065 -0.4693
 9144SOL    HW239066   0.821   3.718   2.405  0.1064 -1.4069  0.4084
 9145SOL     OW39067   3.420   1.699   6.652  0.1835  0.0053 -0.2977
 9145SOL    HW139068   3.365   1.653   6.715 -0.2699  1.2891  0.2440
 9145SOL    HW239069   3.353   1.741   6.598 -0.6620 -1.4247 -0.3601
 9146SOL     OW39070   2.502   4.544   2.696 -0.4497  0.1232 -0.2418
 9146SOL    HW139071   2.503   4.551   2.600  1.1103  0.3934 -0.2017
 9146SOL    HW239072   2.429   4.484   2.711 -1.5664  1.8612  1.1960
 9147SOL     OW39073   1.726   0.031  13.574  0.2073  0.1942  0.0625
 9147SOL    HW139074   1.777   0.108  13.551  2.0475 -0.7696  0.9520
 9147SOL    HW239075   1.724   4.720  13.492 -1.7660  2.7909 -1.4173
 9148SOL     OW39076   3.806   0.155   8.424 -0.3587 -0.1651  0.1322
 9148SOL    HW139077   3.868   0.106   8.371 -0.5169 -0.5677  0.3146
 9148SOL    HW239078   3.797   0.100   8.503  0.0058 -0.4435 -0.0207
 9149SOL     OW39079   1.454   2.099   1.665 -0.5193  0.0606  0.3002
 9149SOL    HW139080   1.377   2.091   1.722 -2.4174 -0.3172 -2.3402
 9149SOL    HW239081   1.526   2.060   1.714 -0.4015 -1.0480 -0.7793
 9150SOL     OW39082   4.643   0.491  17.131 -0.1718 -0.3355 -0.1846
 9150SOL    HW139083   4.556   0.454  17.142  0.3817 -1.1155  1.5927
 9150SOL    HW239084   4.655   0.469  17.038 -1.1146 -0.8549 -0.1855
 9151SOL     OW39085   2.290   3.915  10.925 -0.1728 -0.0134 -1.0003
 9151SOL    HW139086   2.341   3.836  10.908  1.7174  0.5873  1.7595
 9151SOL    HW239087   2.205   3.872  10.932 -0.7574  1.3076  0.0621
 9152SOL     OW39088   1.521   3.564   6.330  0.0750 -0.1146 -0.2404
 9152SOL    HW139089   1.436   3.572   6.374  0.2614  0.9868 -0.0622
 9152SOL    HW239090   1.567   3.628   6.385  2.3905  0.0389 -2.3708
 9153SOL     OW39091   4.215   2.996   9.455 -0.1782 -0.0981  0.7749
 9153SOL    HW139092   4.238   2.926   9.516 -0.6712 -1.3252 -0.4442
 9153SOL    HW239093   4.185   2.947   9.378  0.3860  2.1471 -0.8681
 9154SOL     OW39094   2.525   1.117  12.227  0.3808 -0.3301 -0.1172
 9154SOL    HW139095   2.535   1.079  12.314 -1.7429 -0.3754  0.1280
 9154SOL    HW239096   2.612   1.151  12.206  0.1597 -0.7100 -1.6602
 9155SOL     OW39097   3.384   1.238   4.281  0.1531  0.3062  0.1352
 9155SOL    HW139098   3.418   1.302   4.219 -1.6775 -0.1180 -1.3199
 9155SOL    HW239099   3.357   1.165   4.226  0.3276  0.7664 -0.5693
 9156SOL     OW39100   1.836   2.923   6.914 -0.6670 -0.3721 -0.0300
 9156SOL    HW139101   1.743   2.915   6.891 -0.3773 -1.6097 -0.7709
 9156SOL    HW239102   1.886   2.888   6.841  0.1707  0.2556  0.2459
 9157SOL     OW39103   0.756   3.802   5.517 -0.1799 -0.3149 -0.1155
 9157SOL    HW139104   0.731   3.712   5.497 -0.9435 -0.3071  0.7890
 9157SOL    HW239105   0.850   3.808   5.503 -0.2817  0.7936 -0.3368
 9158SOL     OW39106   0.483   0.142  15.034 -0.0978  0.5003  0.3895
 9158SOL    HW139107   0.456   0.234  15.022  1.6969  0.8780 -0.6965
 9158SOL    HW239108   0.478   0.113  14.943 -1.4018 -0.0724  0.6389
 9159SOL     OW39109   4.505   0.190   6.075 -0.3237  0.0808  0.1473
 9159SOL    HW139110   4.438   0.251   6.106  0.2889 -0.1833  2.0153
 9159SOL    HW239111   4.491   0.119   6.137  0.4585  0.8457  1.2177
 9160SOL     OW39112   2.258   0.655   2.749 -0.0653  0.1190  0.1956
 9160SOL    HW139113   2.266   0.560   2.740 -0.3794 -0.3290  4.7115
 9160SOL    HW239114   2.192   0.675   2.682  1.6696  0.7819 -1.3270
 9161SOL     OW39115   2.890   1.915  12.916 -0.0506  0.2582  0.0236
 9161SOL    HW139116   2.820   1.854  12.939 -1.1198  1.0517 -1.1333
 9161SOL    HW239117   2.965   1.858  12.931 -0.2811  0.4230  1.7842
 9162SOL     OW39118   3.031   4.159   8.853 -0.4773  0.0014  0.1291
 9162SOL    HW139119   3.090   4.176   8.926 -0.7911 -0.5227  0.5114
 9162SOL    HW239120   2.995   4.245   8.836  0.6058  0.7390  1.5606
 9163SOL     OW39121   2.587   0.428   2.859 -0.4478  0.7193  0.1904
 9163SOL    HW139122   2.679   0.408   2.844 -0.2491 -0.1785  2.6755
 9163SOL    HW239123   2.573   0.393   2.947 -0.8335 -0.8834 -0.5093
 9164SOL     OW39124   2.322   1.148   4.265 -0.2634 -0.4286 -0.3648
 9164SOL    HW139125   2.338   1.087   4.193  2.8537 -0.4104  0.3074
 9164SOL    HW239126   2.400   1.202   4.250 -0.8153  0.1302 -1.2511
 9165SOL     OW39127   3.367   2.504   6.335  0.2876  0.5309 -0.1736
 9165SOL    HW139128   3.372   2.420   6.382 -0.4827  0.4075 -0.3198
 9165SOL    HW239129   3.449   2.492   6.287 -0.1437  0.7162 -0.9383
 9166SOL     OW39130   2.157   1.693   5.179  0.7296  0.3119  0.6503
 9166SOL    HW139131   2.191   1.613   5.138 -1.1906 -0.0596 -0.2020
 9166SOL    HW239132   2.238   1.744   5.181  0.5532  0.5880  0.7559
 9167SOL     OW39133   4.035   0.006   0.824  0.5275 -1.0276  0.0849
 9167SOL    HW139134   4.054   4.651   0.847 -2.3507 -1.8261 -0.7647
 9167SOL    HW239135   3.991   4.724   0.741 -1.4746 -0.9969  1.1392
 9168SOL     OW39136   0.433   1.823   7.120 -0.1086  0.5286 -0.9092
 9168SOL    HW139137   0.347   1.793   7.150  1.0909 -1.0700  0.9133
 9168SOL    HW239138   0.464   1.889   7.182  0.0800 -0.9627  0.5911
 9169SOL     OW39139   0.096   3.497   1.280  0.2555 -0.4748 -0.1739
 9169SOL    HW139140   0.012   3.537   1.301  0.3835 -1.6166  2.5076
 9169SOL    HW239141   0.112   3.434   1.351  0.2483  0.1936  0.4195
 9170SOL     OW39142   1.976   3.605   3.052 -0.2067  0.8210 -0.8755
 9170SOL    HW139143   1.959   3.618   2.959  1.6431  3.2183 -0.9094
 9170SOL    HW239144   1.920   3.675   3.086 -0.8801 -0.2266  0.1446
 9171SOL     OW39145   4.614   2.134   8.630 -0.2841  0.5249  0.2251
 9171SOL    HW139146   4.542   2.192   8.656 -0.5898  0.3314 -0.1862
 9171SOL    HW239147   4.570   2.049   8.631 -2.5383  1.6972  1.9175
 9172SOL     OW39148   4.238   0.392   7.781 -0.8187 -0.2348  0.7277
 9172SOL    HW139149   4.202   0.368   7.696  2.6087 -2.6980 -0.0036
 9172SOL    HW239150   4.224   0.487   7.772  1.8338  0.1188  0.3834
 9173SOL     OW39151   4.009   3.945   5.965  0.0870  0.1531 -0.4428
 9173SOL    HW139152   3.919   3.936   5.933  0.0985  1.4388 -0.8593
 9173SOL    HW239153   3.998   4.023   6.020  0.1439  0.0383 -0.2712
 9174SOL     OW39154   1.553   2.794   5.513 -0.4013 -0.2148 -0.0739
 9174SOL    HW139155   1.604   2.798   5.594  0.5941 -1.8663 -0.6349
 9174SOL    HW239156   1.545   2.888   5.495  1.0811 -0.1915 -0.5502
 9175SOL     OW39157   2.929   1.464   4.178 -0.6434  0.0969  0.1630
 9175SOL    HW139158   2.947   1.371   4.192  0.3762  0.3239  0.4260
 9175SOL    HW239159   2.959   1.517   4.252 -0.2461  2.7254 -1.8752
 9176SOL     OW39160   3.546   0.092   6.094  0.2909 -0.0228  0.0673
 9176SOL    HW139161   3.604   0.119   6.023  0.8654 -0.2835  0.4311
 9176SOL    HW239162   3.515   0.176   6.128  1.0412 -0.0335  0.8049
 9177SOL     OW39163   3.237   1.757   6.985 -0.3678  0.1119 -0.6205
 9177SOL    HW139164   3.182   1.702   7.041  1.0245 -1.5273 -0.8680
 9177SOL    HW239165   3.261   1.689   6.923  1.5724  1.5045 -1.3998
 9178SOL     OW39166   0.168   2.819   2.468 -1.2877 -0.0707 -0.3894
 9178SOL    HW139167   0.217   2.891   2.508 -2.2359  0.4148 -0.1038
 9178SOL    HW239168   0.218   2.741   2.493  0.8017  0.7326 -2.0183
 9179SOL     OW39169   2.540   4.050   6.739  0.0601 -0.5794  0.4300
 9179SOL    HW139170   2.468   4.021   6.795  0.5292  1.6012  2.2228
 9179SOL    HW239171   2.539   3.981   6.673 -1.9763 -1.8091  1.7338
 9180SOL     OW39172   2.173   4.349   9.205  0.1834  0.3695 -0.0754
 9180SOL    HW139173   2.166   4.434   9.161  0.1202  0.7114  0.5940
 9180SOL    HW239174   2.135   4.365   9.292 -0.0480  2.5376 -0.5870
 9181SOL     OW39175   2.074   2.127   8.624 -0.6230 -0.3278 -0.2290
 9181SOL    HW139176   1.997   2.127   8.681  0.4608 -0.8253  1.2196
 9181SOL    HW239177   2.085   2.035   8.600 -2.4081 -1.5542  3.7226
 9182SOL     OW39178   4.411   0.144   0.951 -0.4410 -0.0959 -0.1741
 9182SOL    HW139179   4.397   0.062   0.999 -1.3086 -0.3311 -0.8279
 9182SOL    HW239180   4.329   0.184   0.982 -1.7028 -0.6816 -2.7560
 9183SOL     OW39181   2.870   2.932  12.451  0.1006 -0.1960 -0.1143
 9183SOL    HW139182   2.914   2.867  12.395  0.5002 -0.3939  0.4321
 9183SOL    HW239183   2.928   2.933  12.527 -1.5605  0.3627  1.1354
 9184SOL     OW39184   0.656   2.777   8.056  0.7845  0.4652 -0.0641
 9184SOL    HW139185   0.580   2.773   8.114  0.9840  1.0292  0.2366
 9184SOL    HW239186   0.657   2.687   8.026  1.9934  0.3401  0.3445
 9185SOL     OW39187   2.660   2.484   2.577  0.4449 -0.0758 -0.1443
 9185SOL    HW139188   2.587   2.460   2.635  1.8042  1.7042  2.2694
 9185SOL    HW239189   2.728   2.423   2.605 -2.3435 -2.1918  2.0385
 9186SOL     OW39190   3.327   3.847  17.175 -0.3999 -0.4294 -0.0069
 9186SOL    HW139191   3.301   3.771  17.123 -0.2918 -1.0280  0.8126
 9186SOL    HW239192   3.246   3.898  17.182 -0.9472 -1.1246 -1.2958
 9187SOL     OW39193   2.811   3.139   5.113 -0.0262  0.1195  0.2013
 9187SOL    HW139194   2.903   3.116   5.103 -0.2491 -0.7531  0.0990
 9187SOL    HW239195   2.800   3.231   5.135  0.5966  0.0976  0.5931
 9188SOL     OW39196   2.141   0.731   9.568 -0.4233 -0.2006  0.1834
 9188SOL    HW139197   2.078   0.660   9.557 -1.2787  0.3177  1.6136
 9188SOL    HW239198   2.179   0.707   9.653 -0.4073  0.7695  0.4530
 9189SOL     OW39199   0.546   3.419  11.516 -0.0311 -0.0560  0.0954
 9189SOL    HW139200   0.454   3.446  11.521 -0.6128 -1.6845 -1.9521
 9189SOL    HW239201   0.528   3.329  11.492 -0.8280  0.2642 -0.5217
 9190SOL     OW39202   4.671   2.366  14.760 -0.2976  0.4207  0.2147
 9190SOL    HW139203   4.696   2.286  14.715 -0.8256  0.3973 -0.0298
 9190SOL    HW239204   4.730   2.359  14.835  0.3578  0.9940 -0.2434
 9191SOL     OW39205   1.298   2.507   4.417 -0.3813 -0.1162 -0.4479
 9191SOL    HW139206   1.253   2.493   4.334 -1.0892 -0.1751 -0.0543
 9191SOL    HW239207   1.222   2.510   4.475  0.0796 -0.2412  0.1696
 9192SOL     OW39208   3.154   4.446   5.901 -0.0831  0.0032 -0.3463
 9192SOL    HW139209   3.114   4.416   5.982  1.3055 -2.8619 -0.7394
 9192SOL    HW239210   3.244   4.414   5.900  0.0221  0.2791  1.0002
 9193SOL     OW39211   3.861   1.406   8.314 -0.0564 -0.4474 -0.0729
 9193SOL    HW139212   3.912   1.438   8.239 -0.6260 -0.0812 -0.3046
 9193SOL    HW239213   3.925   1.401   8.385  0.5504  1.4782 -0.5042
 9194SOL     OW39214   1.087   3.455   3.208  0.5449  0.4659 -0.1543
 9194SOL    HW139215   1.084   3.405   3.126  1.6103  0.0919  0.0271
 9194SOL    HW239216   1.104   3.389   3.275 -3.3899 -0.6289 -0.2457
 9195SOL     OW39217   2.281   2.113   5.729 -0.0967  0.0944  0.4868
 9195SOL    HW139218   2.232   2.050   5.781  0.3703 -0.1425  0.6332
 9195SOL    HW239219   2.336   2.157   5.793  0.7941 -0.4792  0.1045
 9196SOL     OW39220   0.730   1.952   7.750 -0.6328  0.3754  0.7121
 9196SOL    HW139221   0.669   1.909   7.689 -0.9090 -0.2899  1.4624
 9196SOL    HW239222   0.783   1.882   7.785 -0.6232 -0.1662 -0.3757
 9197SOL     OW39223   2.460   2.013  11.351 -0.0558 -0.1418 -0.4364
 9197SOL    HW139224   2.416   1.943  11.400  0.4320 -1.4797 -1.9015
 9197SOL    HW239225   2.549   1.978  11.357  0.3921  0.6600 -2.2729
 9198SOL     OW39226   2.704   1.704   8.042  0.2167 -0.3205 -0.1231
 9198SOL    HW139227   2.745   1.779   8.085  0.4174 -0.0726 -0.7511
 9198SOL    HW239228   2.741   1.720   7.955 -1.2083  1.4864 -0.4023
 9199SOL     OW39229   1.507   2.202   7.126 -0.3835 -0.4292  0.3105
 9199SOL    HW139230   1.548   2.176   7.043 -1.0023  0.9670 -0.4327
 9199SOL    HW239231   1.441   2.264   7.096  0.3142  0.9405  1.5915
 9200SOL     OW39232   4.026   1.048  15.623  0.3715 -0.0013  0.4028
 9200SOL    HW139233   4.012   0.956  15.642  0.9164 -0.1909 -0.1190
 9200SOL    HW239234   4.105   1.046  15.570  0.3821 -1.6374  0.4853
 9201SOL     OW39235   1.438   4.559  10.769  0.3288  0.6349  0.6403
 9201SOL    HW139236   1.438   4.500  10.694  0.4296  3.2889 -1.4271
 9201SOL    HW239237   1.345   4.560  10.789 -0.0380  2.4579 -1.1813
 9202SOL     OW39238   1.875   4.307   3.668 -0.5255 -0.0012 -0.0877
 9202SOL    HW139239   1.958   4.354   3.653 -1.0331  0.9412  0.0299
 9202SOL    HW239240   1.860   4.318   3.762  2.9097  0.5500  0.4153
 9203SOL     OW39241   0.519   3.105   2.685  0.2989 -0.3594 -0.3302
 9203SOL    HW139242   0.527   3.010   2.689  0.7395 -0.3818 -1.7620
 9203SOL    HW239243   0.594   3.135   2.634  2.5357  0.2235  3.3091
 9204SOL     OW39244   3.626   2.969   5.159  0.0335 -0.3115 -0.2817
 9204SOL    HW139245   3.611   2.916   5.237  0.2357  2.8135  1.8750
 9204SOL    HW239246   3.625   3.055   5.201  0.2920  0.3274 -1.5850
 9205SOL     OW39247   1.930   1.684   2.854 -0.0510  0.3378  0.2346
 9205SOL    HW139248   1.872   1.734   2.911  2.7651  1.4640  2.1151
 9205SOL    HW239249   1.997   1.664   2.919 -2.4447 -0.8492  2.3506
 9206SOL     OW39250   0.117   2.450   3.810 -0.4028 -0.1927 -0.3105
 9206SOL    HW139251   0.067   2.370   3.790 -2.7413  1.1724  0.0541
 9206SOL    HW239252   0.119   2.441   3.905 -0.9693 -0.0156 -0.2798
 9207SOL     OW39253   1.442   3.396   1.425 -0.2789 -0.5300 -0.2137
 9207SOL    HW139254   1.527   3.408   1.383 -0.3563  0.9378  0.0483
 9207SOL    HW239255   1.433   3.487   1.453  0.6938 -0.7403  0.7905
 9208SOL     OW39256   1.887   0.760   5.376  0.0299  0.3986  0.3238
 9208SOL    HW139257   1.894   0.733   5.284  1.8615 -1.4886  1.0087
 9208SOL    HW239258   1.801   0.725   5.401 -1.3316  2.6923 -1.2175
 9209SOL     OW39259   0.639   3.629  15.843 -0.7330 -0.1532  0.2603
 9209SOL    HW139260   0.716   3.608  15.896 -0.2495  3.4860  0.9405
 9209SOL    HW239261   0.683   3.620  15.759 -1.0300 -0.1013  0.0982
 9210SOL     OW39262   3.677   4.222  17.488 -0.4804 -0.0716  0.0451
 9210SOL    HW139263   3.693   4.130  17.508  1.0732 -0.0337 -1.0414
 9210SOL    HW239264   3.763   4.256  17.463 -0.1578 -1.8659 -1.2537
 9211SOL     OW39265   2.450   1.646   4.307  0.4425  0.2151 -0.0364
 9211SOL    HW139266   2.374   1.603   4.345 -0.1430 -0.0841 -1.5239
 9211SOL    HW239267   2.416   1.733   4.286 -0.6863  0.1023  1.3802
 9212SOL     OW39268   0.234   3.622   7.710  0.4284 -0.0616  0.3923
 9212SOL    HW139269   0.320   3.664   7.708  0.3405  0.1825  1.5710
 9212SOL    HW239270   0.201   3.659   7.628 -1.5462  0.4439  1.4065
 9213SOL     OW39271   0.426   3.312  14.039 -0.0455 -0.0461 -0.7182
 9213SOL    HW139272   0.399   3.244  13.977 -0.2555 -0.3361 -0.3109
 9213SOL    HW239273   0.492   3.354  13.985  0.3871 -2.4891 -2.0828
 9214SOL     OW39274   1.775   2.267   6.288 -0.1441 -0.0966 -0.0470
 9214SOL    HW139275   1.833   2.327   6.240 -0.1004  0.3942  0.6283
 9214SOL    HW239276   1.836   2.224   6.348 -0.3726 -0.1880  0.1193
 9215SOL     OW39277   2.346   1.237  16.890  0.0652  0.2002  0.3369
 9215SOL    HW139278   2.329   1.202  16.978 -1.4127 -1.0511 -0.4603
 9215SOL    HW239279   2.354   1.332  16.904 -0.3164  0.3203 -0.3031
 9216SOL     OW39280   3.670   0.658   0.096 -0.1664 -0.6019  0.1177
 9216SOL    HW139281   3.591   0.686   0.050 -0.8462 -1.6282  0.6586
 9216SOL    HW239282   3.648   0.656   0.189  0.2417  0.0030  0.2289
 9217SOL     OW39283   4.522   4.679   8.789  0.2275  0.1056 -0.3275
 9217SOL    HW139284   4.590   0.008   8.800  0.9196 -0.3725 -1.6736
 9217SOL    HW239285   4.444   4.722   8.824  0.6828  1.3991 -0.9170
 9218SOL     OW39286   3.219   4.117   8.633  0.7853  0.5089 -0.2287
 9218SOL    HW139287   3.138   4.105   8.585  0.5531  0.6873  0.1167
 9218SOL    HW239288   3.184   4.118   8.722 -0.2613  0.9217 -0.6458
 9219SOL     OW39289   0.248   4.091   8.654 -0.9007  0.3093 -0.1486
 9219SOL    HW139290   0.208   4.145   8.722  0.8708  0.2293  0.9449
 9219SOL    HW239291   0.271   4.164   8.597 -1.0278  1.1998  0.9486
 9220SOL     OW39292   0.570   0.153   4.046 -0.3640 -1.1221 -0.4153
 9220SOL    HW139293   0.660   0.183   4.042 -0.3317 -1.3965 -1.7811
 9220SOL    HW239294   0.522   0.226   4.007 -0.5976  0.3851  2.7533
 9221SOL     OW39295   1.730   3.935   9.605 -0.1843 -0.0453  0.5134
 9221SOL    HW139296   1.641   3.936   9.570 -0.1146  0.8898  0.3473
 9221SOL    HW239297   1.765   4.024   9.609  1.1651 -0.4779 -1.6169
 9222SOL     OW39298   3.180   0.166   2.358 -0.5076 -0.3903  0.0641
 9222SOL    HW139299   3.274   0.154   2.373 -0.7227  0.4044  2.0877
 9222SOL    HW239300   3.154   0.237   2.416 -0.1707 -1.3584  1.3839
 9223SOL     OW39301   3.456   1.653   4.377  0.6963 -0.0181  0.3717
 9223SOL    HW139302   3.460   1.684   4.286  1.6115 -3.3127 -0.7217
 9223SOL    HW239303   3.544   1.671   4.408  0.8326  1.7414 -1.0446
 9224SOL     OW39304   4.571   3.285   4.441  0.2631  0.3603  0.4608
 9224SOL    HW139305   4.555   3.223   4.512 -1.1590  0.8011  0.5336
 9224SOL    HW239306   4.518   3.363   4.458  2.3302  1.7689  0.4502
 9225SOL     OW39307   0.512   4.077  16.258  0.3495 -0.1785 -0.4680
 9225SOL    HW139308   0.469   4.102  16.176 -2.6401  1.0874  1.4776
 9225SOL    HW239309   0.598   4.114  16.239 -1.6207  3.1760 -2.6535
 9226SOL     OW39310   2.421   4.030   3.121  0.2086  0.5498  0.4923
 9226SOL    HW139311   2.488   3.979   3.074 -0.9232  0.2255 -0.7934
 9226SOL    HW239312   2.414   3.983   3.204  0.4670  0.2440  0.3389
 9227SOL     OW39313   0.036   1.466  15.293 -1.2953 -0.0749  0.3749
 9227SOL    HW139314   0.073   1.410  15.224  0.4201  1.6541 -0.1029
 9227SOL    HW239315   0.068   1.420  15.371 -1.3417 -0.3978  0.2020
 9228SOL     OW39316   4.193   3.155   8.148  0.2932 -0.1109 -0.0251
 9228SOL    HW139317   4.236   3.124   8.068  2.3811  2.7800 -0.0146
 9228SOL    HW239318   4.243   3.122   8.222 -1.1826  1.3219  1.6215
 9229SOL     OW39319   0.413   2.828   3.251  0.2845  0.0890  0.0531
 9229SOL    HW139320   0.460   2.822   3.334  1.3517 -1.5518 -0.6596
 9229SOL    HW239321   0.479   2.794   3.191  0.0325 -0.9878  0.3889
 9230SOL     OW39322   4.060   2.570  13.154 -0.3442  0.0136  0.7003
 9230SOL    HW139323   4.153   2.588  13.142 -0.1578 -1.7628 -0.4762
 9230SOL    HW239324   4.053   2.494  13.097  1.3935  0.4982 -0.1371
 9231SOL     OW39325   3.816   2.076   0.138  0.6538  0.0235  0.3951
 9231SOL    HW139326   3.742   2.125   0.101 -0.8724 -1.8102  1.0662
 9231SOL    HW239327   3.881   2.146   0.142  2.2819 -1.3883 -1.5847
 9232SOL     OW39328   3.211   1.253   0.738 -0.2371 -0.5409 -0.0258
 9232SOL    HW139329   3.304   1.278   0.741 -0.8253  1.7248 -1.4842
 9232SOL    HW239330   3.181   1.294   0.819 -0.7598  2.9150 -1.9779
 9233SOL     OW39331   4.597   2.922   5.481 -0.4642 -0.1392 -0.6026
 9233SOL    HW139332   4.522   2.933   5.423  0.1257 -0.1751 -1.3750
 9233SOL    HW239333   4.544   2.901   5.558 -2.6305  1.8484 -1.5638
 9234SOL     OW39334   2.881   3.010   6.710  0.4340  0.1124 -0.5301
 9234SOL    HW139335   2.844   3.065   6.642 -1.0936  2.1990  1.9585
 9234SOL    HW239336   2.923   2.948   6.651  1.4352  2.0408 -1.8542
 9235SOL     OW39337   4.060   4.524   7.223  0.6310  0.4435 -0.4499
 9235SOL    HW139338   3.996   4.478   7.277  0.2050 -0.4009 -1.6526
 9235SOL    HW239339   4.127   4.456   7.212  0.7614  0.7377 -1.4297
 9236SOL     OW39340   3.643   0.393   1.813  0.0791  0.3734  0.1093
 9236SOL    HW139341   3.619   0.483   1.788 -0.4211  0.3800  0.6089
 9236SOL    HW239342   3.661   0.351   1.729  1.9338 -0.7093  1.0570
 9237SOL     OW39343   2.131   3.646   6.295 -0.0805 -0.6475  0.3406
 9237SOL    HW139344   2.189   3.589   6.244 -2.1255 -1.5340 -1.0132
 9237SOL    HW239345   2.123   3.729   6.246 -1.0490 -0.3382  1.0204
 9238SOL     OW39346   0.640   4.427   4.847  0.5985  0.6068  0.1127
 9238SOL    HW139347   0.706   4.358   4.857 -0.5242 -0.2285  1.7307
 9238SOL    HW239348   0.660   4.484   4.773 -0.3466  2.0250  0.9386
 9239SOL     OW39349   2.888   4.138  14.457 -0.6018 -0.1439 -0.1391
 9239SOL    HW139350   2.841   4.083  14.394 -0.7618 -2.4932  2.0398
 9239SOL    HW239351   2.918   4.211  14.403  0.0072  0.8241  1.4848
 9240SOL     OW39352   3.509   4.159   7.915  0.3811 -0.2949 -0.0113
 9240SOL    HW139353   3.481   4.100   7.985 -0.3513  0.4040  0.2774
 9240SOL    HW239354   3.575   4.202   7.969 -0.5602 -0.2452  1.1049
 9241SOL     OW39355   0.791   3.326   8.634  0.0694  0.7334 -0.4358
 9241SOL    HW139356   0.824   3.364   8.553  4.6851 -0.5439  0.8448
 9241SOL    HW239357   0.876   3.300   8.669 -1.4771  0.8010  3.3636
 9242SOL     OW39358   1.549   3.537   8.831  0.3736 -0.0251  0.1093
 9242SOL    HW139359   1.611   3.494   8.889  1.2735  1.9810  0.6376
 9242SOL    HW239360   1.592   3.622   8.823  0.3690 -0.1359 -1.1083
 9243SOL     OW39361   2.629   2.458  15.072  0.2554 -0.1552  0.1226
 9243SOL    HW139362   2.628   2.468  15.167  0.9506 -1.6991  0.2973
 9243SOL    HW239363   2.561   2.514  15.036  0.2964  0.7796  1.5088
 9244SOL     OW39364   0.045   2.534   4.697 -0.2680 -0.5445  0.1094
 9244SOL    HW139365   0.134   2.567   4.710 -0.4409  0.6099 -1.5850
 9244SOL    HW239366   0.006   2.534   4.785  0.4376 -3.1374  0.4027
 9245SOL     OW39367   0.014   3.177   3.024 -0.1887  0.1576  0.0159
 9245SOL    HW139368   0.050   3.090   3.045 -1.8569  0.0148  2.2415
 9245SOL    HW239369   4.663   3.174   3.062  0.0831 -1.0355  0.5793
 9246SOL     OW39370   2.001   0.361   7.557 -0.1287 -0.4673 -0.0177
 9246SOL    HW139371   1.976   0.285   7.610 -0.9396  0.2903  0.6701
 9246SOL    HW239372   1.918   0.405   7.573  1.0802  1.8173 -0.0489
 9247SOL     OW39373   4.327   2.370   8.940 -0.4352 -0.6809 -0.1251
 9247SOL    HW139374   4.263   2.422   8.892 -0.9243  0.0736  1.3499
 9247SOL    HW239375   4.366   2.316   8.872 -0.9495  0.1103 -1.0436
 9248SOL     OW39376   2.853   4.057  12.327 -0.1905  0.5140  0.2703
 9248SOL    HW139377   2.886   4.117  12.394  1.1941  0.2029 -0.1318
 9248SOL    HW239378   2.759   4.065  12.343 -0.2741 -0.0365  0.0416
 9249SOL     OW39379   2.978   2.809  11.735  0.9887  0.1307 -0.1953
 9249SOL    HW139380   2.994   2.724  11.777 -0.3938 -0.0181  0.0525
 9249SOL    HW239381   2.941   2.866  11.803  1.7692  3.0428 -2.2090
 9250SOL     OW39382   1.836   1.917   4.638 -0.0249 -0.7344  0.4060
 9250SOL    HW139383   1.929   1.939   4.647 -1.1230  4.1297 -0.0900
 9250SOL    HW239384   1.797   1.996   4.675 -0.0117 -0.6953  0.3352
 9251SOL     OW39385   3.799   1.701   8.088  0.1252  0.0423  0.2126
 9251SOL    HW139386   3.818   1.794   8.075 -0.8045  0.3348  0.9863
 9251SOL    HW239387   3.706   1.695   8.067 -0.0164  1.6459  0.3547
 9252SOL     OW39388   4.618   2.732   5.876  0.1879 -0.4340  0.2129
 9252SOL    HW139389   4.624   2.747   5.970 -2.5924  2.0331  0.0361
 9252SOL    HW239390   4.637   2.639   5.870 -0.6329 -0.4827 -1.7487
 9253SOL     OW39391   1.082   1.740  14.329 -0.3986 -0.3568  0.3078
 9253SOL    HW139392   1.116   1.666  14.280  0.8240  0.7948 -0.5723
 9253SOL    HW239393   1.126   1.811  14.282 -0.7255 -0.3667 -0.0201
 9254SOL     OW39394   4.209   2.677   6.802 -0.4776  0.0574  0.1551
 9254SOL    HW139395   4.130   2.729   6.793  0.2525  1.1087 -0.1576
 9254SOL    HW239396   4.231   2.683   6.895 -0.7441  2.9798  0.0111
 9255SOL     OW39397   3.165   0.550   7.254 -0.1011 -0.2538  0.3586
 9255SOL    HW139398   3.073   0.578   7.249 -0.3195 -0.9326  0.5887
 9255SOL    HW239399   3.195   0.551   7.163  0.3949 -1.0280  0.5206
 9256SOL     OW39400   4.467   1.353   2.783  0.9311 -0.2749 -0.6548
 9256SOL    HW139401   4.533   1.373   2.849  0.1923  1.0628 -0.3247
 9256SOL    HW239402   4.465   1.257   2.785  2.3687 -0.2905  0.1737
 9257SOL     OW39403   3.399   3.423  11.571  0.2133  0.3914  0.0451
 9257SOL    HW139404   3.452   3.494  11.535  0.0634  1.2293  1.4728
 9257SOL    HW239405   3.356   3.378  11.498  0.7328  1.5013 -0.9587
 9258SOL     OW39406   0.671   0.717   8.525  0.5180 -0.3014  0.3771
 9258SOL    HW139407   0.623   0.663   8.462 -0.3679 -2.0584  2.5773
 9258SOL    HW239408   0.672   0.644   8.586  1.9765 -0.6069 -0.0182
 9259SOL     OW39409   1.223   0.368   5.122  0.3557  0.0120 -0.4004
 9259SOL    HW139410   1.150   0.413   5.162  0.6079  0.5049 -0.4957
 9259SOL    HW239411   1.192   0.278   5.117  0.4314 -0.0380  0.0348
 9260SOL     OW39412   3.263   0.431   4.647  0.4750  0.8598  0.5491
 9260SOL    HW139413   3.279   0.492   4.576 -1.2793  1.6513  0.8357
 9260SOL    HW239414   3.210   0.368   4.598  1.3220  1.3884 -1.0551
 9261SOL     OW39415   3.646   4.690   3.243  0.1534  0.3688 -0.0988
 9261SOL    HW139416   3.603   4.701   3.328 -1.2811 -3.1402 -0.3735
 9261SOL    HW239417   3.637   4.596   3.232 -2.2950  0.5480  0.2914
 9262SOL     OW39418   0.976   0.045   4.843 -0.0745 -0.3964 -0.1356
 9262SOL    HW139419   1.070   0.062   4.854 -0.1536  0.6519 -1.0783
 9262SOL    HW239420   0.989   4.720   4.771 -0.8428 -1.0546  0.2861
 9263SOL     OW39421   1.982   1.146   8.592 -0.2745 -0.2685  0.3445
 9263SOL    HW139422   1.996   1.204   8.667 -1.8122 -0.1414  0.5434
 9263SOL    HW239423   1.889   1.122   8.598 -0.4029  0.2220  0.3290
 9264SOL     OW39424   3.031   4.067   5.356  0.1533  0.2834  0.7970
 9264SOL    HW139425   3.092   4.077   5.283 -0.4557  0.0628  0.2568
 9264SOL    HW239426   3.064   4.119   5.429  2.1523 -0.7145  0.6200
 9265SOL     OW39427   1.511   0.947   8.135 -0.2899 -0.3517 -0.0247
 9265SOL    HW139428   1.550   1.007   8.199 -0.0807  0.5102 -0.9603
 9265SOL    HW239429   1.440   1.003   8.106 -0.9912 -1.9959 -1.4917
 9266SOL     OW39430   1.743   2.987   3.116  0.3214  0.1612 -0.6438
 9266SOL    HW139431   1.748   2.892   3.104  2.3628  0.1412  0.3263
 9266SOL    HW239432   1.780   2.980   3.204 -0.9768 -0.3421 -0.1446
 9267SOL     OW39433   2.647   2.555  13.430 -0.1270 -0.1419 -0.6155
 9267SOL    HW139434   2.653   2.460  13.418 -1.7473 -0.6786  2.9140
 9267SOL    HW239435   2.739   2.581  13.420 -0.2234 -0.1684 -1.5510
 9268SOL     OW39436   0.479   0.667   4.131  1.0919  0.5536  0.5929
 9268SOL    HW139437   0.439   0.694   4.048  0.0996 -0.1842  0.8330
 9268SOL    HW239438   0.409   0.614   4.169  0.0129  1.1383 -0.5744
 9269SOL     OW39439   2.346   1.980   8.039  0.1975  0.7686 -0.7628
 9269SOL    HW139440   2.417   1.972   8.102  0.8113  1.9152 -1.2890
 9269SOL    HW239441   2.275   1.927   8.074  1.4399  0.6069  1.4953
 9270SOL     OW39442   4.486   1.182   6.443 -0.4798  0.2520 -0.7565
 9270SOL    HW139443   4.563   1.213   6.491  0.2389  1.5626 -2.7602
 9270SOL    HW239444   4.413   1.229   6.482 -1.5161 -1.0676 -1.1075
 9271SOL     OW39445   1.581   1.886   7.979  0.0244  0.6523  0.1703
 9271SOL    HW139446   1.660   1.843   7.946 -1.6439 -1.8575 -0.5343
 9271SOL    HW239447   1.593   1.871   8.073 -0.5543  1.2042  0.3319
 9272SOL     OW39448   0.709   2.186   4.109 -0.6123 -0.1396 -0.5228
 9272SOL    HW139449   0.749   2.099   4.114  0.3156  0.3968  1.4178
 9272SOL    HW239450   0.662   2.188   4.193  0.0557  1.1552 -0.1704
 9273SOL     OW39451   0.071   0.686   2.637 -0.0403  0.5728  0.4618
 9273SOL    HW139452   0.076   0.623   2.709  0.3869  1.2540  1.0214
 9273SOL    HW239453   4.719   0.669   2.607  0.4481 -0.5797 -0.3507
 9274SOL     OW39454   2.903   2.608   7.733  0.2770 -0.4015  0.3797
 9274SOL    HW139455   2.992   2.638   7.747  0.4974 -0.5160 -0.7873
 9274SOL    HW239456   2.910   2.514   7.750  0.1140 -0.2965  1.0549
 9275SOL     OW39457   0.240   0.523  14.745  0.2781 -0.0726  0.1704
 9275SOL    HW139458   0.174   0.580  14.783  0.6290  0.7050 -0.3825
 9275SOL    HW239459   0.191   0.446  14.714  0.1351  0.1331 -0.1153
 9276SOL     OW39460   4.379   0.123   9.394  0.0134 -0.1112  0.2895
 9276SOL    HW139461   4.453   0.150   9.448  0.1926 -1.0488  0.5252
 9276SOL    HW239462   4.344   0.205   9.360  0.2107 -1.1658 -2.4571
 9277SOL     OW39463   3.608   3.200  16.339 -0.1593 -0.4702  0.0124
 9277SOL    HW139464   3.655   3.281  16.354 -2.2586  0.7909 -0.2349
 9277SOL    HW239465   3.536   3.208  16.402 -1.3802 -0.9688 -1.3184
 9278SOL     OW39466   2.867   1.073   5.968  0.7070 -0.5242 -0.4361
 9278SOL    HW139467   2.876   0.984   5.932 -1.6595 -1.2148  0.7212
 9278SOL    HW239468   2.857   1.043   6.058 -2.0920 -0.6629 -0.8053
 9279SOL     OW39469   2.569   2.797   4.533  0.1898  0.5798  0.1704
 9279SOL    HW139470   2.631   2.817   4.463 -0.4444 -0.0781 -0.5905
 9279SOL    HW239471   2.556   2.886   4.565  0.9212  0.3556  1.0780
 9280SOL     OW39472   1.475   0.729  13.347 -0.1422 -0.3045  0.0788
 9280SOL    HW139473   1.468   0.819  13.317  0.2708 -0.7006 -1.2310
 9280SOL    HW239474   1.392   0.728  13.394 -1.6293  2.6529 -2.4837
 9281SOL     OW39475   1.506   1.701   9.222 -0.0353 -0.1686  0.6556
 9281SOL    HW139476   1.588   1.651   9.219 -1.2885 -2.1141 -0.8263
 9281SOL    HW239477   1.494   1.721   9.129  0.8696 -1.2088  0.3076
 9282SOL     OW39478   3.778   1.712  10.366 -0.1523 -0.0727  0.5041
 9282SOL    HW139479   3.824   1.628  10.374 -2.5024 -1.2550  1.6760
 9282SOL    HW239480   3.789   1.749  10.454  1.6189 -1.2545  0.7848
 9283SOL     OW39481   3.884   3.654   8.110  0.1255 -0.0196  0.1448
 9283SOL    HW139482   3.915   3.707   8.183  1.3241  0.8124 -0.9581
 9283SOL    HW239483   3.920   3.706   8.038 -1.2267 -1.8847 -1.8541
 9284SOL     OW39484   2.607   1.638   4.069 -0.0461 -0.1451 -0.2838
 9284SOL    HW139485   2.631   1.545   4.066 -1.1374 -0.4672  0.6615
 9284SOL    HW239486   2.580   1.643   4.161  1.9778  0.5116  0.2629
 9285SOL     OW39487   0.555   4.544   7.142  0.1416 -0.2229 -0.1740
 9285SOL    HW139488   0.514   4.489   7.075 -0.7717 -1.2837  1.2506
 9285SOL    HW239489   0.482   4.580   7.193 -0.0717  1.4222 -1.6517
 9286SOL     OW39490   3.553   4.707   8.225 -0.5169  0.0873  0.0193
 9286SOL    HW139491   3.637   0.016   8.225 -1.8477  2.5591  0.1566
 9286SOL    HW239492   3.496   0.033   8.180 -0.3368  0.2754  0.0538
 9287SOL     OW39493   0.545   2.269   8.596  0.2498 -0.1518  0.1602
 9287SOL    HW139494   0.606   2.315   8.653 -1.4274  2.3848 -0.0855
 9287SOL    HW239495   0.465   2.262   8.649 -0.7761 -3.0178 -1.7389
 9288SOL     OW39496   1.669   4.515   2.064  0.3895 -0.0269 -0.0405
 9288SOL    HW139497   1.577   4.521   2.038  0.9039 -0.3631 -1.9002
 9288SOL    HW239498   1.656   4.513   2.159  1.7964  1.5495  0.1904
 9289SOL     OW39499   1.789   2.666   2.064  0.2333  0.4047  0.5588
 9289SOL    HW139500   1.769   2.574   2.078  0.8828  0.2500  0.4601
 9289SOL    HW239501   1.884   2.672   2.048  0.2722 -0.4995  0.5014
 9290SOL     OW39502   3.963   1.143   6.754  0.0366  0.4658  0.5194
 9290SOL    HW139503   3.894   1.207   6.768 -0.6501  0.0833 -1.0468
 9290SOL    HW239504   4.008   1.132   6.838 -1.4184 -2.4322  0.9250
 9291SOL     OW39505   0.385   2.155   4.732 -0.1126 -0.0190  0.4418
 9291SOL    HW139506   0.425   2.218   4.673 -0.8291 -0.1779 -0.2088
 9291SOL    HW239507   0.384   2.206   4.814 -1.5661 -0.1052  0.4801
 9292SOL     OW39508   1.504   4.095   5.266  1.2924 -0.1814  0.4055
 9292SOL    HW139509   1.569   4.100   5.196  0.8807  0.6665  0.0787
 9292SOL    HW239510   1.558   4.133   5.335  1.1804  0.0561  0.3647
 9293SOL     OW39511   3.832   4.431   3.147 -0.1911  0.0969  0.2886
 9293SOL    HW139512   3.846   4.376   3.225 -0.2894 -1.6760 -0.9438
 9293SOL    HW239513   3.740   4.433   3.174  0.8123  4.6857  3.2695
 9294SOL     OW39514   2.420   3.667  10.963 -0.3024  0.2212  0.1499
 9294SOL    HW139515   2.351   3.646  11.026  1.1809 -3.7604  0.4911
 9294SOL    HW239516   2.427   3.579  10.927  1.4952  1.2068 -1.9063
 9295SOL     OW39517   4.413   3.512   5.823  0.0672 -0.0521 -0.1453
 9295SOL    HW139518   4.444   3.528   5.734 -0.4146 -0.6722 -0.4254
 9295SOL    HW239519   4.439   3.590   5.872 -0.8577  1.3304 -1.8347
 9296SOL     OW39520   2.826   4.039  11.091  0.2957 -0.1736  0.1304
 9296SOL    HW139521   2.833   3.960  11.037 -1.5734  0.6597 -1.3482
 9296SOL    HW239522   2.847   4.108  11.028 -0.0248 -0.3074 -0.1220
 9297SOL     OW39523   2.576   4.632   6.562  0.0953 -0.0936 -0.0852
 9297SOL    HW139524   2.489   4.665   6.540 -0.2887 -1.3194 -0.3884
 9297SOL    HW239525   2.565   4.537   6.564 -0.3542 -0.0197  0.7461
 9298SOL     OW39526   3.545   2.145  11.121 -0.4453 -0.3565 -0.8371
 9298SOL    HW139527   3.462   2.097  11.126 -1.5775  1.6732 -0.4621
 9298SOL    HW239528   3.544   2.197  11.201 -2.5223 -1.2863 -0.2418
 9299SOL     OW39529   1.493   2.067  15.472  0.2393  0.6356  0.6184
 9299SOL    HW139530   1.482   1.976  15.501 -0.3477  0.2902 -0.6814
 9299SOL    HW239531   1.423   2.071  15.407  0.4064 -0.4330  0.3635
 9300SOL     OW39532   1.966   4.163   8.744 -0.6240 -0.0015  1.0334
 9300SOL    HW139533   1.958   4.247   8.699 -0.3363  0.0012  0.9883
 9300SOL    HW239534   2.057   4.160   8.774 -0.3938 -1.4818  0.2082
 9301SOL     OW39535   0.341   1.644   6.260  0.4321 -0.5238 -0.0527
 9301SOL    HW139536   0.274   1.580   6.236 -1.1586  0.9039  0.5874
 9301SOL    HW239537   0.415   1.584   6.272  0.5580 -0.1472  1.0309
 9302SOL     OW39538   3.103   4.120   4.669 -0.3106 -0.6110  0.0681
 9302SOL    HW139539   3.160   4.045   4.684  0.1588 -0.8069 -2.7567
 9302SOL    HW239540   3.116   4.140   4.576 -0.3895  0.7021  0.3350
 9303SOL     OW39541   2.038   2.571   3.164 -0.4608  0.2148  0.2890
 9303SOL    HW139542   2.096   2.619   3.105  1.1959  0.2775  1.9686
 9303SOL    HW239543   2.083   2.567   3.248  0.2921  0.2356 -0.1140
 9304SOL     OW39544   0.473   4.125  17.592  0.6014  0.1642  0.3993
 9304SOL    HW139545   0.408   4.059  17.614  1.1386  0.1818  2.1047
 9304SOL    HW239546   0.449   4.127  17.500  0.1012 -4.7844  0.4290
 9305SOL     OW39547   2.649   2.774  11.572  0.5186  0.3463 -0.4375
 9305SOL    HW139548   2.664   2.792  11.479  0.3192  2.2389 -0.1066
 9305SOL    HW239549   2.607   2.853  11.606 -0.3244 -0.1143 -0.4028
 9306SOL     OW39550   3.567   0.654   2.277  0.0170 -0.1318 -0.3872
 9306SOL    HW139551   3.599   0.564   2.271  0.4338 -0.0531  0.6763
 9306SOL    HW239552   3.585   0.669   2.370  2.6581 -1.4788 -0.6818
 9307SOL     OW39553   3.233   3.188   6.370 -0.7609 -0.3881  0.1243
 9307SOL    HW139554   3.154   3.242   6.362  2.5153  4.3875  0.4640
 9307SOL    HW239555   3.201   3.099   6.384  1.2608 -1.0619  0.3594
 9308SOL     OW39556   4.150   3.130   5.791  0.2693 -0.0283  0.2411
 9308SOL    HW139557   4.228   3.177   5.761  0.8561 -0.8600  0.4667
 9308SOL    HW239558   4.082   3.197   5.790  0.0111 -0.2947 -0.0399
 9309SOL     OW39559   4.439   3.529   4.574  0.5977  0.2321  0.2134
 9309SOL    HW139560   4.379   3.484   4.633 -0.8334  0.9099 -0.7206
 9309SOL    HW239561   4.391   3.598   4.527 -1.3580 -0.5363  1.0919
 9310SOL     OW39562   1.000   0.584   3.607  0.3857  0.6085 -0.0997
 9310SOL    HW139563   0.936   0.566   3.538  1.3110 -0.8023 -0.5950
 9310SOL    HW239564   1.003   0.679   3.615  0.3432  0.3474  2.7636
 9311SOL     OW39565   3.505   1.616   0.572 -0.0746 -0.2623 -0.4759
 9311SOL    HW139566   3.475   1.706   0.562 -1.3579 -0.6361  0.0511
 9311SOL    HW239567   3.513   1.587   0.481  0.8165 -1.8863  0.1246
 9312SOL     OW39568   3.938   2.867   2.788 -0.7640  0.0737  0.2873
 9312SOL    HW139569   3.971   2.929   2.723  2.6509 -0.2218  1.7820
 9312SOL    HW239570   4.013   2.810   2.801  1.0547  2.2523 -0.7108
 9313SOL     OW39571   0.253   1.282   6.781 -0.3499 -0.2797  0.3460
 9313SOL    HW139572   0.273   1.214   6.715  0.2422  0.5051 -0.2830
 9313SOL    HW239573   0.185   1.235   6.828  1.3099 -1.3023  1.7507
 9314SOL     OW39574   1.027   3.340   9.017 -0.0455 -0.4809  0.4245
 9314SOL    HW139575   1.101   3.380   9.061 -0.1512  0.2466 -0.0668
 9314SOL    HW239576   0.957   3.405   9.013  1.6193  1.5496  4.0159
 9315SOL     OW39577   3.101   2.895   0.709  0.3154 -0.1163  0.3044
 9315SOL    HW139578   3.117   2.864   0.620 -1.8499  2.2412 -0.9241
 9315SOL    HW239579   3.171   2.958   0.727  1.3313 -1.4994  1.1063
 9316SOL     OW39580   2.604   0.986   2.014  0.3481  0.2935  0.0570
 9316SOL    HW139581   2.606   1.069   2.062 -0.2324  0.8926 -0.9468
 9316SOL    HW239582   2.693   0.982   1.978 -0.2873 -0.0377 -1.4898
 9317SOL     OW39583   0.259   2.285   8.076 -0.0415  0.6379 -0.9203
 9317SOL    HW139584   0.334   2.227   8.062 -1.2893 -1.0959 -0.4346
 9317SOL    HW239585   0.295   2.350   8.137  1.1052 -2.2113  1.4196
 9318SOL     OW39586   2.748   2.582   6.422  0.0054  0.5887 -0.0843
 9318SOL    HW139587   2.807   2.515   6.386 -1.4434 -0.7599  0.0696
 9318SOL    HW239588   2.672   2.561   6.369  0.7226  1.5102 -1.4588
 9319SOL     OW39589   4.097   2.768   4.682  0.0791 -0.4353 -0.5198
 9319SOL    HW139590   4.167   2.715   4.721  0.1244  0.2837  0.3672
 9319SOL    HW239591   4.132   2.792   4.597  0.5451 -0.8447 -0.4466
 9320SOL     OW39592   3.707   0.957  11.487  0.2019 -0.0732 -0.3872
 9320SOL    HW139593   3.797   0.926  11.492  0.3688  1.1549  4.1668
 9320SOL    HW239594   3.661   0.905  11.552  0.7242 -0.6904 -0.5184
 9321SOL     OW39595   1.066   3.292   8.699 -0.0209 -0.8070 -0.3114
 9321SOL    HW139596   1.143   3.248   8.734  0.7286  0.9574  0.2659
 9321SOL    HW239597   1.100   3.337   8.622  0.6095 -0.1327  0.3659
 9322SOL     OW39598   3.816   3.646   7.664 -0.3138  0.2022 -0.3294
 9322SOL    HW139599   3.866   3.714   7.619 -1.0393  1.8976  1.4106
 9322SOL    HW239600   3.759   3.714   7.699 -0.2905 -0.1088  0.3155
 9323SOL     OW39601   1.175   3.157  16.955 -0.1830  0.8652 -0.2638
 9323SOL    HW139602   1.130   3.110  16.885  0.2322 -1.3909  0.9791
 9323SOL    HW239603   1.227   3.086  16.993  0.2061  0.1988 -2.0580
 9324SOL     OW39604   1.027   2.516  16.576  0.1013  0.2731 -0.0778
 9324SOL    HW139605   1.042   2.611  16.575 -2.1875  0.6108 -1.5711
 9324SOL    HW239606   0.969   2.514  16.652  0.4430 -1.5463  0.1415
 9325SOL     OW39607   4.256   4.435   4.274 -0.1611 -0.2876 -0.2239
 9325SOL    HW139608   4.323   4.495   4.240  0.0196 -1.2070 -1.4733
 9325SOL    HW239609   4.240   4.480   4.358  1.6218  1.2785 -0.7147
 9326SOL     OW39610   4.018   0.062  12.939  0.1584 -0.0832 -0.3819
 9326SOL    HW139611   4.085   0.126  12.964  0.8244 -1.0847  0.3886
 9326SOL    HW239612   4.034   0.062  12.844  0.2999  0.9547 -0.3651
 9327SOL     OW39613   4.172   2.090   5.206 -0.0052  0.1673  0.1425
 9327SOL    HW139614   4.141   2.048   5.287 -0.2528  0.8473  0.3990
 9327SOL    HW239615   4.266   2.092   5.222  0.1579  0.2227 -0.7983
 9328SOL     OW39616   2.077   2.368   4.134 -0.3971 -0.3580  0.5385
 9328SOL    HW139617   2.033   2.301   4.187  0.1644  0.0067  1.4529
 9328SOL    HW239618   2.008   2.418   4.090  1.6136  1.5801 -0.4352
 9329SOL     OW39619   0.129   2.407   6.014 -0.0806 -0.2882 -0.1142
 9329SOL    HW139620   0.171   2.470   6.073  1.6063 -1.2156 -0.3156
 9329SOL    HW239621   0.188   2.417   5.939 -1.0424  0.4919 -0.7671
 9330SOL     OW39622   4.038   4.135   0.934  0.3570  0.0239 -0.5734
 9330SOL    HW139623   4.052   4.166   0.844  0.6393  1.4099 -0.0612
 9330SOL    HW239624   4.126   4.128   0.971  0.4703  2.1112 -0.4128
 9331SOL     OW39625   2.179   0.807   3.957 -0.1032  0.5631 -0.0966
 9331SOL    HW139626   2.199   0.731   4.011 -2.7527  0.5720  0.8965
 9331SOL    HW239627   2.243   0.795   3.887 -0.2029 -1.7705  0.1985
 9332SOL     OW39628   4.085   0.272   9.005 -0.2585 -0.1277 -0.0195
 9332SOL    HW139629   4.109   0.189   8.965 -1.3284  0.4384 -1.7957
 9332SOL    HW239630   4.061   0.245   9.094  1.3956 -2.6261 -0.3479
 9333SOL     OW39631   1.657   3.020   5.887  0.5948 -0.1670  0.4232
 9333SOL    HW139632   1.609   3.059   5.814  0.0812  0.3871  1.0586
 9333SOL    HW239633   1.649   3.091   5.951 -1.7341 -0.3419  0.3175
 9334SOL     OW39634   0.714   4.656   2.487  0.0747 -0.3621 -0.1597
 9334SOL    HW139635   0.719   4.574   2.537  2.6247 -0.9260 -1.3125
 9334SOL    HW239636   0.620   4.662   2.472  0.3190  0.5377 -1.3711
 9335SOL     OW39637   4.680   0.170   6.371  0.8705 -0.0491 -0.0515
 9335SOL    HW139638   4.696   0.076   6.385  1.1297  0.2896  1.9045
 9335SOL    HW239639   4.690   0.208   6.458 -2.5643 -1.4309  0.9421
 9336SOL     OW39640   1.634   1.025   6.253 -0.2422 -0.4848 -0.1146
 9336SOL    HW139641   1.708   0.964   6.249 -0.2347 -0.4563 -0.4598
 9336SOL    HW239642   1.668   1.086   6.187  2.4568 -0.0134  1.7077
 9337SOL     OW39643   1.081   2.282   9.124  0.3188 -0.7408  0.5788
 9337SOL    HW139644   1.078   2.186   9.116  4.0777 -0.8330  0.2152
 9337SOL    HW239645   1.020   2.291   9.197  0.6447  0.3961  0.7108
 9338SOL     OW39646   1.968   2.393   0.036 -0.4435  0.4296  0.4744
 9338SOL    HW139647   1.981   2.299   0.050 -0.1983  0.1229 -1.8872
 9338SOL    HW239648   2.049   2.435   0.064 -0.2255 -0.3341  1.0221
 9339SOL     OW39649   1.414   2.030  13.629 -0.3988 -0.3844 -0.2104
 9339SOL    HW139650   1.502   1.996  13.615 -0.1129  0.3341 -0.1644
 9339SOL    HW239651   1.429   2.105  13.686 -1.3873 -0.5923  0.3250
 9340SOL     OW39652   4.326   4.688  10.542 -0.2793 -0.2538 -0.7110
 9340SOL    HW139653   4.294   4.671  10.454 -0.4834 -0.1936 -0.6490
 9340SOL    HW239654   4.360   0.040  10.538  1.8731 -1.0126  0.6673
 9341SOL     OW39655   1.936   2.640   6.390 -0.9910 -0.0642  0.0040
 9341SOL    HW139656   1.865   2.669   6.334 -2.5583  0.3348  2.2184
 9341SOL    HW239657   1.994   2.716   6.387 -1.3287  0.1857 -0.1855
 9342SOL     OW39658   2.793   1.553   5.474 -0.6461  0.3192 -0.1485
 9342SOL    HW139659   2.828   1.552   5.386  0.2315  0.7179  0.1967
 9342SOL    HW239660   2.728   1.485   5.460  1.6455 -1.8382 -0.2249
 9343SOL     OW39661   2.660   0.739   7.855 -0.3975  0.4121 -0.0971
 9343SOL    HW139662   2.682   0.682   7.782 -2.4140 -0.4938  0.0036
 9343SOL    HW239663   2.724   0.810   7.846 -0.1151  0.0006 -1.4166
 9344SOL     OW39664   0.424   1.241   2.219  0.3120  0.0753  0.1086
 9344SOL    HW139665   0.431   1.312   2.154  2.4320 -0.8921 -0.7285
 9344SOL    HW239666   0.362   1.180   2.179  1.4816 -2.5177  2.2766
 9345SOL     OW39667   3.312   0.281  14.618  0.0598 -0.5375  0.3495
 9345SOL    HW139668   3.366   0.239  14.551  0.3295  0.0352  0.2086
 9345SOL    HW239669   3.236   0.230  14.589  0.4652 -0.1385 -1.4441
 9346SOL     OW39670   4.586   0.841  16.954  0.0780  0.2384 -0.2296
 9346SOL    HW139671   4.566   0.808  17.041 -3.0832  0.1400 -0.9690
 9346SOL    HW239672   4.503   0.815  16.912 -1.6670  2.5847  1.7847
 9347SOL     OW39673   1.781   1.463   7.317  0.4466 -0.5301  0.3271
 9347SOL    HW139674   1.790   1.369   7.303  0.0254 -0.7821  1.7097
 9347SOL    HW239675   1.735   1.491   7.238 -1.0851  0.7609  1.6668
 9348SOL     OW39676   2.607   1.723  13.668 -0.0377 -1.0387 -0.1677
 9348SOL    HW139677   2.674   1.754  13.729  0.5844 -1.0550 -0.8442
 9348SOL    HW239678   2.630   1.630  13.666  1.3162 -0.6944 -0.6048
 9349SOL     OW39679   2.276   0.474  11.545 -0.3457  0.4953  0.0005
 9349SOL    HW139680   2.349   0.469  11.607  0.0338 -0.1070 -0.5029
 9349SOL    HW239681   2.310   0.470  11.456  0.5329  1.6257  0.2878
 9350SOL     OW39682   3.740   2.635  16.107 -0.0929  0.1086  0.0878
 9350SOL    HW139683   3.689   2.572  16.157 -0.1659 -1.5099 -2.0383
 9350SOL    HW239684   3.701   2.716  16.140  1.1623  1.1507 -0.9654
 9351SOL     OW39685   4.305   1.943   2.673 -0.0100 -0.5150 -0.2417
 9351SOL    HW139686   4.268   1.914   2.757  1.3223 -0.8557  0.2301
 9351SOL    HW239687   4.399   1.959   2.679 -0.4224  2.2228 -1.4190
 9352SOL     OW39688   2.578   3.766   6.736  0.1626  0.9630  1.1627
 9352SOL    HW139689   2.514   3.807   6.794 -0.4948 -0.4285  1.4268
 9352SOL    HW239690   2.589   3.686   6.788 -1.0124  1.1152  1.6294
 9353SOL     OW39691   1.022   2.557   4.460  0.1192 -0.6619  0.0247
 9353SOL    HW139692   1.017   2.585   4.369  0.7566 -0.4701  0.0502
 9353SOL    HW239693   0.936   2.516   4.473 -0.4056 -0.1809 -2.0859
 9354SOL     OW39694   2.981   0.643   9.751  0.0001  0.1614  0.2834
 9354SOL    HW139695   2.923   0.615   9.822  0.2596 -1.0503  0.0148
 9354SOL    HW239696   3.068   0.640   9.791 -0.6222 -0.4755  1.6041
 9355SOL     OW39697   3.088   3.324  13.207  0.1895 -0.2673 -0.2969
 9355SOL    HW139698   3.132   3.356  13.128  0.1556  1.1483  0.2608
 9355SOL    HW239699   3.017   3.385  13.224 -0.2322 -1.1099  1.0255
 9356SOL     OW39700   1.552   1.970   1.952 -0.5348 -0.1224 -0.5870
 9356SOL    HW139701   1.524   2.059   1.970 -0.4131 -0.2449  0.2080
 9356SOL    HW239702   1.618   1.960   2.021 -0.2713  0.1421 -0.7986
 9357SOL     OW39703   2.814   3.790   9.635  0.0215  0.0364  0.0188
 9357SOL    HW139704   2.761   3.866   9.661 -1.8788 -1.8962  1.8166
 9357SOL    HW239705   2.881   3.787   9.703  0.8698  0.2891 -0.8059
 9358SOL     OW39706   2.017   2.746  15.508 -0.1805 -0.1702 -0.5144
 9358SOL    HW139707   2.043   2.788  15.426 -1.0411  2.1182  0.3898
 9358SOL    HW239708   2.037   2.821  15.565 -4.3254 -0.3689  1.1709
 9359SOL     OW39709   0.673   3.873   8.823 -0.0819  0.6424  0.2878
 9359SOL    HW139710   0.629   3.818   8.887 -2.4470  1.1128 -0.9486
 9359SOL    HW239711   0.623   3.853   8.744 -1.6683 -1.3876  1.8263
 9360SOL     OW39712   4.714   3.954   6.301  0.1223 -0.2885 -0.0188
 9360SOL    HW139713   0.042   4.016   6.267 -1.3974  0.1939 -1.9740
 9360SOL    HW239714   4.691   3.991   6.386 -0.8162  1.1417 -0.9103
 9361SOL     OW39715   3.932   2.763   5.976 -0.1304  0.3520  1.0326
 9361SOL    HW139716   3.844   2.752   6.012 -1.5529  2.8427 -1.6493
 9361SOL    HW239717   3.929   2.693   5.911  0.4777  4.4204 -3.3919
 9362SOL     OW39718   2.009   0.109   9.842 -0.4463  0.3440 -0.2207
 9362SOL    HW139719   2.059   0.179   9.883 -0.9213  0.8143 -0.4571
 9362SOL    HW239720   1.924   0.136   9.875 -0.1965  1.2933 -0.3438
 9363SOL     OW39721   3.988   2.283   5.719  0.1934 -0.0244 -0.0415
 9363SOL    HW139722   3.910   2.230   5.739  0.7452  0.0176  2.2482
 9363SOL    HW239723   4.058   2.219   5.705 -0.7495 -1.4071  1.5550
 9364SOL     OW39724   4.703   4.686   5.333  0.2457 -0.7642 -0.0275
 9364SOL    HW139725   0.016   4.616   5.374  2.4508 -0.1339 -1.6636
 9364SOL    HW239726   4.623   4.636   5.314 -0.9182  1.6858 -1.4689
 9365SOL     OW39727   1.061   3.933   9.394 -0.0591 -0.1809  1.0296
 9365SOL    HW139728   1.147   3.947   9.434  0.4654  1.8782 -0.8996
 9365SOL    HW239729   1.078   3.936   9.300  1.7593  0.4341  1.3856
 9366SOL     OW39730   1.242   3.118   4.207  0.2206  0.1693  0.2733
 9366SOL    HW139731   1.305   3.082   4.269 -3.1796 -3.1373  1.8476
 9366SOL    HW239732   1.275   3.207   4.191  1.2572 -0.1242  0.7850
 9367SOL     OW39733   3.139   3.375   2.198 -0.2030  0.6202  0.3533
 9367SOL    HW139734   3.232   3.363   2.182 -0.5387 -0.6384 -0.6341
 9367SOL    HW239735   3.129   3.438   2.270  1.9352  2.8923 -1.3225
 9368SOL     OW39736   1.959   0.177   1.929  0.1695  0.4664 -0.6817
 9368SOL    HW139737   1.910   0.193   1.848  0.1355 -2.1252 -1.1717
 9368SOL    HW239738   2.045   0.181   1.888  0.1380  1.4751 -0.6516
 9369SOL     OW39739   0.108   3.213   2.486 -0.5519 -0.1634 -0.4593
 9369SOL    HW139740   0.199   3.229   2.513 -0.9563  0.3272  0.6181
 9369SOL    HW239741   0.097   3.122   2.513 -1.3294  0.2934  0.7404
 9370SOL     OW39742   4.371   0.605  11.151 -0.6269  0.1489 -0.1048
 9370SOL    HW139743   4.334   0.639  11.233 -1.0170 -0.1833 -0.1453
 9370SOL    HW239744   4.441   0.550  11.185  0.7401  2.3137  0.6218
 9371SOL     OW39745   1.844   3.407   7.854  0.1090  0.6543  0.7233
 9371SOL    HW139746   1.758   3.407   7.812 -0.5380 -0.3624  2.0645
 9371SOL    HW239747   1.864   3.498   7.878  2.1724  0.9797 -2.2352
 9372SOL     OW39748   2.555   2.851  14.114 -0.3223  0.1627 -0.2191
 9372SOL    HW139749   2.508   2.797  14.049  1.5849 -1.0419 -0.5817
 9372SOL    HW239750   2.603   2.785  14.163 -1.0599 -0.6302 -0.5560
 9373SOL     OW39751   0.281   4.284   1.632  0.2984  0.1413 -0.2390
 9373SOL    HW139752   0.229   4.337   1.692  0.9560  0.4836  0.0216
 9373SOL    HW239753   0.221   4.219   1.594  0.2889 -0.9181  1.6122
 9374SOL     OW39754   1.434   1.903   4.587 -0.3053 -0.0131 -0.5240
 9374SOL    HW139755   1.380   1.894   4.665  0.8558  0.7591  0.3722
 9374SOL    HW239756   1.427   1.998   4.574  1.6430  0.0934 -0.7429
 9375SOL     OW39757   2.194   0.151   4.213 -0.3370 -0.2230  0.5147
 9375SOL    HW139758   2.167   0.063   4.186  0.1293  0.4401 -2.1246
 9375SOL    HW239759   2.248   0.171   4.136  0.4547 -2.9190  0.3558
 9376SOL     OW39760   3.591   0.555   6.598 -0.5659 -0.3191 -0.6401
 9376SOL    HW139761   3.581   0.498   6.522 -0.4569 -1.0595 -0.0975
 9376SOL    HW239762   3.596   0.486   6.664  0.1480 -0.3378 -0.7134
 9377SOL     OW39763   2.854   2.010   1.818  0.2067  0.0313  0.3526
 9377SOL    HW139764   2.881   1.923   1.848  0.0255 -0.4684 -0.9261
 9377SOL    HW239765   2.873   2.059   1.898 -2.7930  0.4350  0.8319
 9378SOL     OW39766   2.713   1.952   0.487 -0.4998  0.3263  0.0503
 9378SOL    HW139767   2.763   1.935   0.567 -0.8387  0.8629  0.3770
 9378SOL    HW239768   2.709   2.048   0.478  1.0177  0.3189 -0.7019
 9379SOL     OW39769   4.655   1.782  15.602  0.3421  0.7536 -0.2891
 9379SOL    HW139770   4.613   1.799  15.518  1.0983  2.1792 -0.3878
 9379SOL    HW239771   4.606   1.851  15.646 -0.3260  1.2760 -1.8635
 9380SOL     OW39772   3.933   3.597  12.080 -0.2642  0.0583  0.1249
 9380SOL    HW139773   3.933   3.678  12.028 -1.7403  1.2351  1.9301
 9380SOL    HW239774   3.841   3.589  12.104 -0.2753 -1.2355 -0.3868
 9381SOL     OW39775   3.041   3.740  15.829  0.2936 -0.2899 -0.7592
 9381SOL    HW139776   3.102   3.732  15.756  1.3939  1.5903 -0.0447
 9381SOL    HW239777   3.039   3.648  15.854  1.4248 -0.3730 -0.9889
 9382SOL     OW39778   2.547   0.754  16.613  0.1464 -0.0014  0.3307
 9382SOL    HW139779   2.498   0.808  16.550  0.0906  0.3333  0.6651
 9382SOL    HW239780   2.639   0.780  16.606 -0.3213  1.8532  1.0814
 9383SOL     OW39781   4.085   3.042   8.734  0.7515 -0.2275  0.0605
 9383SOL    HW139782   4.180   3.046   8.730  0.6589  1.7032 -0.2602
 9383SOL    HW239783   4.064   2.983   8.807  0.2013 -0.6042 -0.3953
 9384SOL     OW39784   1.668   0.844   2.839  0.4334 -0.7283 -0.1950
 9384SOL    HW139785   1.751   0.840   2.887  0.3779  1.4208  0.0962
 9384SOL    HW239786   1.668   0.936   2.811  3.1037 -0.8820 -0.6849
 9385SOL     OW39787   4.396   0.560   9.106 -0.3119  0.0477  0.5826
 9385SOL    HW139788   4.445   0.632   9.068 -1.0148  0.8375  1.1901
 9385SOL    HW239789   4.344   0.544   9.027 -0.7907  3.7878  0.1653
 9386SOL     OW39790   3.663   3.267   4.494  0.2960 -0.3618  0.1603
 9386SOL    HW139791   3.615   3.289   4.414 -1.4628  0.3265  1.4062
 9386SOL    HW239792   3.599   3.251   4.563 -1.4063  3.2265 -0.5934
 9387SOL     OW39793   2.564   3.626   8.102  0.5173 -0.0970 -0.0514
 9387SOL    HW139794   2.635   3.562   8.100  0.3694 -0.2831  0.5861
 9387SOL    HW239795   2.556   3.651   8.194 -0.4086 -1.7864  0.3326
 9388SOL     OW39796   0.452   2.056   4.275 -0.2766 -0.6039 -0.5470
 9388SOL    HW139797   0.473   2.015   4.359  0.8697 -1.9593 -1.4995
 9388SOL    HW239798   0.380   2.115   4.296 -0.2689 -1.1399  1.0587
 9389SOL     OW39799   2.340   1.516   2.370 -0.2427 -0.0692  0.2505
 9389SOL    HW139800   2.434   1.535   2.372 -0.0189 -1.4229  2.8209
 9389SOL    HW239801   2.303   1.584   2.313 -0.4471  0.4975  1.0573
 9390SOL     OW39802   3.572   0.050   6.805  0.0347 -0.1196 -0.3742
 9390SOL    HW139803   3.626   0.051   6.727 -1.2813 -1.7991 -1.3225
 9390SOL    HW239804   3.509   4.719   6.779  0.3040 -0.0364 -1.2328
 9391SOL     OW39805   0.669   3.232   6.594 -0.3616 -0.3965 -0.4844
 9391SOL    HW139806   0.755   3.224   6.552  0.3931 -0.6496  1.1020
 9391SOL    HW239807   0.691   3.304   6.654  0.8886 -2.2940  1.3017
 9392SOL     OW39808   0.642   1.685   3.496 -0.1214 -0.3320 -0.0012
 9392SOL    HW139809   0.575   1.669   3.429  0.9543 -0.3114 -1.0806
 9392SOL    HW239810   0.685   1.601   3.505 -0.9116 -0.8493 -1.0291
 9393SOL     OW39811   3.663   1.279  11.714  0.3446 -0.6913 -0.4283
 9393SOL    HW139812   3.624   1.237  11.637 -3.2785 -1.5044  1.8575
 9393SOL    HW239813   3.610   1.359  11.713  0.3323 -0.7094 -1.2601
 9394SOL     OW39814   2.936   0.538  14.488 -0.2634 -0.8163 -0.3182
 9394SOL    HW139815   2.849   0.578  14.486 -1.8173 -4.0752  2.6521
 9394SOL    HW239816   2.909   0.447  14.500 -0.3536 -0.8725 -0.9978
 9395SOL     OW39817   1.972   3.494  10.133  0.3339 -0.4736  0.2456
 9395SOL    HW139818   1.890   3.505  10.182 -0.2881 -0.9039 -0.6944
 9395SOL    HW239819   2.037   3.545  10.181  1.5181 -0.2908 -1.5357
 9396SOL     OW39820   4.254   2.727   2.472  0.1711  0.5080 -0.2472
 9396SOL    HW139821   4.171   2.770   2.450 -0.3617  0.7364  2.2608
 9396SOL    HW239822   4.229   2.635   2.479  1.7752  0.0551 -0.3530
 9397SOL     OW39823   0.351   0.149   2.246  0.0015  0.0831 -0.1434
 9397SOL    HW139824   0.395   0.137   2.330  0.1711  0.3260 -0.1982
 9397SOL    HW239825   0.260   0.154   2.275 -0.0499 -2.2347  0.0990
 9398SOL     OW39826   4.647   2.249   3.842 -0.6145  0.1448  0.1786
 9398SOL    HW139827   4.591   2.176   3.815 -0.9656  0.8422 -0.9748
 9398SOL    HW239828   4.730   2.210   3.869 -1.8591 -2.0338  0.8995
 9399SOL     OW39829   4.647   1.309   8.370  0.3084  0.2549  0.6979
 9399SOL    HW139830   4.713   1.297   8.438  0.4117  0.1271  0.5756
 9399SOL    HW239831   4.690   1.294   8.285 -0.0917 -3.0640  1.0822
 9400SOL     OW39832   4.486   1.187   5.148 -0.7939 -0.2986 -0.0452
 9400SOL    HW139833   4.506   1.251   5.079 -0.6505 -1.4633 -1.0823
 9400SOL    HW239834   4.444   1.244   5.212  1.2378  1.2658 -0.1247
 9401SOL     OW39835   3.852   0.448   1.176 -0.7800 -0.0739 -0.2790
 9401SOL    HW139836   3.918   0.480   1.237  0.1626 -0.8135 -0.9113
 9401SOL    HW239837   3.865   0.499   1.097 -0.8516 -2.5118 -1.8633
 9402SOL     OW39838   2.572   2.187  12.967 -0.2071  0.2502 -0.3358
 9402SOL    HW139839   2.543   2.107  12.925  0.6753  0.0591 -0.5794
 9402SOL    HW239840   2.498   2.198  13.026  1.8858  0.4826  2.2469
 9403SOL     OW39841   1.988   0.848   6.675  0.1662 -0.5030  0.5598
 9403SOL    HW139842   2.043   0.925   6.691 -0.6011  0.1502  0.1125
 9403SOL    HW239843   2.008   0.825   6.585  0.8854  2.9599 -0.1945
 9404SOL     OW39844   3.133   1.173   6.556 -0.2005  0.1151  0.4142
 9404SOL    HW139845   3.187   1.117   6.612 -0.4660  0.0183  0.5748
 9404SOL    HW239846   3.080   1.105   6.517  0.9865  0.0994 -1.1479
 9405SOL     OW39847   4.579   2.513   1.084  0.8126  0.5646  0.4986
 9405SOL    HW139848   4.585   2.438   1.025  0.3624  0.4723  0.5715
 9405SOL    HW239849   4.523   2.570   1.031 -2.3736 -1.3542  1.7749
 9406SOL     OW39850   2.051   1.685   4.680 -0.1971 -0.2534  0.2267
 9406SOL    HW139851   1.966   1.724   4.659 -0.2454  2.1905  4.9186
 9406SOL    HW239852   2.047   1.617   4.613  0.5511  0.9274 -1.0188
 9407SOL     OW39853   1.359   4.142   3.825 -0.3855  0.1345  0.4898
 9407SOL    HW139854   1.352   4.050   3.799  0.3189 -0.3473  2.0083
 9407SOL    HW239855   1.278   4.182   3.795  1.8078  4.6075  0.4872
 9408SOL     OW39856   3.572   1.966   6.535 -0.3283 -0.2752  0.5971
 9408SOL    HW139857   3.667   1.957   6.546 -0.0237  1.8148 -0.2661
 9408SOL    HW239858   3.544   1.986   6.625 -3.0711  1.3830 -0.6272
 9409SOL     OW39859   3.722   2.157   5.842  0.1577  0.2913  0.3758
 9409SOL    HW139860   3.705   2.116   5.927  3.3823  0.5976  1.1890
 9409SOL    HW239861   3.722   2.249   5.869  1.1874  0.1396  0.9147
 9410SOL     OW39862   2.726   1.007   6.827  0.2837  0.2385 -0.1699
 9410SOL    HW139863   2.696   0.947   6.758 -1.6158  5.4768 -3.9065
 9410SOL    HW239864   2.820   1.014   6.814  0.1467 -0.3305 -1.4515
 9411SOL     OW39865   3.775   0.531  10.366  0.2239  0.0909  0.1950
 9411SOL    HW139866   3.690   0.526  10.320 -0.5516  0.3459  1.6069
 9411SOL    HW239867   3.761   0.603  10.427  1.7939 -1.0728  1.9112
 9412SOL     OW39868   3.619   2.946  13.110 -0.5291 -0.2025  0.1535
 9412SOL    HW139869   3.620   2.952  13.205 -1.4076 -0.5538  0.1836
 9412SOL    HW239870   3.537   2.985  13.079 -0.2211 -0.0273 -0.4404
 9413SOL     OW39871   0.126   1.287   1.042  0.3617 -0.0933  0.2243
 9413SOL    HW139872   0.094   1.281   0.952 -1.4422  0.9789  0.7925
 9413SOL    HW239873   0.164   1.201   1.057 -2.0475 -1.0625  0.7665
 9414SOL     OW39874   1.745   2.001   7.445 -0.5126 -0.2175 -0.0381
 9414SOL    HW139875   1.668   1.984   7.391 -0.5795 -0.5364  0.1633
 9414SOL    HW239876   1.703   2.013   7.530 -1.0978 -0.6962 -0.2614
 9415SOL     OW39877   2.674   2.429   8.767  0.2482  0.3516 -0.2446
 9415SOL    HW139878   2.655   2.518   8.737 -2.7698 -0.7451 -1.5840
 9415SOL    HW239879   2.669   2.385   8.683  0.1987 -1.2719  0.5971
 9416SOL     OW39880   2.485   2.435   6.991  0.7939  0.1154  0.3528
 9416SOL    HW139881   2.575   2.466   7.008  1.1686 -0.4442 -0.6414
 9416SOL    HW239882   2.488   2.449   6.897  1.0065 -0.0864  0.3302
 9417SOL     OW39883   0.937   2.514  13.513  0.1967  0.4781 -0.1140
 9417SOL    HW139884   0.970   2.425  13.521 -1.8264 -0.4411 -1.8570
 9417SOL    HW239885   0.899   2.517  13.425 -0.1731 -2.4515 -0.0544
 9418SOL     OW39886   0.703   2.851   2.180 -0.4673 -0.0119 -0.2900
 9418SOL    HW139887   0.629   2.898   2.219 -2.0503 -0.9020 -2.1919
 9418SOL    HW239888   0.761   2.844   2.255 -1.3205  0.5535  0.4166
 9419SOL     OW39889   4.198   0.491   8.915 -0.4721 -0.1227 -0.0646
 9419SOL    HW139890   4.160   0.409   8.948 -0.5418  0.7277  1.9804
 9419SOL    HW239891   4.260   0.452   8.854  1.1053 -1.3051  2.2863
 9420SOL     OW39892   4.542   3.088   4.627  0.1822 -0.3750 -0.3563
 9420SOL    HW139893   4.556   3.112   4.719 -1.7737 -2.5059  0.4872
 9420SOL    HW239894   4.606   3.016   4.621 -0.3331 -0.8680  0.0646
 9421SOL     OW39895   0.454   3.927   3.405  0.6174 -0.2346 -0.5773
 9421SOL    HW139896   0.410   4.009   3.426  1.6758 -0.2417  1.6808
 9421SOL    HW239897   0.462   3.929   3.310  0.3239  0.4488 -0.5847
 9422SOL     OW39898   3.219   0.735   1.240  0.8368  0.2828 -0.3245
 9422SOL    HW139899   3.165   0.656   1.245  1.8210 -0.4867 -1.7229
 9422SOL    HW239900   3.296   0.708   1.189  0.6305 -1.0204  0.0756
 9423SOL     OW39901   3.736   0.951   2.546 -0.2471  0.2810 -0.8135
 9423SOL    HW139902   3.797   1.025   2.557 -0.5496  0.3010  0.6550
 9423SOL    HW239903   3.662   0.972   2.602 -0.7754 -2.0394 -0.6730
 9424SOL     OW39904   0.311   2.261   8.723  0.0243  0.3588  0.3210
 9424SOL    HW139905   0.270   2.327   8.779  1.1899  0.8394  0.5885
 9424SOL    HW239906   0.252   2.271   8.648  0.6724 -1.3757 -0.4237
 9425SOL     OW39907   2.248   1.291   8.472  0.2968  0.0045  0.3056
 9425SOL    HW139908   2.158   1.290   8.439  0.2194  0.5320  0.4948
 9425SOL    HW239909   2.292   1.269   8.390 -0.5711  3.6897 -1.1804
 9426SOL     OW39910   2.039   4.351   4.886  0.2248  0.4937  0.3634
 9426SOL    HW139911   1.950   4.381   4.866 -0.9011 -2.1936  1.2928
 9426SOL    HW239912   2.026   4.311   4.972  0.4638 -0.0090  0.1689
 9427SOL     OW39913   3.546   2.718   8.897 -0.3753  0.1164 -0.3563
 9427SOL    HW139914   3.461   2.733   8.938 -0.1741 -1.2801  0.5650
 9427SOL    HW239915   3.594   2.698   8.977 -0.5163 -2.3862 -0.9278
 9428SOL     OW39916   2.247   3.250   3.917 -0.1450 -0.0936 -0.0889
 9428SOL    HW139917   2.284   3.170   3.953  0.2376  0.2054  0.1810
 9428SOL    HW239918   2.212   3.287   3.999 -1.6924 -0.1260 -0.7311
 9429SOL     OW39919   3.322   3.713   4.942  0.1673  0.2878  0.1719
 9429SOL    HW139920   3.304   3.798   4.903 -0.9409 -0.0285  0.0174
 9429SOL    HW239921   3.407   3.733   4.981  0.1957  0.6559 -0.0804
 9430SOL     OW39922   1.671   4.338  16.447 -0.5012 -0.3533 -0.3928
 9430SOL    HW139923   1.740   4.287  16.489  0.2503  2.0920  1.3705
 9430SOL    HW239924   1.599   4.275  16.447 -1.1932  0.4075  1.4168
 9431SOL     OW39925   4.273   4.197   1.993  0.1245 -0.2241 -0.1205
 9431SOL    HW139926   4.280   4.175   1.900 -0.1027 -0.6325 -0.0398
 9431SOL    HW239927   4.300   4.289   1.991  1.2380 -0.5909 -1.6618
 9432SOL     OW39928   3.036   2.988   1.752  0.1130  0.6449 -0.4616
 9432SOL    HW139929   2.941   2.985   1.755  0.2314 -1.5259  1.5590
 9432SOL    HW239930   3.043   3.082   1.736  0.6844  0.4399 -1.4159
 9433SOL     OW39931   4.317   1.342   6.234  0.2031 -0.1244  0.3151
 9433SOL    HW139932   4.405   1.308   6.248  1.0132  1.4366 -1.0432
 9433SOL    HW239933   4.269   1.266   6.268 -0.4442 -0.0260 -0.3878
 9434SOL     OW39934   1.362   2.692  15.793 -0.1371  0.0435  0.2922
 9434SOL    HW139935   1.315   2.747  15.857 -3.8847 -1.2349 -1.3332
 9434SOL    HW239936   1.452   2.699  15.822 -0.8576 -0.6615  2.6886
 9435SOL     OW39937   1.455   1.229   3.014 -0.0297 -0.2739  0.0423
 9435SOL    HW139938   1.519   1.249   3.082 -0.2898  0.1048  0.1772
 9435SOL    HW239939   1.387   1.290   3.043 -1.1378 -1.7664  0.5486
 9436SOL     OW39940   1.056   1.099   7.651  0.2752  0.1754  0.0883
 9436SOL    HW139941   1.029   1.157   7.722 -1.7286  0.1780 -0.6775
 9436SOL    HW239942   1.151   1.111   7.653  0.4013 -0.4575 -2.0201
 9437SOL     OW39943   2.377   2.575  15.445 -0.3166  0.0296 -0.1166
 9437SOL    HW139944   2.433   2.650  15.425  0.0755  0.0345  1.0129
 9437SOL    HW239945   2.427   2.496  15.428 -0.2665 -0.4435  2.2151
 9438SOL     OW39946   1.424   0.821   6.248  0.2439 -0.0018 -0.4521
 9438SOL    HW139947   1.486   0.893   6.260  0.9436 -0.9281  1.3404
 9438SOL    HW239948   1.409   0.787   6.336 -2.8100  1.3810 -0.4294
 9439SOL     OW39949   0.608   3.379   7.174 -0.0612 -0.5365  0.0318
 9439SOL    HW139950   0.692   3.404   7.138 -0.5147  0.0809 -0.5961
 9439SOL    HW239951   0.626   3.300   7.224  2.2296 -1.4692 -2.2741
 9440SOL     OW39952   3.732   3.995   4.440 -0.1183 -0.0191  0.2574
 9440SOL    HW139953   3.784   4.057   4.492 -1.2709  2.4519 -1.5475
 9440SOL    HW239954   3.674   4.051   4.389 -0.1272 -0.1600  0.1139
 9441SOL     OW39955   1.588   3.717   8.574  0.5045  0.5203  0.2101
 9441SOL    HW139956   1.508   3.687   8.531  0.9658 -1.0985  0.4863
 9441SOL    HW239957   1.564   3.809   8.566 -0.4645  0.2282 -0.2292
 9442SOL     OW39958   2.332   4.563  16.386  0.4833  0.4625  0.2963
 9442SOL    HW139959   2.366   4.624  16.452 -0.6517 -1.1167  2.3367
 9442SOL    HW239960   2.350   4.481  16.432  3.1675  0.9765  0.1834
 9443SOL     OW39961   3.067   3.185  12.935 -0.4602  0.5445 -0.1161
 9443SOL    HW139962   2.990   3.224  12.975 -1.0445 -2.3407  1.5465
 9443SOL    HW239963   3.142   3.240  12.957  0.0034 -0.7305  1.4574
 9444SOL     OW39964   1.557   3.994   6.303 -0.2492  0.6997  0.0321
 9444SOL    HW139965   1.537   3.944   6.383  1.1709  0.1750  0.0583
 9444SOL    HW239966   1.652   4.008   6.304  0.0553 -1.4388  0.9769
 9445SOL     OW39967   3.925   1.464   1.177  0.3507  0.3994  0.5155
 9445SOL    HW139968   3.906   1.501   1.091  0.9001  1.2616  0.7683
 9445SOL    HW239969   3.875   1.523   1.234  0.6388  0.5892  0.5700
 9446SOL     OW39970   0.657   0.594  14.732 -0.5486  0.0225 -0.0030
 9446SOL    HW139971   0.685   0.662  14.794 -0.3732  0.9639 -1.1254
 9446SOL    HW239972   0.659   0.514  14.785 -1.8544 -0.1044 -0.1599
 9447SOL     OW39973   4.286   1.463   7.083 -0.1669 -0.3160 -0.3815
 9447SOL    HW139974   4.245   1.505   7.008 -0.3149 -1.8618 -1.1584
 9447SOL    HW239975   4.278   1.539   7.142 -2.5451 -0.1019 -0.9784
 9448SOL     OW39976   0.372   0.109   5.872 -0.1460 -0.0757 -0.4128
 9448SOL    HW139977   0.442   0.145   5.926 -0.4614 -0.1856  0.0752
 9448SOL    HW239978   0.350   0.032   5.925  3.9717 -1.2895 -0.5303
 9449SOL     OW39979   4.334   0.188  14.154  0.2447  0.0797  0.0766
 9449SOL    HW139980   4.374   0.185  14.067  4.3375 -1.6524  1.9818
 9449SOL    HW239981   4.399   0.136  14.201 -0.1474  0.3527  0.9127
 9450SOL     OW39982   2.216   4.010   6.658 -0.1249  0.3158 -0.0090
 9450SOL    HW139983   2.304   4.039   6.634 -0.5217 -0.7614 -2.7895
 9450SOL    HW239984   2.173   4.088   6.692  0.6087 -0.5480  2.9037
 9451SOL     OW39985   4.528   0.416   8.024  0.6460 -0.2071  0.5146
 9451SOL    HW139986   4.562   0.444   7.939  1.8189 -0.7697  0.8036
 9451SOL    HW239987   4.439   0.393   7.998  0.7761 -0.4984  0.3209
 9452SOL     OW39988   0.714   2.896   4.836  0.0866  0.4116 -0.2158
 9452SOL    HW139989   0.642   2.938   4.788  0.6804  0.9594 -0.6381
 9452SOL    HW239990   0.668   2.857   4.910  1.2459 -0.3740  0.0954
 9453SOL     OW39991   2.839   4.120  16.026  0.1554  0.7639 -0.2053
 9453SOL    HW139992   2.835   4.026  16.045 -0.9587  0.9107  0.2995
 9453SOL    HW239993   2.747   4.147  16.033  0.6600  2.2917  0.4612
 9454SOL     OW39994   3.467   2.339   3.375 -0.0918  0.2741  0.3244
 9454SOL    HW139995   3.562   2.329   3.378 -0.2498 -1.8496 -2.0329
 9454SOL    HW239996   3.466   2.409   3.440  0.4596  0.3216  0.2753
 9455SOL     OW39997   0.875   2.897   1.836  0.1222 -0.1047  0.0936
 9455SOL    HW139998   0.945   2.833   1.833  0.9838  0.8154  0.6235
 9455SOL    HW239999   0.815   2.881   1.763  0.7340  0.4999 -0.5347
 9456SOL     OW40000   3.530   0.296  12.353 -0.2375 -0.2449 -0.3274
 9456SOL    HW140001   3.579   0.289  12.434 -1.6628 -0.4354  0.5199
 9456SOL    HW240002   3.597   0.302  12.285  1.6495  1.8199  1.7152
 9457SOL     OW40003   0.518   0.856  12.195  0.7421 -0.0397  0.3484
 9457SOL    HW140004   0.562   0.903  12.267  0.0017  2.1610 -0.6390
 9457SOL    HW240005   0.577   0.783  12.177  0.8748 -0.0252  0.7177
 9458SOL     OW40006   2.561   0.255   9.793 -0.4099 -0.3864  0.0163
 9458SOL    HW140007   2.656   0.257   9.808 -0.3509 -1.7725 -0.1269
 9458SOL    HW240008   2.530   0.278   9.881  1.3627  0.4622  0.4210
 9459SOL     OW40009   0.274   4.378   2.431  1.1214 -0.2566  0.5055
 9459SOL    HW140010   0.271   4.412   2.521 -0.1233 -0.8038  0.6645
 9459SOL    HW240011   0.349   4.318   2.437  0.1451 -1.4175  1.0280
 9460SOL     OW40012   2.806   1.665   7.000 -0.5503 -0.4011 -0.4666
 9460SOL    HW140013   2.714   1.640   6.989 -0.1157 -1.5615 -1.4817
 9460SOL    HW240014   2.820   1.684   6.908  0.6780 -1.7099 -0.5562
 9461SOL     OW40015   3.747   3.069   5.751 -0.5489  0.1344 -0.0945
 9461SOL    HW140016   3.784   3.039   5.668  0.6797  0.2563  0.4211
 9461SOL    HW240017   3.752   3.163   5.734 -0.2842  0.2999  0.9113
 9462SOL     OW40018   2.575   0.464  11.339 -0.2869  0.0137  0.5077
 9462SOL    HW140019   2.576   0.559  11.331 -2.1580  0.1062  1.6211
 9462SOL    HW240020   2.623   0.457  11.421  0.9996 -2.5461 -0.4307
 9463SOL     OW40021   0.837   3.017   7.412  0.4235 -0.1879 -0.1041
 9463SOL    HW140022   0.885   2.935   7.403 -0.4877 -0.7721  0.4542
 9463SOL    HW240023   0.915   3.066   7.439  1.2306 -2.5554  1.9251
 9464SOL     OW40024   4.606   1.913   3.046  0.0103 -0.6146 -0.1777
 9464SOL    HW140025   4.586   1.832   3.094 -0.5214  0.2548  1.0585
 9464SOL    HW240026   4.619   1.871   2.960 -1.1148 -0.5510 -0.3782
 9465SOL     OW40027   1.020   3.231   8.199 -0.2185  0.5569 -0.1129
 9465SOL    HW140028   1.086   3.297   8.221 -1.3242  1.2119  1.2614
 9465SOL    HW240029   0.955   3.233   8.269  0.8499 -0.1961  0.9036
 9466SOL     OW40030   3.253   1.813   3.593  0.4042 -0.2118  0.0934
 9466SOL    HW140031   3.237   1.873   3.666  0.2066 -0.4319  0.2284
 9466SOL    HW240032   3.175   1.759   3.584  0.5274 -0.4042  0.1931
 9467SOL     OW40033   1.845   1.626   1.583 -0.8430 -0.7447 -0.3254
 9467SOL    HW140034   1.921   1.666   1.540 -1.1996 -0.2685 -0.5102
 9467SOL    HW240035   1.800   1.707   1.608  1.6967  0.8792 -0.8888
 9468SOL     OW40036   0.873   1.870   4.678  0.2569 -0.0469 -0.2069
 9468SOL    HW140037   0.796   1.816   4.696 -0.8954  1.9330  0.8407
 9468SOL    HW240038   0.939   1.814   4.718  0.6938  0.6273  0.0336
 9469SOL     OW40039   2.294   3.692  14.115  0.4754 -0.5197  0.2461
 9469SOL    HW140040   2.266   3.767  14.063  2.4094  1.5740  2.2319
 9469SOL    HW240041   2.214   3.641  14.106 -0.1500  0.7164 -1.1727
 9470SOL     OW40042   0.509   0.374   8.911 -1.0582 -0.0872 -0.5572
 9470SOL    HW140043   0.492   0.346   9.001  2.3811 -0.3065  0.0425
 9470SOL    HW240044   0.498   0.469   8.912 -2.2078 -0.2286  0.6891
 9471SOL     OW40045   3.234   4.572   7.105 -0.1494 -0.0401  0.1231
 9471SOL    HW140046   3.319   4.532   7.122 -0.0289  0.1078 -0.1424
 9471SOL    HW240047   3.258   4.665   7.110 -0.0664 -0.0527 -0.0526
 9472SOL     OW40048   3.247   3.177   6.675  0.0948  0.1859 -0.3679
 9472SOL    HW140049   3.261   3.199   6.767 -0.7506 -3.5328  0.6861
 9472SOL    HW240050   3.215   3.087   6.661  0.3721  0.2720 -1.5144
 9473SOL     OW40051   2.686   0.560   2.292 -0.1225  0.1033  0.8791
 9473SOL    HW140052   2.660   0.500   2.362  1.8160 -2.9449 -1.0319
 9473SOL    HW240053   2.596   0.582   2.268  0.9980  2.5327 -1.0477
 9474SOL     OW40054   2.242   2.830  11.025  0.3501  0.1427  0.0451
 9474SOL    HW140055   2.265   2.762  11.088 -0.2356  0.3191  0.4484
 9474SOL    HW240056   2.308   2.894  11.051 -1.8027  2.2478  0.3652
 9475SOL     OW40057   3.894   3.183   6.919 -0.5420 -0.0083  0.3272
 9475SOL    HW140058   3.984   3.194   6.889 -0.4490 -0.6116  0.3799
 9475SOL    HW240059   3.838   3.176   6.842 -0.4448 -2.8693  0.4944
 9476SOL     OW40060   3.628   3.053   4.010  0.3410 -0.0839 -0.8378
 9476SOL    HW140061   3.641   3.128   3.951 -0.3077 -0.9675 -2.1015
 9476SOL    HW240062   3.683   3.063   4.088  1.6262  0.4765 -1.8074
 9477SOL     OW40063   1.968   3.681  15.599  0.2790  0.0736 -0.0847
 9477SOL    HW140064   1.885   3.717  15.568 -0.0685  0.5054  1.3573
 9477SOL    HW240065   1.965   3.595  15.555  1.8493 -0.1957  0.3649
 9478SOL     OW40066   3.601   1.382   0.278 -0.0976 -0.0519 -0.5780
 9478SOL    HW140067   3.659   1.451   0.247 -0.2471  0.3217 -0.0334
 9478SOL    HW240068   3.592   1.332   0.197  1.6012 -0.2167 -0.6520
 9479SOL     OW40069   0.599   2.162  14.058 -0.2688  0.4669 -0.1573
 9479SOL    HW140070   0.551   2.228  14.008  0.1438  0.1207 -1.0063
 9479SOL    HW240071   0.521   2.111  14.082 -0.5117  0.4945 -0.8719
 9480SOL     OW40072   3.613   2.310   0.720 -0.2794  0.4706  0.5637
 9480SOL    HW140073   3.642   2.385   0.772  2.0774  1.4724 -2.1689
 9480SOL    HW240074   3.703   2.293   0.690 -0.9544  0.0622 -1.2440
 9481SOL     OW40075   2.585   0.923   5.792 -0.0156  0.3048  0.2967
 9481SOL    HW140076   2.571   0.840   5.837 -0.1030  0.5708  0.7534
 9481SOL    HW240077   2.679   0.940   5.798 -0.0867  0.7633  0.0800
 9482SOL     OW40078   4.365   3.170   6.903 -0.0915  0.7457 -0.4239
 9482SOL    HW140079   4.420   3.095   6.882  0.7449  1.2788 -0.1381
 9482SOL    HW240080   4.293   3.162   6.840  1.4505  2.7098 -2.4358
 9483SOL     OW40081   0.728   2.362   8.866 -0.5387  0.5169  0.3511
 9483SOL    HW140082   0.648   2.330   8.908  0.7102 -3.1442 -0.0940
 9483SOL    HW240083   0.728   2.457   8.878  1.2853  0.6647 -0.9522
 9484SOL     OW40084   2.278   0.263   2.505  0.4092 -0.1641  0.1207
 9484SOL    HW140085   2.273   0.309   2.590  3.0236  1.9181 -0.8503
 9484SOL    HW240086   2.309   0.175   2.524 -0.5787 -0.8041 -1.3036
 9485SOL     OW40087   2.280   4.060   3.759  0.1732 -0.3933 -0.0391
 9485SOL    HW140088   2.302   4.142   3.714 -1.8176 -0.3000 -0.8722
 9485SOL    HW240089   2.195   4.035   3.723 -0.6792  2.8064 -0.2441
 9486SOL     OW40090   2.214   2.833   2.447 -0.3481  0.2692  0.3925
 9486SOL    HW140091   2.190   2.796   2.532  2.2761  0.7177  1.3451
 9486SOL    HW240092   2.192   2.764   2.384 -1.1825  2.1010 -1.3010
 9487SOL     OW40093   2.050   1.856   8.598  0.1193 -0.1452 -0.5401
 9487SOL    HW140094   2.043   1.795   8.672 -1.1100  1.1424  0.3924
 9487SOL    HW240095   2.113   1.807   8.544 -0.3110 -0.5360 -0.6879
 9488SOL     OW40096   3.735   2.277   4.466 -0.0829 -0.1487 -0.0964
 9488SOL    HW140097   3.705   2.248   4.380  0.1613  0.0585 -0.2524
 9488SOL    HW240098   3.828   2.288   4.444 -0.2702 -1.0810 -1.3327
 9489SOL     OW40099   0.201   3.612   3.262 -0.0584  0.5844  0.1313
 9489SOL    HW140100   0.291   3.625   3.234 -0.4747 -0.3715 -1.6130
 9489SOL    HW240101   0.224   3.566   3.343 -3.2168 -0.2792  0.5504
 9490SOL     OW40102   2.309   3.401   8.581 -0.2926  0.0917  0.1111
 9490SOL    HW140103   2.291   3.492   8.607 -0.7751  0.2956 -0.9462
 9490SOL    HW240104   2.219   3.369   8.576 -0.2727 -0.0140  0.4340
 9491SOL     OW40105   4.665   0.726   6.855  0.1777  0.2121 -0.7021
 9491SOL    HW140106   4.591   0.764   6.901 -0.0410 -0.5232 -0.4421
 9491SOL    HW240107   4.722   0.798   6.827  4.3724 -1.5480  3.2333
 9492SOL     OW40108   4.543   4.617  13.291 -0.1732  0.5170  1.0419
 9492SOL    HW140109   4.530   4.612  13.196  0.6118  0.4901  0.9364
 9492SOL    HW240110   4.463   4.658  13.324  0.4377  2.8536 -0.3747
 9493SOL     OW40111   2.069   3.850   0.516 -0.1945  0.2408  0.1494
 9493SOL    HW140112   2.080   3.898   0.434  1.2308 -0.6038 -0.1590
 9493SOL    HW240113   2.065   3.765   0.472 -2.3683 -0.9751  2.7223
 9494SOL     OW40114   2.840   3.708   2.732  0.1557 -0.5270 -0.5372
 9494SOL    HW140115   2.784   3.646   2.686  0.8125  0.0297 -2.0871
 9494SOL    HW240116   2.925   3.682   2.698  0.1983 -2.2553  0.8976
 9495SOL     OW40117   1.395   3.248  13.721  0.3327  0.1420  0.3664
 9495SOL    HW140118   1.311   3.292  13.734 -0.4688 -1.5300  0.8877
 9495SOL    HW240119   1.459   3.316  13.700 -0.3199  0.6034 -0.1319
 9496SOL     OW40120   3.359   3.093  16.486  0.4564  0.4138  0.2891
 9496SOL    HW140121   3.287   3.096  16.549  1.0495  1.9675  0.9153
 9496SOL    HW240122   3.341   3.006  16.451 -1.8388  0.9867  0.0835
 9497SOL     OW40123   0.575   3.788   7.446  0.5386 -0.1417 -0.2784
 9497SOL    HW140124   0.608   3.775   7.534  1.3821  3.4552 -0.0826
 9497SOL    HW240125   0.655   3.827   7.410 -0.2738 -0.9299 -2.9725
 9498SOL     OW40126   4.138   1.790   8.031  0.0283 -0.0761  0.0909
 9498SOL    HW140127   4.233   1.796   8.044  0.0908 -1.2537  0.1587
 9498SOL    HW240128   4.100   1.829   8.110 -0.3753  0.4533 -0.3641
 9499SOL     OW40129   0.362   1.388  12.270 -0.1648 -0.6264  0.1388
 9499SOL    HW140130   0.437   1.433  12.232  0.6017 -2.7314 -0.8088
 9499SOL    HW240131   0.365   1.305  12.223 -2.8710 -1.7367  1.9514
 9500SOL     OW40132   4.583   2.411  13.633  0.3925  0.0344 -1.4713
 9500SOL    HW140133   4.636   2.378  13.561  0.5962  1.6719 -2.0572
 9500SOL    HW240134   4.548   2.332  13.675  1.3103  0.6847  0.5478
 9501SOL     OW40135   2.560   1.170   5.134 -0.0070  0.0323  0.3168
 9501SOL    HW140136   2.497   1.233   5.169 -1.7692 -1.1591 -0.7065
 9501SOL    HW240137   2.528   1.102   5.194 -0.0458 -0.3362 -0.1223
 9502SOL     OW40138   3.214   3.644   7.062 -0.6004  0.3357  0.1996
 9502SOL    HW140139   3.165   3.696   6.999  0.7063  0.1813 -0.9509
 9502SOL    HW240140   3.267   3.715   7.100 -0.6896  0.4398  0.1298
 9503SOL     OW40141   2.793   0.819   9.205  0.5728 -0.4291  0.0453
 9503SOL    HW140142   2.732   0.843   9.275 -1.9526  0.5539 -2.5281
 9503SOL    HW240143   2.801   0.724   9.217  0.1376 -0.3191  1.2419
 9504SOL     OW40144   1.283   2.159   5.294  0.4998 -0.3440 -0.1518
 9504SOL    HW140145   1.214   2.167   5.360 -1.0438  0.3141 -1.8268
 9504SOL    HW240146   1.254   2.085   5.242  0.4238  0.1820 -0.8610
 9505SOL     OW40147   0.722   1.338   7.151  0.3649  0.5004 -0.4566
 9505SOL    HW140148   0.667   1.396   7.098  0.0968 -0.1735 -0.9108
 9505SOL    HW240149   0.764   1.278   7.090  0.8281 -0.2127  0.5626
 9506SOL     OW40150   1.654   4.257   9.841 -0.5320  0.1959 -0.1357
 9506SOL    HW140151   1.600   4.311   9.897 -0.6277 -0.5673  0.5103
 9506SOL    HW240152   1.692   4.197   9.905  3.8551  1.6412 -1.3693
 9507SOL     OW40153   0.695   1.758   9.682 -0.0652 -0.0609  0.2139
 9507SOL    HW140154   0.638   1.683   9.668  0.0229  0.0816 -0.8752
 9507SOL    HW240155   0.699   1.774   9.588 -0.8376  1.6927  0.4910
 9508SOL     OW40156   3.395   4.280   4.728  0.4846  0.6965 -0.0677
 9508SOL    HW140157   3.427   4.356   4.680  2.6657 -0.6308 -0.6978
 9508SOL    HW240158   3.402   4.202   4.673  3.1333  0.0028  1.2650
 9509SOL     OW40159   1.730   0.601  17.595 -0.1048 -0.1945  0.6240
 9509SOL    HW140160   1.676   0.678  17.577 -1.4496 -0.9846  1.2656
 9509SOL    HW240161   1.769   0.629  17.678  1.3467 -0.9344  0.1846
 9510SOL     OW40162   3.867   3.702  11.589 -0.0043 -0.3139 -0.0932
 9510SOL    HW140163   3.916   3.684  11.508 -1.4299 -4.0121 -0.1205
 9510SOL    HW240164   3.899   3.624  11.635 -0.2961 -0.2284  0.2515
 9511SOL     OW40165   1.295   2.623  13.821  0.4587 -0.2225 -0.0365
 9511SOL    HW140166   1.239   2.662  13.888  0.9063 -1.1201  0.8667
 9511SOL    HW240167   1.227   2.561  13.793  1.4127 -0.1853 -2.4756
 9512SOL     OW40168   4.432   2.192   5.834 -0.0050  0.1693  0.1210
 9512SOL    HW140169   4.410   2.104   5.805 -0.0616 -0.2101  1.3104
 9512SOL    HW240170   4.525   2.181   5.857 -0.3831  0.3462  1.7402
 9513SOL     OW40171   2.426   4.685   5.826  0.5623 -0.1494 -0.3245
 9513SOL    HW140172   2.495   4.734   5.871  0.6418  1.8326 -2.6001
 9513SOL    HW240173   2.471   4.671   5.742 -0.2212  2.5987 -1.1975
 9514SOL     OW40174   2.740   1.347   5.991 -0.2998  0.1829 -0.2675
 9514SOL    HW140175   2.743   1.252   5.985 -3.5051 -0.1036  2.0689
 9514SOL    HW240176   2.745   1.375   5.900  3.3566  0.1388 -0.0800
 9515SOL     OW40177   2.576   1.101  14.199 -0.0044 -0.7600  0.0000
 9515SOL    HW140178   2.638   1.032  14.176 -0.9074 -1.5011 -0.2191
 9515SOL    HW240179   2.510   1.043  14.237  0.4537  0.0104  1.9680
 9516SOL     OW40180   1.760   2.437   6.703 -0.7864 -0.1497  0.0914
 9516SOL    HW140181   1.832   2.376   6.716 -0.3992  0.0302 -1.2568
 9516SOL    HW240182   1.719   2.426   6.790  0.3199 -0.8185  0.5229
 9517SOL     OW40183   4.151   4.265   0.705  0.2756 -0.0252 -0.2919
 9517SOL    HW140184   4.244   4.247   0.691  0.0957 -0.2198 -1.2818
 9517SOL    HW240185   4.150   4.338   0.643  0.0471 -0.2753 -0.5830
 9518SOL     OW40186   3.643   3.878   4.683  0.1038  0.1963 -0.9726
 9518SOL    HW140187   3.694   3.886   4.603 -0.0060 -3.0506 -1.3673
 9518SOL    HW240188   3.566   3.930   4.658 -0.6850 -0.6841 -0.3656
 9519SOL     OW40189   1.905   2.938   4.438 -0.4604  0.4483  0.0741
 9519SOL    HW140190   1.851   2.861   4.457  1.4925 -0.9356  0.0381
 9519SOL    HW240191   1.901   2.982   4.522  2.8078  1.2427 -0.1824
 9520SOL     OW40192   0.417   0.520  15.234  0.3660  0.1242  0.1380
 9520SOL    HW140193   0.400   0.604  15.193  0.0146  1.1581  2.3788
 9520SOL    HW240194   0.392   0.457  15.166  1.7524 -0.5375  0.2255
 9521SOL     OW40195   0.253   3.592   6.491 -0.4395 -0.3193 -0.4605
 9521SOL    HW140196   0.287   3.547   6.569 -1.7841 -1.9215 -0.7883
 9521SOL    HW240197   0.308   3.548   6.427 -0.5831 -0.5700 -0.4148
 9522SOL     OW40198   1.147   1.482  12.796  0.5937 -0.5703  0.2196
 9522SOL    HW140199   1.198   1.417  12.747  0.4319 -0.8010  0.3601
 9522SOL    HW240200   1.063   1.441  12.816 -0.2252  1.5141  1.0580
 9523SOL     OW40201   1.331   4.686   1.139 -0.6248  0.5615  0.4698
 9523SOL    HW140202   1.413   4.643   1.166 -0.8518 -1.5505 -2.1703
 9523SOL    HW240203   1.291   4.603   1.111  1.3682 -1.3875  3.3140
 9524SOL     OW40204   1.901   0.305   9.198  0.3520  0.6022  0.1806
 9524SOL    HW140205   1.957   0.235   9.166 -0.3908  0.5973 -1.1098
 9524SOL    HW240206   1.970   0.371   9.203 -0.0865  1.0035  0.9438
 9525SOL     OW40207   3.564   3.687   6.398 -0.1916  0.6296 -0.7330
 9525SOL    HW140208   3.520   3.755   6.346  0.8915  0.7176 -1.5159
 9525SOL    HW240209   3.607   3.638   6.328 -0.4646 -0.1848 -0.3256
 9526SOL     OW40210   1.682   3.803  12.871  0.2437 -0.4433 -0.6056
 9526SOL    HW140211   1.709   3.876  12.816  1.4659 -0.6633 -0.2923
 9526SOL    HW240212   1.588   3.814  12.861 -0.2054 -1.5617  2.3710
 9527SOL     OW40213   3.999   1.756   6.426  0.2230 -0.3963  0.2072
 9527SOL    HW140214   4.067   1.691   6.406  0.5383 -0.1536  0.5008
 9527SOL    HW240215   4.054   1.830   6.450 -0.6304  0.5103 -0.6114
 9528SOL     OW40216   4.236   0.025   8.821 -0.1571  0.4024  0.2357
 9528SOL    HW140217   4.246   4.683   8.873 -0.0001 -0.6972 -1.4585
 9528SOL    HW240218   4.171   0.002   8.754  0.2807 -1.0349  0.3117
 9529SOL     OW40219   2.392   3.399   9.424 -0.1038  0.3621  0.3079
 9529SOL    HW140220   2.473   3.366   9.462 -0.3668  0.0391  0.5959
 9529SOL    HW240221   2.378   3.479   9.475 -1.9096 -0.7841  1.6341
 9530SOL     OW40222   2.236   0.695   5.163  0.1727 -0.9023  0.0975
 9530SOL    HW140223   2.311   0.740   5.124  0.1599  0.7737  1.9901
 9530SOL    HW240224   2.266   0.689   5.254 -1.4899  1.4718  0.7971
 9531SOL     OW40225   2.995   3.774   8.714  0.0233  0.6293  0.7414
 9531SOL    HW140226   3.009   3.680   8.726 -0.6888  0.6545  1.6809
 9531SOL    HW240227   2.937   3.794   8.787 -1.5794  2.4301 -1.0151
 9532SOL     OW40228   1.652   2.670   0.568 -0.5331  0.1310  0.1681
 9532SOL    HW140229   1.728   2.693   0.621 -0.3636  1.2369 -0.5561
 9532SOL    HW240230   1.602   2.624   0.636  0.3594 -1.7611 -0.4514
 9533SOL     OW40231   4.674   3.121   1.757  0.3470  0.2555 -0.1209
 9533SOL    HW140232   0.019   3.168   1.775  0.5979  0.3736 -1.5811
 9533SOL    HW240233   4.665   3.063   1.832  0.1176  1.6306  0.9135
 9534SOL     OW40234   3.707   2.012   3.500 -0.1197  0.0556  0.4601
 9534SOL    HW140235   3.754   2.083   3.456 -0.0342  0.3167  0.9819
 9534SOL    HW240236   3.665   1.968   3.425 -0.9273 -1.1854  1.6389
 9535SOL     OW40237   4.564   2.576  17.013  0.4607  0.5418 -0.0021
 9535SOL    HW140238   4.539   2.662  16.978  1.2989  1.2878  1.2322
 9535SOL    HW240239   4.606   2.536  16.937 -0.9414 -1.6346  0.3986
 9536SOL     OW40240   1.045   3.969   4.701  0.3656 -0.2637  0.1992
 9536SOL    HW140241   0.959   4.011   4.709  0.7343  0.6173 -0.4472
 9536SOL    HW240242   1.012   3.880   4.715  0.0552 -0.2709 -0.5841
 9537SOL     OW40243   1.074   2.332   4.909  0.0663 -0.2487  0.6229
 9537SOL    HW140244   0.993   2.373   4.879  1.2301  0.9184 -0.9837
 9537SOL    HW240245   1.136   2.396   4.873 -0.0733 -0.1532  0.5491
 9538SOL     OW40246   0.217   2.879   4.375 -0.2547  0.2910 -0.2274
 9538SOL    HW140247   0.308   2.881   4.345 -0.0668 -3.3865  0.0992
 9538SOL    HW240248   0.171   2.855   4.295  1.6963 -0.7817 -1.0114
 9539SOL     OW40249   0.313   1.481   7.800  0.1300 -0.7093 -0.0521
 9539SOL    HW140250   0.367   1.406   7.823  0.2835 -1.1854 -1.9694
 9539SOL    HW240251   0.345   1.551   7.856 -0.8185  0.7308 -1.3236
 9540SOL     OW40252   1.484   3.198  12.186 -0.0916  0.1967 -0.0092
 9540SOL    HW140253   1.457   3.238  12.269 -0.8596 -0.1442 -0.0964
 9540SOL    HW240254   1.569   3.156  12.202 -1.1813 -1.7548  0.5651
 9541SOL     OW40255   0.623   0.439   6.872  0.1623  0.0044 -0.0888
 9541SOL    HW140256   0.531   0.413   6.886  1.2378 -2.9134  1.7527
 9541SOL    HW240257   0.614   0.534   6.875 -0.5834 -0.0697  0.0086
 9542SOL     OW40258   0.436   3.437   3.759  0.2750 -0.3573 -0.4051
 9542SOL    HW140259   0.482   3.483   3.828 -0.5017 -1.6892  1.0095
 9542SOL    HW240260   0.362   3.493   3.735  0.0808 -0.8988 -1.0722
 9543SOL     OW40261   3.844   4.404  12.402 -0.3757 -0.0289  0.4516
 9543SOL    HW140262   3.820   4.496  12.395 -1.2901 -0.3723 -1.0073
 9543SOL    HW240263   3.842   4.375  12.311 -1.2282  2.7474 -0.3868
 9544SOL     OW40264   3.317   0.617   2.149  0.3769 -0.0086  0.3614
 9544SOL    HW140265   3.308   0.534   2.103  1.7260 -1.1262  2.1027
 9544SOL    HW240266   3.408   0.615   2.180  0.5954 -2.6775 -0.4448
 9545SOL     OW40267   1.610   0.187   6.107  0.6461 -0.8333 -0.3693
 9545SOL    HW140268   1.522   0.218   6.127  1.1307 -0.6467  1.5190
 9545SOL    HW240269   1.616   0.100   6.147 -0.4030 -1.0637 -0.7108
 9546SOL     OW40270   0.998   0.928   1.426  0.0725 -0.1989  0.0782
 9546SOL    HW140271   1.075   0.873   1.416 -0.3006 -0.5636 -0.8274
 9546SOL    HW240272   1.035   1.014   1.443 -0.1964  0.2255 -1.4775
 9547SOL     OW40273   0.831   2.568   5.767 -0.0935  0.3095  0.2962
 9547SOL    HW140274   0.856   2.476   5.764 -1.3827  0.0404 -1.8570
 9547SOL    HW240275   0.842   2.587   5.673  0.7386  0.7119  0.4700
 9548SOL     OW40276   2.256   2.001  15.672 -0.1966  0.2352  0.5443
 9548SOL    HW140277   2.194   1.987  15.744  0.5087 -2.1545  0.6926
 9548SOL    HW240278   2.319   2.059  15.713 -2.0185  2.4822  0.1918
 9549SOL     OW40279   3.732   4.189   9.639  0.1865 -0.0295  0.1770
 9549SOL    HW140280   3.696   4.205   9.726 -1.3775  1.2457 -0.7003
 9549SOL    HW240281   3.683   4.110   9.616  2.4336 -0.9693 -1.4000
 9550SOL     OW40282   2.051   1.582   0.448 -0.1177  0.0483 -0.2534
 9550SOL    HW140283   2.103   1.535   0.383 -0.9386 -0.7953 -0.3019
 9550SOL    HW240284   2.059   1.523   0.522 -0.7945  0.9954  0.5763
 9551SOL     OW40285   3.544   1.012  14.771 -0.3612 -0.0666 -0.3381
 9551SOL    HW140286   3.452   1.037  14.776 -0.4747 -0.8626  1.6448
 9551SOL    HW240287   3.553   0.937  14.829 -0.8016  1.1847  1.3407
 9552SOL     OW40288   4.200   1.769   2.093 -0.3769  0.2606 -0.0738
 9552SOL    HW140289   4.164   1.857   2.102  0.0872  0.3604  0.7675
 9552SOL    HW240290   4.122   1.717   2.075  0.7718 -1.5056  0.0771
 9553SOL     OW40291   3.238   3.563   6.191 -0.1528  0.2015  0.0779
 9553SOL    HW140292   3.297   3.552   6.266 -1.6600  0.8556  1.3628
 9553SOL    HW240293   3.165   3.508   6.218 -0.6913  0.4414 -0.8815
 9554SOL     OW40294   0.033   4.414  10.400 -0.0744 -0.9932 -0.0055
 9554SOL    HW140295   0.126   4.402  10.419  0.5425  2.9453 -0.4615
 9554SOL    HW240296   0.034   4.357  10.323  1.4087  1.9270 -2.1568
 9555SOL     OW40297   2.023   2.269  17.355  0.4875  0.2449 -0.1958
 9555SOL    HW140298   1.959   2.301  17.292 -1.7425 -1.4085  1.2242
 9555SOL    HW240299   1.970   2.243  17.430 -0.2368  2.2027 -0.0388
 9556SOL     OW40300   1.942   1.152   2.566 -0.3220  0.5984 -0.9954
 9556SOL    HW140301   1.879   1.161   2.637 -0.1910  1.2662 -0.9586
 9556SOL    HW240302   1.913   1.220   2.505 -0.5780  1.3362 -0.0566
 9557SOL     OW40303   1.882   3.132  10.494 -0.1980  0.5026  0.3353
 9557SOL    HW140304   1.867   3.058  10.553  1.4723  0.2676  0.4746
 9557SOL    HW240305   1.874   3.081  10.414  0.2043  2.8466 -1.1707
 9558SOL     OW40306   1.459   3.244   9.210 -0.2326  0.9668 -0.0836
 9558SOL    HW140307   1.398   3.186   9.255  2.6719 -2.6478 -0.8322
 9558SOL    HW240308   1.425   3.330   9.234 -0.4482  0.6672  0.6933
 9559SOL     OW40309   3.288   4.552   6.412 -0.1420 -0.6542  0.2402
 9559SOL    HW140310   3.217   4.574   6.351 -1.0917 -0.8710  1.2686
 9559SOL    HW240311   3.254   4.482   6.469 -2.2352  0.4461  0.3298
 9560SOL     OW40312   0.776   0.176  10.622 -0.0754  0.2960 -0.1038
 9560SOL    HW140313   0.787   0.205  10.532  0.5978  0.6480  0.0939
 9560SOL    HW240314   0.843   0.110  10.641 -0.8982 -0.8937 -1.3264
 9561SOL     OW40315   4.249   2.640  11.265  0.1154 -0.4960  0.0155
 9561SOL    HW140316   4.277   2.548  11.277  2.8403  0.2950 -0.1479
 9561SOL    HW240317   4.311   2.671  11.331  0.5763 -0.1257 -0.5954
 9562SOL     OW40318   3.245   3.671   7.476  0.2196  0.5080  0.1894
 9562SOL    HW140319   3.223   3.763   7.491  3.1167  1.4227 -1.1424
 9562SOL    HW240320   3.163   3.635   7.510  0.6091 -0.5320  0.0269
 9563SOL     OW40321   1.082   0.371   8.335 -0.1392 -0.1602  0.1227
 9563SOL    HW140322   1.060   0.417   8.254  0.2907  1.1819  0.7617
 9563SOL    HW240323   1.116   0.287   8.305 -0.1883 -0.2672  0.3648
 9564SOL     OW40324   1.810   0.524  12.747  0.3008  0.2491  0.1791
 9564SOL    HW140325   1.811   0.430  12.767  0.0816  0.5292  1.4999
 9564SOL    HW240326   1.779   0.517  12.657 -3.1998 -3.2916  1.6534
 9565SOL     OW40327   4.233   3.144   1.991 -0.4397  0.9497 -0.5554
 9565SOL    HW140328   4.314   3.183   2.023  0.6997 -0.4032 -1.8056
 9565SOL    HW240329   4.277   3.081   1.934  0.8649  1.7569 -0.4441
 9566SOL     OW40330   3.036   0.605   1.858 -0.0486 -0.7283 -0.2461
 9566SOL    HW140331   3.084   0.669   1.910  2.5542 -1.0146 -2.2822
 9566SOL    HW240332   2.964   0.593   1.920  0.7138 -0.8939  0.6066
 9567SOL     OW40333   0.058   0.993   0.883  0.2687 -0.0743 -0.4759
 9567SOL    HW140334   4.703   0.972   0.868 -0.2416  0.2933  2.1044
 9567SOL    HW240335   0.068   1.054   0.810  2.6921 -0.1395 -0.1858
 9568SOL     OW40336   3.782   1.657   2.689  0.4159  0.4662  0.2604
 9568SOL    HW140337   3.807   1.703   2.610  0.4502 -1.3402 -0.7860
 9568SOL    HW240338   3.822   1.708   2.759  0.0673 -0.9510  1.5018
 9569SOL     OW40339   1.412   1.829   7.048  0.2832 -0.8224 -0.6229
 9569SOL    HW140340   1.338   1.890   7.046  1.1284  0.2183 -0.0811
 9569SOL    HW240341   1.476   1.870   7.106  0.4328  0.0532 -1.4087
 9570SOL     OW40342   4.361   0.915  17.647 -0.0570  0.2754 -0.4686
 9570SOL    HW140343   4.372   0.976  17.574  0.3242 -0.3536 -0.9455
 9570SOL    HW240344   4.273   0.916  17.683  0.9947  0.0655  2.0870
 9571SOL     OW40345   4.539   1.096   6.192  0.3536 -0.0438 -0.1319
 9571SOL    HW140346   4.629   1.064   6.199 -0.1951 -1.9614 -1.8306
 9571SOL    HW240347   4.520   1.115   6.284  1.0495 -0.8989  0.1914
   4.73695   4.73695  17.74616
